    4    4  400    1
  0.5270948E+02  0.4269340E-09  0.2479760E-09  0.1991491E-08  0.5000000E-15
  1.000000000000000E-004
  CAR 
 gr                                      
     16    247     12
 
  0.0000000E+00  0.0000000E+00  0.0000000E+00  0.1157407E-02
    1      -22.218467
    2      -16.955207
    3      -15.950235
    4      -10.331766
    5       -9.227574
    6       -5.832121
    7       -5.774002
    8       -5.067766
    9       -1.087088
   10        0.528041
   11        1.328546
   12        1.713552
 
  0.4166667E-01  0.0000000E+00  0.0000000E+00  0.2314815E-02
    1      -22.208191
    2      -17.126038
    3      -15.764189
    4      -10.319507
    5       -9.217340
    6       -5.854935
    7       -5.816233
    8       -5.134995
    9       -1.004103
   10        0.541977
   11        1.342656
   12        1.727833
 
  0.8333333E-01  0.0000000E+00  0.0000000E+00  0.2314815E-02
    1      -22.177368
    2      -17.469167
    3      -15.375494
    4      -10.282746
    5       -9.186686
    6       -5.941230
    7       -5.922103
    8       -5.321293
    9       -0.770712
   10        0.583786
   11        1.384981
   12        1.770679
 
  0.1250000E+00  0.0000000E+00  0.0000000E+00  0.2314815E-02
    1      -22.126018
    2      -17.849165
    3      -14.919849
    4      -10.221542
    5       -9.135765
    6       -6.144183
    7       -6.030021
    8       -5.592602
    9       -0.421492
   10        0.653471
   11        1.455511
   12        1.842090
 
  0.1666667E+00  0.0000000E+00  0.0000000E+00  0.2314815E-02
    1      -22.054175
    2      -18.230585
    3      -14.433147
    4      -10.135992
    5       -9.064840
    6       -6.417899
    7       -6.173332
    8       -5.915440
    9        0.009199
   10        0.751033
   11        1.554224
   12        1.942066
 
  0.2083333E+00  0.0000000E+00  0.0000000E+00  0.2314815E-02
    1      -21.961887
    2      -18.602714
    3      -13.926751
    4      -10.026236
    5       -8.974286
    6       -6.753745
    7       -6.345654
    8       -6.265088
    9        0.495388
   10        0.876467
   11        1.681085
   12        2.070609
 
  0.2500000E+00  0.0000000E+00  0.0000000E+00  0.2314815E-02
    1      -21.849218
    2      -18.961260
    3      -13.405811
    4       -9.892463
    5       -8.864609
    6       -7.142548
    7       -6.625180
    8       -6.540276
    9        1.019044
   10        1.029759
   11        1.836047
   12        2.227715
 
  0.2916667E+00  0.0000000E+00  0.0000000E+00  0.2314815E-02
    1      -21.716248
    2      -19.304094
    3      -12.873548
    4       -9.734919
    5       -8.736459
    6       -7.575284
    7       -6.985140
    8       -6.750683
    9        1.210882
   10        1.567445
   11        2.019035
   12        2.413384
 
  0.3333333E+00  0.0000000E+00  0.0000000E+00  0.2314815E-02
    1      -21.563074
    2      -19.629982
    3      -12.332556
    4       -9.553911
    5       -8.590650
    6       -8.043534
    7       -7.338050
    8       -6.970896
    9        1.419798
   10        2.130836
   11        2.229931
   12        2.627608
 
  0.3750000E+00  0.0000000E+00  0.0000000E+00  0.2314815E-02
    1      -21.389811
    2      -19.938121
    3      -11.785301
    4       -9.349829
    5       -8.539706
    6       -8.428194
    7       -7.679257
    8       -7.195626
    9        1.656453
   10        2.468528
   11        2.700231
   12        2.870378
 
  0.4166667E+00  0.0000000E+00  0.0000000E+00  0.2314815E-02
    1      -21.196593
    2      -20.227939
    3      -11.234365
    4       -9.123158
    5       -9.057118
    6       -8.250328
    7       -8.005531
    8       -7.420315
    9        1.920771
   10        2.734410
   11        3.141678
   12        3.251675
 
  0.4583333E+00  0.0000000E+00  0.0000000E+00  0.2314815E-02
    1      -20.983584
    2      -20.499004
    3      -10.682595
    4       -9.589959
    5       -8.874507
    6       -8.314561
    7       -8.058567
    8       -7.641101
    9        2.212649
   10        2.878401
   11        3.026484
   12        3.441569
 
  0.5000000E+00  0.0000000E+00  0.0000000E+00  0.1157407E-02
    1      -20.750978
    2      -20.750978
    3      -10.133222
    4      -10.133222
    5       -8.604646
    6       -8.604646
    7       -7.854748
    8       -7.854748
    9        2.531939
   10        2.531939
   11        3.340278
   12        3.340296
 
  0.0000000E+00  0.2777778E-01  0.0000000E+00  0.2314815E-02
    1      -22.204938
    2      -16.943586
    3      -15.938887
    4      -10.315626
    5       -9.288451
    6       -5.888216
    7       -5.804640
    8       -5.051319
    9       -1.091499
   10        0.546381
   11        1.347132
   12        1.732364
 
  0.4166667E-01  0.2777778E-01  0.0000000E+00  0.4629630E-02
    1      -22.194663
    2      -17.114256
    3      -15.753054
    4      -10.303371
    5       -9.278197
    6       -5.918996
    7       -5.838219
    8       -5.118701
    9       -1.008483
   10        0.560318
   11        1.361241
   12        1.746646
 
  0.8333333E-01  0.2777778E-01  0.0000000E+00  0.4629630E-02
    1      -22.163844
    2      -17.457136
    3      -15.364770
    4      -10.266623
    5       -9.247483
    6       -6.020490
    7       -5.926953
    8       -5.305345
    9       -0.775111
   10        0.602129
   11        1.403564
   12        1.789492
 
  0.1250000E+00  0.2777778E-01  0.0000000E+00  0.4629630E-02
    1      -22.112502
    2      -17.836911
    3      -14.909623
    4      -10.205440
    5       -9.196460
    6       -6.205790
    7       -6.049661
    8       -5.577006
    9       -0.426148
   10        0.671818
   11        1.474089
   12        1.860904
 
  0.1666667E+00  0.2777778E-01  0.0000000E+00  0.4629630E-02
    1      -22.040669
    2      -18.218141
    3      -14.423511
    4      -10.119919
    5       -9.125380
    6       -6.467634
    7       -6.201458
    8       -5.900102
    9        0.003944
   10        0.769386
   11        1.572795
   12        1.960882
 
  0.2083333E+00  0.2777778E-01  0.0000000E+00  0.4629630E-02
    1      -21.948395
    2      -18.590106
    3      -13.917817
    4      -10.010202
    5       -9.034611
    6       -6.793915
    7       -6.379804
    8       -6.249897
    9        0.489178
   10        0.894829
   11        1.699650
   12        2.089426
 
  0.2500000E+00  0.2777778E-01  0.0000000E+00  0.4629630E-02
    1      -21.835744
    2      -18.948511
    3      -13.397713
    4       -9.876476
    5       -8.924645
    6       -7.174431
    7       -6.610045
    8       -6.579294
    9        1.011548
   10        1.048132
   11        1.854603
   12        2.246535
 
  0.2916667E+00  0.2777778E-01  0.0000000E+00  0.4629630E-02
    1      -21.702796
    2      -19.291224
    3      -12.866451
    4       -9.718987
    5       -8.796113
    6       -7.599945
    7       -6.969999
    8       -6.793800
    9        1.229268
   10        1.558377
   11        2.037582
   12        2.432207
 
  0.3333333E+00  0.2777778E-01  0.0000000E+00  0.4629630E-02
    1      -21.549648
    2      -19.617008
    3      -12.326659
    4       -9.538044
    5       -8.649810
    6       -8.061973
    7       -7.322860
    8       -7.017472
    9        1.438198
   10        2.119987
   11        2.248471
   12        2.646435
 
  0.3750000E+00  0.2777778E-01  0.0000000E+00  0.4629630E-02
    1      -21.376415
    2      -19.925057
    3      -11.780849
    4       -9.334034
    5       -8.552860
    6       -8.486718
    7       -7.663993
    8       -7.245096
    9        1.674868
   10        2.487066
   11        2.687600
   12        2.889211
 
  0.4166667E+00  0.2777778E-01  0.0000000E+00  0.4629630E-02
    1      -21.183234
    2      -20.214797
    3      -11.231654
    4       -9.107442
    5       -9.065830
    6       -8.308045
    7       -7.990179
    8       -7.472181
    9        1.939204
   10        2.752958
   11        3.160518
   12        3.247835
 
  0.4583333E+00  0.2777778E-01  0.0000000E+00  0.4629630E-02
    1      -20.970267
    2      -20.485795
    3      -10.681989
    4       -9.594969
    5       -8.858877
    6       -8.299116
    7       -8.115264
    8       -7.694929
    9        2.231107
   10        2.896954
   11        3.045064
   12        3.460629
 
  0.5000000E+00  0.2777778E-01  0.0000000E+00  0.2314815E-02
    1      -20.737711
    2      -20.737711
    3      -10.135159
    4      -10.135159
    5       -8.589108
    6       -8.589108
    7       -7.910167
    8       -7.910167
    9        2.550431
   10        2.550431
   11        3.358846
   12        3.358846
 
  0.0000000E+00  0.5555556E-01  0.0000000E+00  0.2314815E-02
    1      -22.164361
    2      -16.908728
    3      -15.905004
    4      -10.267238
    5       -9.466184
    6       -6.052065
    7       -5.895761
    8       -5.002000
    9       -1.105554
   10        0.601406
   11        1.402884
   12        1.788802
 
  0.4166667E-01  0.5555556E-01  0.0000000E+00  0.4629630E-02
    1      -22.154090
    2      -17.078928
    3      -15.719805
    4      -10.254996
    5       -9.455866
    6       -6.089870
    7       -5.920306
    8       -5.069851
    9       -1.022440
   10        0.615344
   11        1.416990
   12        1.803085
 
  0.8333333E-01  0.5555556E-01  0.0000000E+00  0.4629630E-02
    1      -22.123284
    2      -17.421069
    3      -15.332758
    4      -10.218287
    5       -9.424957
    6       -6.200690
    7       -5.994038
    8       -5.257561
    9       -0.789114
   10        0.657160
   11        1.459304
   12        1.845932
 
  0.1250000E+00  0.5555556E-01  0.0000000E+00  0.4629630E-02
    1      -22.071964
    2      -17.800176
    3      -14.879128
    4      -10.157169
    5       -9.373595
    6       -6.379622
    7       -6.114679
    8       -5.530303
    9       -0.440930
   10        0.726859
   11        1.529815
   12        1.917346
 
  0.1666667E+00  0.5555556E-01  0.0000000E+00  0.4629630E-02
    1      -22.000163
    2      -18.180830
    3      -14.394826
    4      -10.071739
    5       -9.302009
    6       -6.622247
    7       -6.275662
    8       -5.854183
    9       -0.012664
   10        0.824443
   11        1.628502
   12        2.017327
 
  0.2083333E+00  0.5555556E-01  0.0000000E+00  0.4629630E-02
    1      -21.907932
    2      -18.552302
    3      -13.891291
    4       -9.962138
    5       -9.210536
    6       -6.924102
    7       -6.467905
    8       -6.204423
    9        0.469654
   10        0.949907
   11        1.755331
   12        2.145875
 
  0.2500000E+00  0.5555556E-01  0.0000000E+00  0.4629630E-02
    1      -21.795333
    2      -18.910283
    3      -13.373771
    4       -9.828556
    5       -9.099621
    6       -7.279591
    7       -6.682218
    8       -6.564740
    9        0.988097
   10        1.103236
   11        1.910257
   12        2.302991
 
  0.2916667E+00  0.5555556E-01  0.0000000E+00  0.4629630E-02
    1      -21.662452
    2      -19.252630
    3      -12.845612
    4       -9.671236
    5       -8.969838
    6       -7.681883
    7       -6.924668
    8       -6.910571
    9        1.284403
   10        1.530122
   11        2.093208
   12        2.488671
 
  0.3333333E+00  0.5555556E-01  0.0000000E+00  0.4629630E-02
    1      -21.509382
    2      -19.578100
    3      -12.309561
    4       -9.490487
    5       -8.821908
    6       -8.123505
    7       -7.277378
    8       -7.146337
    9        1.493369
   10        2.086266
   11        2.304073
   12        2.702910
 
  0.3750000E+00  0.5555556E-01  0.0000000E+00  0.4629630E-02
    1      -21.336242
    2      -19.885879
    3      -11.768275
    4       -9.286696
    5       -8.656719
    6       -8.597015
    7       -7.618283
    8       -7.384130
    9        1.730079
   10        2.542661
   11        2.648262
   12        2.945700
 
  0.4166667E+00  0.5555556E-01  0.0000000E+00  0.4629630E-02
    1      -21.143170
    2      -20.175385
    3      -11.224568
    4       -9.095457
    5       -9.060347
    6       -8.475362
    7       -7.944200
    8       -7.619571
    9        1.994461
   10        2.808583
   11        3.205059
   12        3.217028
 
  0.4583333E+00  0.5555556E-01  0.0000000E+00  0.4629630E-02
    1      -20.930331
    2      -20.446182
    3      -10.681576
    4       -9.612575
    5       -8.812045
    6       -8.279167
    7       -8.252851
    8       -7.849086
    9        2.286420
   10        2.952487
   11        3.100791
   12        3.516872
 
  0.5000000E+00  0.5555556E-01  0.0000000E+00  0.2314815E-02
    1      -20.697924
    2      -20.697924
    3      -10.142871
    4      -10.142871
    5       -8.542555
    6       -8.542555
    7       -8.069752
    8       -8.069752
    9        2.605827
   10        2.605827
   11        3.414530
   12        3.414530
 
  0.0000000E+00  0.8333333E-01  0.0000000E+00  0.2314815E-02
    1      -22.096772
    2      -16.850644
    3      -15.849105
    4      -10.186703
    5       -9.747429
    6       -6.311679
    7       -6.045032
    8       -4.919867
    9       -1.131723
   10        0.693132
   11        1.495780
   12        1.882870
 
  0.4166667E-01  0.8333333E-01  0.0000000E+00  0.4629630E-02
    1      -22.086508
    2      -17.020102
    3      -15.664938
    4      -10.174483
    5       -9.736987
    6       -6.353575
    7       -6.062299
    8       -4.988549
    9       -1.048415
   10        0.707070
   11        1.509880
   12        1.897152
 
  0.8333333E-01  0.8333333E-01  0.0000000E+00  0.4629630E-02
    1      -22.055724
    2      -17.361037
    3      -15.279975
    4      -10.137841
    5       -9.705695
    6       -6.471065
    7       -6.120317
    8       -5.178134
    9       -0.815128
   10        0.748888
   11        1.552179
   12        1.940000
 
  0.1250000E+00  0.8333333E-01  0.0000000E+00  0.4629630E-02
    1      -22.004441
    2      -17.739037
    3      -14.828959
    4      -10.076834
    5       -9.653666
    6       -6.650163
    7       -6.227253
    8       -5.452758
    9       -0.468258
   10        0.818593
   11        1.622663
   12        2.011415
 
  0.1666667E+00  0.8333333E-01  0.0000000E+00  0.4629630E-02
    1      -21.932695
    2      -18.118728
    3      -14.347812
    4       -9.991560
    5       -9.581087
    6       -6.881056
    7       -6.383713
    8       -5.777989
    9       -0.043127
   10        0.916189
   11        1.721313
   12        2.111399
 
  0.2083333E+00  0.8333333E-01  0.0000000E+00  0.4629630E-02
    1      -21.840534
    2      -18.489370
    3      -13.848075
    4       -9.882160
    5       -9.488225
    6       -7.158476
    7       -6.583153
    8       -6.128981
    9        0.434171
   10        1.041674
   11        1.848097
   12        2.239954
 
  0.2500000E+00  0.8333333E-01  0.0000000E+00  0.4629630E-02
    1      -21.728026
    2      -18.846637
    3      -13.335142
    4       -9.748823
    5       -9.375435
    6       -7.480019
    7       -6.814555
    8       -6.489572
    9        0.945857
   10        1.195032
   11        2.002971
   12        2.397078
 
  0.2916667E+00  0.8333333E-01  0.0000000E+00  0.4629630E-02
    1      -21.595253
    2      -19.188372
    3      -12.812543
    4       -9.591793
    5       -9.243169
    6       -7.844170
    7       -7.065446
    8       -6.849440
    9        1.376236
   10        1.479608
   11        2.185866
   12        2.582768
 
  0.3333333E+00  0.8333333E-01  0.0000000E+00  0.4629630E-02
    1      -21.442315
    2      -19.513313
    3      -12.283263
    4       -9.411379
    5       -9.091984
    6       -8.248419
    7       -7.324672
    8       -7.201874
    9        1.585243
   10        2.026276
   11        2.396682
   12        2.797021
 
  0.3750000E+00  0.8333333E-01  0.0000000E+00  0.4629630E-02
    1      -21.269330
    2      -19.820636
    3      -11.750259
    4       -9.207966
    5       -8.922561
    6       -8.688409
    7       -7.583874
    8       -7.542376
    9        1.821998
   10        2.578255
   11        2.635248
   12        3.039829
 
  0.4166667E+00  0.8333333E-01  0.0000000E+00  0.4629630E-02
    1      -21.076440
    2      -20.109751
    3      -11.216729
    4       -9.158352
    5       -8.982035
    6       -8.735717
    7       -7.867822
    8       -7.837425
    9        2.086430
   10        2.901215
   11        3.127302
   12        3.311182
 
  0.4583333E+00  0.8333333E-01  0.0000000E+00  0.4629630E-02
    1      -20.863817
    2      -20.380209
    3      -10.686284
    4       -9.651940
    5       -8.734187
    6       -8.532439
    7       -8.175974
    8       -8.081621
    9        2.378448
   10        3.044725
   11        3.193615
   12        3.611073
 
  0.5000000E+00  0.8333333E-01  0.0000000E+00  0.2314815E-02
    1      -20.631660
    2      -20.631660
    3      -10.163084
    4      -10.163084
    5       -8.465178
    6       -8.465178
    7       -8.313918
    8       -8.313918
    9        2.697934
   10        2.697934
   11        3.507243
   12        3.507243
 
  0.0000000E+00  0.1111111E+00  0.0000000E+00  0.2314815E-02
    1      -22.002232
    2      -16.769355
    3      -15.772172
    4      -10.113556
    5      -10.074193
    6       -6.650642
    7       -6.248749
    8       -4.805024
    9       -1.174071
   10        0.821575
   11        1.625782
   12        2.014570
 
  0.4166667E-01  0.1111111E+00  0.0000000E+00  0.4629630E-02
    1      -21.991979
    2      -16.937864
    3      -15.589397
    4      -10.102896
    5      -10.062005
    6       -6.695556
    7       -6.258859
    8       -4.874983
    9       -1.090416
   10        0.835510
   11        1.639874
   12        2.028852
 
  0.8333333E-01  0.1111111E+00  0.0000000E+00  0.4629630E-02
    1      -21.961227
    2      -17.277175
    3      -15.207414
    4      -10.070936
    5      -10.025459
    6       -6.818972
    7       -6.299120
    8       -5.067420
    9       -0.857074
   10        0.877321
   11        1.682146
   12        2.071699
 
  0.1250000E+00  0.1111111E+00  0.0000000E+00  0.4629630E-02
    1      -21.909997
    2      -17.653630
    3      -14.760268
    4      -10.017739
    5       -9.964615
    6       -7.001262
    7       -6.384961
    8       -5.344859
    9       -0.512053
   10        0.947018
   11        1.752587
   12        2.143114
 
  0.1666667E+00  0.1111111E+00  0.0000000E+00  0.4629630E-02
    1      -21.838325
    2      -18.031962
    3      -14.283887
    4       -9.943408
    5       -9.879568
    6       -7.228066
    7       -6.523725
    8       -5.672069
    9       -0.091479
   10        1.044610
   11        1.851177
   12        2.243099
 
  0.2083333E+00  0.1111111E+00  0.0000000E+00  0.4629630E-02
    1      -21.746265
    2      -18.401428
    3      -13.789979
    4       -9.848086
    5       -9.770461
    6       -7.490854
    7       -6.714363
    8       -6.024135
    9        0.378496
   10        1.170099
   11        1.977885
   12        2.371656
 
  0.2500000E+00  0.1111111E+00  0.0000000E+00  0.4629630E-02
    1      -21.633883
    2      -18.757682
    3      -13.284189
    4       -9.731946
    5       -9.637483
    6       -7.785348
    7       -6.949589
    8       -6.385087
    9        0.880328
   10        1.323472
   11        2.132667
   12        2.528787
 
  0.2916667E+00  0.1111111E+00  0.0000000E+00  0.4629630E-02
    1      -21.501264
    2      -19.098545
    3      -12.770391
    4       -9.595191
    5       -9.480879
    6       -8.110516
    7       -7.217723
    8       -6.744829
    9        1.402017
   10        1.504700
   11        2.315463
   12        2.714487
 
  0.3333333E+00  0.1111111E+00  0.0000000E+00  0.4629630E-02
    1      -21.348509
    2      -19.422736
    3      -12.252017
    4       -9.438038
    5       -9.300956
    6       -8.467457
    7       -7.504702
    8       -7.096827
    9        1.713737
   10        1.934807
   11        2.526183
   12        2.928753
 
  0.3750000E+00  0.1111111E+00  0.0000000E+00  0.4629630E-02
    1      -21.175743
    2      -19.729413
    3      -11.732616
    4       -9.260709
    5       -9.098098
    6       -8.857586
    7       -7.796640
    8       -7.436710
    9        1.950524
   10        2.471737
   11        2.764686
   12        3.171578
 
  0.4166667E+00  0.1111111E+00  0.0000000E+00  0.4629630E-02
    1      -20.983112
    2      -20.017972
    3      -11.216148
    4       -9.280593
    5       -9.063421
    6       -8.872782
    7       -8.082380
    8       -7.761444
    9        2.214987
   10        3.006492
   11        3.030695
   12        3.442953
 
  0.4583333E+00  0.1111111E+00  0.0000000E+00  0.4629630E-02
    1      -20.770792
    2      -20.287951
    3      -10.707181
    4       -9.733449
    5       -8.846397
    6       -8.625604
    7       -8.354729
    8       -8.068849
    9        2.507036
   10        3.173407
   11        3.323414
   12        3.529742
 
  0.5000000E+00  0.1111111E+00  0.0000000E+00  0.2314815E-02
    1      -20.538989
    2      -20.538989
    3      -10.210987
    4      -10.210987
    5       -8.609947
    6       -8.609947
    7       -8.357311
    8       -8.357311
    9        2.826559
   10        2.826559
   11        3.636604
   12        3.636608
 
  0.0000000E+00  0.1388889E+00  0.0000000E+00  0.2314815E-02
    1      -21.880831
    2      -16.664888
    3      -15.675875
    4      -10.543936
    5       -9.929952
    6       -7.051423
    7       -6.502077
    8       -4.657615
    9       -1.238126
   10        0.986745
   11        1.792834
   12        2.183907
 
  0.4166667E-01  0.1388889E+00  0.0000000E+00  0.4629630E-02
    1      -21.870592
    2      -16.832355
    3      -15.494800
    4      -10.532907
    5       -9.917808
    6       -7.099046
    7       -6.504643
    8       -4.729445
    9       -1.153858
   10        1.000673
   11        1.806912
   12        2.198188
 
  0.8333333E-01  0.1388889E+00  0.0000000E+00  0.4629630E-02
    1      -21.839880
    2      -17.169692
    3      -15.116801
    4      -10.499809
    5       -9.881395
    6       -7.228360
    7       -6.525103
    8       -4.925992
    9       -0.920175
   10        1.042463
   11        1.849144
   12        2.241032
 
  0.1250000E+00  0.1388889E+00  0.0000000E+00  0.4629630E-02
    1      -21.788718
    2      -17.544174
    3      -14.675104
    4      -10.444615
    5       -9.820771
    6       -7.415571
    7       -6.584711
    8       -5.207389
    9       -0.577477
   10        1.112129
   11        1.919516
   12        2.312442
 
  0.1666667E+00  0.1388889E+00  0.0000000E+00  0.4629630E-02
    1      -21.717146
    2      -17.920737
    3      -14.205630
    4      -10.367263
    5       -9.736033
    6       -7.642993
    7       -6.696493
    8       -5.537301
    9       -0.162978
   10        1.209689
   11        2.018007
   12        2.412423
 
  0.2083333E+00  0.1388889E+00  0.0000000E+00  0.4629630E-02
    1      -21.625215
    2      -18.288659
    3      -13.720371
    4      -10.267643
    5       -9.627326
    6       -7.899640
    7       -6.864401
    8       -5.890772
    9        0.297164
   10        1.335152
   11        2.144587
   12        2.540979
 
  0.2500000E+00  0.1388889E+00  0.0000000E+00  0.4629630E-02
    1      -21.512995
    2      -18.643582
    3      -13.225433
    4      -10.145557
    5       -9.494839
    6       -8.178994
    7       -7.085657
    8       -6.252139
    9        0.785789
   10        1.488508
   11        2.299213
   12        2.698111
 
  0.2916667E+00  0.1388889E+00  0.0000000E+00  0.4629630E-02
    1      -21.380575
    2      -18.983299
    3      -12.725340
    4      -10.000678
    5       -9.338816
    6       -8.477847
    7       -7.352449
    8       -6.611630
    9        1.291362
   10        1.669730
   11        2.481826
   12        2.883817
 
  0.3333333E+00  0.1388889E+00  0.0000000E+00  0.4629630E-02
    1      -21.228060
    2      -19.306505
    3      -12.224413
    4       -9.832486
    5       -9.159565
    6       -8.795868
    7       -7.653172
    8       -6.962966
    9        1.805621
   10        1.878769
   11        2.692349
   12        3.098093
 
  0.3750000E+00  0.1388889E+00  0.0000000E+00  0.4629630E-02
    1      -21.055578
    2      -19.612335
    3      -11.727369
    4       -9.640212
    5       -9.135282
    6       -8.957469
    7       -7.973588
    8       -7.301951
    9        2.115559
   10        2.322203
   11        2.930674
   12        3.340932
 
  0.4166667E+00  0.1388889E+00  0.0000000E+00  0.4629630E-02
    1      -20.863284
    2      -19.900165
    3      -11.239626
    4       -9.499956
    5       -9.422833
    6       -8.733002
    7       -8.298404
    8       -7.625671
    9        2.380021
   10        2.835855
   11        3.196629
   12        3.612323
 
  0.4583333E+00  0.1388889E+00  0.0000000E+00  0.4629630E-02
    1      -20.651359
    2      -20.169519
    3      -10.767318
    4       -9.893472
    5       -9.179266
    6       -8.613618
    7       -8.486750
    8       -7.932025
    9        2.672058
   10        3.338363
   11        3.341779
   12        3.489786
 
  0.5000000E+00  0.1388889E+00  0.0000000E+00  0.2314815E-02
    1      -20.420018
    2      -20.420018
    3      -10.316811
    4      -10.316811
    5       -8.909024
    6       -8.909024
    7       -8.219448
    8       -8.219448
    9        2.991553
   10        2.991553
   11        3.791082
   12        3.791338
 
  0.0000000E+00  0.1666667E+00  0.0000000E+00  0.2314815E-02
    1      -21.732688
    2      -16.537285
    3      -15.563023
    4      -11.017994
    5       -9.754311
    6       -7.497676
    7       -6.799358
    8       -4.477832
    9       -1.330564
   10        1.188638
   11        1.996856
   12        2.390884
 
  0.4166667E-01  0.1666667E+00  0.0000000E+00  0.4629630E-02
    1      -21.722465
    2      -16.703789
    3      -15.383896
    4      -11.006331
    5       -9.742225
    6       -7.547978
    7       -6.793989
    8       -4.552383
    9       -1.245187
   10        1.202553
   11        2.010913
   12        2.405162
 
  0.8333333E-01  0.1666667E+00  0.0000000E+00  0.4629630E-02
    1      -21.691804
    2      -17.038915
    3      -15.011137
    4      -10.971271
    5       -9.705985
    6       -7.683406
    7       -6.793107
    8       -4.754764
    9       -1.010494
   10        1.244306
   11        2.053078
   12        2.448000
 
  0.1250000E+00  0.1666667E+00  0.0000000E+00  0.4629630E-02
    1      -21.640728
    2      -17.410997
    3      -14.577124
    4      -10.912598
    5       -9.645650
    6       -7.876647
    7       -6.823019
    8       -5.041579
    9       -0.670391
   10        1.313916
   11        2.123338
   12        2.519401
 
  0.1666667E+00  0.1666667E+00  0.0000000E+00  0.4629630E-02
    1      -21.569276
    2      -17.785352
    3      -14.117792
    4      -10.829909
    5       -9.561320
    6       -8.107406
    7       -6.901650
    8       -5.375034
    9       -0.263498
   10        1.411407
   11        2.221666
   12        2.619371
 
  0.2083333E+00  0.1666667E+00  0.0000000E+00  0.4629630E-02
    1      -21.477504
    2      -18.151333
    3      -13.645669
    4      -10.722545
    5       -9.453138
    6       -8.363055
    7       -7.037236
    8       -5.730229
    9        0.184178
   10        1.536798
   11        2.348027
   12        2.747916
 
  0.2500000E+00  0.1666667E+00  0.0000000E+00  0.4629630E-02
    1      -21.365485
    2      -18.504575
    3      -13.167778
    4      -10.589499
    5       -9.321297
    6       -8.635719
    7       -7.230904
    8       -6.091991
    9        0.656116
   10        1.690090
   11        2.502367
   12        2.905041
 
  0.2916667E+00  0.1666667E+00  0.0000000E+00  0.4629630E-02
    1      -21.233310
    2      -18.842847
    3      -12.689955
    4      -10.429280
    5       -9.166043
    6       -8.920607
    7       -7.478495
    8       -6.451009
    9        1.141475
   10        1.871261
   11        2.684619
   12        3.090745
 
  0.3333333E+00  0.1666667E+00  0.0000000E+00  0.4629630E-02
    1      -21.081090
    2      -19.164812
    3      -12.218267
    4      -10.239815
    5       -9.215341
    6       -8.987683
    7       -7.771854
    8       -6.801350
    9        1.632658
   10        2.080259
   11        2.894689
   12        3.305025
 
  0.3750000E+00  0.1666667E+00  0.0000000E+00  0.4629630E-02
    1      -20.908962
    2      -19.469576
    3      -11.759481
    4      -10.018519
    5       -9.519823
    6       -8.786599
    7       -8.099809
    8       -7.139055
    9        2.123966
   10        2.317013
   11        3.132448
   12        3.547872
 
  0.4166667E+00  0.1666667E+00  0.0000000E+00  0.4629630E-02
    1      -20.717087
    2      -19.756492
    3      -11.320752
    4       -9.836323
    5       -9.762909
    6       -8.563262
    7       -8.448883
    8       -7.461363
    9        2.581431
   10        2.610851
   11        3.397693
   12        3.819278
 
  0.4583333E+00  0.1666667E+00  0.0000000E+00  0.4629630E-02
    1      -20.505654
    2      -20.025062
    3      -10.908259
    4      -10.169399
    5       -9.472180
    6       -8.803973
    7       -8.318251
    8       -7.766273
    9        2.873404
   10        3.089460
   11        3.539482
   12        3.689628
 
  0.5000000E+00  0.1666667E+00  0.0000000E+00  0.2314815E-02
    1      -20.274890
    2      -20.274890
    3      -10.525003
    4      -10.525003
    5       -9.149581
    6       -9.149581
    7       -8.052286
    8       -8.052286
    9        3.192806
   10        3.192806
   11        3.556056
   12        3.556100
 