       N       E                     dE             d eps       ncg     rms          rms(c)
DAV:   1     0.189477585562E+03    0.18948E+03   -0.10605E+04  5928   0.274E+03
DAV:   2    -0.908969164824E+01   -0.19857E+03   -0.17703E+03 10476   0.260E+02
DAV:   3    -0.383616819907E+02   -0.29272E+02   -0.28686E+02  7380   0.120E+02    0.731E+00
RMM:   4    -0.376944761078E+02    0.66721E+00   -0.93204E+00  5929   0.264E+01    0.423E+00
RMM:   5    -0.369337227727E+02    0.76075E+00   -0.28215E+00  5933   0.115E+01    0.728E-01
RMM:   6    -0.369348847058E+02   -0.11619E-02   -0.79938E-02  6371   0.203E+00    0.520E-01
RMM:   7    -0.369254571891E+02    0.94275E-02   -0.33674E-02  5941   0.160E+00    0.346E-01
RMM:   8    -0.369197228544E+02    0.57343E-02   -0.76844E-03  5930   0.581E-01    0.135E-01
RMM:   9    -0.369194449444E+02    0.27791E-03   -0.20899E-02  5928   0.857E-01    0.162E-01
RMM:  10    -0.369192732331E+02    0.17171E-03   -0.26919E-03  5928   0.374E-01    0.304E-02
RMM:  11    -0.369218297882E+02   -0.25566E-02   -0.75727E-04  5931   0.180E-01    0.466E-02
RMM:  12    -0.369222732410E+02   -0.44345E-03   -0.23824E-04  5937   0.102E-01    0.509E-03
RMM:  13    -0.369225357958E+02   -0.26255E-03   -0.54507E-05  6008   0.415E-02    0.471E-03
RMM:  14    -0.369226205009E+02   -0.84705E-04   -0.12215E-05  5939   0.204E-02    0.248E-03
RMM:  15    -0.369226285727E+02   -0.80718E-05   -0.15721E-06  6011   0.751E-03    0.766E-04
RMM:  16    -0.369226404023E+02   -0.11830E-04   -0.36048E-07  6042   0.341E-03    0.392E-04
RMM:  17    -0.369226440023E+02   -0.36000E-05   -0.31410E-08  6075   0.144E-03    0.701E-04
RMM:  18    -0.369226458200E+02   -0.18178E-05   -0.65131E-08  5928   0.178E-03    0.655E-05
RMM:  19    -0.369226463275E+02   -0.50746E-06   -0.67578E-09  6000   0.427E-04    0.174E-05
RMM:  20    -0.369226463745E+02   -0.47000E-07   -0.85570E-10  4566   0.158E-04    0.295E-05
RMM:  21    -0.369226463943E+02   -0.19810E-07   -0.29435E-10  4418   0.100E-04    0.635E-06
RMM:  22    -0.369226463938E+02    0.50795E-09   -0.23920E-12  3885   0.441E-05    0.130E-06
RMM:  23    -0.369226463948E+02   -0.10471E-08   -0.19170E-11  3547   0.394E-05    0.173E-06
RMM:  24    -0.369226463947E+02    0.13415E-09   -0.59650E-12  3107   0.285E-05    0.781E-07
RMM:  25    -0.369226463947E+02   -0.34788E-10   -0.32040E-12  2817   0.253E-05
   1 F= -.36922646E+02 E0= -.36922602E+02  d E =-.369226E+02
       N       E                     dE             d eps       ncg     rms          rms(c)
DAV:   1    -0.369226463942E+02    0.49283E-09    0.27482E-09  6252   0.517E-04    0.112E-05
RMM:   2    -0.369226463949E+02   -0.64449E-09   -0.24621E-11  3732   0.639E-05    0.787E-06
RMM:   3    -0.369226463948E+02    0.56730E-10   -0.17353E-11  3739   0.552E-05    0.213E-06
RMM:   4    -0.369226463948E+02    0.33538E-10   -0.96633E-12  3300   0.376E-05    0.699E-07
RMM:   5    -0.369226463945E+02    0.30445E-09   -0.56074E-12  2997   0.307E-05    0.155E-06
RMM:   6    -0.369226463947E+02   -0.20020E-09   -0.26753E-12  2662   0.257E-05    0.701E-07
RMM:   7    -0.369226463946E+02    0.11232E-09   -0.22690E-12  2415   0.226E-05    0.469E-07
RMM:   8    -0.369226463944E+02    0.15586E-09    0.48467E-13  2194   0.206E-05    0.479E-07
RMM:   9    -0.369226463944E+02   -0.16826E-10   -0.90002E-13  2022   0.198E-05
   2 F= -.36922646E+02 E0= -.36922602E+02  d E =0.329010E-09
       N       E                     dE             d eps       ncg     rms          rms(c)
DAV:   1    -0.369226463940E+02    0.38654E-09    0.38416E-09  6352   0.416E-04    0.922E-06
RMM:   2    -0.369226463946E+02   -0.54979E-09   -0.11169E-11  3387   0.483E-05    0.635E-06
RMM:   3    -0.369226463947E+02   -0.11528E-09   -0.51743E-12  3478   0.461E-05    0.141E-06
RMM:   4    -0.369226463947E+02   -0.24556E-10   -0.94822E-12  2834   0.351E-05    0.472E-07
RMM:   5    -0.369226463946E+02    0.10868E-09   -0.59096E-12  2372   0.288E-05    0.931E-07
RMM:   6    -0.369226463945E+02    0.11426E-09   -0.15463E-12  2214   0.246E-05    0.612E-07
RMM:   7    -0.369226463944E+02    0.34220E-10   -0.29188E-12  1803   0.223E-05
   3 F= -.36922646E+02 E0= -.36922602E+02  d E =-.291038E-10
