<?xml version="1.0" encoding="ISO-8859-1"?>
<modeling>
 <generator>
  <i name="program" type="string">vasp </i>
  <i name="version" type="string">5.3.5  </i>
  <i name="subversion" type="string">31Mar14 (build Mar 02 2015 18:14:16) complex                          parallel </i>
  <i name="platform" type="string">LinuxIFC </i>
  <i name="date" type="string">2018 08 09 </i>
  <i name="time" type="string">18:43:48 </i>
 </generator>
 <incar>
  <i type="string" name="SYSTEM">  gr</i>
  <i type="string" name="PREC">accurate : accuracy</i>
  <i type="string" name="ALGO"> FAST.</i>
  <i type="int" name="NELM">   100</i>
  <i type="int" name="NELMDL">    -3</i>
  <i type="int" name="NELMIN">     5</i>
  <i type="int" name="IBRION">     1</i>
  <i name="EDIFF">      0.00000000</i>
  <i name="EDIFFG">     -0.00000100</i>
  <i type="int" name="NSW">   400</i>
  <i type="int" name="ISIF">     2</i>
  <i name="ENCUT">   2000.00000000</i>
  <i type="int" name="ISMEAR">     0</i>
  <i name="SIGMA">      0.05000000</i>
  <i type="int" name="NWRITE">     2</i>
  <i type="logical" name="LWAVE"> F  </i>
  <i type="logical" name="LCHARG"> F  </i>
  <i type="int" name="NELM">   100</i>
 </incar>
 <kpoints>
  <generation param="Gamma">
   <v type="int" name="divisions">      24       36        1 </v>
   <v name="usershift">      0.00000000       0.00000000       0.00000000 </v>
   <v name="genvec1">      0.04166667       0.00000000       0.00000000 </v>
   <v name="genvec2">      0.00000000       0.02777778       0.00000000 </v>
   <v name="genvec3">      0.00000000       0.00000000       1.00000000 </v>
   <v name="shift">      0.00000000       0.00000000       0.00000000 </v>
  </generation>
  <varray name="kpointlist" >
   <v>       0.00000000       0.00000000       0.00000000 </v>
   <v>       0.04166667       0.00000000       0.00000000 </v>
   <v>       0.08333333       0.00000000       0.00000000 </v>
   <v>       0.12500000       0.00000000       0.00000000 </v>
   <v>       0.16666667       0.00000000       0.00000000 </v>
   <v>       0.20833333       0.00000000       0.00000000 </v>
   <v>       0.25000000       0.00000000       0.00000000 </v>
   <v>       0.29166667       0.00000000       0.00000000 </v>
   <v>       0.33333333       0.00000000       0.00000000 </v>
   <v>       0.37500000       0.00000000       0.00000000 </v>
   <v>       0.41666667       0.00000000       0.00000000 </v>
   <v>       0.45833333       0.00000000       0.00000000 </v>
   <v>       0.50000000       0.00000000       0.00000000 </v>
   <v>       0.00000000       0.02777778       0.00000000 </v>
   <v>       0.04166667       0.02777778       0.00000000 </v>
   <v>       0.08333333       0.02777778       0.00000000 </v>
   <v>       0.12500000       0.02777778       0.00000000 </v>
   <v>       0.16666667       0.02777778       0.00000000 </v>
   <v>       0.20833333       0.02777778       0.00000000 </v>
   <v>       0.25000000       0.02777778       0.00000000 </v>
   <v>       0.29166667       0.02777778       0.00000000 </v>
   <v>       0.33333333       0.02777778       0.00000000 </v>
   <v>       0.37500000       0.02777778       0.00000000 </v>
   <v>       0.41666667       0.02777778       0.00000000 </v>
   <v>       0.45833333       0.02777778       0.00000000 </v>
   <v>       0.50000000       0.02777778       0.00000000 </v>
   <v>       0.00000000       0.05555556       0.00000000 </v>
   <v>       0.04166667       0.05555556       0.00000000 </v>
   <v>       0.08333333       0.05555556       0.00000000 </v>
   <v>       0.12500000       0.05555556       0.00000000 </v>
   <v>       0.16666667       0.05555556       0.00000000 </v>
   <v>       0.20833333       0.05555556       0.00000000 </v>
   <v>       0.25000000       0.05555556       0.00000000 </v>
   <v>       0.29166667       0.05555556       0.00000000 </v>
   <v>       0.33333333       0.05555556       0.00000000 </v>
   <v>       0.37500000       0.05555556       0.00000000 </v>
   <v>       0.41666667       0.05555556       0.00000000 </v>
   <v>       0.45833333       0.05555556       0.00000000 </v>
   <v>       0.50000000       0.05555556       0.00000000 </v>
   <v>       0.00000000       0.08333333       0.00000000 </v>
   <v>       0.04166667       0.08333333       0.00000000 </v>
   <v>       0.08333333       0.08333333       0.00000000 </v>
   <v>       0.12500000       0.08333333       0.00000000 </v>
   <v>       0.16666667       0.08333333       0.00000000 </v>
   <v>       0.20833333       0.08333333       0.00000000 </v>
   <v>       0.25000000       0.08333333       0.00000000 </v>
   <v>       0.29166667       0.08333333       0.00000000 </v>
   <v>       0.33333333       0.08333333       0.00000000 </v>
   <v>       0.37500000       0.08333333       0.00000000 </v>
   <v>       0.41666667       0.08333333       0.00000000 </v>
   <v>       0.45833333       0.08333333       0.00000000 </v>
   <v>       0.50000000       0.08333333       0.00000000 </v>
   <v>       0.00000000       0.11111111       0.00000000 </v>
   <v>       0.04166667       0.11111111       0.00000000 </v>
   <v>       0.08333333       0.11111111       0.00000000 </v>
   <v>       0.12500000       0.11111111       0.00000000 </v>
   <v>       0.16666667       0.11111111       0.00000000 </v>
   <v>       0.20833333       0.11111111       0.00000000 </v>
   <v>       0.25000000       0.11111111       0.00000000 </v>
   <v>       0.29166667       0.11111111       0.00000000 </v>
   <v>       0.33333333       0.11111111       0.00000000 </v>
   <v>       0.37500000       0.11111111       0.00000000 </v>
   <v>       0.41666667       0.11111111       0.00000000 </v>
   <v>       0.45833333       0.11111111       0.00000000 </v>
   <v>       0.50000000       0.11111111       0.00000000 </v>
   <v>       0.00000000       0.13888889       0.00000000 </v>
   <v>       0.04166667       0.13888889       0.00000000 </v>
   <v>       0.08333333       0.13888889       0.00000000 </v>
   <v>       0.12500000       0.13888889       0.00000000 </v>
   <v>       0.16666667       0.13888889       0.00000000 </v>
   <v>       0.20833333       0.13888889       0.00000000 </v>
   <v>       0.25000000       0.13888889       0.00000000 </v>
   <v>       0.29166667       0.13888889       0.00000000 </v>
   <v>       0.33333333       0.13888889       0.00000000 </v>
   <v>       0.37500000       0.13888889       0.00000000 </v>
   <v>       0.41666667       0.13888889       0.00000000 </v>
   <v>       0.45833333       0.13888889       0.00000000 </v>
   <v>       0.50000000       0.13888889       0.00000000 </v>
   <v>       0.00000000       0.16666667       0.00000000 </v>
   <v>       0.04166667       0.16666667       0.00000000 </v>
   <v>       0.08333333       0.16666667       0.00000000 </v>
   <v>       0.12500000       0.16666667       0.00000000 </v>
   <v>       0.16666667       0.16666667       0.00000000 </v>
   <v>       0.20833333       0.16666667       0.00000000 </v>
   <v>       0.25000000       0.16666667       0.00000000 </v>
   <v>       0.29166667       0.16666667       0.00000000 </v>
   <v>       0.33333333       0.16666667       0.00000000 </v>
   <v>       0.37500000       0.16666667       0.00000000 </v>
   <v>       0.41666667       0.16666667       0.00000000 </v>
   <v>       0.45833333       0.16666667       0.00000000 </v>
   <v>       0.50000000       0.16666667       0.00000000 </v>
   <v>       0.00000000       0.19444444       0.00000000 </v>
   <v>       0.04166667       0.19444444       0.00000000 </v>
   <v>       0.08333333       0.19444444       0.00000000 </v>
   <v>       0.12500000       0.19444444       0.00000000 </v>
   <v>       0.16666667       0.19444444       0.00000000 </v>
   <v>       0.20833333       0.19444444       0.00000000 </v>
   <v>       0.25000000       0.19444444       0.00000000 </v>
   <v>       0.29166667       0.19444444       0.00000000 </v>
   <v>       0.33333333       0.19444444       0.00000000 </v>
   <v>       0.37500000       0.19444444       0.00000000 </v>
   <v>       0.41666667       0.19444444       0.00000000 </v>
   <v>       0.45833333       0.19444444       0.00000000 </v>
   <v>       0.50000000       0.19444444       0.00000000 </v>
   <v>       0.00000000       0.22222222       0.00000000 </v>
   <v>       0.04166667       0.22222222       0.00000000 </v>
   <v>       0.08333333       0.22222222       0.00000000 </v>
   <v>       0.12500000       0.22222222       0.00000000 </v>
   <v>       0.16666667       0.22222222       0.00000000 </v>
   <v>       0.20833333       0.22222222       0.00000000 </v>
   <v>       0.25000000       0.22222222       0.00000000 </v>
   <v>       0.29166667       0.22222222       0.00000000 </v>
   <v>       0.33333333       0.22222222       0.00000000 </v>
   <v>       0.37500000       0.22222222       0.00000000 </v>
   <v>       0.41666667       0.22222222       0.00000000 </v>
   <v>       0.45833333       0.22222222       0.00000000 </v>
   <v>       0.50000000       0.22222222       0.00000000 </v>
   <v>       0.00000000       0.25000000       0.00000000 </v>
   <v>       0.04166667       0.25000000       0.00000000 </v>
   <v>       0.08333333       0.25000000       0.00000000 </v>
   <v>       0.12500000       0.25000000       0.00000000 </v>
   <v>       0.16666667       0.25000000       0.00000000 </v>
   <v>       0.20833333       0.25000000       0.00000000 </v>
   <v>       0.25000000       0.25000000       0.00000000 </v>
   <v>       0.29166667       0.25000000       0.00000000 </v>
   <v>       0.33333333       0.25000000       0.00000000 </v>
   <v>       0.37500000       0.25000000       0.00000000 </v>
   <v>       0.41666667       0.25000000       0.00000000 </v>
   <v>       0.45833333       0.25000000       0.00000000 </v>
   <v>       0.50000000       0.25000000       0.00000000 </v>
   <v>       0.00000000       0.27777778       0.00000000 </v>
   <v>       0.04166667       0.27777778       0.00000000 </v>
   <v>       0.08333333       0.27777778       0.00000000 </v>
   <v>       0.12500000       0.27777778       0.00000000 </v>
   <v>       0.16666667       0.27777778       0.00000000 </v>
   <v>       0.20833333       0.27777778       0.00000000 </v>
   <v>       0.25000000       0.27777778       0.00000000 </v>
   <v>       0.29166667       0.27777778       0.00000000 </v>
   <v>       0.33333333       0.27777778       0.00000000 </v>
   <v>       0.37500000       0.27777778       0.00000000 </v>
   <v>       0.41666667       0.27777778       0.00000000 </v>
   <v>       0.45833333       0.27777778       0.00000000 </v>
   <v>       0.50000000       0.27777778       0.00000000 </v>
   <v>       0.00000000       0.30555556       0.00000000 </v>
   <v>       0.04166667       0.30555556       0.00000000 </v>
   <v>       0.08333333       0.30555556       0.00000000 </v>
   <v>       0.12500000       0.30555556       0.00000000 </v>
   <v>       0.16666667       0.30555556       0.00000000 </v>
   <v>       0.20833333       0.30555556       0.00000000 </v>
   <v>       0.25000000       0.30555556       0.00000000 </v>
   <v>       0.29166667       0.30555556       0.00000000 </v>
   <v>       0.33333333       0.30555556       0.00000000 </v>
   <v>       0.37500000       0.30555556       0.00000000 </v>
   <v>       0.41666667       0.30555556       0.00000000 </v>
   <v>       0.45833333       0.30555556       0.00000000 </v>
   <v>       0.50000000       0.30555556       0.00000000 </v>
   <v>       0.00000000       0.33333333       0.00000000 </v>
   <v>       0.04166667       0.33333333       0.00000000 </v>
   <v>       0.08333333       0.33333333       0.00000000 </v>
   <v>       0.12500000       0.33333333       0.00000000 </v>
   <v>       0.16666667       0.33333333       0.00000000 </v>
   <v>       0.20833333       0.33333333       0.00000000 </v>
   <v>       0.25000000       0.33333333       0.00000000 </v>
   <v>       0.29166667       0.33333333       0.00000000 </v>
   <v>       0.33333333       0.33333333       0.00000000 </v>
   <v>       0.37500000       0.33333333       0.00000000 </v>
   <v>       0.41666667       0.33333333       0.00000000 </v>
   <v>       0.45833333       0.33333333       0.00000000 </v>
   <v>       0.50000000       0.33333333       0.00000000 </v>
   <v>       0.00000000       0.36111111       0.00000000 </v>
   <v>       0.04166667       0.36111111       0.00000000 </v>
   <v>       0.08333333       0.36111111       0.00000000 </v>
   <v>       0.12500000       0.36111111       0.00000000 </v>
   <v>       0.16666667       0.36111111       0.00000000 </v>
   <v>       0.20833333       0.36111111       0.00000000 </v>
   <v>       0.25000000       0.36111111       0.00000000 </v>
   <v>       0.29166667       0.36111111       0.00000000 </v>
   <v>       0.33333333       0.36111111       0.00000000 </v>
   <v>       0.37500000       0.36111111       0.00000000 </v>
   <v>       0.41666667       0.36111111       0.00000000 </v>
   <v>       0.45833333       0.36111111       0.00000000 </v>
   <v>       0.50000000       0.36111111       0.00000000 </v>
   <v>       0.00000000       0.38888889       0.00000000 </v>
   <v>       0.04166667       0.38888889       0.00000000 </v>
   <v>       0.08333333       0.38888889       0.00000000 </v>
   <v>       0.12500000       0.38888889       0.00000000 </v>
   <v>       0.16666667       0.38888889       0.00000000 </v>
   <v>       0.20833333       0.38888889       0.00000000 </v>
   <v>       0.25000000       0.38888889       0.00000000 </v>
   <v>       0.29166667       0.38888889       0.00000000 </v>
   <v>       0.33333333       0.38888889       0.00000000 </v>
   <v>       0.37500000       0.38888889       0.00000000 </v>
   <v>       0.41666667       0.38888889       0.00000000 </v>
   <v>       0.45833333       0.38888889       0.00000000 </v>
   <v>       0.50000000       0.38888889       0.00000000 </v>
   <v>       0.00000000       0.41666667       0.00000000 </v>
   <v>       0.04166667       0.41666667       0.00000000 </v>
   <v>       0.08333333       0.41666667       0.00000000 </v>
   <v>       0.12500000       0.41666667       0.00000000 </v>
   <v>       0.16666667       0.41666667       0.00000000 </v>
   <v>       0.20833333       0.41666667       0.00000000 </v>
   <v>       0.25000000       0.41666667       0.00000000 </v>
   <v>       0.29166667       0.41666667       0.00000000 </v>
   <v>       0.33333333       0.41666667       0.00000000 </v>
   <v>       0.37500000       0.41666667       0.00000000 </v>
   <v>       0.41666667       0.41666667       0.00000000 </v>
   <v>       0.45833333       0.41666667       0.00000000 </v>
   <v>       0.50000000       0.41666667       0.00000000 </v>
   <v>       0.00000000       0.44444444       0.00000000 </v>
   <v>       0.04166667       0.44444444       0.00000000 </v>
   <v>       0.08333333       0.44444444       0.00000000 </v>
   <v>       0.12500000       0.44444444       0.00000000 </v>
   <v>       0.16666667       0.44444444       0.00000000 </v>
   <v>       0.20833333       0.44444444       0.00000000 </v>
   <v>       0.25000000       0.44444444       0.00000000 </v>
   <v>       0.29166667       0.44444444       0.00000000 </v>
   <v>       0.33333333       0.44444444       0.00000000 </v>
   <v>       0.37500000       0.44444444       0.00000000 </v>
   <v>       0.41666667       0.44444444       0.00000000 </v>
   <v>       0.45833333       0.44444444       0.00000000 </v>
   <v>       0.50000000       0.44444444       0.00000000 </v>
   <v>       0.00000000       0.47222222       0.00000000 </v>
   <v>       0.04166667       0.47222222       0.00000000 </v>
   <v>       0.08333333       0.47222222       0.00000000 </v>
   <v>       0.12500000       0.47222222       0.00000000 </v>
   <v>       0.16666667       0.47222222       0.00000000 </v>
   <v>       0.20833333       0.47222222       0.00000000 </v>
   <v>       0.25000000       0.47222222       0.00000000 </v>
   <v>       0.29166667       0.47222222       0.00000000 </v>
   <v>       0.33333333       0.47222222       0.00000000 </v>
   <v>       0.37500000       0.47222222       0.00000000 </v>
   <v>       0.41666667       0.47222222       0.00000000 </v>
   <v>       0.45833333       0.47222222       0.00000000 </v>
   <v>       0.50000000       0.47222222       0.00000000 </v>
   <v>       0.00000000       0.50000000       0.00000000 </v>
   <v>       0.04166667       0.50000000       0.00000000 </v>
   <v>       0.08333333       0.50000000       0.00000000 </v>
   <v>       0.12500000       0.50000000       0.00000000 </v>
   <v>       0.16666667       0.50000000       0.00000000 </v>
   <v>       0.20833333       0.50000000       0.00000000 </v>
   <v>       0.25000000       0.50000000       0.00000000 </v>
   <v>       0.29166667       0.50000000       0.00000000 </v>
   <v>       0.33333333       0.50000000       0.00000000 </v>
   <v>       0.37500000       0.50000000       0.00000000 </v>
   <v>       0.41666667       0.50000000       0.00000000 </v>
   <v>       0.45833333       0.50000000       0.00000000 </v>
   <v>       0.50000000       0.50000000       0.00000000 </v>
  </varray>
  <varray name="weights" >
   <v>       0.00115741 </v>
   <v>       0.00231481 </v>
   <v>       0.00231481 </v>
   <v>       0.00231481 </v>
   <v>       0.00231481 </v>
   <v>       0.00231481 </v>
   <v>       0.00231481 </v>
   <v>       0.00231481 </v>
   <v>       0.00231481 </v>
   <v>       0.00231481 </v>
   <v>       0.00231481 </v>
   <v>       0.00231481 </v>
   <v>       0.00115741 </v>
   <v>       0.00231481 </v>
   <v>       0.00462963 </v>
   <v>       0.00462963 </v>
   <v>       0.00462963 </v>
   <v>       0.00462963 </v>
   <v>       0.00462963 </v>
   <v>       0.00462963 </v>
   <v>       0.00462963 </v>
   <v>       0.00462963 </v>
   <v>       0.00462963 </v>
   <v>       0.00462963 </v>
   <v>       0.00462963 </v>
   <v>       0.00231481 </v>
   <v>       0.00231481 </v>
   <v>       0.00462963 </v>
   <v>       0.00462963 </v>
   <v>       0.00462963 </v>
   <v>       0.00462963 </v>
   <v>       0.00462963 </v>
   <v>       0.00462963 </v>
   <v>       0.00462963 </v>
   <v>       0.00462963 </v>
   <v>       0.00462963 </v>
   <v>       0.00462963 </v>
   <v>       0.00462963 </v>
   <v>       0.00231481 </v>
   <v>       0.00231481 </v>
   <v>       0.00462963 </v>
   <v>       0.00462963 </v>
   <v>       0.00462963 </v>
   <v>       0.00462963 </v>
   <v>       0.00462963 </v>
   <v>       0.00462963 </v>
   <v>       0.00462963 </v>
   <v>       0.00462963 </v>
   <v>       0.00462963 </v>
   <v>       0.00462963 </v>
   <v>       0.00462963 </v>
   <v>       0.00231481 </v>
   <v>       0.00231481 </v>
   <v>       0.00462963 </v>
   <v>       0.00462963 </v>
   <v>       0.00462963 </v>
   <v>       0.00462963 </v>
   <v>       0.00462963 </v>
   <v>       0.00462963 </v>
   <v>       0.00462963 </v>
   <v>       0.00462963 </v>
   <v>       0.00462963 </v>
   <v>       0.00462963 </v>
   <v>       0.00462963 </v>
   <v>       0.00231481 </v>
   <v>       0.00231481 </v>
   <v>       0.00462963 </v>
   <v>       0.00462963 </v>
   <v>       0.00462963 </v>
   <v>       0.00462963 </v>
   <v>       0.00462963 </v>
   <v>       0.00462963 </v>
   <v>       0.00462963 </v>
   <v>       0.00462963 </v>
   <v>       0.00462963 </v>
   <v>       0.00462963 </v>
   <v>       0.00462963 </v>
   <v>       0.00231481 </v>
   <v>       0.00231481 </v>
   <v>       0.00462963 </v>
   <v>       0.00462963 </v>
   <v>       0.00462963 </v>
   <v>       0.00462963 </v>
   <v>       0.00462963 </v>
   <v>       0.00462963 </v>
   <v>       0.00462963 </v>
   <v>       0.00462963 </v>
   <v>       0.00462963 </v>
   <v>       0.00462963 </v>
   <v>       0.00462963 </v>
   <v>       0.00231481 </v>
   <v>       0.00231481 </v>
   <v>       0.00462963 </v>
   <v>       0.00462963 </v>
   <v>       0.00462963 </v>
   <v>       0.00462963 </v>
   <v>       0.00462963 </v>
   <v>       0.00462963 </v>
   <v>       0.00462963 </v>
   <v>       0.00462963 </v>
   <v>       0.00462963 </v>
   <v>       0.00462963 </v>
   <v>       0.00462963 </v>
   <v>       0.00231481 </v>
   <v>       0.00231481 </v>
   <v>       0.00462963 </v>
   <v>       0.00462963 </v>
   <v>       0.00462963 </v>
   <v>       0.00462963 </v>
   <v>       0.00462963 </v>
   <v>       0.00462963 </v>
   <v>       0.00462963 </v>
   <v>       0.00462963 </v>
   <v>       0.00462963 </v>
   <v>       0.00462963 </v>
   <v>       0.00462963 </v>
   <v>       0.00231481 </v>
   <v>       0.00231481 </v>
   <v>       0.00462963 </v>
   <v>       0.00462963 </v>
   <v>       0.00462963 </v>
   <v>       0.00462963 </v>
   <v>       0.00462963 </v>
   <v>       0.00462963 </v>
   <v>       0.00462963 </v>
   <v>       0.00462963 </v>
   <v>       0.00462963 </v>
   <v>       0.00462963 </v>
   <v>       0.00462963 </v>
   <v>       0.00231481 </v>
   <v>       0.00231481 </v>
   <v>       0.00462963 </v>
   <v>       0.00462963 </v>
   <v>       0.00462963 </v>
   <v>       0.00462963 </v>
   <v>       0.00462963 </v>
   <v>       0.00462963 </v>
   <v>       0.00462963 </v>
   <v>       0.00462963 </v>
   <v>       0.00462963 </v>
   <v>       0.00462963 </v>
   <v>       0.00462963 </v>
   <v>       0.00231481 </v>
   <v>       0.00231481 </v>
   <v>       0.00462963 </v>
   <v>       0.00462963 </v>
   <v>       0.00462963 </v>
   <v>       0.00462963 </v>
   <v>       0.00462963 </v>
   <v>       0.00462963 </v>
   <v>       0.00462963 </v>
   <v>       0.00462963 </v>
   <v>       0.00462963 </v>
   <v>       0.00462963 </v>
   <v>       0.00462963 </v>
   <v>       0.00231481 </v>
   <v>       0.00231481 </v>
   <v>       0.00462963 </v>
   <v>       0.00462963 </v>
   <v>       0.00462963 </v>
   <v>       0.00462963 </v>
   <v>       0.00462963 </v>
   <v>       0.00462963 </v>
   <v>       0.00462963 </v>
   <v>       0.00462963 </v>
   <v>       0.00462963 </v>
   <v>       0.00462963 </v>
   <v>       0.00462963 </v>
   <v>       0.00231481 </v>
   <v>       0.00231481 </v>
   <v>       0.00462963 </v>
   <v>       0.00462963 </v>
   <v>       0.00462963 </v>
   <v>       0.00462963 </v>
   <v>       0.00462963 </v>
   <v>       0.00462963 </v>
   <v>       0.00462963 </v>
   <v>       0.00462963 </v>
   <v>       0.00462963 </v>
   <v>       0.00462963 </v>
   <v>       0.00462963 </v>
   <v>       0.00231481 </v>
   <v>       0.00231481 </v>
   <v>       0.00462963 </v>
   <v>       0.00462963 </v>
   <v>       0.00462963 </v>
   <v>       0.00462963 </v>
   <v>       0.00462963 </v>
   <v>       0.00462963 </v>
   <v>       0.00462963 </v>
   <v>       0.00462963 </v>
   <v>       0.00462963 </v>
   <v>       0.00462963 </v>
   <v>       0.00462963 </v>
   <v>       0.00231481 </v>
   <v>       0.00231481 </v>
   <v>       0.00462963 </v>
   <v>       0.00462963 </v>
   <v>       0.00462963 </v>
   <v>       0.00462963 </v>
   <v>       0.00462963 </v>
   <v>       0.00462963 </v>
   <v>       0.00462963 </v>
   <v>       0.00462963 </v>
   <v>       0.00462963 </v>
   <v>       0.00462963 </v>
   <v>       0.00462963 </v>
   <v>       0.00231481 </v>
   <v>       0.00231481 </v>
   <v>       0.00462963 </v>
   <v>       0.00462963 </v>
   <v>       0.00462963 </v>
   <v>       0.00462963 </v>
   <v>       0.00462963 </v>
   <v>       0.00462963 </v>
   <v>       0.00462963 </v>
   <v>       0.00462963 </v>
   <v>       0.00462963 </v>
   <v>       0.00462963 </v>
   <v>       0.00462963 </v>
   <v>       0.00231481 </v>
   <v>       0.00231481 </v>
   <v>       0.00462963 </v>
   <v>       0.00462963 </v>
   <v>       0.00462963 </v>
   <v>       0.00462963 </v>
   <v>       0.00462963 </v>
   <v>       0.00462963 </v>
   <v>       0.00462963 </v>
   <v>       0.00462963 </v>
   <v>       0.00462963 </v>
   <v>       0.00462963 </v>
   <v>       0.00462963 </v>
   <v>       0.00231481 </v>
   <v>       0.00115741 </v>
   <v>       0.00231481 </v>
   <v>       0.00231481 </v>
   <v>       0.00231481 </v>
   <v>       0.00231481 </v>
   <v>       0.00231481 </v>
   <v>       0.00231481 </v>
   <v>       0.00231481 </v>
   <v>       0.00231481 </v>
   <v>       0.00231481 </v>
   <v>       0.00231481 </v>
   <v>       0.00231481 </v>
   <v>       0.00115741 </v>
  </varray>
 </kpoints>
 <parameters>
  <separator name="general" >
   <i type="string" name="SYSTEM">gr</i>
   <i type="logical" name="LCOMPAT"> F  </i>
  </separator>
  <separator name="electronic" >
   <i type="string" name="PREC">accura</i>
   <i name="ENMAX">   2000.00000000</i>
   <i name="ENAUG">    644.87300000</i>
   <i name="EDIFF">      0.00000000</i>
   <i type="int" name="IALGO">    68</i>
   <i type="int" name="IWAVPR">    11</i>
   <i type="int" name="NBANDS">    12</i>
   <i name="NELECT">     16.00000000</i>
   <i type="int" name="TURBO">     0</i>
   <i type="int" name="IRESTART">     0</i>
   <i type="int" name="NREBOOT">     0</i>
   <i type="int" name="NMIN">     0</i>
   <i name="EREF">      0.00000000</i>
   <separator name="electronic smearing" >
    <i type="int" name="ISMEAR">     0</i>
    <i name="SIGMA">      0.05000000</i>
    <i name="KSPACING">      0.50000000</i>
    <i type="logical" name="KGAMMA"> T  </i>
   </separator>
   <separator name="electronic projectors" >
    <i type="logical" name="LREAL"> F  </i>
    <v name="ROPT">      0.00000000</v>
    <i type="int" name="LMAXPAW">  -100</i>
    <i type="int" name="LMAXMIX">     2</i>
    <i type="logical" name="NLSPLINE"> F  </i>
   </separator>
   <separator name="electronic startup" >
    <i type="int" name="ISTART">     0</i>
    <i type="int" name="ICHARG">     2</i>
    <i type="int" name="INIWAV">     1</i>
   </separator>
   <separator name="electronic spin" >
    <i type="int" name="ISPIN">     1</i>
    <i type="logical" name="LNONCOLLINEAR"> F  </i>
    <v name="MAGMOM">      1.00000000      1.00000000      1.00000000      1.00000000</v>
    <i name="NUPDOWN">     -1.00000000</i>
    <i type="logical" name="LSORBIT"> F  </i>
    <v name="SAXIS">      0.00000000      0.00000000      1.00000000</v>
    <i type="logical" name="LSPIRAL"> F  </i>
    <v name="QSPIRAL">      0.00000000      0.00000000      0.00000000</v>
    <i type="logical" name="LZEROZ"> F  </i>
   </separator>
   <separator name="electronic exchange-correlation" >
    <i type="logical" name="LASPH"> F  </i>
    <i type="logical" name="LMETAGGA"> F  </i>
   </separator>
   <separator name="electronic convergence" >
    <i type="int" name="NELM">   100</i>
    <i type="int" name="NELMDL">    -3</i>
    <i type="int" name="NELMIN">     5</i>
    <i name="ENINI">   2000.00000000</i>
    <separator name="electronic convergence detail" >
     <i type="logical" name="LDIAG"> T  </i>
     <i type="logical" name="LSUBROT"> F  </i>
     <i name="WEIMIN">      0.00100000</i>
     <i name="EBREAK">      0.00000000</i>
     <i name="DEPER">      0.30000000</i>
     <i type="int" name="NRMM">     4</i>
     <i name="TIME">      0.40000000</i>
    </separator>
   </separator>
   <separator name="electronic mixer" >
    <i name="AMIX">      0.40000000</i>
    <i name="BMIX">      1.00000000</i>
    <i name="AMIN">      0.10000000</i>
    <i name="AMIX_MAG">      1.60000000</i>
    <i name="BMIX_MAG">      1.00000000</i>
    <separator name="electronic mixer details" >
     <i type="int" name="IMIX">     4</i>
     <i type="int" name="MAXMIX">   -45</i>
     <i name="WC">    100.00000000</i>
     <i type="int" name="INIMIX">     1</i>
     <i type="int" name="MIXPRE">     1</i>
     <i type="int" name="MREMOVE">     5</i>
    </separator>
   </separator>
   <separator name="electronic dipolcorrection" >
    <i type="logical" name="LDIPOL"> F  </i>
    <i type="logical" name="LMONO"> F  </i>
    <i type="int" name="IDIPOL">     0</i>
    <i name="EPSILON">      1.00000000</i>
    <v name="DIPOL">   -100.00000000   -100.00000000   -100.00000000</v>
    <i name="EFIELD">      0.00000000</i>
   </separator>
  </separator>
  <separator name="grids" >
   <i type="int" name="NGX">    64</i>
   <i type="int" name="NGY">    36</i>
   <i type="int" name="NGZ">   294</i>
   <i type="int" name="NGXF">   128</i>
   <i type="int" name="NGYF">    72</i>
   <i type="int" name="NGZF">   588</i>
   <i type="logical" name="ADDGRID"> F  </i>
  </separator>
  <separator name="ionic" >
   <i type="int" name="NSW">   400</i>
   <i type="int" name="IBRION">     1</i>
   <i type="int" name="ISIF">     2</i>
   <i name="PSTRESS">      0.00000000</i>
   <i name="EDIFFG">     -0.00000100</i>
   <i type="int" name="NFREE">     0</i>
   <i name="POTIM">      0.50000000</i>
   <i name="SMASS">     -3.00000000</i>
   <i name="SCALEE">      1.00000000</i>
  </separator>
  <separator name="ionic md" >
   <i name="TEBEG">      0.00010000</i>
   <i name="TEEND">      0.00010000</i>
   <i type="int" name="NBLOCK">     1</i>
   <i type="int" name="KBLOCK">   400</i>
   <i type="int" name="NPACO">   256</i>
   <i name="APACO">     16.00000000</i>
  </separator>
  <separator name="symmetry" >
   <i type="int" name="ISYM">     2</i>
   <i name="SYMPREC">      0.00001000</i>
  </separator>
  <separator name="dos" >
   <i type="logical" name="LORBIT"> F  </i>
   <v name="RWIGS">     -1.00000000</v>
   <i type="int" name="NEDOS">   301</i>
   <i name="EMIN">     10.00000000</i>
   <i name="EMAX">    -10.00000000</i>
   <i name="EFERMI">      0.00000000</i>
  </separator>
  <separator name="writing" >
   <i type="int" name="NWRITE">     2</i>
   <i type="logical" name="LWAVE"> F  </i>
   <i type="logical" name="LCHARG"> F  </i>
   <i type="logical" name="LPARD"> F  </i>
   <i type="logical" name="LVTOT"> F  </i>
   <i type="logical" name="LVHAR"> F  </i>
   <i type="logical" name="LELF"> F  </i>
   <i type="logical" name="LOPTICS"> F  </i>
   <v name="STM">      0.00000000      0.00000000      0.00000000      0.00000000      0.00000000      0.00000000      0.00000000</v>
  </separator>
  <separator name="performance" >
   <i type="int" name="NPAR">     4</i>
   <i type="int" name="NSIM">     4</i>
   <i type="int" name="NBLK">    -1</i>
   <i type="logical" name="LPLANE"> T  </i>
   <i type="logical" name="LSCALAPACK"> F  </i>
   <i type="logical" name="LSCAAWARE"> F  </i>
   <i type="logical" name="LSCALU"> F  </i>
   <i type="logical" name="LASYNC"> F  </i>
   <i type="logical" name="LORBITALREAL"> F  </i>
  </separator>
  <separator name="miscellaneous" >
   <i type="int" name="IDIOT">     3</i>
   <i type="logical" name="LMUSIC"> F  </i>
   <v name="POMASS">     12.01100000</v>
   <v name="DARWINR">      0.00000000</v>
   <v name="DARWINV">      1.00000000</v>
   <i type="logical" name="LCORR"> T  </i>
  </separator>
  <i type="logical" name="GGA_COMPAT"> T  </i>
  <i type="logical" name="LBERRY"> F  </i>
  <i type="int" name="ICORELEVEL">     0</i>
  <i type="logical" name="LDAU"> F  </i>
  <i type="int" name="I_CONSTRAINED_M">     0</i>
  <separator name="electronic exchange-correlation" >
   <i type="string" name="GGA">--</i>
   <i type="int" name="VOSKOWN">     0</i>
   <i type="logical" name="LHFCALC"> F  </i>
   <i type="string" name="PRECFOCK"></i>
   <i type="logical" name="LSYMGRAD"> F  </i>
   <i type="logical" name="LHFONE"> F  </i>
   <i type="logical" name="LRHFCALC"> F  </i>
   <i type="logical" name="LTHOMAS"> F  </i>
   <i type="logical" name="LMODELHF"> F  </i>
   <i name="ENCUT4O">     -1.00000000</i>
   <i type="int" name="EXXOEP">     0</i>
   <i type="int" name="FOURORBIT">     0</i>
   <i name="AEXX">      0.00000000</i>
   <i name="HFALPHA">      0.00000000</i>
   <i name="MCALPHA">      0.00000000</i>
   <i name="ALDAX">      1.00000000</i>
   <i name="AGGAX">      1.00000000</i>
   <i name="ALDAC">      1.00000000</i>
   <i name="AGGAC">      1.00000000</i>
   <i type="int" name="NKREDX">     1</i>
   <i type="int" name="NKREDY">     1</i>
   <i type="int" name="NKREDZ">     1</i>
   <i type="logical" name="SHIFTRED"> F  </i>
   <i type="logical" name="ODDONLY"> F  </i>
   <i type="logical" name="EVENONLY"> F  </i>
   <i type="int" name="LMAXFOCK">     0</i>
   <i type="int" name="NMAXFOCKAE">     0</i>
   <i type="logical" name="LFOCKAEDFT"> F  </i>
   <i name="HFSCREEN">      0.00000000</i>
   <i name="HFSCREENC">      0.00000000</i>
   <i type="int" name="NBANDSGWLOW">     0</i>
  </separator>
  <separator name="vdW DFT" >
   <i type="logical" name="LUSE_VDW"> F  </i>
   <i name="Zab_VDW">     -0.84910000</i>
   <i name="PARAM1">      0.12340000</i>
   <i name="PARAM2">      1.00000000</i>
   <i name="PARAM3">      0.00000000</i>
  </separator>
  <separator name="model GW" >
   <i type="int" name="MODEL_GW">     0</i>
   <i name="MODEL_EPS0">     31.62568521</i>
   <i name="MODEL_ALPHA">      1.00000000</i>
  </separator>
  <separator name="linear response parameters" >
   <i type="logical" name="LEPSILON"> F  </i>
   <i type="logical" name="LRPA"> F  </i>
   <i type="logical" name="LNABLA"> F  </i>
   <i type="logical" name="LVEL"> F  </i>
   <i type="int" name="KINTER">     0</i>
   <i name="CSHIFT">      0.10000000</i>
   <i name="OMEGAMAX">     -1.00000000</i>
   <i name="DEG_THRESHOLD">      0.00200000</i>
  </separator>
  <separator name="orbital magnetization" >
   <i type="logical" name="NUCIND"> F  </i>
   <v name="MAGPOS">      0.00000000      0.00000000      0.00000000</v>
   <i type="logical" name="LNICSALL"> T  </i>
   <i type="logical" name="ORBITALMAG"> F  </i>
   <i type="logical" name="LMAGBLOCH"> F  </i>
   <i type="logical" name="LCHIMAG"> F  </i>
   <i type="logical" name="LGAUGE"> T  </i>
   <i type="int" name="MAGATOM">     0</i>
   <v name="MAGDIPOL">      0.00000000      0.00000000      0.00000000</v>
   <v name="AVECCONST">      0.00000000      0.00000000      0.00000000</v>
  </separator>
  <separator name="response functions" >
   <i type="logical" name="LADDER"> F  </i>
   <i type="logical" name="LFXC"> F  </i>
   <i type="logical" name="LHARTREE"> T  </i>
   <i type="int" name="IBSE">     0</i>
   <i type="logical" name="LTCTE"> F  </i>
   <i type="logical" name="LTETE"> F  </i>
   <i type="logical" name="LTRIPLET"> F  </i>
   <i type="logical" name="LFXCEPS"> F  </i>
   <i type="logical" name="LFXHEG"> F  </i>
   <i type="logical" name="L2ORDER"> F  </i>
   <i type="logical" name="LUSEW"> F  </i>
   <i name="ENCUTGW">     -2.00000000</i>
   <i name="ENCUTGWSOFT">     -2.00000000</i>
   <i name="ENCUTLF">     -1.00000000</i>
   <i type="int" name="LMAXMP2">    -1</i>
   <i name="SCISSOR">      0.00000000</i>
   <i type="int" name="NOMEGA">     0</i>
   <i type="int" name="NOMEGAR">     0</i>
   <i type="int" name="NBANDSGW">    -1</i>
   <i type="int" name="NBANDSO">    -1</i>
   <i type="int" name="NBANDSV">    -1</i>
   <i type="int" name="NELM">   100</i>
   <i type="int" name="DIM">     3</i>
   <i type="int" name="ANTIRES">     0</i>
   <i name="OMEGAMAX">    -30.00000000</i>
   <i name="OMEGAMIN">    -30.00000000</i>
   <i name="OMEGATL">   -200.00000000</i>
   <i type="int" name="OMEGAGRID">     0</i>
   <i name="CSHIFT">     -0.10000000</i>
   <i type="logical" name="SELFENERGY"> F  </i>
   <i type="logical" name="LSPECTRAL"> F  </i>
   <i type="logical" name="ODDONLYGW"> F  </i>
   <i type="logical" name="EVENONLYGW"> F  </i>
   <i type="int" name="NKREDLFX">     1</i>
   <i type="int" name="NKREDLFY">     1</i>
   <i type="int" name="NKREDLFZ">     1</i>
   <i type="int" name="MAXMEM">  1800</i>
   <i type="int" name="TELESCOPE">     0</i>
   <i type="int" name="TAUPAR">     1</i>
  </separator>
  <separator name="External order field" >
   <i name="OFIELD_KAPPA">      0.00000000</i>
   <v name="OFIELD_K">      0.00000000      0.00000000      0.00000000</v>
   <i name="OFIELD_Q6_NEAR">      0.00000000</i>
   <i name="OFIELD_Q6_FAR">      0.00000000</i>
   <i name="OFIELD_A">      0.00000000</i>
  </separator>
 </parameters>
 <atominfo>
  <atoms>       4 </atoms>
  <types>       1 </types>
  <array name="atoms" >
   <dimension dim="1">ion</dimension>
   <field type="string">element</field>
   <field type="int">atomtype</field>
   <set>
    <rc><c>C </c><c>   1</c></rc>
    <rc><c>C </c><c>   1</c></rc>
    <rc><c>C </c><c>   1</c></rc>
    <rc><c>C </c><c>   1</c></rc>
   </set>
  </array>
  <array name="atomtypes" >
   <dimension dim="1">type</dimension>
   <field type="int">atomspertype</field>
   <field type="string">element</field>
   <field>mass</field>
   <field>valence</field>
   <field type="string">pseudopotential</field>
   <set>
    <rc><c>   4</c><c>C </c><c>     12.01100000</c><c>      4.00000000</c><c> PAW_PBE C 08Apr2002                    </c></rc>
   </set>
  </array>
 </atominfo>
 <structure name="initialpos" >
  <crystal>
   <varray name="basis" >
    <v>       4.26934007       0.00000000       0.00000000 </v>
    <v>       0.00000000       2.47975975       0.00000000 </v>
    <v>       0.00000000       0.00000000      19.91490914 </v>
   </varray>
   <i name="volume">    210.83790140 </i>
   <varray name="rec_basis" >
    <v>       0.23422824       0.00000000       0.00000000 </v>
    <v>       0.00000000       0.40326487       0.00000000 </v>
    <v>       0.00000000       0.00000000       0.05021364 </v>
   </varray>
  </crystal>
  <varray name="positions" >
   <v>       0.00013158       0.00000000       0.00000000 </v>
   <v>       0.16653509       0.50000000       0.00000000 </v>
   <v>       0.50013158       0.50000000       0.00000000 </v>
   <v>       0.66653509       0.00000000       0.00000000 </v>
  </varray>
 </structure>
 <calculation>
  <scstep>
   <time name="dav">  295.02  297.20</time>
   <time name="total">  297.58  299.82</time>
   <energy>
    <i name="alphaZ">      6.18334092 </i>
    <i name="ewald">   2558.06099624 </i>
    <i name="hartreedc">  -2984.30247847 </i>
    <i name="XCdc">     55.03957501 </i>
    <i name="pawpsdc">    151.32577238 </i>
    <i name="pawaedc">   -155.92769107 </i>
    <i name="eentropy">     -0.00170079 </i>
    <i name="bandstr">    -29.52375556 </i>
    <i name="atom">    588.62352690 </i>
    <i name="e_fr_energy">    189.47758556 </i>
    <i name="e_wo_entrp">    189.47928635 </i>
    <i name="e_0_energy">    189.47843596 </i>
   </energy>
  </scstep>
  <scstep>
   <time name="dav">  448.84  450.84</time>
   <time name="total">  448.85  450.85</time>
   <energy>
    <i name="e_fr_energy">     -9.08969165 </i>
    <i name="e_wo_entrp">     -9.08923768 </i>
    <i name="e_0_energy">     -9.08946467 </i>
   </energy>
  </scstep>
  <scstep>
   <time name="dav">  343.05  343.49</time>
   <time name="total">  373.19  373.83</time>
   <energy>
    <i name="e_fr_energy">    -38.36168199 </i>
    <i name="e_wo_entrp">    -38.36158551 </i>
    <i name="e_0_energy">    -38.36163375 </i>
   </energy>
  </scstep>
  <scstep>
   <time name="diag">   79.85   80.02</time>
   <time name="diis">  342.48  342.70</time>
   <time name="orth">    3.08    3.08</time>
   <time name="total">  457.81  458.77</time>
   <energy>
    <i name="e_fr_energy">    -37.69447611 </i>
    <i name="e_wo_entrp">    -37.69437591 </i>
    <i name="e_0_energy">    -37.69442601 </i>
   </energy>
  </scstep>
  <scstep>
   <time name="diag">   80.01   80.02</time>
   <time name="diis">  339.41  339.48</time>
   <time name="orth">    3.08    3.08</time>
   <time name="total">  455.30  455.57</time>
   <energy>
    <i name="e_fr_energy">    -36.93372277 </i>
    <i name="e_wo_entrp">    -36.93363281 </i>
    <i name="e_0_energy">    -36.93367779 </i>
   </energy>
  </scstep>
  <scstep>
   <time name="diag">   79.79   79.98</time>
   <time name="diis">  372.51  372.60</time>
   <time name="orth">    3.10    3.10</time>
   <time name="total">  488.04  488.38</time>
   <energy>
    <i name="e_fr_energy">    -36.93488471 </i>
    <i name="e_wo_entrp">    -36.93479591 </i>
    <i name="e_0_energy">    -36.93484031 </i>
   </energy>
  </scstep>
  <scstep>
   <time name="diag">   79.76   79.93</time>
   <time name="diis">  342.01  342.09</time>
   <time name="orth">    3.10    3.11</time>
   <time name="total">  457.63  458.09</time>
   <energy>
    <i name="e_fr_energy">    -36.92545719 </i>
    <i name="e_wo_entrp">    -36.92536981 </i>
    <i name="e_0_energy">    -36.92541350 </i>
   </energy>
  </scstep>
  <scstep>
   <time name="diag">   79.89   79.91</time>
   <time name="diis">  341.26  342.30</time>
   <time name="orth">    3.08    3.08</time>
   <time name="total">  456.78  458.05</time>
   <energy>
    <i name="e_fr_energy">    -36.91972285 </i>
    <i name="e_wo_entrp">    -36.91963512 </i>
    <i name="e_0_energy">    -36.91967898 </i>
   </energy>
  </scstep>
  <scstep>
   <time name="diag">   79.45   79.83</time>
   <time name="diis">  322.08  323.63</time>
   <time name="orth">    3.08    3.10</time>
   <time name="total">  437.21  439.36</time>
   <energy>
    <i name="e_fr_energy">    -36.91944494 </i>
    <i name="e_wo_entrp">    -36.91935652 </i>
    <i name="e_0_energy">    -36.91940073 </i>
   </energy>
  </scstep>
  <scstep>
   <time name="diag">   79.47   79.83</time>
   <time name="diis">  323.73  324.23</time>
   <time name="orth">    3.10    3.10</time>
   <time name="total">  438.91  439.81</time>
   <energy>
    <i name="e_fr_energy">    -36.91927323 </i>
    <i name="e_wo_entrp">    -36.91918522 </i>
    <i name="e_0_energy">    -36.91922923 </i>
   </energy>
  </scstep>
  <scstep>
   <time name="diag">   79.74   79.80</time>
   <time name="diis">  326.31  326.38</time>
   <time name="orth">    3.09    3.09</time>
   <time name="total">  441.58  441.76</time>
   <energy>
    <i name="e_fr_energy">    -36.92182979 </i>
    <i name="e_wo_entrp">    -36.92174195 </i>
    <i name="e_0_energy">    -36.92178587 </i>
   </energy>
  </scstep>
  <scstep>
   <time name="diag">   79.77   79.79</time>
   <time name="diis">  324.15  324.93</time>
   <time name="orth">    3.08    3.08</time>
   <time name="total">  439.62  440.72</time>
   <energy>
    <i name="e_fr_energy">    -36.92227324 </i>
    <i name="e_wo_entrp">    -36.92218523 </i>
    <i name="e_0_energy">    -36.92222923 </i>
   </energy>
  </scstep>
  <scstep>
   <time name="diag">   79.44   79.85</time>
   <time name="diis">  329.64  331.16</time>
   <time name="orth">    3.10    3.10</time>
   <time name="total">  444.71  446.68</time>
   <energy>
    <i name="e_fr_energy">    -36.92253580 </i>
    <i name="e_wo_entrp">    -36.92244775 </i>
    <i name="e_0_energy">    -36.92249177 </i>
   </energy>
  </scstep>
  <scstep>
   <time name="diag">   79.84   79.86</time>
   <time name="diis">  329.21  330.50</time>
   <time name="orth">    3.08    3.10</time>
   <time name="total">  444.70  446.23</time>
   <energy>
    <i name="e_fr_energy">    -36.92262050 </i>
    <i name="e_wo_entrp">    -36.92253251 </i>
    <i name="e_0_energy">    -36.92257651 </i>
   </energy>
  </scstep>
  <scstep>
   <time name="diag">   79.33   79.77</time>
   <time name="diis">  338.09  338.94</time>
   <time name="orth">    3.09    3.10</time>
   <time name="total">  453.18  454.56</time>
   <energy>
    <i name="e_fr_energy">    -36.92262857 </i>
    <i name="e_wo_entrp">    -36.92254057 </i>
    <i name="e_0_energy">    -36.92258457 </i>
   </energy>
  </scstep>
  <scstep>
   <time name="diag">   79.63   79.74</time>
   <time name="diis">  342.56  343.23</time>
   <time name="orth">    3.10    3.11</time>
   <time name="total">  457.89  459.01</time>
   <energy>
    <i name="e_fr_energy">    -36.92264040 </i>
    <i name="e_wo_entrp">    -36.92255238 </i>
    <i name="e_0_energy">    -36.92259639 </i>
   </energy>
  </scstep>
  <scstep>
   <time name="diag">   79.18   79.80</time>
   <time name="diis">  342.54  345.75</time>
   <time name="orth">    3.09    3.11</time>
   <time name="total">  457.34  461.93</time>
   <energy>
    <i name="e_fr_energy">    -36.92264400 </i>
    <i name="e_wo_entrp">    -36.92255599 </i>
    <i name="e_0_energy">    -36.92260000 </i>
   </energy>
  </scstep>
  <scstep>
   <time name="diag">   79.16   79.79</time>
   <time name="diis">  326.94  329.98</time>
   <time name="orth">    3.09    3.13</time>
   <time name="total">  441.52  445.60</time>
   <energy>
    <i name="e_fr_energy">    -36.92264582 </i>
    <i name="e_wo_entrp">    -36.92255781 </i>
    <i name="e_0_energy">    -36.92260182 </i>
   </energy>
  </scstep>
  <scstep>
   <time name="diag">   79.53   79.87</time>
   <time name="diis">  337.78  340.03</time>
   <time name="orth">    3.08    3.08</time>
   <time name="total">  452.95  455.96</time>
   <energy>
    <i name="e_fr_energy">    -36.92264633 </i>
    <i name="e_wo_entrp">    -36.92255832 </i>
    <i name="e_0_energy">    -36.92260232 </i>
   </energy>
  </scstep>
  <scstep>
   <time name="diag">   79.39   79.85</time>
   <time name="diis">  262.12  263.20</time>
   <time name="orth">    3.09    3.09</time>
   <time name="total">  377.25  378.89</time>
   <energy>
    <i name="e_fr_energy">    -36.92264637 </i>
    <i name="e_wo_entrp">    -36.92255836 </i>
    <i name="e_0_energy">    -36.92260237 </i>
   </energy>
  </scstep>
  <scstep>
   <time name="diag">   79.37   79.91</time>
   <time name="diis">  255.81  257.83</time>
   <time name="orth">    3.08    3.10</time>
   <time name="total">  370.90  373.69</time>
   <energy>
    <i name="e_fr_energy">    -36.92264639 </i>
    <i name="e_wo_entrp">    -36.92255838 </i>
    <i name="e_0_energy">    -36.92260239 </i>
   </energy>
  </scstep>
  <scstep>
   <time name="diag">   79.78   79.91</time>
   <time name="diis">  225.76  226.35</time>
   <time name="orth">    3.09    3.09</time>
   <time name="total">  341.54  342.41</time>
   <energy>
    <i name="e_fr_energy">    -36.92264639 </i>
    <i name="e_wo_entrp">    -36.92255838 </i>
    <i name="e_0_energy">    -36.92260239 </i>
   </energy>
  </scstep>
  <scstep>
   <time name="diag">   79.91   79.94</time>
   <time name="diis">  216.78  216.83</time>
   <time name="orth">    3.09    3.09</time>
   <time name="total">  332.73  332.84</time>
   <energy>
    <i name="e_fr_energy">    -36.92264639 </i>
    <i name="e_wo_entrp">    -36.92255838 </i>
    <i name="e_0_energy">    -36.92260239 </i>
   </energy>
  </scstep>
  <scstep>
   <time name="diag">   79.94   79.96</time>
   <time name="diis">  205.38  205.44</time>
   <time name="orth">    3.08    3.08</time>
   <time name="total">  321.40  321.51</time>
   <energy>
    <i name="e_fr_energy">    -36.92264639 </i>
    <i name="e_wo_entrp">    -36.92255838 </i>
    <i name="e_0_energy">    -36.92260239 </i>
   </energy>
  </scstep>
  <scstep>
   <time name="diag">   79.95   79.96</time>
   <time name="diis">  196.14  196.18</time>
   <time name="orth">    3.10    3.10</time>
   <time name="total">  281.60  281.76</time>
   <energy>
    <i name="alphaZ">      6.18334092 </i>
    <i name="ewald">   2558.06099624 </i>
    <i name="hartreedc">  -3052.07784673 </i>
    <i name="XCdc">     57.44380182 </i>
    <i name="pawpsdc">    275.34832544 </i>
    <i name="pawaedc">   -280.48930665 </i>
    <i name="eentropy">     -0.00008801 </i>
    <i name="bandstr">   -190.01539633 </i>
    <i name="atom">    588.62352690 </i>
    <i name="e_fr_energy">    -36.92264639 </i>
    <i name="e_wo_entrp">    -36.92255838 </i>
    <i name="e_0_energy">    -36.92260239 </i>
   </energy>
  </scstep>
  <structure>
   <crystal>
    <varray name="basis" >
     <v>       4.26934007       0.00000000       0.00000000 </v>
     <v>       0.00000000       2.47975975       0.00000000 </v>
     <v>       0.00000000       0.00000000      19.91490914 </v>
    </varray>
    <i name="volume">    210.83790140 </i>
    <varray name="rec_basis" >
     <v>       0.23422824       0.00000000       0.00000000 </v>
     <v>       0.00000000       0.40326487       0.00000000 </v>
     <v>       0.00000000       0.00000000       0.05021364 </v>
    </varray>
   </crystal>
   <varray name="positions" >
    <v>       0.00013158       0.00000000       0.00000000 </v>
    <v>       0.16653509       0.50000000       0.00000000 </v>
    <v>       0.50013158       0.50000000       0.00000000 </v>
    <v>       0.66653509       0.00000000       0.00000000 </v>
   </varray>
  </structure>
  <varray name="forces" >
   <v>       0.00001075      -0.00000000       0.00000000 </v>
   <v>      -0.00001075      -0.00000000      -0.00000000 </v>
   <v>       0.00001075       0.00000000       0.00000000 </v>
   <v>      -0.00001075       0.00000000      -0.00000000 </v>
  </varray>
  <varray name="stress" >
   <v>       0.00011885       0.00000000       0.00000000 </v>
   <v>       0.00000000      -8.50662681       0.00000000 </v>
   <v>       0.00000000       0.00000000      -0.01002272 </v>
  </varray>
  <energy>
   <i name="e_fr_energy">    -36.92264639 </i>
   <i name="e_wo_entrp">    -36.92260239 </i>
   <i name="e_0_energy">     -0.00008801 </i>
  </energy>
  <time name="totalsc">10470.9210507.15</time>
 </calculation>
 <calculation>
  <scstep>
   <time name="dav">  306.86  307.34</time>
   <time name="total">  339.74  340.27</time>
   <energy>
    <i name="alphaZ">      6.18334092 </i>
    <i name="ewald">   2558.06099393 </i>
    <i name="hartreedc">  -3052.07785181 </i>
    <i name="XCdc">     57.44380200 </i>
    <i name="pawpsdc">    275.34833128 </i>
    <i name="pawaedc">   -280.48931258 </i>
    <i name="eentropy">     -0.00008803 </i>
    <i name="bandstr">   -190.01538901 </i>
    <i name="atom">    588.62352690 </i>
    <i name="e_fr_energy">    -36.92264639 </i>
    <i name="e_wo_entrp">    -36.92255837 </i>
    <i name="e_0_energy">    -36.92260238 </i>
   </energy>
  </scstep>
  <scstep>
   <time name="diag">   79.83   79.96</time>
   <time name="diis">  214.76  215.39</time>
   <time name="orth">    3.08    3.08</time>
   <time name="total">  330.46  331.42</time>
   <energy>
    <i name="e_fr_energy">    -36.92264639 </i>
    <i name="e_wo_entrp">    -36.92255837 </i>
    <i name="e_0_energy">    -36.92260238 </i>
   </energy>
  </scstep>
  <scstep>
   <time name="diag">   79.91   79.94</time>
   <time name="diis">  218.05  218.10</time>
   <time name="orth">    3.11    3.11</time>
   <time name="total">  334.03  334.15</time>
   <energy>
    <i name="e_fr_energy">    -36.92264639 </i>
    <i name="e_wo_entrp">    -36.92255837 </i>
    <i name="e_0_energy">    -36.92260238 </i>
   </energy>
  </scstep>
  <scstep>
   <time name="diag">   79.93   79.95</time>
   <time name="diis">  204.38  204.79</time>
   <time name="orth">    3.13    3.13</time>
   <time name="total">  320.22  320.80</time>
   <energy>
    <i name="e_fr_energy">    -36.92264639 </i>
    <i name="e_wo_entrp">    -36.92255837 </i>
    <i name="e_0_energy">    -36.92260238 </i>
   </energy>
  </scstep>
  <scstep>
   <time name="diag">   79.88   79.94</time>
   <time name="diis">  194.98  195.65</time>
   <time name="orth">    3.08    3.08</time>
   <time name="total">  310.70  311.65</time>
   <energy>
    <i name="e_fr_energy">    -36.92264639 </i>
    <i name="e_wo_entrp">    -36.92255837 </i>
    <i name="e_0_energy">    -36.92260238 </i>
   </energy>
  </scstep>
  <scstep>
   <time name="diag">   79.56   79.90</time>
   <time name="diis">  185.82  185.86</time>
   <time name="orth">    3.10    3.10</time>
   <time name="total">  301.41  301.82</time>
   <energy>
    <i name="e_fr_energy">    -36.92264639 </i>
    <i name="e_wo_entrp">    -36.92255837 </i>
    <i name="e_0_energy">    -36.92260238 </i>
   </energy>
  </scstep>
  <scstep>
   <time name="diag">   79.92   79.94</time>
   <time name="diis">  179.26  179.32</time>
   <time name="orth">    3.10    3.10</time>
   <time name="total">  295.16  295.25</time>
   <energy>
    <i name="e_fr_energy">    -36.92264639 </i>
    <i name="e_wo_entrp">    -36.92255837 </i>
    <i name="e_0_energy">    -36.92260238 </i>
   </energy>
  </scstep>
  <scstep>
   <time name="diag">   79.55   79.87</time>
   <time name="diis">  171.82  172.12</time>
   <time name="orth">    3.10    3.10</time>
   <time name="total">  287.35  288.37</time>
   <energy>
    <i name="e_fr_energy">    -36.92264639 </i>
    <i name="e_wo_entrp">    -36.92255837 </i>
    <i name="e_0_energy">    -36.92260238 </i>
   </energy>
  </scstep>
  <scstep>
   <time name="diag">   79.95   79.98</time>
   <time name="diis">  166.73  166.76</time>
   <time name="orth">    3.08    3.08</time>
   <time name="total">  252.27  252.33</time>
   <energy>
    <i name="alphaZ">      6.18334092 </i>
    <i name="ewald">   2558.06099393 </i>
    <i name="hartreedc">  -3052.07785540 </i>
    <i name="XCdc">     57.44380215 </i>
    <i name="pawpsdc">    275.34832784 </i>
    <i name="pawaedc">   -280.48930921 </i>
    <i name="eentropy">     -0.00008803 </i>
    <i name="bandstr">   -190.01538551 </i>
    <i name="atom">    588.62352690 </i>
    <i name="e_fr_energy">    -36.92264639 </i>
    <i name="e_wo_entrp">    -36.92255837 </i>
    <i name="e_0_energy">    -36.92260238 </i>
   </energy>
  </scstep>
  <structure>
   <crystal>
    <varray name="basis" >
     <v>       4.26934007       0.00000000       0.00000000 </v>
     <v>       0.00000000       2.47975975       0.00000000 </v>
     <v>       0.00000000       0.00000000      19.91490914 </v>
    </varray>
    <i name="volume">    210.83790140 </i>
    <varray name="rec_basis" >
     <v>       0.23422824       0.00000000       0.00000000 </v>
     <v>       0.00000000       0.40326487       0.00000000 </v>
     <v>       0.00000000       0.00000000       0.05021364 </v>
    </varray>
   </crystal>
   <varray name="positions" >
    <v>       0.00013170      -0.00000000       0.00000000 </v>
    <v>       0.16653497       0.50000000      -0.00000000 </v>
    <v>       0.50013170       0.50000000       0.00000000 </v>
    <v>       0.66653497       0.00000000      -0.00000000 </v>
   </varray>
  </structure>
  <varray name="forces" >
   <v>      -0.00004323      -0.00000000       0.00000000 </v>
   <v>       0.00004323       0.00000000       0.00000000 </v>
   <v>      -0.00004323      -0.00000000       0.00000000 </v>
   <v>       0.00004323       0.00000000       0.00000000 </v>
  </varray>
  <varray name="stress" >
   <v>      -0.00004160       0.00000000       0.00000000 </v>
   <v>       0.00000000      -8.50645550       0.00000000 </v>
   <v>       0.00000000       0.00000000      -0.01002483 </v>
  </varray>
  <energy>
   <i name="e_fr_energy">    -36.92264639 </i>
   <i name="e_wo_entrp">    -36.92260238 </i>
   <i name="e_0_energy">     -0.00008803 </i>
  </energy>
  <time name="totalsc"> 2872.78 2878.14</time>
 </calculation>
 <calculation>
  <scstep>
   <time name="dav">  310.87  311.32</time>
   <time name="total">  343.86  344.32</time>
   <energy>
    <i name="alphaZ">      6.18334092 </i>
    <i name="ewald">   2558.06099578 </i>
    <i name="hartreedc">  -3052.07785620 </i>
    <i name="XCdc">     57.44380221 </i>
    <i name="pawpsdc">    275.34832785 </i>
    <i name="pawaedc">   -280.48930922 </i>
    <i name="eentropy">     -0.00008801 </i>
    <i name="bandstr">   -190.01538662 </i>
    <i name="atom">    588.62352690 </i>
    <i name="e_fr_energy">    -36.92264639 </i>
    <i name="e_wo_entrp">    -36.92255838 </i>
    <i name="e_0_energy">    -36.92260239 </i>
   </energy>
  </scstep>
  <scstep>
   <time name="diag">   79.83   79.84</time>
   <time name="diis">  203.93  204.06</time>
   <time name="orth">    3.08    3.08</time>
   <time name="total">  319.70  320.01</time>
   <energy>
    <i name="e_fr_energy">    -36.92264639 </i>
    <i name="e_wo_entrp">    -36.92255838 </i>
    <i name="e_0_energy">    -36.92260239 </i>
   </energy>
  </scstep>
  <scstep>
   <time name="diag">   79.46   79.84</time>
   <time name="diis">  205.86  206.01</time>
   <time name="orth">    3.10    3.10</time>
   <time name="total">  321.35  322.29</time>
   <energy>
    <i name="e_fr_energy">    -36.92264639 </i>
    <i name="e_wo_entrp">    -36.92255838 </i>
    <i name="e_0_energy">    -36.92260239 </i>
   </energy>
  </scstep>
  <scstep>
   <time name="diag">   79.82   79.84</time>
   <time name="diis">  186.56  186.60</time>
   <time name="orth">    3.08    3.08</time>
   <time name="total">  302.42  303.36</time>
   <energy>
    <i name="e_fr_energy">    -36.92264639 </i>
    <i name="e_wo_entrp">    -36.92255838 </i>
    <i name="e_0_energy">    -36.92260239 </i>
   </energy>
  </scstep>
  <scstep>
   <time name="diag">   79.86   79.89</time>
   <time name="diis">  172.75  172.83</time>
   <time name="orth">    3.09    3.09</time>
   <time name="total">  288.65  288.78</time>
   <energy>
    <i name="e_fr_energy">    -36.92264639 </i>
    <i name="e_wo_entrp">    -36.92255838 </i>
    <i name="e_0_energy">    -36.92260239 </i>
   </energy>
  </scstep>
  <scstep>
   <time name="diag">   79.83   79.84</time>
   <time name="diis">  169.47  169.52</time>
   <time name="orth">    3.08    3.08</time>
   <time name="total">  285.35  285.45</time>
   <energy>
    <i name="e_fr_energy">    -36.92264639 </i>
    <i name="e_wo_entrp">    -36.92255838 </i>
    <i name="e_0_energy">    -36.92260239 </i>
   </energy>
  </scstep>
  <scstep>
   <time name="diag">   79.83   79.85</time>
   <time name="diis">  151.19  151.30</time>
   <time name="orth">    3.10    3.10</time>
   <time name="total">  236.63  236.76</time>
   <energy>
    <i name="alphaZ">      6.18334092 </i>
    <i name="ewald">   2558.06099578 </i>
    <i name="hartreedc">  -3052.07785705 </i>
    <i name="XCdc">     57.44380223 </i>
    <i name="pawpsdc">    275.34833532 </i>
    <i name="pawaedc">   -280.48931673 </i>
    <i name="eentropy">     -0.00008801 </i>
    <i name="bandstr">   -190.01538576 </i>
    <i name="atom">    588.62352690 </i>
    <i name="e_fr_energy">    -36.92264639 </i>
    <i name="e_wo_entrp">    -36.92255838 </i>
    <i name="e_0_energy">    -36.92260239 </i>
   </energy>
  </scstep>
  <structure>
   <crystal>
    <varray name="basis" >
     <v>       4.26934007       0.00000000       0.00000000 </v>
     <v>       0.00000000       2.47975975       0.00000000 </v>
     <v>       0.00000000       0.00000000      19.91490914 </v>
    </varray>
    <i name="volume">    210.83790140 </i>
    <varray name="rec_basis" >
     <v>       0.23422824       0.00000000       0.00000000 </v>
     <v>       0.00000000       0.40326487       0.00000000 </v>
     <v>       0.00000000       0.00000000       0.05021364 </v>
    </varray>
   </crystal>
   <varray name="positions" >
    <v>       0.00013160      -0.00000000       0.00000000 </v>
    <v>       0.16653506       0.50000000      -0.00000000 </v>
    <v>       0.50013160       0.50000000       0.00000000 </v>
    <v>       0.66653506       0.00000000      -0.00000000 </v>
   </varray>
  </structure>
  <varray name="forces" >
   <v>      -0.00000059      -0.00000000       0.00000000 </v>
   <v>       0.00000059       0.00000000       0.00000000 </v>
   <v>      -0.00000059      -0.00000000       0.00000000 </v>
   <v>       0.00000059      -0.00000000       0.00000000 </v>
  </varray>
  <varray name="stress" >
   <v>       0.00010272       0.00000000       0.00000000 </v>
   <v>       0.00000000      -8.50658371       0.00000000 </v>
   <v>       0.00000000       0.00000000      -0.01002841 </v>
  </varray>
  <energy>
   <i name="e_fr_energy">    -36.92264639 </i>
   <i name="e_wo_entrp">    -36.92260239 </i>
   <i name="e_0_energy">     -0.00008801 </i>
  </energy>
  <time name="totalsc"> 2192.42 2195.70</time>
  <eigenvalues>
   <array>
    <dimension dim="1">band</dimension>
    <dimension dim="2">kpoint</dimension>
    <dimension dim="3">spin</dimension>
    <field>eigene</field>
    <field>occ</field>
    <set>
     <set comment="spin 1">
      <set comment="kpoint 1">
       <r>  -22.2185    1.0000 </r>
       <r>  -16.9552    1.0000 </r>
       <r>  -15.9502    1.0000 </r>
       <r>  -10.3318    1.0000 </r>
       <r>   -9.2276    1.0000 </r>
       <r>   -5.8321    1.0000 </r>
       <r>   -5.7740    1.0000 </r>
       <r>   -5.0678    1.0000 </r>
       <r>   -1.0871    0.0000 </r>
       <r>    0.5280    0.0000 </r>
       <r>    1.3285    0.0000 </r>
       <r>    1.7136    0.0000 </r>
      </set>
      <set comment="kpoint 2">
       <r>  -22.2082    1.0000 </r>
       <r>  -17.1260    1.0000 </r>
       <r>  -15.7642    1.0000 </r>
       <r>  -10.3195    1.0000 </r>
       <r>   -9.2173    1.0000 </r>
       <r>   -5.8549    1.0000 </r>
       <r>   -5.8162    1.0000 </r>
       <r>   -5.1350    1.0000 </r>
       <r>   -1.0041    0.0000 </r>
       <r>    0.5420    0.0000 </r>
       <r>    1.3427    0.0000 </r>
       <r>    1.7278    0.0000 </r>
      </set>
      <set comment="kpoint 3">
       <r>  -22.1774    1.0000 </r>
       <r>  -17.4692    1.0000 </r>
       <r>  -15.3755    1.0000 </r>
       <r>  -10.2827    1.0000 </r>
       <r>   -9.1867    1.0000 </r>
       <r>   -5.9412    1.0000 </r>
       <r>   -5.9221    1.0000 </r>
       <r>   -5.3213    1.0000 </r>
       <r>   -0.7707    0.0000 </r>
       <r>    0.5838    0.0000 </r>
       <r>    1.3850    0.0000 </r>
       <r>    1.7707    0.0000 </r>
      </set>
      <set comment="kpoint 4">
       <r>  -22.1260    1.0000 </r>
       <r>  -17.8492    1.0000 </r>
       <r>  -14.9198    1.0000 </r>
       <r>  -10.2215    1.0000 </r>
       <r>   -9.1358    1.0000 </r>
       <r>   -6.1442    1.0000 </r>
       <r>   -6.0300    1.0000 </r>
       <r>   -5.5926    1.0000 </r>
       <r>   -0.4215    0.0000 </r>
       <r>    0.6535    0.0000 </r>
       <r>    1.4555    0.0000 </r>
       <r>    1.8421    0.0000 </r>
      </set>
      <set comment="kpoint 5">
       <r>  -22.0542    1.0000 </r>
       <r>  -18.2306    1.0000 </r>
       <r>  -14.4331    1.0000 </r>
       <r>  -10.1360    1.0000 </r>
       <r>   -9.0648    1.0000 </r>
       <r>   -6.4179    1.0000 </r>
       <r>   -6.1733    1.0000 </r>
       <r>   -5.9154    1.0000 </r>
       <r>    0.0092    0.0000 </r>
       <r>    0.7510    0.0000 </r>
       <r>    1.5542    0.0000 </r>
       <r>    1.9421    0.0000 </r>
      </set>
      <set comment="kpoint 6">
       <r>  -21.9619    1.0000 </r>
       <r>  -18.6027    1.0000 </r>
       <r>  -13.9268    1.0000 </r>
       <r>  -10.0262    1.0000 </r>
       <r>   -8.9743    1.0000 </r>
       <r>   -6.7537    1.0000 </r>
       <r>   -6.3457    1.0000 </r>
       <r>   -6.2651    1.0000 </r>
       <r>    0.4954    0.0000 </r>
       <r>    0.8765    0.0000 </r>
       <r>    1.6811    0.0000 </r>
       <r>    2.0706    0.0000 </r>
      </set>
      <set comment="kpoint 7">
       <r>  -21.8492    1.0000 </r>
       <r>  -18.9613    1.0000 </r>
       <r>  -13.4058    1.0000 </r>
       <r>   -9.8925    1.0000 </r>
       <r>   -8.8646    1.0000 </r>
       <r>   -7.1425    1.0000 </r>
       <r>   -6.6252    1.0000 </r>
       <r>   -6.5403    1.0000 </r>
       <r>    1.0190    0.0000 </r>
       <r>    1.0298    0.0000 </r>
       <r>    1.8360    0.0000 </r>
       <r>    2.2277    0.0000 </r>
      </set>
      <set comment="kpoint 8">
       <r>  -21.7162    1.0000 </r>
       <r>  -19.3041    1.0000 </r>
       <r>  -12.8735    1.0000 </r>
       <r>   -9.7349    1.0000 </r>
       <r>   -8.7365    1.0000 </r>
       <r>   -7.5753    1.0000 </r>
       <r>   -6.9851    1.0000 </r>
       <r>   -6.7507    1.0000 </r>
       <r>    1.2109    0.0000 </r>
       <r>    1.5674    0.0000 </r>
       <r>    2.0190    0.0000 </r>
       <r>    2.4134    0.0000 </r>
      </set>
      <set comment="kpoint 9">
       <r>  -21.5631    1.0000 </r>
       <r>  -19.6300    1.0000 </r>
       <r>  -12.3326    1.0000 </r>
       <r>   -9.5539    1.0000 </r>
       <r>   -8.5907    1.0000 </r>
       <r>   -8.0435    1.0000 </r>
       <r>   -7.3381    1.0000 </r>
       <r>   -6.9709    1.0000 </r>
       <r>    1.4198    0.0000 </r>
       <r>    2.1308    0.0000 </r>
       <r>    2.2299    0.0000 </r>
       <r>    2.6276    0.0000 </r>
      </set>
      <set comment="kpoint 10">
       <r>  -21.3898    1.0000 </r>
       <r>  -19.9381    1.0000 </r>
       <r>  -11.7853    1.0000 </r>
       <r>   -9.3498    1.0000 </r>
       <r>   -8.5397    1.0000 </r>
       <r>   -8.4282    1.0000 </r>
       <r>   -7.6793    1.0000 </r>
       <r>   -7.1956    1.0000 </r>
       <r>    1.6565    0.0000 </r>
       <r>    2.4685    0.0000 </r>
       <r>    2.7002    0.0000 </r>
       <r>    2.8704    0.0000 </r>
      </set>
      <set comment="kpoint 11">
       <r>  -21.1966    1.0000 </r>
       <r>  -20.2279    1.0000 </r>
       <r>  -11.2344    1.0000 </r>
       <r>   -9.1232    1.0000 </r>
       <r>   -9.0571    1.0000 </r>
       <r>   -8.2503    1.0000 </r>
       <r>   -8.0055    1.0000 </r>
       <r>   -7.4203    1.0000 </r>
       <r>    1.9208    0.0000 </r>
       <r>    2.7344    0.0000 </r>
       <r>    3.1417    0.0000 </r>
       <r>    3.2517    0.0000 </r>
      </set>
      <set comment="kpoint 12">
       <r>  -20.9836    1.0000 </r>
       <r>  -20.4990    1.0000 </r>
       <r>  -10.6826    1.0000 </r>
       <r>   -9.5900    1.0000 </r>
       <r>   -8.8745    1.0000 </r>
       <r>   -8.3146    1.0000 </r>
       <r>   -8.0586    1.0000 </r>
       <r>   -7.6411    1.0000 </r>
       <r>    2.2126    0.0000 </r>
       <r>    2.8784    0.0000 </r>
       <r>    3.0265    0.0000 </r>
       <r>    3.4416    0.0000 </r>
      </set>
      <set comment="kpoint 13">
       <r>  -20.7510    1.0000 </r>
       <r>  -20.7510    1.0000 </r>
       <r>  -10.1332    1.0000 </r>
       <r>  -10.1332    1.0000 </r>
       <r>   -8.6046    1.0000 </r>
       <r>   -8.6046    1.0000 </r>
       <r>   -7.8547    1.0000 </r>
       <r>   -7.8547    1.0000 </r>
       <r>    2.5319    0.0000 </r>
       <r>    2.5319    0.0000 </r>
       <r>    3.3403    0.0000 </r>
       <r>    3.3403    0.0000 </r>
      </set>
      <set comment="kpoint 14">
       <r>  -22.2049    1.0000 </r>
       <r>  -16.9436    1.0000 </r>
       <r>  -15.9389    1.0000 </r>
       <r>  -10.3156    1.0000 </r>
       <r>   -9.2885    1.0000 </r>
       <r>   -5.8882    1.0000 </r>
       <r>   -5.8046    1.0000 </r>
       <r>   -5.0513    1.0000 </r>
       <r>   -1.0915    0.0000 </r>
       <r>    0.5464    0.0000 </r>
       <r>    1.3471    0.0000 </r>
       <r>    1.7324    0.0000 </r>
      </set>
      <set comment="kpoint 15">
       <r>  -22.1947    1.0000 </r>
       <r>  -17.1143    1.0000 </r>
       <r>  -15.7531    1.0000 </r>
       <r>  -10.3034    1.0000 </r>
       <r>   -9.2782    1.0000 </r>
       <r>   -5.9190    1.0000 </r>
       <r>   -5.8382    1.0000 </r>
       <r>   -5.1187    1.0000 </r>
       <r>   -1.0085    0.0000 </r>
       <r>    0.5603    0.0000 </r>
       <r>    1.3612    0.0000 </r>
       <r>    1.7466    0.0000 </r>
      </set>
      <set comment="kpoint 16">
       <r>  -22.1638    1.0000 </r>
       <r>  -17.4571    1.0000 </r>
       <r>  -15.3648    1.0000 </r>
       <r>  -10.2666    1.0000 </r>
       <r>   -9.2475    1.0000 </r>
       <r>   -6.0205    1.0000 </r>
       <r>   -5.9270    1.0000 </r>
       <r>   -5.3053    1.0000 </r>
       <r>   -0.7751    0.0000 </r>
       <r>    0.6021    0.0000 </r>
       <r>    1.4036    0.0000 </r>
       <r>    1.7895    0.0000 </r>
      </set>
      <set comment="kpoint 17">
       <r>  -22.1125    1.0000 </r>
       <r>  -17.8369    1.0000 </r>
       <r>  -14.9096    1.0000 </r>
       <r>  -10.2054    1.0000 </r>
       <r>   -9.1965    1.0000 </r>
       <r>   -6.2058    1.0000 </r>
       <r>   -6.0497    1.0000 </r>
       <r>   -5.5770    1.0000 </r>
       <r>   -0.4261    0.0000 </r>
       <r>    0.6718    0.0000 </r>
       <r>    1.4741    0.0000 </r>
       <r>    1.8609    0.0000 </r>
      </set>
      <set comment="kpoint 18">
       <r>  -22.0407    1.0000 </r>
       <r>  -18.2181    1.0000 </r>
       <r>  -14.4235    1.0000 </r>
       <r>  -10.1199    1.0000 </r>
       <r>   -9.1254    1.0000 </r>
       <r>   -6.4676    1.0000 </r>
       <r>   -6.2015    1.0000 </r>
       <r>   -5.9001    1.0000 </r>
       <r>    0.0039    0.0000 </r>
       <r>    0.7694    0.0000 </r>
       <r>    1.5728    0.0000 </r>
       <r>    1.9609    0.0000 </r>
      </set>
      <set comment="kpoint 19">
       <r>  -21.9484    1.0000 </r>
       <r>  -18.5901    1.0000 </r>
       <r>  -13.9178    1.0000 </r>
       <r>  -10.0102    1.0000 </r>
       <r>   -9.0346    1.0000 </r>
       <r>   -6.7939    1.0000 </r>
       <r>   -6.3798    1.0000 </r>
       <r>   -6.2499    1.0000 </r>
       <r>    0.4892    0.0000 </r>
       <r>    0.8948    0.0000 </r>
       <r>    1.6996    0.0000 </r>
       <r>    2.0894    0.0000 </r>
      </set>
      <set comment="kpoint 20">
       <r>  -21.8357    1.0000 </r>
       <r>  -18.9485    1.0000 </r>
       <r>  -13.3977    1.0000 </r>
       <r>   -9.8765    1.0000 </r>
       <r>   -8.9246    1.0000 </r>
       <r>   -7.1744    1.0000 </r>
       <r>   -6.6100    1.0000 </r>
       <r>   -6.5793    1.0000 </r>
       <r>    1.0115    0.0000 </r>
       <r>    1.0481    0.0000 </r>
       <r>    1.8546    0.0000 </r>
       <r>    2.2465    0.0000 </r>
      </set>
      <set comment="kpoint 21">
       <r>  -21.7028    1.0000 </r>
       <r>  -19.2912    1.0000 </r>
       <r>  -12.8665    1.0000 </r>
       <r>   -9.7190    1.0000 </r>
       <r>   -8.7961    1.0000 </r>
       <r>   -7.5999    1.0000 </r>
       <r>   -6.9700    1.0000 </r>
       <r>   -6.7938    1.0000 </r>
       <r>    1.2293    0.0000 </r>
       <r>    1.5584    0.0000 </r>
       <r>    2.0376    0.0000 </r>
       <r>    2.4322    0.0000 </r>
      </set>
      <set comment="kpoint 22">
       <r>  -21.5496    1.0000 </r>
       <r>  -19.6170    1.0000 </r>
       <r>  -12.3267    1.0000 </r>
       <r>   -9.5380    1.0000 </r>
       <r>   -8.6498    1.0000 </r>
       <r>   -8.0620    1.0000 </r>
       <r>   -7.3229    1.0000 </r>
       <r>   -7.0175    1.0000 </r>
       <r>    1.4382    0.0000 </r>
       <r>    2.1200    0.0000 </r>
       <r>    2.2485    0.0000 </r>
       <r>    2.6464    0.0000 </r>
      </set>
      <set comment="kpoint 23">
       <r>  -21.3764    1.0000 </r>
       <r>  -19.9251    1.0000 </r>
       <r>  -11.7808    1.0000 </r>
       <r>   -9.3340    1.0000 </r>
       <r>   -8.5529    1.0000 </r>
       <r>   -8.4867    1.0000 </r>
       <r>   -7.6640    1.0000 </r>
       <r>   -7.2451    1.0000 </r>
       <r>    1.6749    0.0000 </r>
       <r>    2.4871    0.0000 </r>
       <r>    2.6876    0.0000 </r>
       <r>    2.8892    0.0000 </r>
      </set>
      <set comment="kpoint 24">
       <r>  -21.1832    1.0000 </r>
       <r>  -20.2148    1.0000 </r>
       <r>  -11.2317    1.0000 </r>
       <r>   -9.1074    1.0000 </r>
       <r>   -9.0658    1.0000 </r>
       <r>   -8.3080    1.0000 </r>
       <r>   -7.9902    1.0000 </r>
       <r>   -7.4722    1.0000 </r>
       <r>    1.9392    0.0000 </r>
       <r>    2.7530    0.0000 </r>
       <r>    3.1605    0.0000 </r>
       <r>    3.2478    0.0000 </r>
      </set>
      <set comment="kpoint 25">
       <r>  -20.9703    1.0000 </r>
       <r>  -20.4858    1.0000 </r>
       <r>  -10.6820    1.0000 </r>
       <r>   -9.5950    1.0000 </r>
       <r>   -8.8589    1.0000 </r>
       <r>   -8.2991    1.0000 </r>
       <r>   -8.1153    1.0000 </r>
       <r>   -7.6949    1.0000 </r>
       <r>    2.2311    0.0000 </r>
       <r>    2.8970    0.0000 </r>
       <r>    3.0451    0.0000 </r>
       <r>    3.4606    0.0000 </r>
      </set>
      <set comment="kpoint 26">
       <r>  -20.7377    1.0000 </r>
       <r>  -20.7377    1.0000 </r>
       <r>  -10.1352    1.0000 </r>
       <r>  -10.1352    1.0000 </r>
       <r>   -8.5891    1.0000 </r>
       <r>   -8.5891    1.0000 </r>
       <r>   -7.9102    1.0000 </r>
       <r>   -7.9102    1.0000 </r>
       <r>    2.5504    0.0000 </r>
       <r>    2.5504    0.0000 </r>
       <r>    3.3588    0.0000 </r>
       <r>    3.3588    0.0000 </r>
      </set>
      <set comment="kpoint 27">
       <r>  -22.1644    1.0000 </r>
       <r>  -16.9087    1.0000 </r>
       <r>  -15.9050    1.0000 </r>
       <r>  -10.2672    1.0000 </r>
       <r>   -9.4662    1.0000 </r>
       <r>   -6.0521    1.0000 </r>
       <r>   -5.8958    1.0000 </r>
       <r>   -5.0020    1.0000 </r>
       <r>   -1.1056    0.0000 </r>
       <r>    0.6014    0.0000 </r>
       <r>    1.4029    0.0000 </r>
       <r>    1.7888    0.0000 </r>
      </set>
      <set comment="kpoint 28">
       <r>  -22.1541    1.0000 </r>
       <r>  -17.0789    1.0000 </r>
       <r>  -15.7198    1.0000 </r>
       <r>  -10.2550    1.0000 </r>
       <r>   -9.4559    1.0000 </r>
       <r>   -6.0899    1.0000 </r>
       <r>   -5.9203    1.0000 </r>
       <r>   -5.0699    1.0000 </r>
       <r>   -1.0224    0.0000 </r>
       <r>    0.6153    0.0000 </r>
       <r>    1.4170    0.0000 </r>
       <r>    1.8031    0.0000 </r>
      </set>
      <set comment="kpoint 29">
       <r>  -22.1233    1.0000 </r>
       <r>  -17.4211    1.0000 </r>
       <r>  -15.3328    1.0000 </r>
       <r>  -10.2183    1.0000 </r>
       <r>   -9.4250    1.0000 </r>
       <r>   -6.2007    1.0000 </r>
       <r>   -5.9940    1.0000 </r>
       <r>   -5.2576    1.0000 </r>
       <r>   -0.7891    0.0000 </r>
       <r>    0.6572    0.0000 </r>
       <r>    1.4593    0.0000 </r>
       <r>    1.8459    0.0000 </r>
      </set>
      <set comment="kpoint 30">
       <r>  -22.0720    1.0000 </r>
       <r>  -17.8002    1.0000 </r>
       <r>  -14.8791    1.0000 </r>
       <r>  -10.1572    1.0000 </r>
       <r>   -9.3736    1.0000 </r>
       <r>   -6.3796    1.0000 </r>
       <r>   -6.1147    1.0000 </r>
       <r>   -5.5303    1.0000 </r>
       <r>   -0.4409    0.0000 </r>
       <r>    0.7269    0.0000 </r>
       <r>    1.5298    0.0000 </r>
       <r>    1.9173    0.0000 </r>
      </set>
      <set comment="kpoint 31">
       <r>  -22.0002    1.0000 </r>
       <r>  -18.1808    1.0000 </r>
       <r>  -14.3948    1.0000 </r>
       <r>  -10.0717    1.0000 </r>
       <r>   -9.3020    1.0000 </r>
       <r>   -6.6222    1.0000 </r>
       <r>   -6.2757    1.0000 </r>
       <r>   -5.8542    1.0000 </r>
       <r>   -0.0127    0.0000 </r>
       <r>    0.8244    0.0000 </r>
       <r>    1.6285    0.0000 </r>
       <r>    2.0173    0.0000 </r>
      </set>
      <set comment="kpoint 32">
       <r>  -21.9079    1.0000 </r>
       <r>  -18.5523    1.0000 </r>
       <r>  -13.8913    1.0000 </r>
       <r>   -9.9621    1.0000 </r>
       <r>   -9.2105    1.0000 </r>
       <r>   -6.9241    1.0000 </r>
       <r>   -6.4679    1.0000 </r>
       <r>   -6.2044    1.0000 </r>
       <r>    0.4697    0.0000 </r>
       <r>    0.9499    0.0000 </r>
       <r>    1.7553    0.0000 </r>
       <r>    2.1459    0.0000 </r>
      </set>
      <set comment="kpoint 33">
       <r>  -21.7953    1.0000 </r>
       <r>  -18.9103    1.0000 </r>
       <r>  -13.3738    1.0000 </r>
       <r>   -9.8286    1.0000 </r>
       <r>   -9.0996    1.0000 </r>
       <r>   -7.2796    1.0000 </r>
       <r>   -6.6822    1.0000 </r>
       <r>   -6.5647    1.0000 </r>
       <r>    0.9881    0.0000 </r>
       <r>    1.1032    0.0000 </r>
       <r>    1.9103    0.0000 </r>
       <r>    2.3030    0.0000 </r>
      </set>
      <set comment="kpoint 34">
       <r>  -21.6625    1.0000 </r>
       <r>  -19.2526    1.0000 </r>
       <r>  -12.8456    1.0000 </r>
       <r>   -9.6712    1.0000 </r>
       <r>   -8.9698    1.0000 </r>
       <r>   -7.6819    1.0000 </r>
       <r>   -6.9247    1.0000 </r>
       <r>   -6.9106    1.0000 </r>
       <r>    1.2844    0.0000 </r>
       <r>    1.5301    0.0000 </r>
       <r>    2.0932    0.0000 </r>
       <r>    2.4887    0.0000 </r>
      </set>
      <set comment="kpoint 35">
       <r>  -21.5094    1.0000 </r>
       <r>  -19.5781    1.0000 </r>
       <r>  -12.3096    1.0000 </r>
       <r>   -9.4905    1.0000 </r>
       <r>   -8.8219    1.0000 </r>
       <r>   -8.1235    1.0000 </r>
       <r>   -7.2774    1.0000 </r>
       <r>   -7.1463    1.0000 </r>
       <r>    1.4934    0.0000 </r>
       <r>    2.0863    0.0000 </r>
       <r>    2.3041    0.0000 </r>
       <r>    2.7029    0.0000 </r>
      </set>
      <set comment="kpoint 36">
       <r>  -21.3362    1.0000 </r>
       <r>  -19.8859    1.0000 </r>
       <r>  -11.7683    1.0000 </r>
       <r>   -9.2867    1.0000 </r>
       <r>   -8.6567    1.0000 </r>
       <r>   -8.5970    1.0000 </r>
       <r>   -7.6183    1.0000 </r>
       <r>   -7.3841    1.0000 </r>
       <r>    1.7301    0.0000 </r>
       <r>    2.5427    0.0000 </r>
       <r>    2.6483    0.0000 </r>
       <r>    2.9457    0.0000 </r>
      </set>
      <set comment="kpoint 37">
       <r>  -21.1432    1.0000 </r>
       <r>  -20.1754    1.0000 </r>
       <r>  -11.2246    1.0000 </r>
       <r>   -9.0955    1.0000 </r>
       <r>   -9.0603    1.0000 </r>
       <r>   -8.4754    1.0000 </r>
       <r>   -7.9442    1.0000 </r>
       <r>   -7.6196    1.0000 </r>
       <r>    1.9945    0.0000 </r>
       <r>    2.8086    0.0000 </r>
       <r>    3.2051    0.0000 </r>
       <r>    3.2170    0.0000 </r>
      </set>
      <set comment="kpoint 38">
       <r>  -20.9303    1.0000 </r>
       <r>  -20.4462    1.0000 </r>
       <r>  -10.6816    1.0000 </r>
       <r>   -9.6126    1.0000 </r>
       <r>   -8.8120    1.0000 </r>
       <r>   -8.2792    1.0000 </r>
       <r>   -8.2529    1.0000 </r>
       <r>   -7.8491    1.0000 </r>
       <r>    2.2864    0.0000 </r>
       <r>    2.9525    0.0000 </r>
       <r>    3.1008    0.0000 </r>
       <r>    3.5169    0.0000 </r>
      </set>
      <set comment="kpoint 39">
       <r>  -20.6979    1.0000 </r>
       <r>  -20.6979    1.0000 </r>
       <r>  -10.1429    1.0000 </r>
       <r>  -10.1429    1.0000 </r>
       <r>   -8.5426    1.0000 </r>
       <r>   -8.5426    1.0000 </r>
       <r>   -8.0698    1.0000 </r>
       <r>   -8.0698    1.0000 </r>
       <r>    2.6058    0.0000 </r>
       <r>    2.6058    0.0000 </r>
       <r>    3.4145    0.0000 </r>
       <r>    3.4145    0.0000 </r>
      </set>
      <set comment="kpoint 40">
       <r>  -22.0968    1.0000 </r>
       <r>  -16.8506    1.0000 </r>
       <r>  -15.8491    1.0000 </r>
       <r>  -10.1867    1.0000 </r>
       <r>   -9.7474    1.0000 </r>
       <r>   -6.3117    1.0000 </r>
       <r>   -6.0450    1.0000 </r>
       <r>   -4.9199    1.0000 </r>
       <r>   -1.1317    0.0000 </r>
       <r>    0.6931    0.0000 </r>
       <r>    1.4958    0.0000 </r>
       <r>    1.8829    0.0000 </r>
      </set>
      <set comment="kpoint 41">
       <r>  -22.0865    1.0000 </r>
       <r>  -17.0201    1.0000 </r>
       <r>  -15.6649    1.0000 </r>
       <r>  -10.1745    1.0000 </r>
       <r>   -9.7370    1.0000 </r>
       <r>   -6.3536    1.0000 </r>
       <r>   -6.0623    1.0000 </r>
       <r>   -4.9885    1.0000 </r>
       <r>   -1.0484    0.0000 </r>
       <r>    0.7071    0.0000 </r>
       <r>    1.5099    0.0000 </r>
       <r>    1.8972    0.0000 </r>
      </set>
      <set comment="kpoint 42">
       <r>  -22.0557    1.0000 </r>
       <r>  -17.3610    1.0000 </r>
       <r>  -15.2800    1.0000 </r>
       <r>  -10.1378    1.0000 </r>
       <r>   -9.7057    1.0000 </r>
       <r>   -6.4711    1.0000 </r>
       <r>   -6.1203    1.0000 </r>
       <r>   -5.1781    1.0000 </r>
       <r>   -0.8151    0.0000 </r>
       <r>    0.7489    0.0000 </r>
       <r>    1.5522    0.0000 </r>
       <r>    1.9400    0.0000 </r>
[...]
       <r>   -9.1641    1.0000 </r>
       <r>   -5.6100    1.0000 </r>
       <r>   -5.6100    1.0000 </r>
       <r>   -0.4535    0.0000 </r>
       <r>   -0.4535    0.0000 </r>
       <r>    4.8346    0.0000 </r>
       <r>    4.8346    0.0000 </r>
      </set>
      <set comment="kpoint 209">
       <r>  -18.8401    1.0000 </r>
       <r>  -17.0708    1.0000 </r>
       <r>  -14.0104    1.0000 </r>
       <r>  -12.3978    1.0000 </r>
       <r>  -12.3977    1.0000 </r>
       <r>  -10.8791    1.0000 </r>
       <r>   -6.4366    1.0000 </r>
       <r>   -4.5644    1.0000 </r>
       <r>   -0.9869    0.0000 </r>
       <r>    1.1573    0.0000 </r>
       <r>    5.2035    0.0000 </r>
       <r>    5.9922    0.0000 </r>
      </set>
      <set comment="kpoint 210">
       <r>  -18.8304    1.0000 </r>
       <r>  -17.0630    1.0000 </r>
       <r>  -14.0981    1.0000 </r>
       <r>  -12.4788    1.0000 </r>
       <r>  -12.3022    1.0000 </r>
       <r>  -10.8001    1.0000 </r>
       <r>   -6.4278    1.0000 </r>
       <r>   -4.5672    1.0000 </r>
       <r>   -0.9969    0.0000 </r>
       <r>    1.1316    0.0000 </r>
       <r>    5.2171    0.0000 </r>
       <r>    6.0083    0.0000 </r>
      </set>
      <set comment="kpoint 211">
       <r>  -18.8012    1.0000 </r>
       <r>  -17.0402    1.0000 </r>
       <r>  -14.3150    1.0000 </r>
       <r>  -12.6834    1.0000 </r>
       <r>  -12.0616    1.0000 </r>
       <r>  -10.6026    1.0000 </r>
       <r>   -6.4014    1.0000 </r>
       <r>   -4.5759    1.0000 </r>
       <r>   -1.0250    0.0000 </r>
       <r>    1.0564    0.0000 </r>
       <r>    5.2579    0.0000 </r>
       <r>    6.0562    0.0000 </r>
      </set>
      <set comment="kpoint 212">
       <r>  -18.7527    1.0000 </r>
       <r>  -17.0036    1.0000 </r>
       <r>  -14.5912    1.0000 </r>
       <r>  -12.9512    1.0000 </r>
       <r>  -11.7462    1.0000 </r>
       <r>  -10.3489    1.0000 </r>
       <r>   -6.3577    1.0000 </r>
       <r>   -4.5921    1.0000 </r>
       <r>   -1.0661    0.0000 </r>
       <r>    0.9372    0.0000 </r>
       <r>    5.3256    0.0000 </r>
       <r>    6.1348    0.0000 </r>
      </set>
      <set comment="kpoint 213">
       <r>  -18.6850    1.0000 </r>
       <r>  -16.9558    1.0000 </r>
       <r>  -14.8844    1.0000 </r>
       <r>  -13.2456    1.0000 </r>
       <r>  -11.3979    1.0000 </r>
       <r>  -10.0789    1.0000 </r>
       <r>   -6.2974    1.0000 </r>
       <r>   -4.6181    1.0000 </r>
       <r>   -1.1123    0.0000 </r>
       <r>    0.7816    0.0000 </r>
       <r>    5.4190    0.0000 </r>
       <r>    6.2428    0.0000 </r>
      </set>
      <set comment="kpoint 214">
       <r>  -18.5983    1.0000 </r>
       <r>  -16.9019    1.0000 </r>
       <r>  -15.1709    1.0000 </r>
       <r>  -13.5483    1.0000 </r>
       <r>  -11.0386    1.0000 </r>
       <r>   -9.8156    1.0000 </r>
       <r>   -6.2210    1.0000 </r>
       <r>   -4.6567    1.0000 </r>
       <r>   -1.1547    0.0000 </r>
       <r>    0.5984    0.0000 </r>
       <r>    5.5336    0.0000 </r>
       <r>    6.1752    0.0000 </r>
      </set>
      <set comment="kpoint 215">
       <r>  -18.4929    1.0000 </r>
       <r>  -16.8522    1.0000 </r>
       <r>  -15.4311    1.0000 </r>
       <r>  -13.8498    1.0000 </r>
       <r>  -10.6820    1.0000 </r>
       <r>   -9.5742    1.0000 </r>
       <r>   -6.1296    1.0000 </r>
       <r>   -4.7106    1.0000 </r>
       <r>   -1.1841    0.0000 </r>
       <r>    0.3966    0.0000 </r>
       <r>    5.5970    0.0000 </r>
       <r>    5.8179    0.0000 </r>
      </set>
      <set comment="kpoint 216">
       <r>  -18.3693    1.0000 </r>
       <r>  -16.8264    1.0000 </r>
       <r>  -15.6403    1.0000 </r>
       <r>  -14.1442    1.0000 </r>
       <r>  -10.3386    1.0000 </r>
       <r>   -9.3669    1.0000 </r>
       <r>   -6.0244    1.0000 </r>
       <r>   -4.7816    1.0000 </r>
       <r>   -1.1923    0.0000 </r>
       <r>    0.1845    0.0000 </r>
       <r>    5.3087    0.0000 </r>
       <r>    5.9050    0.0000 </r>
      </set>
      <set comment="kpoint 217">
       <r>  -18.2281    1.0000 </r>
       <r>  -16.8548    1.0000 </r>
       <r>  -15.7652    1.0000 </r>
       <r>  -14.4277    1.0000 </r>
       <r>  -10.0177    1.0000 </r>
       <r>   -9.2042    1.0000 </r>
       <r>   -5.9072    1.0000 </r>
       <r>   -4.8704    1.0000 </r>
       <r>   -1.1734    0.0000 </r>
       <r>   -0.0302    0.0000 </r>
       <r>    5.0142    0.0000 </r>
       <r>    5.8414    0.0000 </r>
      </set>
      <set comment="kpoint 218">
       <r>  -18.0702    1.0000 </r>
       <r>  -16.9580    1.0000 </r>
       <r>  -15.7836    1.0000 </r>
       <r>  -14.6972    1.0000 </r>
       <r>   -9.7287    1.0000 </r>
       <r>   -9.0948    1.0000 </r>
       <r>   -5.7800    1.0000 </r>
       <r>   -4.9761    1.0000 </r>
       <r>   -1.1239    0.0000 </r>
       <r>   -0.2408    0.0000 </r>
       <r>    4.7982    0.0000 </r>
       <r>    5.4435    0.0000 </r>
      </set>
      <set comment="kpoint 219">
       <r>  -17.8969    1.0000 </r>
       <r>  -17.1209    1.0000 </r>
       <r>  -15.7093    1.0000 </r>
       <r>  -14.9501    1.0000 </r>
       <r>   -9.4805    1.0000 </r>
       <r>   -9.0456    1.0000 </r>
       <r>   -5.6452    1.0000 </r>
       <r>   -5.0962    1.0000 </r>
       <r>   -1.0427    0.0000 </r>
       <r>   -0.4412    0.0000 </r>
       <r>    4.6725    0.0000 </r>
       <r>    5.1159    0.0000 </r>
      </set>
      <set comment="kpoint 220">
       <r>  -17.7102    1.0000 </r>
       <r>  -17.3133    1.0000 </r>
       <r>  -15.5719    1.0000 </r>
       <r>  -15.1833    1.0000 </r>
       <r>   -9.2818    1.0000 </r>
       <r>   -9.0604    1.0000 </r>
       <r>   -5.5057    1.0000 </r>
       <r>   -5.2273    1.0000 </r>
       <r>   -0.9308    0.0000 </r>
       <r>   -0.6261    0.0000 </r>
       <r>    4.6422    0.0000 </r>
       <r>    4.8681    0.0000 </r>
      </set>
      <set comment="kpoint 221">
       <r>  -17.5136    1.0000 </r>
       <r>  -17.5136    1.0000 </r>
       <r>  -15.3927    1.0000 </r>
       <r>  -15.3927    1.0000 </r>
       <r>   -9.1399    1.0000 </r>
       <r>   -9.1399    1.0000 </r>
       <r>   -5.3651    1.0000 </r>
       <r>   -5.3651    1.0000 </r>
       <r>   -0.7907    0.0000 </r>
       <r>   -0.7907    0.0000 </r>
       <r>    4.7083    0.0000 </r>
       <r>    4.7083    0.0000 </r>
      </set>
      <set comment="kpoint 222">
       <r>  -18.4222    1.0000 </r>
       <r>  -17.5338    1.0000 </r>
       <r>  -13.6371    1.0000 </r>
       <r>  -12.8300    1.0000 </r>
       <r>  -12.0512    1.0000 </r>
       <r>  -11.2872    1.0000 </r>
       <r>   -5.9811    1.0000 </r>
       <r>   -5.0397    1.0000 </r>
       <r>   -0.4839    0.0000 </r>
       <r>    0.5902    0.0000 </r>
       <r>    5.7971    0.0000 </r>
       <r>    6.5501    0.0000 </r>
      </set>
      <set comment="kpoint 223">
       <r>  -18.4126    1.0000 </r>
       <r>  -17.5250    1.0000 </r>
       <r>  -13.7248    1.0000 </r>
       <r>  -12.9139    1.0000 </r>
       <r>  -11.9583    1.0000 </r>
       <r>  -11.2029    1.0000 </r>
       <r>   -5.9735    1.0000 </r>
       <r>   -5.0373    1.0000 </r>
       <r>   -0.5004    0.0000 </r>
       <r>    0.5666    0.0000 </r>
       <r>    5.8107    0.0000 </r>
       <r>    6.5671    0.0000 </r>
      </set>
      <set comment="kpoint 224">
       <r>  -18.3840    1.0000 </r>
       <r>  -17.4988    1.0000 </r>
       <r>  -13.9427    1.0000 </r>
       <r>  -13.1243    1.0000 </r>
       <r>  -11.7252    1.0000 </r>
       <r>  -10.9918    1.0000 </r>
       <r>   -5.9511    1.0000 </r>
       <r>   -5.0303    1.0000 </r>
       <r>   -0.5482    0.0000 </r>
       <r>    0.4976    0.0000 </r>
       <r>    5.8513    0.0000 </r>
       <r>    6.6175    0.0000 </r>
      </set>
      <set comment="kpoint 225">
       <r>  -18.3364    1.0000 </r>
       <r>  -17.4557    1.0000 </r>
       <r>  -14.2224    1.0000 </r>
       <r>  -13.3978    1.0000 </r>
       <r>  -11.4213    1.0000 </r>
       <r>  -10.7192    1.0000 </r>
       <r>   -5.9143    1.0000 </r>
       <r>   -5.0199    1.0000 </r>
       <r>   -0.6219    0.0000 </r>
       <r>    0.3885    0.0000 </r>
       <r>    5.9185    0.0000 </r>
       <r>    6.6997    0.0000 </r>
      </set>
      <set comment="kpoint 226">
       <r>  -18.2701    1.0000 </r>
       <r>  -17.3966    1.0000 </r>
       <r>  -14.5238    1.0000 </r>
       <r>  -13.6968    1.0000 </r>
       <r>  -11.0884    1.0000 </r>
       <r>  -10.4256    1.0000 </r>
       <r>   -5.8638    1.0000 </r>
       <r>   -5.0079    1.0000 </r>
       <r>   -0.7137    0.0000 </r>
       <r>    0.2469    0.0000 </r>
       <r>    6.0102    0.0000 </r>
       <r>    6.8131    0.0000 </r>
      </set>
      <set comment="kpoint 227">
       <r>  -18.1854    1.0000 </r>
       <r>  -17.3232    1.0000 </r>
       <r>  -14.8270    1.0000 </r>
       <r>  -14.0027    1.0000 </r>
       <r>  -10.7485    1.0000 </r>
       <r>  -10.1337    1.0000 </r>
       <r>   -5.8008    1.0000 </r>
       <r>   -4.9970    1.0000 </r>
       <r>   -0.8142    0.0000 </r>
       <r>    0.0818    0.0000 </r>
       <r>    6.1097    0.0000 </r>
       <r>    6.4523    0.0000 </r>
      </set>
      <set comment="kpoint 228">
       <r>  -18.0829    1.0000 </r>
       <r>  -17.2383    1.0000 </r>
       <r>  -15.1198    1.0000 </r>
       <r>  -14.3057    1.0000 </r>
       <r>  -10.4157    1.0000 </r>
       <r>   -9.8586    1.0000 </r>
       <r>   -5.7268    1.0000 </r>
       <r>   -4.9901    1.0000 </r>
       <r>   -0.9132    0.0000 </r>
       <r>   -0.0976    0.0000 </r>
       <r>    5.9081    0.0000 </r>
       <r>    6.3265    0.0000 </r>
      </set>
      <set comment="kpoint 229">
       <r>  -17.9633    1.0000 </r>
       <r>  -17.1475    1.0000 </r>
       <r>  -15.3916    1.0000 </r>
       <r>  -14.5998    1.0000 </r>
       <r>  -10.1009    1.0000 </r>
       <r>   -9.6120    1.0000 </r>
       <r>   -5.6439    1.0000 </r>
       <r>   -4.9909    1.0000 </r>
       <r>   -1.0006    0.0000 </r>
       <r>   -0.2823    0.0000 </r>
       <r>    5.5055    0.0000 </r>
       <r>    6.0010    0.0000 </r>
      </set>
      <set comment="kpoint 230">
       <r>  -17.8279    1.0000 </r>
       <r>  -17.0614    1.0000 </r>
       <r>  -15.6289    1.0000 </r>
       <r>  -14.8807    1.0000 </r>
       <r>   -9.8140    1.0000 </r>
       <r>   -9.4043    1.0000 </r>
       <r>   -5.5543    1.0000 </r>
       <r>   -5.0026    1.0000 </r>
       <r>   -1.0675    0.0000 </r>
       <r>   -0.4639    0.0000 </r>
       <r>    5.1599    0.0000 </r>
       <r>    5.5753    0.0000 </r>
      </set>
      <set comment="kpoint 231">
       <r>  -17.6786    1.0000 </r>
       <r>  -17.0004    1.0000 </r>
       <r>  -15.8094    1.0000 </r>
       <r>  -15.1445    1.0000 </r>
       <r>   -9.5645    1.0000 </r>
       <r>   -9.2451    1.0000 </r>
       <r>   -5.4612    1.0000 </r>
       <r>   -5.0281    1.0000 </r>
       <r>   -1.1064    0.0000 </r>
       <r>   -0.6347    0.0000 </r>
       <r>    4.8915    0.0000 </r>
       <r>    5.2161    0.0000 </r>
      </set>
      <set comment="kpoint 232">
       <r>  -17.5187    1.0000 </r>
       <r>  -16.9956    1.0000 </r>
       <r>  -15.9009    1.0000 </r>
       <r>  -15.3864    1.0000 </r>
       <r>   -9.3615    1.0000 </r>
       <r>   -9.1421    1.0000 </r>
       <r>   -5.3679    1.0000 </r>
       <r>   -5.0691    1.0000 </r>
       <r>   -1.1121    0.0000 </r>
       <r>   -0.7877    0.0000 </r>
       <r>    4.7103    0.0000 </r>
       <r>    4.9335    0.0000 </r>
      </set>
      <set comment="kpoint 233">
       <r>  -17.3541    1.0000 </r>
       <r>  -17.0663    1.0000 </r>
       <r>  -15.8832    1.0000 </r>
       <r>  -15.5997    1.0000 </r>
       <r>   -9.2128    1.0000 </r>
       <r>   -9.1011    1.0000 </r>
       <r>   -5.2784    1.0000 </r>
       <r>   -5.1257    1.0000 </r>
       <r>   -1.0820    0.0000 </r>
       <r>   -0.9166    0.0000 </r>
       <r>    4.6226    0.0000 </r>
       <r>    4.7363    0.0000 </r>
      </set>
      <set comment="kpoint 234">
       <r>  -17.1961    1.0000 </r>
       <r>  -17.1961    1.0000 </r>
       <r>  -15.7725    1.0000 </r>
       <r>  -15.7725    1.0000 </r>
       <r>   -9.1248    1.0000 </r>
       <r>   -9.1248    1.0000 </r>
       <r>   -5.1964    1.0000 </r>
       <r>   -5.1964    1.0000 </r>
       <r>   -1.0160    0.0000 </r>
       <r>   -1.0160    0.0000 </r>
       <r>    4.6314    0.0000 </r>
       <r>    4.6314    0.0000 </r>
      </set>
      <set comment="kpoint 235">
       <r>  -17.9857    1.0000 </r>
       <r>  -17.9857    1.0000 </r>
       <r>  -13.2434    1.0000 </r>
       <r>  -13.2434    1.0000 </r>
       <r>  -11.6793    1.0000 </r>
       <r>  -11.6793    1.0000 </r>
       <r>   -5.5139    1.0000 </r>
       <r>   -5.5139    1.0000 </r>
       <r>    0.0424    0.0000 </r>
       <r>    0.0424    0.0000 </r>
       <r>    6.4218    0.0000 </r>
       <r>    6.4218    0.0000 </r>
      </set>
      <set comment="kpoint 236">
       <r>  -17.9765    1.0000 </r>
       <r>  -17.9765    1.0000 </r>
       <r>  -13.3296    1.0000 </r>
       <r>  -13.3296    1.0000 </r>
       <r>  -11.5903    1.0000 </r>
       <r>  -11.5903    1.0000 </r>
       <r>   -5.5083    1.0000 </r>
       <r>   -5.5083    1.0000 </r>
       <r>    0.0217    0.0000 </r>
       <r>    0.0217    0.0000 </r>
       <r>    6.4353    0.0000 </r>
       <r>    6.4353    0.0000 </r>
      </set>
      <set comment="kpoint 237">
       <r>  -17.9487    1.0000 </r>
       <r>  -17.9487    1.0000 </r>
       <r>  -13.5447    1.0000 </r>
       <r>  -13.5447    1.0000 </r>
       <r>  -11.3672    1.0000 </r>
       <r>  -11.3672    1.0000 </r>
       <r>   -5.4919    1.0000 </r>
       <r>   -5.4919    1.0000 </r>
       <r>   -0.0387    0.0000 </r>
       <r>   -0.0387    0.0000 </r>
       <r>    6.4756    0.0000 </r>
       <r>    6.4756    0.0000 </r>
      </set>
      <set comment="kpoint 238">
       <r>  -17.9027    1.0000 </r>
       <r>  -17.9027    1.0000 </r>
       <r>  -13.8226    1.0000 </r>
       <r>  -13.8226    1.0000 </r>
       <r>  -11.0777    1.0000 </r>
       <r>  -11.0777    1.0000 </r>
       <r>   -5.4653    1.0000 </r>
       <r>   -5.4653    1.0000 </r>
       <r>   -0.1335    0.0000 </r>
       <r>   -0.1335    0.0000 </r>
       <r>    6.5419    0.0000 </r>
       <r>    6.5419    0.0000 </r>
      </set>
      <set comment="kpoint 239">
       <r>  -17.8388    1.0000 </r>
       <r>  -17.8388    1.0000 </r>
       <r>  -14.1245    1.0000 </r>
       <r>  -14.1245    1.0000 </r>
       <r>  -10.7631    1.0000 </r>
       <r>  -10.7631    1.0000 </r>
       <r>   -5.4299    1.0000 </r>
       <r>   -5.4299    1.0000 </r>
       <r>   -0.2550    0.0000 </r>
       <r>   -0.2550    0.0000 </r>
       <r>    6.6297    0.0000 </r>
       <r>    6.6304    0.0000 </r>
      </set>
      <set comment="kpoint 240">
       <r>  -17.7577    1.0000 </r>
       <r>  -17.7577    1.0000 </r>
       <r>  -14.4314    1.0000 </r>
       <r>  -14.4314    1.0000 </r>
       <r>  -10.4458    1.0000 </r>
       <r>  -10.4458    1.0000 </r>
       <r>   -5.3872    1.0000 </r>
       <r>   -5.3872    1.0000 </r>
       <r>   -0.3941    0.0000 </r>
       <r>   -0.3941    0.0000 </r>
       <r>    6.6304    0.0000 </r>
       <r>    6.6307    0.0000 </r>
      </set>
      <set comment="kpoint 241">
       <r>  -17.6606    1.0000 </r>
       <r>  -17.6606    1.0000 </r>
       <r>  -14.7330    1.0000 </r>
       <r>  -14.7330    1.0000 </r>
       <r>  -10.1401    1.0000 </r>
       <r>  -10.1401    1.0000 </r>
       <r>   -5.3397    1.0000 </r>
       <r>   -5.3397    1.0000 </r>
       <r>   -0.5410    0.0000 </r>
       <r>   -0.5410    0.0000 </r>
       <r>    6.1837    0.0000 </r>
       <r>    6.1837    0.0000 </r>
      </set>
      <set comment="kpoint 242">
       <r>  -17.5492    1.0000 </r>
       <r>  -17.5492    1.0000 </r>
       <r>  -15.0224    1.0000 </r>
       <r>  -15.0224    1.0000 </r>
       <r>   -9.8576    1.0000 </r>
       <r>   -9.8576    1.0000 </r>
       <r>   -5.2902    1.0000 </r>
       <r>   -5.2902    1.0000 </r>
       <r>   -0.6861    0.0000 </r>
       <r>   -0.6861    0.0000 </r>
       <r>    5.7359    0.0000 </r>
       <r>    5.7359    0.0000 </r>
      </set>
      <set comment="kpoint 243">
       <r>  -17.4266    1.0000 </r>
       <r>  -17.4266    1.0000 </r>
       <r>  -15.2934    1.0000 </r>
       <r>  -15.2934    1.0000 </r>
       <r>   -9.6086    1.0000 </r>
       <r>   -9.6086    1.0000 </r>
       <r>   -5.2421    1.0000 </r>
       <r>   -5.2421    1.0000 </r>
       <r>   -0.8200    0.0000 </r>
       <r>   -0.8200    0.0000 </r>
       <r>    5.3474    0.0000 </r>
       <r>    5.3474    0.0000 </r>
      </set>
      <set comment="kpoint 244">
       <r>  -17.2987    1.0000 </r>
       <r>  -17.2987    1.0000 </r>
       <r>  -15.5385    1.0000 </r>
       <r>  -15.5385    1.0000 </r>
       <r>   -9.4025    1.0000 </r>
       <r>   -9.4025    1.0000 </r>
       <r>   -5.1992    1.0000 </r>
       <r>   -5.1992    1.0000 </r>
       <r>   -0.9345    0.0000 </r>
       <r>   -0.9345    0.0000 </r>
       <r>    5.0313    0.0000 </r>
       <r>    5.0313    0.0000 </r>
      </set>
      <set comment="kpoint 245">
       <r>  -17.1763    1.0000 </r>
       <r>  -17.1763    1.0000 </r>
       <r>  -15.7453    1.0000 </r>
       <r>  -15.7453    1.0000 </r>
       <r>   -9.2480    1.0000 </r>
       <r>   -9.2480    1.0000 </r>
       <r>   -5.1651    1.0000 </r>
       <r>   -5.1651    1.0000 </r>
       <r>   -1.0221    0.0000 </r>
       <r>   -1.0221    0.0000 </r>
       <r>    4.7976    0.0000 </r>
       <r>    4.7976    0.0000 </r>
      </set>
      <set comment="kpoint 246">
       <r>  -17.0805    1.0000 </r>
       <r>  -17.0805    1.0000 </r>
       <r>  -15.8920    1.0000 </r>
       <r>  -15.8920    1.0000 </r>
       <r>   -9.1522    1.0000 </r>
       <r>   -9.1522    1.0000 </r>
       <r>   -5.1431    1.0000 </r>
       <r>   -5.1431    1.0000 </r>
       <r>   -1.0772    0.0000 </r>
       <r>   -1.0772    0.0000 </r>
       <r>    4.6541    0.0000 </r>
       <r>    4.6541    0.0000 </r>
      </set>
      <set comment="kpoint 247">
       <r>  -17.0425    1.0000 </r>
       <r>  -17.0425    1.0000 </r>
       <r>  -15.9470    1.0000 </r>
       <r>  -15.9470    1.0000 </r>
       <r>   -9.1197    1.0000 </r>
       <r>   -9.1197    1.0000 </r>
       <r>   -5.1355    1.0000 </r>
       <r>   -5.1355    1.0000 </r>
       <r>   -1.0960    0.0000 </r>
       <r>   -1.0960    0.0000 </r>
       <r>    4.6056    0.0000 </r>
       <r>    4.6056    0.0000 </r>
      </set>
     </set>
    </set>
   </array>
  </eigenvalues>
  <separator name="orbital magnetization" >
   <v name="MAGDIPOLOUT">      0.00000000      0.00000000      0.00000000</v>
  </separator>
 </calculation>
 <structure name="finalpos" >
  <crystal>
   <varray name="basis" >
    <v>       4.26934007       0.00000000       0.00000000 </v>
    <v>       0.00000000       2.47975975       0.00000000 </v>
    <v>       0.00000000       0.00000000      19.91490914 </v>
   </varray>
   <i name="volume">    210.83790140 </i>
   <varray name="rec_basis" >
    <v>       0.23422824       0.00000000       0.00000000 </v>
    <v>       0.00000000       0.40326487       0.00000000 </v>
    <v>       0.00000000       0.00000000       0.05021364 </v>
   </varray>
  </crystal>
  <varray name="positions" >
   <v>       0.00013160      -0.00000000       0.00000000 </v>
   <v>       0.16653506       0.50000000      -0.00000000 </v>
   <v>       0.50013160       0.50000000       0.00000000 </v>
   <v>       0.66653506       0.00000000      -0.00000000 </v>
  </varray>
 </structure>
</modeling>
