gr                                      
           1
     4.269340    0.000000    0.000000
     0.000000    2.479760    0.000000
     0.000000    0.000000   19.914909
   C 
   4
Direct configuration=     1
   0.00013158  0.00000000  0.00000000
   0.16653509  0.50000000  0.00000000
   0.50013158  0.50000000  0.00000000
   0.66653509  0.00000000  0.00000000
Direct configuration=     2
   0.00013170 -0.00000000  0.00000000
   0.16653497  0.50000000 -0.00000000
   0.50013170  0.50000000  0.00000000
   0.66653497  0.00000000 -0.00000000
Direct configuration=     3
   0.00013160 -0.00000000  0.00000000
   0.16653506  0.50000000 -0.00000000
   0.50013160  0.50000000  0.00000000
   0.66653506  0.00000000 -0.00000000
