 running on    8 total cores
 distrk:  each k-point on    8 cores,    1 groups
 distr:  one band on    2 cores,    4 groups
 using from now: INCAR     
 vasp.5.3.5 31Mar14 (build Mar 02 2015 18:14:16) complex                        
  
 POSCAR found type information on POSCAR  C 
 POSCAR found :  1 types and       4 ions
 LDA part: xc-table for Pade appr. of Perdew
 POSCAR, INCAR and KPOINTS ok, starting setup
 FFT: planning ...
 WAVECAR not read
 entering main loop
       N       E                     dE             d eps       ncg     rms          rms(c)
DAV:   1     0.187616174552E+03    0.18762E+03   -0.10548E+04  5928   0.274E+03
DAV:   2    -0.918546318171E+01   -0.19680E+03   -0.17505E+03 10436   0.260E+02
DAV:   3    -0.381342096114E+02   -0.28949E+02   -0.28334E+02  7392   0.119E+02    0.712E+00
RMM:   4    -0.376110430832E+02    0.52317E+00   -0.97276E+00  5929   0.267E+01    0.414E+00
RMM:   5    -0.368923408849E+02    0.71870E+00   -0.27487E+00  5934   0.113E+01    0.719E-01
RMM:   6    -0.368942121901E+02   -0.18713E-02   -0.86742E-02  6391   0.203E+00    0.508E-01
RMM:   7    -0.368853593456E+02    0.88528E-02   -0.32959E-02  5943   0.157E+00    0.332E-01
RMM:   8    -0.368802685475E+02    0.50908E-02   -0.65589E-03  5932   0.538E-01    0.137E-01
RMM:   9    -0.368800297911E+02    0.23876E-03   -0.20549E-02  5928   0.849E-01    0.157E-01
RMM:  10    -0.368798796941E+02    0.15010E-03   -0.23728E-03  5928   0.351E-01    0.273E-02
RMM:  11    -0.368822443277E+02   -0.23646E-02   -0.72923E-04  5930   0.181E-01    0.453E-02
RMM:  12    -0.368827056074E+02   -0.46128E-03   -0.20012E-04  5943   0.939E-02    0.734E-03
RMM:  13    -0.368829717841E+02   -0.26618E-03   -0.60489E-05  6001   0.440E-02    0.384E-03
RMM:  14    -0.368830530552E+02   -0.81271E-04   -0.10357E-05  5963   0.168E-02    0.131E-03
RMM:  15    -0.368830648974E+02   -0.11842E-04   -0.19332E-06  5991   0.785E-03    0.180E-03
RMM:  16    -0.368830776079E+02   -0.12711E-04   -0.13056E-06  5928   0.736E-03    0.103E-03
RMM:  17    -0.368830833842E+02   -0.57763E-05   -0.76118E-08  6084   0.173E-03    0.817E-04
RMM:  18    -0.368830844783E+02   -0.10941E-05   -0.75204E-08  5929   0.203E-03    0.875E-05
RMM:  19    -0.368830852381E+02   -0.75974E-06   -0.10515E-08  6010   0.491E-04    0.235E-05
RMM:  20    -0.368830853019E+02   -0.63786E-07   -0.90007E-10  4465   0.137E-04    0.240E-05
RMM:  21    -0.368830853167E+02   -0.14808E-07   -0.23409E-10  4361   0.940E-05    0.535E-06
RMM:  22    -0.368830853171E+02   -0.41484E-09   -0.11699E-11  3902   0.457E-05    0.157E-06
RMM:  23    -0.368830853175E+02   -0.39677E-09   -0.15203E-11  3542   0.371E-05    0.121E-06
RMM:  24    -0.368830853173E+02    0.17201E-09   -0.84185E-12  3109   0.292E-05    0.612E-07
RMM:  25    -0.368830853174E+02   -0.83219E-10   -0.44285E-12  2804   0.243E-05
   1 F= -.36883085E+02 E0= -.36883085E+02  d E =-.368831E+02
 BRION: g(F)=  0.147E-05 g(S)=  0.000E+00
 bond charge predicted
       N       E                     dE             d eps       ncg     rms          rms(c)
DAV:   1    -0.368830830425E+02    0.22748E-05   -0.19709E-04  6384   0.132E-01    0.271E-03
RMM:   2    -0.368830831864E+02   -0.14398E-06   -0.32651E-06  5944   0.159E-02    0.198E-03
RMM:   3    -0.368830831140E+02    0.72464E-07   -0.52894E-07  5977   0.588E-03    0.495E-04
RMM:   4    -0.368830831015E+02    0.12463E-07   -0.32210E-08  6064   0.142E-03    0.144E-04
WARNING in EDDRMM: call to ZHEGV failed, returncode =   6  3  1
RMM:   5    -0.368830831040E+02   -0.24644E-08   -0.26049E-09  6064   0.366E-04    0.651E-05
RMM:   6    -0.368830831035E+02    0.42985E-09   -0.36514E-10  4754   0.152E-04    0.660E-06
RMM:   7    -0.368830831035E+02    0.67303E-10   -0.21119E-11  3756   0.603E-05
   2 F= -.36883083E+02 E0= -.36883083E+02  d E =0.221391E-05
 BRION: g(F)=  0.240E-04 g(S)=  0.000E+00 retain N=  1 mean eig= 0.20
 eig:   0.198
 bond charge predicted
       N       E                     dE             d eps       ncg     rms          rms(c)
DAV:   1    -0.368830854716E+02   -0.23681E-05   -0.12654E-04  6488   0.106E-01    0.218E-03
RMM:   2    -0.368830855466E+02   -0.74955E-07   -0.20277E-06  5945   0.127E-02    0.158E-03
RMM:   3    -0.368830854727E+02    0.73813E-07   -0.33386E-07  5980   0.468E-03    0.381E-04
RMM:   4    -0.368830854699E+02    0.28493E-08   -0.19596E-08  6054   0.111E-03    0.115E-04
RMM:   5    -0.368830854677E+02    0.21533E-08   -0.16452E-09  5798   0.290E-04    0.523E-05
WARNING in EDDRMM: call to ZHEGV failed, returncode =   6  3  1
RMM:   6    -0.368830854678E+02   -0.10584E-09   -0.23175E-10  4100   0.124E-04    0.529E-06
RMM:   7    -0.368830854678E+02    0.36266E-10   -0.12107E-11  3737   0.569E-05
   3 F= -.36883085E+02 E0= -.36883085E+02  d E =-.236433E-05
 BRION: g(F)=  0.184E-10 g(S)=  0.000E+00 retain N=  1 mean eig= 0.20
 eig:   0.199
 bond charge predicted
       N       E                     dE             d eps       ncg     rms          rms(c)
DAV:   1    -0.368830854674E+02    0.41962E-09    0.59747E-09  4628   0.952E-05    0.146E-06
RMM:   2    -0.368830854679E+02   -0.44577E-09    0.16647E-12  3293   0.315E-05    0.873E-07
RMM:   3    -0.368830854680E+02   -0.96975E-10   -0.39366E-12  3014   0.309E-05    0.193E-07
RMM:   4    -0.368830854679E+02    0.42974E-10   -0.52657E-12  2799   0.290E-05    0.106E-07
RMM:   5    -0.368830854681E+02   -0.19611E-09   -0.99692E-13  2644   0.260E-05    0.102E-07
RMM:   6    -0.368830854681E+02    0.31264E-10   -0.27624E-12  2396   0.245E-05
   4 F= -.36883085E+02 E0= -.36883085E+02  d E =-.281261E-09
 BRION: g(F)=  0.280E-10 g(S)=  0.000E+00 retain N=  1 mean eig= 0.09
 eig:   0.089
 bond charge predicted
       N       E                     dE             d eps       ncg     rms          rms(c)
DAV:   1    -0.368830854675E+02    0.57923E-09    0.60318E-09  4508   0.513E-05    0.624E-07
RMM:   2    -0.368830854681E+02   -0.56616E-09   -0.18438E-13  1567   0.147E-05    0.390E-07
RMM:   3    -0.368830854682E+02   -0.76170E-10    0.32690E-14  1490   0.143E-05    0.256E-08
RMM:   4    -0.368830854680E+02    0.22021E-09   -0.13734E-13  1449   0.144E-05    0.167E-08
RMM:   5    -0.368830854679E+02    0.11619E-09    0.19260E-13  1419   0.141E-05    0.117E-08
RMM:   6    -0.368830854681E+02   -0.26489E-09    0.18397E-13  1297   0.140E-05    0.965E-09
RMM:   7    -0.368830854683E+02   -0.15291E-09   -0.36218E-13  1384   0.139E-05    0.608E-09
RMM:   8    -0.368830854682E+02    0.83901E-10    0.31691E-13  1356   0.138E-05
   5 F= -.36883085E+02 E0= -.36883085E+02  d E =-.918590E-10
 BRION: g(F)=  0.791E-12 g(S)=  0.000E+00 retain N=  1 mean eig= 0.11
 eig:   0.107
 bond charge predicted
       N       E                     dE             d eps       ncg     rms          rms(c)
DAV:   1    -0.368830854676E+02    0.69872E-09    0.60591E-09  4604   0.198E-05    0.453E-07
RMM:   2    -0.368830854682E+02   -0.59117E-09    0.10938E-13   896   0.643E-06    0.279E-07
RMM:   3    -0.368830854680E+02    0.16723E-09   -0.72206E-14  1056   0.635E-06    0.637E-09
RMM:   4    -0.368830854679E+02    0.57753E-10    0.14564E-13  1101   0.637E-06    0.190E-09
RMM:   5    -0.368830854680E+02   -0.93223E-10   -0.13775E-13   927   0.639E-06
   6 F= -.36883085E+02 E0= -.36883085E+02  d E =0.155410E-09
 BRION: g(F)=  0.344E-12 g(S)=  0.000E+00 retain N=  1 mean eig= 0.31
 eig:   0.313
 bond charge predicted
       N       E                     dE             d eps       ncg     rms          rms(c)
DAV:   1    -0.368830854675E+02    0.42098E-09    0.60532E-09  4100   0.229E-05    0.404E-07
RMM:   2    -0.368830854678E+02   -0.30514E-09    0.66284E-14   504   0.692E-06    0.250E-07
RMM:   3    -0.368830854683E+02   -0.44872E-09    0.63982E-14   963   0.682E-06    0.625E-09
RMM:   4    -0.368830854679E+02    0.40939E-09   -0.42271E-14   734   0.683E-06    0.271E-09
RMM:   5    -0.368830854682E+02   -0.29547E-09    0.28619E-14   636   0.683E-06    0.128E-09
RMM:   6    -0.368830854679E+02    0.28001E-09   -0.54278E-15   577   0.682E-06    0.945E-10
RMM:   7    -0.368830854680E+02   -0.14404E-09    0.48685E-14   376   0.682E-06    0.827E-10
RMM:   8    -0.368830854679E+02    0.13404E-09    0.35527E-14   552   0.683E-06    0.120E-09
RMM:   9    -0.368830854680E+02   -0.99362E-10   -0.22040E-14   318   0.685E-06
   7 F= -.36883085E+02 E0= -.36883085E+02  d E =0.449063E-10
 BRION: g(F)=  0.522E-13 g(S)=  0.000E+00 retain N=  1 mean eig= 0.23
 eig:   0.226
 reached required accuracy - stopping structural energy minimisation
