    4    4  400    1
  0.5270948E+02  0.4258732E-09  0.2516154E-09  0.1967574E-08  0.5000000E-15
  1.000000000000000E-004
  CAR 
 gr                                      
     16    247     12
 
  0.0000000E+00  0.0000000E+00  0.0000000E+00  0.1157407E-02
    1      -22.117106
    2      -16.769605
    3      -15.886000
    4      -10.253505
    5       -9.413463
    6       -5.953628
    7       -5.747649
    8       -4.947239
    9       -1.126396
   10        0.540298
   11        1.339059
   12        1.730203
 
  0.4166667E-01  0.0000000E+00  0.0000000E+00  0.2314815E-02
    1      -22.106757
    2      -16.958658
    3      -15.681879
    4      -10.241207
    5       -9.403097
    6       -5.977118
    7       -5.788373
    8       -5.016592
    9       -1.041984
   10        0.554323
   11        1.353235
   12        1.744556
 
  0.8333333E-01  0.0000000E+00  0.0000000E+00  0.2314815E-02
    1      -22.075716
    2      -17.319099
    3      -15.276322
    4      -10.204333
    5       -9.372048
    6       -6.046240
    7       -5.909031
    8       -5.207981
    9       -0.805597
   10        0.596398
   11        1.395757
   12        1.787616
 
  0.1250000E+00  0.0000000E+00  0.0000000E+00  0.2314815E-02
    1      -22.024001
    2      -17.708772
    3      -14.811766
    4      -10.142939
    5       -9.320467
    6       -6.157201
    7       -6.105305
    8       -5.485109
    9       -0.454060
   10        0.666520
   11        1.466615
   12        1.859382
 
  0.1666667E+00  0.0000000E+00  0.0000000E+00  0.2314815E-02
    1      -21.951648
    2      -18.096394
    3      -14.319961
    4      -10.057122
    5       -9.248612
    6       -6.370679
    7       -6.304376
    8       -5.813174
    9       -0.023069
   10        0.764680
   11        1.565789
   12        1.959855
 
  0.2083333E+00  0.0000000E+00  0.0000000E+00  0.2314815E-02
    1      -21.858706
    2      -18.473062
    3      -13.810495
    4       -9.947023
    5       -9.156856
    6       -6.697248
    7       -6.481104
    8       -6.167098
    9        0.461042
   10        0.890866
   11        1.693247
   12        2.089032
 
  0.2500000E+00  0.0000000E+00  0.0000000E+00  0.2314815E-02
    1      -21.745238
    2      -18.835237
    3      -13.287799
    4       -9.812830
    5       -9.045697
    6       -7.076493
    7       -6.680414
    8       -6.530588
    9        0.980333
   10        1.045056
   11        1.848947
   12        2.246911
 
  0.2916667E+00  0.0000000E+00  0.0000000E+00  0.2314815E-02
    1      -21.611327
    2      -19.181143
    3      -12.754793
    4       -9.654785
    5       -8.915779
    6       -7.499920
    7       -6.895586
    8       -6.893253
    9        1.227218
   10        1.522342
   11        2.032820
   12        2.433488
 
  0.3333333E+00  0.0000000E+00  0.0000000E+00  0.2314815E-02
    1      -21.457067
    2      -19.509727
    3      -12.213947
    4       -9.473196
    5       -8.767909
    6       -7.959484
    7       -7.248347
    8       -7.120484
    9        1.437308
   10        2.077712
   11        2.244768
   12        2.648753
 
  0.3750000E+00  0.0000000E+00  0.0000000E+00  0.2314815E-02
    1      -21.282572
    2      -19.820282
    3      -11.667692
    4       -9.268447
    5       -8.603090
    6       -8.447834
    7       -7.591352
    8       -7.349714
    9        1.675266
   10        2.484618
   11        2.638331
   12        2.892691
 
  0.4166667E+00  0.0000000E+00  0.0000000E+00  0.2314815E-02
    1      -21.087979
    2      -20.112293
    3      -11.118625
    4       -9.041016
    5       -8.958417
    6       -8.422552
    7       -7.919136
    8       -7.578649
    9        1.941005
   10        2.752032
   11        3.165274
   12        3.193444
 
  0.4583333E+00  0.0000000E+00  0.0000000E+00  0.2314815E-02
    1      -20.873447
    2      -20.385359
    3      -10.569632
    4       -9.485474
    5       -8.791503
    6       -8.229457
    7       -8.227801
    8       -7.803386
    9        2.234402
   10        2.903177
   11        3.046122
   12        3.466429
 
  0.5000000E+00  0.0000000E+00  0.0000000E+00  0.1157407E-02
    1      -20.639166
    2      -20.639166
    3      -10.023993
    4      -10.023993
    5       -8.520662
    6       -8.520662
    7       -8.020670
    8       -8.020670
    9        2.555255
   10        2.555255
   11        3.363000
   12        3.363000
 
  0.0000000E+00  0.2777778E-01  0.0000000E+00  0.2314815E-02
    1      -22.103961
    2      -16.758274
    3      -15.875364
    4      -10.237884
    5       -9.472338
    6       -6.007830
    7       -5.779459
    8       -4.931309
    9       -1.132112
   10        0.558086
   11        1.357100
   12        1.748468
 
  0.4166667E-01  0.2777778E-01  0.0000000E+00  0.4629630E-02
    1      -22.093614
    2      -16.947207
    3      -15.671422
    4      -10.225590
    5       -9.461944
    6       -6.034655
    7       -5.816126
    8       -5.000833
    9       -1.047658
   10        0.572112
   11        1.371275
   12        1.762821
 
  0.8333333E-01  0.2777778E-01  0.0000000E+00  0.4629630E-02
    1      -22.062576
    2      -17.307434
    3      -15.266260
    4      -10.188729
    5       -9.430810
    6       -6.115613
    7       -5.922917
    8       -5.192605
    9       -0.811277
   10        0.614191
   11        1.413794
   12        1.805882
 
  0.1250000E+00  0.2777778E-01  0.0000000E+00  0.4629630E-02
    1      -22.010869
    2      -17.696897
    3      -14.802220
    4      -10.127358
    5       -9.379083
    6       -6.255411
    7       -6.087353
    8       -5.470114
    9       -0.460007
   10        0.684319
   11        1.484646
   12        1.877650
 
  0.1666667E+00  0.2777778E-01  0.0000000E+00  0.4629630E-02
    1      -21.938526
    2      -18.084334
    3      -14.311050
    4      -10.041572
    5       -9.307010
    6       -6.469282
    7       -6.282491
    8       -5.798448
    9       -0.029655
   10        0.782488
   11        1.583813
   12        1.978124
 
  0.2083333E+00  0.2777778E-01  0.0000000E+00  0.4629630E-02
    1      -21.845598
    2      -18.460838
    3      -13.802351
    4       -9.931514
    5       -9.214952
    6       -6.764284
    7       -6.487095
    8       -6.152520
    9        0.453433
   10        0.908685
   11        1.711262
   12        2.107304
 
  0.2500000E+00  0.2777778E-01  0.0000000E+00  0.4629630E-02
    1      -21.732148
    2      -18.822872
    3      -13.280583
    4       -9.797370
    5       -9.103389
    6       -7.124873
    7       -6.701518
    8       -6.516061
    9        0.971350
   10        1.062887
   11        1.866951
   12        2.265186
 
  0.2916667E+00  0.2777778E-01  0.0000000E+00  0.4629630E-02
    1      -21.598258
    2      -19.168657
    3      -12.748701
    4       -9.639383
    5       -8.972941
    6       -7.535622
    7       -6.926145
    8       -6.878710
    9        1.245063
   10        1.511679
   11        2.050813
   12        2.451766
 
  0.3333333E+00  0.2777778E-01  0.0000000E+00  0.4629630E-02
    1      -21.444023
    2      -19.497136
    3      -12.209218
    4       -9.457861
    5       -8.824385
    6       -7.985725
    7       -7.233746
    8       -7.157673
    9        1.455169
   10        2.065131
   11        2.262750
   12        2.667036
 
  0.3750000E+00  0.2777778E-01  0.0000000E+00  0.4629630E-02
    1      -21.269560
    2      -19.807601
    3      -11.664624
    4       -9.253188
    5       -8.658685
    6       -8.466701
    7       -7.576667
    8       -7.391845
    9        1.693144
   10        2.502594
   11        2.623742
   12        2.910982
 
  0.4166667E+00  0.2777778E-01  0.0000000E+00  0.4629630E-02
    1      -21.075003
    2      -20.099534
    3      -11.117587
    4       -9.025842
    5       -8.971425
    6       -8.477020
    7       -7.904354
    8       -7.624576
    9        1.958905
   10        2.770015
   11        3.177471
   12        3.183577
 
  0.4583333E+00  0.2777778E-01  0.0000000E+00  0.4629630E-02
    1      -20.860513
    2      -20.372533
    3      -10.571086
    4       -9.493783
    5       -8.776421
    6       -8.280833
    7       -8.214574
    8       -7.852272
    9        2.252333
   10        2.921269
   11        3.064140
   12        3.484758
 
  0.5000000E+00  0.2777778E-01  0.0000000E+00  0.2314815E-02
    1      -20.626282
    2      -20.626282
    3      -10.028514
    4      -10.028514
    5       -8.505678
    6       -8.505678
    7       -8.071877
    8       -8.071877
    9        2.573238
   10        2.573238
   11        3.381042
   12        3.381042
 
  0.0000000E+00  0.5555556E-01  0.0000000E+00  0.2314815E-02
    1      -22.064538
    2      -16.724285
    3      -15.843652
    4      -10.191053
    5       -9.644143
    6       -6.166201
    7       -5.873917
    8       -4.883540
    9       -1.150055
   10        0.611458
   11        1.411217
   12        1.803264
 
  0.4166667E-01  0.5555556E-01  0.0000000E+00  0.4629630E-02
    1      -22.054195
    2      -16.912875
    3      -15.640237
    4      -10.178774
    5       -9.633660
    6       -6.199563
    7       -5.901949
    8       -4.953591
    9       -1.065467
   10        0.625487
   11        1.425388
   12        1.817618
 
  0.8333333E-01  0.5555556E-01  0.0000000E+00  0.4629630E-02
    1      -22.023170
    2      -17.272469
    3      -15.236265
    4      -10.141953
    5       -9.602252
    6       -6.297877
    7       -5.985452
    8       -5.146543
    9       -0.829086
   10        0.667575
   11        1.467897
   12        1.860681
 
  0.1250000E+00  0.5555556E-01  0.0000000E+00  0.4629630E-02
    1      -21.971484
    2      -17.661305
    3      -14.773807
    4      -10.080649
    5       -9.550050
    6       -6.457242
    7       -6.121513
    8       -5.425219
    9       -0.478622
   10        0.737717
   11        1.538733
   12        1.932452
 
  0.1666667E+00  0.5555556E-01  0.0000000E+00  0.4629630E-02
    1      -21.899174
    2      -18.048180
    3      -14.284588
    4       -9.994959
    5       -9.477273
    6       -6.674260
    7       -6.303048
    8       -5.754375
    9       -0.050214
   10        0.835908
   11        1.637875
   12        2.032931
 
  0.2083333E+00  0.5555556E-01  0.0000000E+00  0.4629630E-02
    1      -21.806288
    2      -18.424193
    3      -13.778264
    4       -9.885022
    5       -9.384236
    6       -6.947171
    7       -6.518794
    8       -6.108892
    9        0.429762
   10        0.962132
   11        1.765296
   12        2.162116
 
  0.2500000E+00  0.5555556E-01  0.0000000E+00  0.4629630E-02
    1      -21.692890
    2      -18.785802
    3      -13.259381
    4       -9.751028
    5       -9.271360
    6       -7.274306
    7       -6.756099
    8       -6.472583
    9        0.943496
   10        1.116367
   11        1.920950
   12        2.320007
 
  0.2916667E+00  0.5555556E-01  0.0000000E+00  0.4629630E-02
    1      -21.559065
    2      -19.131220
    3      -12.731006
    4       -9.593220
    5       -9.139184
    6       -7.651721
    7       -7.004395
    8       -6.835179
    9        1.298579
   10        1.478710
   11        2.104775
   12        2.506597
 
  0.3333333E+00  0.5555556E-01  0.0000000E+00  0.4629630E-02
    1      -21.404908
    2      -19.459382
    3      -12.195806
    4       -9.411903
    5       -8.988381
    6       -8.072859
    7       -7.256371
    8       -7.190032
    9        1.508724
   10        2.026306
   11        2.316677
   12        2.721881
 
  0.3750000E+00  0.5555556E-01  0.0000000E+00  0.4629630E-02
    1      -21.230537
    2      -19.769574
    3      -11.656462
    4       -9.207462
    5       -8.819776
    6       -8.529973
    7       -7.532696
    8       -7.507073
    9        1.746744
   10        2.556500
   11        2.578712
   12        2.965845
 
  0.4166667E+00  0.5555556E-01  0.0000000E+00  0.4629630E-02
    1      -21.036088
    2      -20.061273
    3      -11.115889
    4       -9.015439
    5       -8.980373
    6       -8.634370
    7       -7.860086
    8       -7.752834
    9        2.012559
   10        2.823938
   11        3.127542
   12        3.238470
 
  0.4583333E+00  0.5555556E-01  0.0000000E+00  0.4629630E-02
    1      -20.821726
    2      -20.334070
    3      -10.577380
    4       -9.522362
    5       -8.731231
    6       -8.433376
    7       -8.169994
    8       -7.990709
    9        2.306062
   10        2.975364
   11        3.118172
   12        3.539739
 
  0.5000000E+00  0.5555556E-01  0.0000000E+00  0.2314815E-02
    1      -20.587644
    2      -20.587644
    3      -10.044730
    4      -10.044730
    5       -8.460787
    6       -8.460787
    7       -8.218244
    8       -8.218244
    9        2.627090
   10        2.627090
   11        3.435154
   12        3.435154
 
  0.0000000E+00  0.8333333E-01  0.0000000E+00  0.2314815E-02
    1      -21.998873
    2      -16.667650
    3      -15.791493
    4      -10.113111
    5       -9.915723
    6       -6.417293
    7       -6.028204
    8       -4.803988
    9       -1.182597
   10        0.700436
   11        1.501387
   12        1.894597
 
  0.4166667E-01  0.8333333E-01  0.0000000E+00  0.4629630E-02
    1      -21.988536
    2      -16.855729
    3      -15.588915
    4      -10.100854
    5       -9.905069
    6       -6.456719
    7       -6.046866
    8       -4.874977
    9       -1.097746
   10        0.714467
   11        1.515552
   12        1.908952
 
  0.8333333E-01  0.8333333E-01  0.0000000E+00  0.4629630E-02
    1      -21.957533
    2      -17.214299
    3      -15.186960
    4      -10.064103
    5       -9.873137
    6       -6.568706
    7       -6.107313
    8       -5.070006
    9       -0.861309
   10        0.756562
   11        1.558042
   12        1.952016
 
  0.1250000E+00  0.8333333E-01  0.0000000E+00  0.4629630E-02
    1      -21.905885
    2      -17.602091
    3      -14.727251
    4      -10.002915
    5       -9.820022
    6       -6.740590
    7       -6.216807
    8       -5.350713
    9       -0.512189
   10        0.826719
   11        1.628847
   12        2.023789
 
  0.1666667E+00  0.8333333E-01  0.0000000E+00  0.4629630E-02
    1      -21.833628
    2      -17.988021
    3      -14.241471
    4       -9.917388
    5       -9.745885
    6       -6.961352
    7       -6.377740
    8       -5.681280
    9       -0.087100
   10        0.924932
   11        1.727947
   12        2.124273
 
  0.2083333E+00  0.8333333E-01  0.0000000E+00  0.4629630E-02
    1      -21.740811
    2      -18.363206
    3      -13.739373
    4       -9.807661
    5       -9.650950
    6       -7.223975
    7       -6.585922
    8       -6.036547
    9        0.387550
   10        1.051186
   11        1.855311
   12        2.253466
 
  0.2500000E+00  0.8333333E-01  0.0000000E+00  0.4629630E-02
    1      -21.627503
    2      -18.724097
    3      -13.225672
    4       -9.673925
    5       -9.535513
    6       -7.525252
    7       -6.831670
    8       -6.400476
    9        0.894130
   10        1.205459
   11        2.010900
   12        2.411367
 
  0.2916667E+00  0.8333333E-01  0.0000000E+00  0.4629630E-02
    1      -21.493786
    2      -19.068896
    3      -12.703670
    4       -9.516421
    5       -9.399940
    6       -7.864742
    7       -7.101833
    8       -6.762962
    9        1.387715
   10        1.420597
   11        2.194652
   12        2.597971
 
  0.3333333E+00  0.8333333E-01  0.0000000E+00  0.4629630E-02
    1      -21.339759
    2      -19.396525
    3      -12.176344
    4       -9.335457
    5       -9.244668
    6       -8.242783
    7       -7.382659
    8       -7.117486
    9        1.597909
   10        1.958149
   11        2.406482
   12        2.813271
 
  0.3750000E+00  0.8333333E-01  0.0000000E+00  0.4629630E-02
    1      -21.165542
    2      -19.706258
    3      -11.646781
    4       -9.131415
    5       -9.070213
    6       -8.658180
    7       -7.662753
    8       -7.459693
    9        1.835982
   10        2.499715
   11        2.646254
   12        3.057259
 
  0.4166667E+00  0.8333333E-01  0.0000000E+00  0.4629630E-02
    1      -20.971277
    2      -19.997561
    3      -11.118427
    4       -9.107123
    5       -8.904769
    6       -8.877164
    7       -7.934533
    8       -7.786563
    9        2.101858
   10        2.913707
   11        3.038585
   12        3.329919
 
  0.4583333E+00  0.8333333E-01  0.0000000E+00  0.4629630E-02
    1      -20.757129
    2      -20.270018
    3      -10.595259
    4       -9.583844
    5       -8.666191
    6       -8.656110
    7       -8.193732
    8       -8.095928
    9        2.395439
   10        3.065096
   11        3.208138
   12        3.558628
 
  0.5000000E+00  0.8333333E-01  0.0000000E+00  0.2314815E-02
    1      -20.523299
    2      -20.523299
    3      -10.081927
    4      -10.081927
    5       -8.438065
    6       -8.438065
    7       -8.386183
    8       -8.386183
    9        2.716588
   10        2.716588
   11        3.525279
   12        3.525279
 
  0.0000000E+00  0.1111111E+00  0.0000000E+00  0.2314815E-02
    1      -21.907028
    2      -16.588390
    3      -15.720075
    4      -10.268658
    5      -10.004223
    6       -6.745389
    7       -6.237921
    8       -4.692754
    9       -1.233605
   10        0.825047
   11        1.627574
   12        2.022472
 
  0.4166667E-01  0.1111111E+00  0.0000000E+00  0.4629630E-02
    1      -21.896702
    2      -16.775890
    3      -15.518583
    4      -10.257711
    5       -9.992000
    6       -6.789762
    7       -6.247380
    8       -4.765187
    9       -1.148288
   10        0.839077
   11        1.641729
   12        2.036826
 
  0.8333333E-01  0.1111111E+00  0.0000000E+00  0.4629630E-02
    1      -21.865730
    2      -17.133099
    3      -15.119542
    4      -10.224879
    5       -9.955350
    6       -6.912526
    7       -6.284885
    8       -4.963381
    9       -0.911622
   10        0.881170
   11        1.684189
   12        2.079890
 
  0.1250000E+00  0.1111111E+00  0.0000000E+00  0.4629630E-02
    1      -21.814134
    2      -17.519429
    3      -14.663970
    4      -10.170192
    5       -9.894331
    6       -7.094330
    7       -6.366034
    8       -5.247125
    9       -0.564357
   10        0.951328
   11        1.754943
   12        2.151664
 
  0.1666667E+00  0.1111111E+00  0.0000000E+00  0.4629630E-02
    1      -21.741952
    2      -17.904017
    3      -14.183470
    4      -10.093697
    5       -9.809041
    6       -7.319601
    7       -6.500025
    8       -5.579754
    9       -0.144048
   10        1.049548
   11        1.853971
   12        2.252151
 
  0.2083333E+00  0.1111111E+00  0.0000000E+00  0.4629630E-02
    1      -21.649235
    2      -18.278021
    3      -13.687970
    4       -9.995442
    5       -9.699621
    6       -7.578251
    7       -6.688049
    8       -5.936084
    9        0.322893
   10        1.175820
   11        1.981242
   12        2.381350
 
  0.2500000E+00  0.1111111E+00  0.0000000E+00  0.4629630E-02
    1      -21.536052
    2      -18.637887
    3      -13.182496
    4       -9.875471
    5       -9.566261
    6       -7.864472
    7       -6.924961
    8       -6.300315
    9        0.819130
   10        1.330120
   11        2.136717
   12        2.539260
 
  0.2916667E+00  0.1111111E+00  0.0000000E+00  0.4629630E-02
    1      -21.402488
    2      -18.981801
    3      -12.670796
    4       -9.733794
    5       -9.409204
    6       -8.175931
    7       -7.200842
    8       -6.662595
    9        1.332980
   10        1.512412
   11        2.320338
   12        2.725876
 
  0.3333333E+00  0.1111111E+00  0.0000000E+00  0.4629630E-02
    1      -21.248645
    2      -19.308668
    3      -12.156446
    4       -9.570360
    5       -9.228757
    6       -8.513238
    7       -7.502403
    8       -7.016599
    9        1.722646
   10        1.856032
   11        2.532029
   12        2.941193
 
  0.3750000E+00  0.1111111E+00  0.0000000E+00  0.4629630E-02
    1      -21.074646
    2      -19.617745
    3      -11.643341
    4       -9.385019
    5       -9.025301
    6       -8.878949
    7       -7.814749
    8       -7.358108
    9        1.960761
   10        2.381736
   11        2.771678
   12        3.185203
 
  0.4166667E+00  0.1111111E+00  0.0000000E+00  0.4629630E-02
    1      -20.880639
    2      -19.908485
    3      -11.135964
    4       -9.275635
    5       -9.177492
    6       -8.799307
    7       -8.123862
    8       -7.684192
    9        2.226680
   10        2.904530
   11        3.039097
   12        3.457893
 
  0.4583333E+00  0.1111111E+00  0.0000000E+00  0.4629630E-02
    1      -20.666797
    2      -20.180459
    3      -10.639551
    4       -9.703633
    5       -8.947397
    6       -8.551362
    7       -8.419132
    8       -7.992744
    9        2.520310
   10        3.190167
   11        3.333806
   12        3.418390
 
  0.5000000E+00  0.1111111E+00  0.0000000E+00  0.2314815E-02
    1      -20.433324
    2      -20.433324
    3      -10.160044
    4      -10.160044
    5       -8.694460
    6       -8.694460
    7       -8.282198
    8       -8.282198
    9        2.841528
   10        2.841528
   11        3.651096
   12        3.651096
 
  0.0000000E+00  0.1388889E+00  0.0000000E+00  0.2314815E-02
    1      -21.789095
    2      -16.486535
    3      -15.631426
    4      -10.682428
    5       -9.864627
    6       -7.133641
    7       -6.497472
    8       -4.549980
    9       -1.308260
   10        0.985310
   11        1.789721
   12        2.186893
 
  0.4166667E-01  0.1388889E+00  0.0000000E+00  0.4629630E-02
    1      -21.778782
    2      -16.673560
    3      -15.431176
    4      -10.670990
    5       -9.852450
    6       -7.182168
    7       -6.497857
    8       -4.624537
    9       -1.222127
   10        0.999334
   11        1.803860
   12        2.201246
 
  0.8333333E-01  0.1388889E+00  0.0000000E+00  0.4629630E-02
    1      -21.747851
    2      -17.029153
    3      -15.036099
    4      -10.636647
    5       -9.815938
    6       -7.314086
    7       -6.512049
    8       -4.827304
    9       -0.984813
   10        1.041410
   11        1.846272
   12        2.244307
 
  0.1250000E+00  0.1388889E+00  0.0000000E+00  0.4629630E-02
    1      -21.696323
    2      -17.413599
    3      -14.586486
    4      -10.579303
    5       -9.755149
    6       -7.504767
    7       -6.562587
    8       -5.115312
    9       -0.639811
   10        1.111545
   11        1.916945
   12        2.316078
 
  0.1666667E+00  0.1388889E+00  0.0000000E+00  0.4629630E-02
    1      -21.624240
    2      -17.796421
    3      -14.113818
    4      -10.498776
    5       -9.670182
    6       -7.735330
    7       -6.664354
    8       -5.450742
    9       -0.225802
   10        1.209745
   11        2.015856
   12        2.416563
 
  0.2083333E+00  0.1388889E+00  0.0000000E+00  0.4629630E-02
    1      -21.531652
    2      -18.168859
    3      -13.628346
    4      -10.394766
    5       -9.561180
    6       -7.993758
    7       -6.823070
    8       -5.808443
    9        0.230895
   10        1.336005
   11        2.142973
   12        2.545762
 
  0.2500000E+00  0.1388889E+00  0.0000000E+00  0.4629630E-02
    1      -21.418631
    2      -18.527366
    3      -13.135690
    4      -10.266792
    5       -9.428333
    6       -8.272600
    7       -7.037577
    8       -6.172994
    9        0.713424
   10        1.490304
   11        2.298251
   12        2.703676
 
  0.2916667E+00  0.1388889E+00  0.0000000E+00  0.4629630E-02
    1      -21.285265
    2      -18.870108
    3      -12.640456
    4      -10.114125
    5       -9.271887
    6       -8.567631
    7       -7.301609
    8       -6.534904
    9        1.210635
   10        1.672606
   11        2.481631
   12        2.890301
 
  0.3333333E+00  0.1388889E+00  0.0000000E+00  0.4629630E-02
    1      -21.131662
    2      -19.195967
    3      -12.147393
    4       -9.935697
    5       -9.092147
    6       -8.877350
    7       -7.605069
    8       -6.888125
    9        1.714641
   10        1.882857
   11        2.693037
   12        3.105632
 
  0.3750000E+00  0.1388889E+00  0.0000000E+00  0.4629630E-02
    1      -20.957949
    2      -19.504179
    3      -11.661888
    4       -9.730050
    5       -9.202845
    6       -8.889494
    7       -7.935012
    8       -7.228621
    9        2.120989
   10        2.219449
   11        2.932370
   12        3.349659
 
  0.4166667E+00  0.1388889E+00  0.0000000E+00  0.4629630E-02
    1      -20.764281
    2      -19.794176
    3      -11.190096
    4       -9.547546
    5       -9.495465
    6       -8.664397
    7       -8.276605
    8       -7.553588
    9        2.386919
   10        2.720211
   11        3.199502
   12        3.622373
 
  0.4583333E+00  0.1388889E+00  0.0000000E+00  0.4629630E-02
    1      -20.550837
    2      -20.065513
    3      -10.738545
    4       -9.916230
    5       -9.230544
    6       -8.614582
    7       -8.417436
    8       -7.860997
    9        2.680552
   10        3.212793
   11        3.350414
   12        3.494262
 
  0.5000000E+00  0.1388889E+00  0.0000000E+00  0.2314815E-02
    1      -20.317832
    2      -20.317832
    3      -10.312923
    4      -10.312923
    5       -8.935582
    6       -8.935582
    7       -8.149333
    8       -8.149333
    9        3.001769
   10        3.001769
   11        3.693416
   12        3.693417
 
  0.0000000E+00  0.1666667E+00  0.0000000E+00  0.2314815E-02
    1      -21.645195
    2      -16.362127
    3      -15.528956
    4      -11.136306
    5       -9.694642
    6       -7.566279
    7       -6.800489
    8       -4.375850
    9       -1.412678
   10        1.181226
   11        1.987750
   12        2.387865
 
  0.4166667E-01  0.1666667E+00  0.0000000E+00  0.4629630E-02
    1      -21.634899
    2      -16.549062
    3      -15.329971
    4      -11.124034
    5       -9.682525
    6       -7.618518
    7       -6.791869
    8       -4.453519
    9       -1.325096
   10        1.195238
   11        2.001863
   12        2.402216
 
  0.8333333E-01  0.1666667E+00  0.0000000E+00  0.4629630E-02
    1      -21.604018
    2      -16.902908
    3      -14.940257
    4      -11.087102
    5       -9.646193
    6       -7.758752
    7       -6.782389
    8       -4.662797
    9       -1.086238
   10        1.237281
   11        2.044199
   12        2.445271
 
  0.1250000E+00  0.1666667E+00  0.0000000E+00  0.4629630E-02
    1      -21.552577
    2      -17.285031
    3      -14.499313
    4      -11.025158
    5       -9.585706
    6       -7.957899
    7       -6.800551
    8       -4.956631
    9       -0.743647
   10        1.307366
   11        2.114739
   12        2.517033
 
  0.1666667E+00  0.1666667E+00  0.0000000E+00  0.4629630E-02
    1      -21.480613
    2      -17.665614
    3      -14.038480
    4      -10.937547
    5       -9.501163
    6       -8.194415
    7       -6.866169
    8       -5.295704
    9       -0.337420
   10        1.405507
   11        2.213455
   12        2.617507
 
  0.2083333E+00  0.1666667E+00  0.0000000E+00  0.4629630E-02
    1      -21.388184
    2      -18.036054
    3      -13.568668
    4      -10.823224
    5       -9.392710
    6       -8.454951
    7       -6.988951
    8       -5.655053
    9        0.106442
   10        1.531711
   11        2.340304
   12        2.746697
 
  0.2500000E+00  0.1666667E+00  0.0000000E+00  0.4629630E-02
    1      -21.275365
    2      -18.392823
    3      -13.096672
    4      -10.680614
    5       -9.260540
    6       -8.731142
    7       -7.171245
    8       -6.019843
    9        0.571867
   10        1.685965
   11        2.495222
   12        2.904607
 
  0.2916667E+00  0.1666667E+00  0.0000000E+00  0.4629630E-02
    1      -21.142246
    2      -18.734069
    3      -12.628748
    4      -10.507488
    5       -9.104898
    6       -9.017719
    7       -7.409973
    8       -6.381104
    9        1.048501
   10        1.868236
   11        2.678122
   12        3.091234
 
  0.3333333E+00  0.1666667E+00  0.0000000E+00  0.4629630E-02
    1      -20.988941
    2      -19.058645
    3      -12.171658
    4      -10.300962
    5       -9.311688
    6       -8.926093
    7       -7.698002
    8       -6.733156
    9        1.529193
   10        2.078466
   11        2.888871
   12        3.306572
 
  0.3750000E+00  0.1666667E+00  0.0000000E+00  0.4629630E-02
    1      -20.815586
    2      -19.365758
    3      -11.732650
    4      -10.057961
    5       -9.612088
    6       -8.724507
    7       -8.025223
    8       -7.072212
    9        2.008644
   10        2.316579
   11        3.127239
   12        3.550612
 
  0.4166667E+00  0.1666667E+00  0.0000000E+00  0.4629630E-02
    1      -20.622342
    2      -19.654814
    3      -11.318324
    4       -9.920056
    5       -9.776614
    6       -8.500605
    7       -8.379333
    8       -7.395625
    9        2.482658
   10        2.582483
   11        3.392611
   12        3.823343
 
  0.4583333E+00  0.1666667E+00  0.0000000E+00  0.4629630E-02
    1      -20.409399
    2      -19.925349
    3      -10.932475
    4      -10.238976
    5       -9.458594
    6       -8.746329
    7       -8.254962
    8       -7.701467
    9        2.876069
   10        2.947618
   11        3.545753
   12        3.676386
 
  0.5000000E+00  0.1666667E+00  0.0000000E+00  0.2314815E-02
    1      -20.176981
    2      -20.176981
    3      -10.574316
    4      -10.574316
    5       -9.111067
    6       -9.111067
    7       -7.988287
    8       -7.988287
    9        3.197212
   10        3.197212
   11        3.399394
   12        3.399394
 