<?xml version="1.0" encoding="ISO-8859-1"?>
<modeling>
 <generator>
  <i name="program" type="string">vasp </i>
  <i name="version" type="string">5.3.5  </i>
  <i name="subversion" type="string">31Mar14 (build Mar 02 2015 18:14:16) complex                          parallel </i>
  <i name="platform" type="string">LinuxIFC </i>
  <i name="date" type="string">2018 08 09 </i>
  <i name="time" type="string">20:13:57 </i>
 </generator>
 <incar>
  <i type="string" name="SYSTEM">  gr</i>
  <i type="string" name="PREC">accurate : accuracy</i>
  <i type="string" name="ALGO"> FAST.</i>
  <i type="int" name="NELM">   100</i>
  <i type="int" name="NELMDL">    -3</i>
  <i type="int" name="NELMIN">     5</i>
  <i type="int" name="IBRION">     1</i>
  <i name="EDIFF">      0.00000000</i>
  <i name="EDIFFG">     -0.00000100</i>
  <i type="int" name="NSW">   400</i>
  <i type="int" name="ISIF">     2</i>
  <i name="ENCUT">   2000.00000000</i>
  <i type="int" name="ISMEAR">     0</i>
  <i name="SIGMA">      0.05000000</i>
  <i type="int" name="NWRITE">     2</i>
  <i type="logical" name="LWAVE"> F  </i>
  <i type="logical" name="LCHARG"> F  </i>
  <i type="int" name="NELM">   100</i>
 </incar>
 <kpoints>
  <generation param="Gamma">
   <v type="int" name="divisions">      24       36        1 </v>
   <v name="usershift">      0.00000000       0.00000000       0.00000000 </v>
   <v name="genvec1">      0.04166667       0.00000000       0.00000000 </v>
   <v name="genvec2">      0.00000000       0.02777778       0.00000000 </v>
   <v name="genvec3">      0.00000000       0.00000000       1.00000000 </v>
   <v name="shift">      0.00000000       0.00000000       0.00000000 </v>
  </generation>
  <varray name="kpointlist" >
   <v>       0.00000000       0.00000000       0.00000000 </v>
   <v>       0.04166667       0.00000000       0.00000000 </v>
   <v>       0.08333333       0.00000000       0.00000000 </v>
   <v>       0.12500000       0.00000000       0.00000000 </v>
   <v>       0.16666667       0.00000000       0.00000000 </v>
   <v>       0.20833333       0.00000000       0.00000000 </v>
   <v>       0.25000000       0.00000000       0.00000000 </v>
   <v>       0.29166667       0.00000000       0.00000000 </v>
   <v>       0.33333333       0.00000000       0.00000000 </v>
   <v>       0.37500000       0.00000000       0.00000000 </v>
   <v>       0.41666667       0.00000000       0.00000000 </v>
   <v>       0.45833333       0.00000000       0.00000000 </v>
   <v>       0.50000000       0.00000000       0.00000000 </v>
   <v>       0.00000000       0.02777778       0.00000000 </v>
   <v>       0.04166667       0.02777778       0.00000000 </v>
   <v>       0.08333333       0.02777778       0.00000000 </v>
   <v>       0.12500000       0.02777778       0.00000000 </v>
   <v>       0.16666667       0.02777778       0.00000000 </v>
   <v>       0.20833333       0.02777778       0.00000000 </v>
   <v>       0.25000000       0.02777778       0.00000000 </v>
   <v>       0.29166667       0.02777778       0.00000000 </v>
   <v>       0.33333333       0.02777778       0.00000000 </v>
   <v>       0.37500000       0.02777778       0.00000000 </v>
   <v>       0.41666667       0.02777778       0.00000000 </v>
   <v>       0.45833333       0.02777778       0.00000000 </v>
   <v>       0.50000000       0.02777778       0.00000000 </v>
   <v>       0.00000000       0.05555556       0.00000000 </v>
   <v>       0.04166667       0.05555556       0.00000000 </v>
   <v>       0.08333333       0.05555556       0.00000000 </v>
   <v>       0.12500000       0.05555556       0.00000000 </v>
   <v>       0.16666667       0.05555556       0.00000000 </v>
   <v>       0.20833333       0.05555556       0.00000000 </v>
   <v>       0.25000000       0.05555556       0.00000000 </v>
   <v>       0.29166667       0.05555556       0.00000000 </v>
   <v>       0.33333333       0.05555556       0.00000000 </v>
   <v>       0.37500000       0.05555556       0.00000000 </v>
   <v>       0.41666667       0.05555556       0.00000000 </v>
   <v>       0.45833333       0.05555556       0.00000000 </v>
   <v>       0.50000000       0.05555556       0.00000000 </v>
   <v>       0.00000000       0.08333333       0.00000000 </v>
   <v>       0.04166667       0.08333333       0.00000000 </v>
   <v>       0.08333333       0.08333333       0.00000000 </v>
   <v>       0.12500000       0.08333333       0.00000000 </v>
   <v>       0.16666667       0.08333333       0.00000000 </v>
   <v>       0.20833333       0.08333333       0.00000000 </v>
   <v>       0.25000000       0.08333333       0.00000000 </v>
   <v>       0.29166667       0.08333333       0.00000000 </v>
   <v>       0.33333333       0.08333333       0.00000000 </v>
   <v>       0.37500000       0.08333333       0.00000000 </v>
   <v>       0.41666667       0.08333333       0.00000000 </v>
   <v>       0.45833333       0.08333333       0.00000000 </v>
   <v>       0.50000000       0.08333333       0.00000000 </v>
   <v>       0.00000000       0.11111111       0.00000000 </v>
   <v>       0.04166667       0.11111111       0.00000000 </v>
   <v>       0.08333333       0.11111111       0.00000000 </v>
   <v>       0.12500000       0.11111111       0.00000000 </v>
   <v>       0.16666667       0.11111111       0.00000000 </v>
   <v>       0.20833333       0.11111111       0.00000000 </v>
   <v>       0.25000000       0.11111111       0.00000000 </v>
   <v>       0.29166667       0.11111111       0.00000000 </v>
   <v>       0.33333333       0.11111111       0.00000000 </v>
   <v>       0.37500000       0.11111111       0.00000000 </v>
   <v>       0.41666667       0.11111111       0.00000000 </v>
   <v>       0.45833333       0.11111111       0.00000000 </v>
   <v>       0.50000000       0.11111111       0.00000000 </v>
   <v>       0.00000000       0.13888889       0.00000000 </v>
   <v>       0.04166667       0.13888889       0.00000000 </v>
   <v>       0.08333333       0.13888889       0.00000000 </v>
   <v>       0.12500000       0.13888889       0.00000000 </v>
   <v>       0.16666667       0.13888889       0.00000000 </v>
   <v>       0.20833333       0.13888889       0.00000000 </v>
   <v>       0.25000000       0.13888889       0.00000000 </v>
   <v>       0.29166667       0.13888889       0.00000000 </v>
   <v>       0.33333333       0.13888889       0.00000000 </v>
   <v>       0.37500000       0.13888889       0.00000000 </v>
   <v>       0.41666667       0.13888889       0.00000000 </v>
   <v>       0.45833333       0.13888889       0.00000000 </v>
   <v>       0.50000000       0.13888889       0.00000000 </v>
   <v>       0.00000000       0.16666667       0.00000000 </v>
   <v>       0.04166667       0.16666667       0.00000000 </v>
   <v>       0.08333333       0.16666667       0.00000000 </v>
   <v>       0.12500000       0.16666667       0.00000000 </v>
   <v>       0.16666667       0.16666667       0.00000000 </v>
   <v>       0.20833333       0.16666667       0.00000000 </v>
   <v>       0.25000000       0.16666667       0.00000000 </v>
   <v>       0.29166667       0.16666667       0.00000000 </v>
   <v>       0.33333333       0.16666667       0.00000000 </v>
   <v>       0.37500000       0.16666667       0.00000000 </v>
   <v>       0.41666667       0.16666667       0.00000000 </v>
   <v>       0.45833333       0.16666667       0.00000000 </v>
   <v>       0.50000000       0.16666667       0.00000000 </v>
   <v>       0.00000000       0.19444444       0.00000000 </v>
   <v>       0.04166667       0.19444444       0.00000000 </v>
   <v>       0.08333333       0.19444444       0.00000000 </v>
   <v>       0.12500000       0.19444444       0.00000000 </v>
   <v>       0.16666667       0.19444444       0.00000000 </v>
   <v>       0.20833333       0.19444444       0.00000000 </v>
   <v>       0.25000000       0.19444444       0.00000000 </v>
   <v>       0.29166667       0.19444444       0.00000000 </v>
   <v>       0.33333333       0.19444444       0.00000000 </v>
   <v>       0.37500000       0.19444444       0.00000000 </v>
   <v>       0.41666667       0.19444444       0.00000000 </v>
   <v>       0.45833333       0.19444444       0.00000000 </v>
   <v>       0.50000000       0.19444444       0.00000000 </v>
   <v>       0.00000000       0.22222222       0.00000000 </v>
   <v>       0.04166667       0.22222222       0.00000000 </v>
   <v>       0.08333333       0.22222222       0.00000000 </v>
   <v>       0.12500000       0.22222222       0.00000000 </v>
   <v>       0.16666667       0.22222222       0.00000000 </v>
   <v>       0.20833333       0.22222222       0.00000000 </v>
   <v>       0.25000000       0.22222222       0.00000000 </v>
   <v>       0.29166667       0.22222222       0.00000000 </v>
   <v>       0.33333333       0.22222222       0.00000000 </v>
   <v>       0.37500000       0.22222222       0.00000000 </v>
   <v>       0.41666667       0.22222222       0.00000000 </v>
   <v>       0.45833333       0.22222222       0.00000000 </v>
   <v>       0.50000000       0.22222222       0.00000000 </v>
   <v>       0.00000000       0.25000000       0.00000000 </v>
   <v>       0.04166667       0.25000000       0.00000000 </v>
   <v>       0.08333333       0.25000000       0.00000000 </v>
   <v>       0.12500000       0.25000000       0.00000000 </v>
   <v>       0.16666667       0.25000000       0.00000000 </v>
   <v>       0.20833333       0.25000000       0.00000000 </v>
   <v>       0.25000000       0.25000000       0.00000000 </v>
   <v>       0.29166667       0.25000000       0.00000000 </v>
   <v>       0.33333333       0.25000000       0.00000000 </v>
   <v>       0.37500000       0.25000000       0.00000000 </v>
   <v>       0.41666667       0.25000000       0.00000000 </v>
   <v>       0.45833333       0.25000000       0.00000000 </v>
   <v>       0.50000000       0.25000000       0.00000000 </v>
   <v>       0.00000000       0.27777778       0.00000000 </v>
   <v>       0.04166667       0.27777778       0.00000000 </v>
   <v>       0.08333333       0.27777778       0.00000000 </v>
   <v>       0.12500000       0.27777778       0.00000000 </v>
   <v>       0.16666667       0.27777778       0.00000000 </v>
   <v>       0.20833333       0.27777778       0.00000000 </v>
   <v>       0.25000000       0.27777778       0.00000000 </v>
   <v>       0.29166667       0.27777778       0.00000000 </v>
   <v>       0.33333333       0.27777778       0.00000000 </v>
   <v>       0.37500000       0.27777778       0.00000000 </v>
   <v>       0.41666667       0.27777778       0.00000000 </v>
   <v>       0.45833333       0.27777778       0.00000000 </v>
   <v>       0.50000000       0.27777778       0.00000000 </v>
   <v>       0.00000000       0.30555556       0.00000000 </v>
   <v>       0.04166667       0.30555556       0.00000000 </v>
   <v>       0.08333333       0.30555556       0.00000000 </v>
   <v>       0.12500000       0.30555556       0.00000000 </v>
   <v>       0.16666667       0.30555556       0.00000000 </v>
   <v>       0.20833333       0.30555556       0.00000000 </v>
   <v>       0.25000000       0.30555556       0.00000000 </v>
   <v>       0.29166667       0.30555556       0.00000000 </v>
   <v>       0.33333333       0.30555556       0.00000000 </v>
   <v>       0.37500000       0.30555556       0.00000000 </v>
   <v>       0.41666667       0.30555556       0.00000000 </v>
   <v>       0.45833333       0.30555556       0.00000000 </v>
   <v>       0.50000000       0.30555556       0.00000000 </v>
   <v>       0.00000000       0.33333333       0.00000000 </v>
   <v>       0.04166667       0.33333333       0.00000000 </v>
   <v>       0.08333333       0.33333333       0.00000000 </v>
   <v>       0.12500000       0.33333333       0.00000000 </v>
   <v>       0.16666667       0.33333333       0.00000000 </v>
   <v>       0.20833333       0.33333333       0.00000000 </v>
   <v>       0.25000000       0.33333333       0.00000000 </v>
   <v>       0.29166667       0.33333333       0.00000000 </v>
   <v>       0.33333333       0.33333333       0.00000000 </v>
   <v>       0.37500000       0.33333333       0.00000000 </v>
   <v>       0.41666667       0.33333333       0.00000000 </v>
   <v>       0.45833333       0.33333333       0.00000000 </v>
   <v>       0.50000000       0.33333333       0.00000000 </v>
   <v>       0.00000000       0.36111111       0.00000000 </v>
   <v>       0.04166667       0.36111111       0.00000000 </v>
   <v>       0.08333333       0.36111111       0.00000000 </v>
   <v>       0.12500000       0.36111111       0.00000000 </v>
   <v>       0.16666667       0.36111111       0.00000000 </v>
   <v>       0.20833333       0.36111111       0.00000000 </v>
   <v>       0.25000000       0.36111111       0.00000000 </v>
   <v>       0.29166667       0.36111111       0.00000000 </v>
   <v>       0.33333333       0.36111111       0.00000000 </v>
   <v>       0.37500000       0.36111111       0.00000000 </v>
   <v>       0.41666667       0.36111111       0.00000000 </v>
   <v>       0.45833333       0.36111111       0.00000000 </v>
   <v>       0.50000000       0.36111111       0.00000000 </v>
   <v>       0.00000000       0.38888889       0.00000000 </v>
   <v>       0.04166667       0.38888889       0.00000000 </v>
   <v>       0.08333333       0.38888889       0.00000000 </v>
   <v>       0.12500000       0.38888889       0.00000000 </v>
   <v>       0.16666667       0.38888889       0.00000000 </v>
   <v>       0.20833333       0.38888889       0.00000000 </v>
   <v>       0.25000000       0.38888889       0.00000000 </v>
   <v>       0.29166667       0.38888889       0.00000000 </v>
   <v>       0.33333333       0.38888889       0.00000000 </v>
   <v>       0.37500000       0.38888889       0.00000000 </v>
   <v>       0.41666667       0.38888889       0.00000000 </v>
   <v>       0.45833333       0.38888889       0.00000000 </v>
   <v>       0.50000000       0.38888889       0.00000000 </v>
   <v>       0.00000000       0.41666667       0.00000000 </v>
   <v>       0.04166667       0.41666667       0.00000000 </v>
   <v>       0.08333333       0.41666667       0.00000000 </v>
   <v>       0.12500000       0.41666667       0.00000000 </v>
   <v>       0.16666667       0.41666667       0.00000000 </v>
   <v>       0.20833333       0.41666667       0.00000000 </v>
   <v>       0.25000000       0.41666667       0.00000000 </v>
   <v>       0.29166667       0.41666667       0.00000000 </v>
   <v>       0.33333333       0.41666667       0.00000000 </v>
   <v>       0.37500000       0.41666667       0.00000000 </v>
   <v>       0.41666667       0.41666667       0.00000000 </v>
   <v>       0.45833333       0.41666667       0.00000000 </v>
   <v>       0.50000000       0.41666667       0.00000000 </v>
   <v>       0.00000000       0.44444444       0.00000000 </v>
   <v>       0.04166667       0.44444444       0.00000000 </v>
   <v>       0.08333333       0.44444444       0.00000000 </v>
   <v>       0.12500000       0.44444444       0.00000000 </v>
   <v>       0.16666667       0.44444444       0.00000000 </v>
   <v>       0.20833333       0.44444444       0.00000000 </v>
   <v>       0.25000000       0.44444444       0.00000000 </v>
   <v>       0.29166667       0.44444444       0.00000000 </v>
   <v>       0.33333333       0.44444444       0.00000000 </v>
   <v>       0.37500000       0.44444444       0.00000000 </v>
   <v>       0.41666667       0.44444444       0.00000000 </v>
   <v>       0.45833333       0.44444444       0.00000000 </v>
   <v>       0.50000000       0.44444444       0.00000000 </v>
   <v>       0.00000000       0.47222222       0.00000000 </v>
   <v>       0.04166667       0.47222222       0.00000000 </v>
   <v>       0.08333333       0.47222222       0.00000000 </v>
   <v>       0.12500000       0.47222222       0.00000000 </v>
   <v>       0.16666667       0.47222222       0.00000000 </v>
   <v>       0.20833333       0.47222222       0.00000000 </v>
   <v>       0.25000000       0.47222222       0.00000000 </v>
   <v>       0.29166667       0.47222222       0.00000000 </v>
   <v>       0.33333333       0.47222222       0.00000000 </v>
   <v>       0.37500000       0.47222222       0.00000000 </v>
   <v>       0.41666667       0.47222222       0.00000000 </v>
   <v>       0.45833333       0.47222222       0.00000000 </v>
   <v>       0.50000000       0.47222222       0.00000000 </v>
   <v>       0.00000000       0.50000000       0.00000000 </v>
   <v>       0.04166667       0.50000000       0.00000000 </v>
   <v>       0.08333333       0.50000000       0.00000000 </v>
   <v>       0.12500000       0.50000000       0.00000000 </v>
   <v>       0.16666667       0.50000000       0.00000000 </v>
   <v>       0.20833333       0.50000000       0.00000000 </v>
   <v>       0.25000000       0.50000000       0.00000000 </v>
   <v>       0.29166667       0.50000000       0.00000000 </v>
   <v>       0.33333333       0.50000000       0.00000000 </v>
   <v>       0.37500000       0.50000000       0.00000000 </v>
   <v>       0.41666667       0.50000000       0.00000000 </v>
   <v>       0.45833333       0.50000000       0.00000000 </v>
   <v>       0.50000000       0.50000000       0.00000000 </v>
  </varray>
  <varray name="weights" >
   <v>       0.00115741 </v>
   <v>       0.00231481 </v>
   <v>       0.00231481 </v>
   <v>       0.00231481 </v>
   <v>       0.00231481 </v>
   <v>       0.00231481 </v>
   <v>       0.00231481 </v>
   <v>       0.00231481 </v>
   <v>       0.00231481 </v>
   <v>       0.00231481 </v>
   <v>       0.00231481 </v>
   <v>       0.00231481 </v>
   <v>       0.00115741 </v>
   <v>       0.00231481 </v>
   <v>       0.00462963 </v>
   <v>       0.00462963 </v>
   <v>       0.00462963 </v>
   <v>       0.00462963 </v>
   <v>       0.00462963 </v>
   <v>       0.00462963 </v>
   <v>       0.00462963 </v>
   <v>       0.00462963 </v>
   <v>       0.00462963 </v>
   <v>       0.00462963 </v>
   <v>       0.00462963 </v>
   <v>       0.00231481 </v>
   <v>       0.00231481 </v>
   <v>       0.00462963 </v>
   <v>       0.00462963 </v>
   <v>       0.00462963 </v>
   <v>       0.00462963 </v>
   <v>       0.00462963 </v>
   <v>       0.00462963 </v>
   <v>       0.00462963 </v>
   <v>       0.00462963 </v>
   <v>       0.00462963 </v>
   <v>       0.00462963 </v>
   <v>       0.00462963 </v>
   <v>       0.00231481 </v>
   <v>       0.00231481 </v>
   <v>       0.00462963 </v>
   <v>       0.00462963 </v>
   <v>       0.00462963 </v>
   <v>       0.00462963 </v>
   <v>       0.00462963 </v>
   <v>       0.00462963 </v>
   <v>       0.00462963 </v>
   <v>       0.00462963 </v>
   <v>       0.00462963 </v>
   <v>       0.00462963 </v>
   <v>       0.00462963 </v>
   <v>       0.00231481 </v>
   <v>       0.00231481 </v>
   <v>       0.00462963 </v>
   <v>       0.00462963 </v>
   <v>       0.00462963 </v>
   <v>       0.00462963 </v>
   <v>       0.00462963 </v>
   <v>       0.00462963 </v>
   <v>       0.00462963 </v>
   <v>       0.00462963 </v>
   <v>       0.00462963 </v>
   <v>       0.00462963 </v>
   <v>       0.00462963 </v>
   <v>       0.00231481 </v>
   <v>       0.00231481 </v>
   <v>       0.00462963 </v>
   <v>       0.00462963 </v>
   <v>       0.00462963 </v>
   <v>       0.00462963 </v>
   <v>       0.00462963 </v>
   <v>       0.00462963 </v>
   <v>       0.00462963 </v>
   <v>       0.00462963 </v>
   <v>       0.00462963 </v>
   <v>       0.00462963 </v>
   <v>       0.00462963 </v>
   <v>       0.00231481 </v>
   <v>       0.00231481 </v>
   <v>       0.00462963 </v>
   <v>       0.00462963 </v>
   <v>       0.00462963 </v>
   <v>       0.00462963 </v>
   <v>       0.00462963 </v>
   <v>       0.00462963 </v>
   <v>       0.00462963 </v>
   <v>       0.00462963 </v>
   <v>       0.00462963 </v>
   <v>       0.00462963 </v>
   <v>       0.00462963 </v>
   <v>       0.00231481 </v>
   <v>       0.00231481 </v>
   <v>       0.00462963 </v>
   <v>       0.00462963 </v>
   <v>       0.00462963 </v>
   <v>       0.00462963 </v>
   <v>       0.00462963 </v>
   <v>       0.00462963 </v>
   <v>       0.00462963 </v>
   <v>       0.00462963 </v>
   <v>       0.00462963 </v>
   <v>       0.00462963 </v>
   <v>       0.00462963 </v>
   <v>       0.00231481 </v>
   <v>       0.00231481 </v>
   <v>       0.00462963 </v>
   <v>       0.00462963 </v>
   <v>       0.00462963 </v>
   <v>       0.00462963 </v>
   <v>       0.00462963 </v>
   <v>       0.00462963 </v>
   <v>       0.00462963 </v>
   <v>       0.00462963 </v>
   <v>       0.00462963 </v>
   <v>       0.00462963 </v>
   <v>       0.00462963 </v>
   <v>       0.00231481 </v>
   <v>       0.00231481 </v>
   <v>       0.00462963 </v>
   <v>       0.00462963 </v>
   <v>       0.00462963 </v>
   <v>       0.00462963 </v>
   <v>       0.00462963 </v>
   <v>       0.00462963 </v>
   <v>       0.00462963 </v>
   <v>       0.00462963 </v>
   <v>       0.00462963 </v>
   <v>       0.00462963 </v>
   <v>       0.00462963 </v>
   <v>       0.00231481 </v>
   <v>       0.00231481 </v>
   <v>       0.00462963 </v>
   <v>       0.00462963 </v>
   <v>       0.00462963 </v>
   <v>       0.00462963 </v>
   <v>       0.00462963 </v>
   <v>       0.00462963 </v>
   <v>       0.00462963 </v>
   <v>       0.00462963 </v>
   <v>       0.00462963 </v>
   <v>       0.00462963 </v>
   <v>       0.00462963 </v>
   <v>       0.00231481 </v>
   <v>       0.00231481 </v>
   <v>       0.00462963 </v>
   <v>       0.00462963 </v>
   <v>       0.00462963 </v>
   <v>       0.00462963 </v>
   <v>       0.00462963 </v>
   <v>       0.00462963 </v>
   <v>       0.00462963 </v>
   <v>       0.00462963 </v>
   <v>       0.00462963 </v>
   <v>       0.00462963 </v>
   <v>       0.00462963 </v>
   <v>       0.00231481 </v>
   <v>       0.00231481 </v>
   <v>       0.00462963 </v>
   <v>       0.00462963 </v>
   <v>       0.00462963 </v>
   <v>       0.00462963 </v>
   <v>       0.00462963 </v>
   <v>       0.00462963 </v>
   <v>       0.00462963 </v>
   <v>       0.00462963 </v>
   <v>       0.00462963 </v>
   <v>       0.00462963 </v>
   <v>       0.00462963 </v>
   <v>       0.00231481 </v>
   <v>       0.00231481 </v>
   <v>       0.00462963 </v>
   <v>       0.00462963 </v>
   <v>       0.00462963 </v>
   <v>       0.00462963 </v>
   <v>       0.00462963 </v>
   <v>       0.00462963 </v>
   <v>       0.00462963 </v>
   <v>       0.00462963 </v>
   <v>       0.00462963 </v>
   <v>       0.00462963 </v>
   <v>       0.00462963 </v>
   <v>       0.00231481 </v>
   <v>       0.00231481 </v>
   <v>       0.00462963 </v>
   <v>       0.00462963 </v>
   <v>       0.00462963 </v>
   <v>       0.00462963 </v>
   <v>       0.00462963 </v>
   <v>       0.00462963 </v>
   <v>       0.00462963 </v>
   <v>       0.00462963 </v>
   <v>       0.00462963 </v>
   <v>       0.00462963 </v>
   <v>       0.00462963 </v>
   <v>       0.00231481 </v>
   <v>       0.00231481 </v>
   <v>       0.00462963 </v>
   <v>       0.00462963 </v>
   <v>       0.00462963 </v>
   <v>       0.00462963 </v>
   <v>       0.00462963 </v>
   <v>       0.00462963 </v>
   <v>       0.00462963 </v>
   <v>       0.00462963 </v>
   <v>       0.00462963 </v>
   <v>       0.00462963 </v>
   <v>       0.00462963 </v>
   <v>       0.00231481 </v>
   <v>       0.00231481 </v>
   <v>       0.00462963 </v>
   <v>       0.00462963 </v>
   <v>       0.00462963 </v>
   <v>       0.00462963 </v>
   <v>       0.00462963 </v>
   <v>       0.00462963 </v>
   <v>       0.00462963 </v>
   <v>       0.00462963 </v>
   <v>       0.00462963 </v>
   <v>       0.00462963 </v>
   <v>       0.00462963 </v>
   <v>       0.00231481 </v>
   <v>       0.00231481 </v>
   <v>       0.00462963 </v>
   <v>       0.00462963 </v>
   <v>       0.00462963 </v>
   <v>       0.00462963 </v>
   <v>       0.00462963 </v>
   <v>       0.00462963 </v>
   <v>       0.00462963 </v>
   <v>       0.00462963 </v>
   <v>       0.00462963 </v>
   <v>       0.00462963 </v>
   <v>       0.00462963 </v>
   <v>       0.00231481 </v>
   <v>       0.00115741 </v>
   <v>       0.00231481 </v>
   <v>       0.00231481 </v>
   <v>       0.00231481 </v>
   <v>       0.00231481 </v>
   <v>       0.00231481 </v>
   <v>       0.00231481 </v>
   <v>       0.00231481 </v>
   <v>       0.00231481 </v>
   <v>       0.00231481 </v>
   <v>       0.00231481 </v>
   <v>       0.00231481 </v>
   <v>       0.00115741 </v>
  </varray>
 </kpoints>
 <parameters>
  <separator name="general" >
   <i type="string" name="SYSTEM">gr</i>
   <i type="logical" name="LCOMPAT"> F  </i>
  </separator>
  <separator name="electronic" >
   <i type="string" name="PREC">accura</i>
   <i name="ENMAX">   2000.00000000</i>
   <i name="ENAUG">    644.87300000</i>
   <i name="EDIFF">      0.00000000</i>
   <i type="int" name="IALGO">    68</i>
   <i type="int" name="IWAVPR">    11</i>
   <i type="int" name="NBANDS">    12</i>
   <i name="NELECT">     16.00000000</i>
   <i type="int" name="TURBO">     0</i>
   <i type="int" name="IRESTART">     0</i>
   <i type="int" name="NREBOOT">     0</i>
   <i type="int" name="NMIN">     0</i>
   <i name="EREF">      0.00000000</i>
   <separator name="electronic smearing" >
    <i type="int" name="ISMEAR">     0</i>
    <i name="SIGMA">      0.05000000</i>
    <i name="KSPACING">      0.50000000</i>
    <i type="logical" name="KGAMMA"> T  </i>
   </separator>
   <separator name="electronic projectors" >
    <i type="logical" name="LREAL"> F  </i>
    <v name="ROPT">      0.00000000</v>
    <i type="int" name="LMAXPAW">  -100</i>
    <i type="int" name="LMAXMIX">     2</i>
    <i type="logical" name="NLSPLINE"> F  </i>
   </separator>
   <separator name="electronic startup" >
    <i type="int" name="ISTART">     0</i>
    <i type="int" name="ICHARG">     2</i>
    <i type="int" name="INIWAV">     1</i>
   </separator>
   <separator name="electronic spin" >
    <i type="int" name="ISPIN">     1</i>
    <i type="logical" name="LNONCOLLINEAR"> F  </i>
    <v name="MAGMOM">      1.00000000      1.00000000      1.00000000      1.00000000</v>
    <i name="NUPDOWN">     -1.00000000</i>
    <i type="logical" name="LSORBIT"> F  </i>
    <v name="SAXIS">      0.00000000      0.00000000      1.00000000</v>
    <i type="logical" name="LSPIRAL"> F  </i>
    <v name="QSPIRAL">      0.00000000      0.00000000      0.00000000</v>
    <i type="logical" name="LZEROZ"> F  </i>
   </separator>
   <separator name="electronic exchange-correlation" >
    <i type="logical" name="LASPH"> F  </i>
    <i type="logical" name="LMETAGGA"> F  </i>
   </separator>
   <separator name="electronic convergence" >
    <i type="int" name="NELM">   100</i>
    <i type="int" name="NELMDL">    -3</i>
    <i type="int" name="NELMIN">     5</i>
    <i name="ENINI">   2000.00000000</i>
    <separator name="electronic convergence detail" >
     <i type="logical" name="LDIAG"> T  </i>
     <i type="logical" name="LSUBROT"> F  </i>
     <i name="WEIMIN">      0.00100000</i>
     <i name="EBREAK">      0.00000000</i>
     <i name="DEPER">      0.30000000</i>
     <i type="int" name="NRMM">     4</i>
     <i name="TIME">      0.40000000</i>
    </separator>
   </separator>
   <separator name="electronic mixer" >
    <i name="AMIX">      0.40000000</i>
    <i name="BMIX">      1.00000000</i>
    <i name="AMIN">      0.10000000</i>
    <i name="AMIX_MAG">      1.60000000</i>
    <i name="BMIX_MAG">      1.00000000</i>
    <separator name="electronic mixer details" >
     <i type="int" name="IMIX">     4</i>
     <i type="int" name="MAXMIX">   -45</i>
     <i name="WC">    100.00000000</i>
     <i type="int" name="INIMIX">     1</i>
     <i type="int" name="MIXPRE">     1</i>
     <i type="int" name="MREMOVE">     5</i>
    </separator>
   </separator>
   <separator name="electronic dipolcorrection" >
    <i type="logical" name="LDIPOL"> F  </i>
    <i type="logical" name="LMONO"> F  </i>
    <i type="int" name="IDIPOL">     0</i>
    <i name="EPSILON">      1.00000000</i>
    <v name="DIPOL">   -100.00000000   -100.00000000   -100.00000000</v>
    <i name="EFIELD">      0.00000000</i>
   </separator>
  </separator>
  <separator name="grids" >
   <i type="int" name="NGX">    64</i>
   <i type="int" name="NGY">    40</i>
   <i type="int" name="NGZ">   288</i>
   <i type="int" name="NGXF">   128</i>
   <i type="int" name="NGYF">    80</i>
   <i type="int" name="NGZF">   576</i>
   <i type="logical" name="ADDGRID"> F  </i>
  </separator>
  <separator name="ionic" >
   <i type="int" name="NSW">   400</i>
   <i type="int" name="IBRION">     1</i>
   <i type="int" name="ISIF">     2</i>
   <i name="PSTRESS">      0.00000000</i>
   <i name="EDIFFG">     -0.00000100</i>
   <i type="int" name="NFREE">     0</i>
   <i name="POTIM">      0.50000000</i>
   <i name="SMASS">     -3.00000000</i>
   <i name="SCALEE">      1.00000000</i>
  </separator>
  <separator name="ionic md" >
   <i name="TEBEG">      0.00010000</i>
   <i name="TEEND">      0.00010000</i>
   <i type="int" name="NBLOCK">     1</i>
   <i type="int" name="KBLOCK">   400</i>
   <i type="int" name="NPACO">   256</i>
   <i name="APACO">     16.00000000</i>
  </separator>
  <separator name="symmetry" >
   <i type="int" name="ISYM">     2</i>
   <i name="SYMPREC">      0.00001000</i>
  </separator>
  <separator name="dos" >
   <i type="logical" name="LORBIT"> F  </i>
   <v name="RWIGS">     -1.00000000</v>
   <i type="int" name="NEDOS">   301</i>
   <i name="EMIN">     10.00000000</i>
   <i name="EMAX">    -10.00000000</i>
   <i name="EFERMI">      0.00000000</i>
  </separator>
  <separator name="writing" >
   <i type="int" name="NWRITE">     2</i>
   <i type="logical" name="LWAVE"> F  </i>
   <i type="logical" name="LCHARG"> F  </i>
   <i type="logical" name="LPARD"> F  </i>
   <i type="logical" name="LVTOT"> F  </i>
   <i type="logical" name="LVHAR"> F  </i>
   <i type="logical" name="LELF"> F  </i>
   <i type="logical" name="LOPTICS"> F  </i>
   <v name="STM">      0.00000000      0.00000000      0.00000000      0.00000000      0.00000000      0.00000000      0.00000000</v>
  </separator>
  <separator name="performance" >
   <i type="int" name="NPAR">     4</i>
   <i type="int" name="NSIM">     4</i>
   <i type="int" name="NBLK">    -1</i>
   <i type="logical" name="LPLANE"> T  </i>
   <i type="logical" name="LSCALAPACK"> F  </i>
   <i type="logical" name="LSCAAWARE"> F  </i>
   <i type="logical" name="LSCALU"> F  </i>
   <i type="logical" name="LASYNC"> F  </i>
   <i type="logical" name="LORBITALREAL"> F  </i>
  </separator>
  <separator name="miscellaneous" >
   <i type="int" name="IDIOT">     3</i>
   <i type="logical" name="LMUSIC"> F  </i>
   <v name="POMASS">     12.01100000</v>
   <v name="DARWINR">      0.00000000</v>
   <v name="DARWINV">      1.00000000</v>
   <i type="logical" name="LCORR"> T  </i>
  </separator>
  <i type="logical" name="GGA_COMPAT"> T  </i>
  <i type="logical" name="LBERRY"> F  </i>
  <i type="int" name="ICORELEVEL">     0</i>
  <i type="logical" name="LDAU"> F  </i>
  <i type="int" name="I_CONSTRAINED_M">     0</i>
  <separator name="electronic exchange-correlation" >
   <i type="string" name="GGA">--</i>
   <i type="int" name="VOSKOWN">     0</i>
   <i type="logical" name="LHFCALC"> F  </i>
   <i type="string" name="PRECFOCK"></i>
   <i type="logical" name="LSYMGRAD"> F  </i>
   <i type="logical" name="LHFONE"> F  </i>
   <i type="logical" name="LRHFCALC"> F  </i>
   <i type="logical" name="LTHOMAS"> F  </i>
   <i type="logical" name="LMODELHF"> F  </i>
   <i name="ENCUT4O">     -1.00000000</i>
   <i type="int" name="EXXOEP">     0</i>
   <i type="int" name="FOURORBIT">     0</i>
   <i name="AEXX">      0.00000000</i>
   <i name="HFALPHA">      0.00000000</i>
   <i name="MCALPHA">      0.00000000</i>
   <i name="ALDAX">      1.00000000</i>
   <i name="AGGAX">      1.00000000</i>
   <i name="ALDAC">      1.00000000</i>
   <i name="AGGAC">      1.00000000</i>
   <i type="int" name="NKREDX">     1</i>
   <i type="int" name="NKREDY">     1</i>
   <i type="int" name="NKREDZ">     1</i>
   <i type="logical" name="SHIFTRED"> F  </i>
   <i type="logical" name="ODDONLY"> F  </i>
   <i type="logical" name="EVENONLY"> F  </i>
   <i type="int" name="LMAXFOCK">     0</i>
   <i type="int" name="NMAXFOCKAE">     0</i>
   <i type="logical" name="LFOCKAEDFT"> F  </i>
   <i name="HFSCREEN">      0.00000000</i>
   <i name="HFSCREENC">      0.00000000</i>
   <i type="int" name="NBANDSGWLOW">     0</i>
  </separator>
  <separator name="vdW DFT" >
   <i type="logical" name="LUSE_VDW"> F  </i>
   <i name="Zab_VDW">     -0.84910000</i>
   <i name="PARAM1">      0.12340000</i>
   <i name="PARAM2">      1.00000000</i>
   <i name="PARAM3">      0.00000000</i>
  </separator>
  <separator name="model GW" >
   <i type="int" name="MODEL_GW">     0</i>
   <i name="MODEL_EPS0">     31.62568521</i>
   <i name="MODEL_ALPHA">      1.00000000</i>
  </separator>
  <separator name="linear response parameters" >
   <i type="logical" name="LEPSILON"> F  </i>
   <i type="logical" name="LRPA"> F  </i>
   <i type="logical" name="LNABLA"> F  </i>
   <i type="logical" name="LVEL"> F  </i>
   <i type="int" name="KINTER">     0</i>
   <i name="CSHIFT">      0.10000000</i>
   <i name="OMEGAMAX">     -1.00000000</i>
   <i name="DEG_THRESHOLD">      0.00200000</i>
  </separator>
  <separator name="orbital magnetization" >
   <i type="logical" name="NUCIND"> F  </i>
   <v name="MAGPOS">      0.00000000      0.00000000      0.00000000</v>
   <i type="logical" name="LNICSALL"> T  </i>
   <i type="logical" name="ORBITALMAG"> F  </i>
   <i type="logical" name="LMAGBLOCH"> F  </i>
   <i type="logical" name="LCHIMAG"> F  </i>
   <i type="logical" name="LGAUGE"> T  </i>
   <i type="int" name="MAGATOM">     0</i>
   <v name="MAGDIPOL">      0.00000000      0.00000000      0.00000000</v>
   <v name="AVECCONST">      0.00000000      0.00000000      0.00000000</v>
  </separator>
  <separator name="response functions" >
   <i type="logical" name="LADDER"> F  </i>
   <i type="logical" name="LFXC"> F  </i>
   <i type="logical" name="LHARTREE"> T  </i>
   <i type="int" name="IBSE">     0</i>
   <i type="logical" name="LTCTE"> F  </i>
   <i type="logical" name="LTETE"> F  </i>
   <i type="logical" name="LTRIPLET"> F  </i>
   <i type="logical" name="LFXCEPS"> F  </i>
   <i type="logical" name="LFXHEG"> F  </i>
   <i type="logical" name="L2ORDER"> F  </i>
   <i type="logical" name="LUSEW"> F  </i>
   <i name="ENCUTGW">     -2.00000000</i>
   <i name="ENCUTGWSOFT">     -2.00000000</i>
   <i name="ENCUTLF">     -1.00000000</i>
   <i type="int" name="LMAXMP2">    -1</i>
   <i name="SCISSOR">      0.00000000</i>
   <i type="int" name="NOMEGA">     0</i>
   <i type="int" name="NOMEGAR">     0</i>
   <i type="int" name="NBANDSGW">    -1</i>
   <i type="int" name="NBANDSO">    -1</i>
   <i type="int" name="NBANDSV">    -1</i>
   <i type="int" name="NELM">   100</i>
   <i type="int" name="DIM">     3</i>
   <i type="int" name="ANTIRES">     0</i>
   <i name="OMEGAMAX">    -30.00000000</i>
   <i name="OMEGAMIN">    -30.00000000</i>
   <i name="OMEGATL">   -200.00000000</i>
   <i type="int" name="OMEGAGRID">     0</i>
   <i name="CSHIFT">     -0.10000000</i>
   <i type="logical" name="SELFENERGY"> F  </i>
   <i type="logical" name="LSPECTRAL"> F  </i>
   <i type="logical" name="ODDONLYGW"> F  </i>
   <i type="logical" name="EVENONLYGW"> F  </i>
   <i type="int" name="NKREDLFX">     1</i>
   <i type="int" name="NKREDLFY">     1</i>
   <i type="int" name="NKREDLFZ">     1</i>
   <i type="int" name="MAXMEM">  1800</i>
   <i type="int" name="TELESCOPE">     0</i>
   <i type="int" name="TAUPAR">     1</i>
  </separator>
  <separator name="External order field" >
   <i name="OFIELD_KAPPA">      0.00000000</i>
   <v name="OFIELD_K">      0.00000000      0.00000000      0.00000000</v>
   <i name="OFIELD_Q6_NEAR">      0.00000000</i>
   <i name="OFIELD_Q6_FAR">      0.00000000</i>
   <i name="OFIELD_A">      0.00000000</i>
  </separator>
 </parameters>
 <atominfo>
  <atoms>       4 </atoms>
  <types>       1 </types>
  <array name="atoms" >
   <dimension dim="1">ion</dimension>
   <field type="string">element</field>
   <field type="int">atomtype</field>
   <set>
    <rc><c>C </c><c>   1</c></rc>
    <rc><c>C </c><c>   1</c></rc>
    <rc><c>C </c><c>   1</c></rc>
    <rc><c>C </c><c>   1</c></rc>
   </set>
  </array>
  <array name="atomtypes" >
   <dimension dim="1">type</dimension>
   <field type="int">atomspertype</field>
   <field type="string">element</field>
   <field>mass</field>
   <field>valence</field>
   <field type="string">pseudopotential</field>
   <set>
    <rc><c>   4</c><c>C </c><c>     12.01100000</c><c>      4.00000000</c><c> PAW_PBE C 08Apr2002                    </c></rc>
   </set>
  </array>
 </atominfo>
 <structure name="initialpos" >
  <crystal>
   <varray name="basis" >
    <v>       4.25873150       0.00000000       0.00000000 </v>
    <v>       0.00000000       2.51615423       0.00000000 </v>
    <v>       0.00000000       0.00000000      19.67574412 </v>
   </varray>
   <i name="volume">    210.83790140 </i>
   <varray name="rec_basis" >
    <v>       0.23481170       0.00000000       0.00000000 </v>
    <v>       0.00000000       0.39743192       0.00000000 </v>
    <v>       0.00000000       0.00000000       0.05082400 </v>
   </varray>
  </crystal>
  <varray name="positions" >
   <v>       0.00051919       0.00000000       0.00000000 </v>
   <v>       0.16614747       0.50000000       0.00000000 </v>
   <v>       0.50051919       0.50000000       0.00000000 </v>
   <v>       0.66614747       0.00000000       0.00000000 </v>
  </varray>
 </structure>
 <calculation>
  <scstep>
   <time name="dav">  318.98  321.11</time>
   <time name="total">  321.69  324.12</time>
   <energy>
    <i name="alphaZ">      6.18334092 </i>
    <i name="ewald">   2477.83383038 </i>
    <i name="hartreedc">  -2906.47940815 </i>
    <i name="XCdc">     54.87567974 </i>
    <i name="pawpsdc">    151.32577238 </i>
    <i name="pawaedc">   -155.92769107 </i>
    <i name="eentropy">     -0.00170516 </i>
    <i name="bandstr">    -28.81717140 </i>
    <i name="atom">    588.62352690 </i>
    <i name="e_fr_energy">    187.61617455 </i>
    <i name="e_wo_entrp">    187.61787971 </i>
    <i name="e_0_energy">    187.61702713 </i>
   </energy>
  </scstep>
  <scstep>
   <time name="dav">  481.65  484.88</time>
   <time name="total">  481.65  484.89</time>
   <energy>
    <i name="e_fr_energy">     -9.18546318 </i>
    <i name="e_wo_entrp">     -9.18504292 </i>
    <i name="e_0_energy">     -9.18525305 </i>
   </energy>
  </scstep>
  <scstep>
   <time name="dav">  370.50  373.36</time>
   <time name="total">  403.40  406.63</time>
   <energy>
    <i name="e_fr_energy">    -38.13420961 </i>
    <i name="e_wo_entrp">    -38.13420957 </i>
    <i name="e_0_energy">    -38.13420959 </i>
   </energy>
  </scstep>
  <scstep>
   <time name="diag">   87.09   87.34</time>
   <time name="diis">  368.87  369.96</time>
   <time name="orth">    3.07    3.08</time>
   <time name="total">  495.01  496.81</time>
   <energy>
    <i name="e_fr_energy">    -37.61104308 </i>
    <i name="e_wo_entrp">    -37.61104281 </i>
    <i name="e_0_energy">    -37.61104295 </i>
   </energy>
  </scstep>
  <scstep>
   <time name="diag">   86.74   87.29</time>
   <time name="diis">  366.38  369.06</time>
   <time name="orth">    3.06    3.06</time>
   <time name="total">  492.14  495.80</time>
   <energy>
    <i name="e_fr_energy">    -36.89234088 </i>
    <i name="e_wo_entrp">    -36.89234037 </i>
    <i name="e_0_energy">    -36.89234063 </i>
   </energy>
  </scstep>
  <scstep>
   <time name="diag">   86.46   87.27</time>
   <time name="diis">  399.81  403.03</time>
   <time name="orth">    3.06    3.06</time>
   <time name="total">  525.25  529.73</time>
   <energy>
    <i name="e_fr_energy">    -36.89421219 </i>
    <i name="e_wo_entrp">    -36.89421173 </i>
    <i name="e_0_energy">    -36.89421196 </i>
   </energy>
  </scstep>
  <scstep>
   <time name="diag">   86.35   87.22</time>
   <time name="diis">  364.09  367.05</time>
   <time name="orth">    3.06    3.09</time>
   <time name="total">  489.47  493.69</time>
   <energy>
    <i name="e_fr_energy">    -36.88535935 </i>
    <i name="e_wo_entrp">    -36.88535897 </i>
    <i name="e_0_energy">    -36.88535916 </i>
   </energy>
  </scstep>
  <scstep>
   <time name="diag">   86.48   87.23</time>
   <time name="diis">  366.46  368.97</time>
   <time name="orth">    3.07    3.10</time>
   <time name="total">  492.07  495.82</time>
   <energy>
    <i name="e_fr_energy">    -36.88026855 </i>
    <i name="e_wo_entrp">    -36.88026814 </i>
    <i name="e_0_energy">    -36.88026834 </i>
   </energy>
  </scstep>
  <scstep>
   <time name="diag">   86.78   87.28</time>
   <time name="diis">  351.66  353.01</time>
   <time name="orth">    3.06    3.09</time>
   <time name="total">  477.36  479.77</time>
   <energy>
    <i name="e_fr_energy">    -36.88002979 </i>
    <i name="e_wo_entrp">    -36.88002933 </i>
    <i name="e_0_energy">    -36.88002956 </i>
   </energy>
  </scstep>
  <scstep>
   <time name="diag">   86.74   87.20</time>
   <time name="diis">  353.10  354.10</time>
   <time name="orth">    3.07    3.07</time>
   <time name="total">  479.19  480.73</time>
   <energy>
    <i name="e_fr_energy">    -36.87987969 </i>
    <i name="e_wo_entrp">    -36.87987926 </i>
    <i name="e_0_energy">    -36.87987948 </i>
   </energy>
  </scstep>
  <scstep>
   <time name="diag">   87.06   87.23</time>
   <time name="diis">  353.88  355.65</time>
   <time name="orth">    3.07    3.08</time>
   <time name="total">  480.09  482.30</time>
   <energy>
    <i name="e_fr_energy">    -36.88224433 </i>
    <i name="e_wo_entrp">    -36.88224391 </i>
    <i name="e_0_energy">    -36.88224412 </i>
   </energy>
  </scstep>
  <scstep>
   <time name="diag">   86.68   87.20</time>
   <time name="diis">  351.45  355.11</time>
   <time name="orth">    3.06    3.08</time>
   <time name="total">  477.02  481.74</time>
   <energy>
    <i name="e_fr_energy">    -36.88270561 </i>
    <i name="e_wo_entrp">    -36.88270518 </i>
    <i name="e_0_energy">    -36.88270539 </i>
   </energy>
  </scstep>
  <scstep>
   <time name="diag">   86.30   87.12</time>
   <time name="diis">  356.82  359.68</time>
   <time name="orth">    3.07    3.07</time>
   <time name="total">  482.03  486.19</time>
   <energy>
    <i name="e_fr_energy">    -36.88297178 </i>
    <i name="e_wo_entrp">    -36.88297135 </i>
    <i name="e_0_energy">    -36.88297157 </i>
   </energy>
  </scstep>
  <scstep>
   <time name="diag">   86.66   87.18</time>
   <time name="diis">  353.18  357.25</time>
   <time name="orth">    3.05    3.10</time>
   <time name="total">  478.85  483.95</time>
   <energy>
    <i name="e_fr_energy">    -36.88305306 </i>
    <i name="e_wo_entrp">    -36.88305263 </i>
    <i name="e_0_energy">    -36.88305284 </i>
   </energy>
  </scstep>
  <scstep>
   <time name="diag">   86.93   87.15</time>
   <time name="diis">  356.23  358.04</time>
   <time name="orth">    3.06    3.06</time>
   <time name="total">  482.23  490.41</time>
   <energy>
    <i name="e_fr_energy">    -36.88306490 </i>
    <i name="e_wo_entrp">    -36.88306447 </i>
    <i name="e_0_energy">    -36.88306468 </i>
   </energy>
  </scstep>
  <scstep>
   <time name="diag">   86.62   87.17</time>
   <time name="diis">  351.25  353.91</time>
   <time name="orth">    3.07    3.07</time>
   <time name="total">  476.92  480.49</time>
   <energy>
    <i name="e_fr_energy">    -36.88307761 </i>
    <i name="e_wo_entrp">    -36.88307718 </i>
    <i name="e_0_energy">    -36.88307739 </i>
   </energy>
  </scstep>
  <scstep>
   <time name="diag">   86.86   87.21</time>
   <time name="diis">  361.78  365.17</time>
   <time name="orth">    3.08    3.08</time>
   <time name="total">  487.96  491.80</time>
   <energy>
    <i name="e_fr_energy">    -36.88308338 </i>
    <i name="e_wo_entrp">    -36.88308296 </i>
    <i name="e_0_energy">    -36.88308317 </i>
   </energy>
  </scstep>
  <scstep>
   <time name="diag">   86.98   87.13</time>
   <time name="diis">  350.77  352.62</time>
   <time name="orth">    3.06    3.07</time>
   <time name="total">  476.87  479.17</time>
   <energy>
    <i name="e_fr_energy">    -36.88308448 </i>
    <i name="e_wo_entrp">    -36.88308405 </i>
    <i name="e_0_energy">    -36.88308426 </i>
   </energy>
  </scstep>
  <scstep>
   <time name="diag">   86.95   87.13</time>
   <time name="diis">  358.44  361.20</time>
   <time name="orth">    3.05    3.10</time>
   <time name="total">  484.48  487.85</time>
   <energy>
    <i name="e_fr_energy">    -36.88308524 </i>
    <i name="e_wo_entrp">    -36.88308481 </i>
    <i name="e_0_energy">    -36.88308502 </i>
   </energy>
  </scstep>
  <scstep>
   <time name="diag">   86.83   87.10</time>
   <time name="diis">  276.98  277.50</time>
   <time name="orth">    3.06    3.08</time>
   <time name="total">  402.87  404.34</time>
   <energy>
    <i name="e_fr_energy">    -36.88308530 </i>
    <i name="e_wo_entrp">    -36.88308487 </i>
    <i name="e_0_energy">    -36.88308509 </i>
   </energy>
  </scstep>
  <scstep>
   <time name="diag">   86.56   87.13</time>
   <time name="diis">  269.05  270.74</time>
   <time name="orth">    3.06    3.06</time>
   <time name="total">  394.77  397.34</time>
   <energy>
    <i name="e_fr_energy">    -36.88308532 </i>
    <i name="e_wo_entrp">    -36.88308489 </i>
    <i name="e_0_energy">    -36.88308510 </i>
   </energy>
  </scstep>
  <scstep>
   <time name="diag">   86.88   87.08</time>
   <time name="diis">  241.65  243.69</time>
   <time name="orth">    3.07    3.07</time>
   <time name="total">  367.57  370.72</time>
   <energy>
    <i name="e_fr_energy">    -36.88308532 </i>
    <i name="e_wo_entrp">    -36.88308489 </i>
    <i name="e_0_energy">    -36.88308510 </i>
   </energy>
  </scstep>
  <scstep>
   <time name="diag">   86.33   87.05</time>
   <time name="diis">  229.29  232.08</time>
   <time name="orth">    3.06    3.06</time>
   <time name="total">  354.52  358.64</time>
   <energy>
    <i name="e_fr_energy">    -36.88308532 </i>
    <i name="e_wo_entrp">    -36.88308489 </i>
    <i name="e_0_energy">    -36.88308510 </i>
   </energy>
  </scstep>
  <scstep>
   <time name="diag">   86.19   87.09</time>
   <time name="diis">  219.67  221.94</time>
   <time name="orth">    3.05    3.08</time>
   <time name="total">  344.91  348.50</time>
   <energy>
    <i name="e_fr_energy">    -36.88308532 </i>
    <i name="e_wo_entrp">    -36.88308489 </i>
    <i name="e_0_energy">    -36.88308510 </i>
   </energy>
  </scstep>
  <scstep>
   <time name="diag">   86.38   87.13</time>
   <time name="diis">  210.84  212.33</time>
   <time name="orth">    3.07    3.10</time>
   <time name="total">  302.86  305.48</time>
   <energy>
    <i name="alphaZ">      6.18334092 </i>
    <i name="ewald">   2477.83383038 </i>
    <i name="hartreedc">  -2972.04962497 </i>
    <i name="XCdc">     57.22119928 </i>
    <i name="pawpsdc">    270.52004641 </i>
    <i name="pawaedc">   -275.63918476 </i>
    <i name="eentropy">     -0.00000043 </i>
    <i name="bandstr">   -189.57621906 </i>
    <i name="atom">    588.62352690 </i>
    <i name="e_fr_energy">    -36.88308532 </i>
    <i name="e_wo_entrp">    -36.88308489 </i>
    <i name="e_0_energy">    -36.88308510 </i>
   </energy>
  </scstep>
  <structure>
   <crystal>
    <varray name="basis" >
     <v>       4.25873150       0.00000000       0.00000000 </v>
     <v>       0.00000000       2.51615423       0.00000000 </v>
     <v>       0.00000000       0.00000000      19.67574412 </v>
    </varray>
    <i name="volume">    210.83790140 </i>
    <varray name="rec_basis" >
     <v>       0.23481170       0.00000000       0.00000000 </v>
     <v>       0.00000000       0.39743192       0.00000000 </v>
     <v>       0.00000000       0.00000000       0.05082400 </v>
    </varray>
   </crystal>
   <varray name="positions" >
    <v>       0.00051919       0.00000000       0.00000000 </v>
    <v>       0.16614747       0.50000000       0.00000000 </v>
    <v>       0.50051919       0.50000000       0.00000000 </v>
    <v>       0.66614747       0.00000000       0.00000000 </v>
   </varray>
  </structure>
  <varray name="forces" >
   <v>      -0.00276154      -0.00000000      -0.00000000 </v>
   <v>       0.00276154       0.00000000       0.00000000 </v>
   <v>      -0.00276154      -0.00000000      -0.00000000 </v>
   <v>       0.00276154       0.00000000       0.00000000 </v>
  </varray>
  <varray name="stress" >
   <v>      -0.01879440       0.00000000       0.00000000 </v>
   <v>       0.00000000     -32.65242737       0.00000000 </v>
   <v>       0.00000000       0.00000000      -0.01024975 </v>
  </varray>
  <energy>
   <i name="e_fr_energy">    -36.88308532 </i>
   <i name="e_wo_entrp">    -36.88308510 </i>
   <i name="e_0_energy">     -0.00000043 </i>
  </energy>
  <time name="totalsc">11255.5611353.02</time>
 </calculation>
 <calculation>
  <scstep>
   <time name="dav">  332.57  333.66</time>
   <time name="total">  368.64  369.99</time>
   <energy>
    <i name="alphaZ">      6.18334092 </i>
    <i name="ewald">   2477.83608774 </i>
    <i name="hartreedc">  -2972.05060369 </i>
    <i name="XCdc">     57.22126367 </i>
    <i name="pawpsdc">    270.52004798 </i>
    <i name="pawaedc">   -275.63918632 </i>
    <i name="eentropy">     -0.00000036 </i>
    <i name="bandstr">   -189.57755990 </i>
    <i name="atom">    588.62352690 </i>
    <i name="e_fr_energy">    -36.88308304 </i>
    <i name="e_wo_entrp">    -36.88308268 </i>
    <i name="e_0_energy">    -36.88308286 </i>
   </energy>
  </scstep>
  <scstep>
   <time name="diag">   86.16   87.02</time>
   <time name="diis">  350.84  353.87</time>
   <time name="orth">    3.06    3.06</time>
   <time name="total">  476.18  480.38</time>
   <energy>
    <i name="e_fr_energy">    -36.88308319 </i>
    <i name="e_wo_entrp">    -36.88308283 </i>
    <i name="e_0_energy">    -36.88308301 </i>
   </energy>
  </scstep>
  <scstep>
   <time name="diag">   86.71   87.02</time>
   <time name="diis">  356.28  358.22</time>
   <time name="orth">    3.07    3.07</time>
   <time name="total">  482.18  484.65</time>
   <energy>
    <i name="e_fr_energy">    -36.88308311 </i>
    <i name="e_wo_entrp">    -36.88308275 </i>
    <i name="e_0_energy">    -36.88308293 </i>
   </energy>
  </scstep>
  <scstep>
   <time name="diag">   86.40   87.04</time>
   <time name="diis">  361.17  364.35</time>
   <time name="orth">    3.06    3.07</time>
   <time name="total">  486.51  490.77</time>
   <energy>
    <i name="e_fr_energy">    -36.88308310 </i>
    <i name="e_wo_entrp">    -36.88308274 </i>
    <i name="e_0_energy">    -36.88308292 </i>
   </energy>
  </scstep>
  <scstep>
   <time name="diag">   86.47   87.04</time>
   <time name="diis">  362.57  366.38</time>
   <time name="orth">    3.06    3.09</time>
   <time name="total">  488.08  492.87</time>
   <energy>
    <i name="e_fr_energy">    -36.88308310 </i>
    <i name="e_wo_entrp">    -36.88308274 </i>
    <i name="e_0_energy">    -36.88308292 </i>
   </energy>
  </scstep>
  <scstep>
   <time name="diag">   86.80   87.06</time>
   <time name="diis">  290.72  292.63</time>
   <time name="orth">    3.06    3.10</time>
   <time name="total">  416.74  419.19</time>
   <energy>
    <i name="e_fr_energy">    -36.88308310 </i>
    <i name="e_wo_entrp">    -36.88308274 </i>
    <i name="e_0_energy">    -36.88308292 </i>
   </energy>
  </scstep>
  <scstep>
   <time name="diag">   86.72   87.08</time>
   <time name="diis">  237.19  238.62</time>
   <time name="orth">    3.08    3.09</time>
   <time name="total">  329.55  331.42</time>
   <energy>
    <i name="alphaZ">      6.18334092 </i>
    <i name="ewald">   2477.83608774 </i>
    <i name="hartreedc">  -2972.05150939 </i>
    <i name="XCdc">     57.22130218 </i>
    <i name="pawpsdc">    270.52396825 </i>
    <i name="pawaedc">   -275.64312382 </i>
    <i name="eentropy">     -0.00000036 </i>
    <i name="bandstr">   -189.57667553 </i>
    <i name="atom">    588.62352690 </i>
    <i name="e_fr_energy">    -36.88308310 </i>
    <i name="e_wo_entrp">    -36.88308274 </i>
    <i name="e_0_energy">    -36.88308292 </i>
   </energy>
  </scstep>
  <structure>
   <crystal>
    <varray name="basis" >
     <v>       4.25873150       0.00000000       0.00000000 </v>
     <v>       0.00000000       2.51615423       0.00000000 </v>
     <v>       0.00000000       0.00000000      19.67574412 </v>
    </varray>
    <i name="volume">    210.83790140 </i>
    <varray name="rec_basis" >
     <v>       0.23481170       0.00000000       0.00000000 </v>
     <v>       0.00000000       0.39743192       0.00000000 </v>
     <v>       0.00000000       0.00000000       0.05082400 </v>
    </varray>
   </crystal>
   <varray name="positions" >
    <v>       0.00048791      -0.00000000      -0.00000000 </v>
    <v>       0.16617876       0.50000000       0.00000000 </v>
    <v>       0.50048791       0.50000000      -0.00000000 </v>
    <v>       0.66617876       0.00000000       0.00000000 </v>
   </varray>
  </structure>
  <varray name="forces" >
   <v>       0.01115189       0.00000000      -0.00000000 </v>
   <v>      -0.01115189      -0.00000000       0.00000000 </v>
   <v>       0.01115189       0.00000000      -0.00000000 </v>
   <v>      -0.01115189      -0.00000000       0.00000000 </v>
  </varray>
  <varray name="stress" >
   <v>       0.03486779       0.00000000       0.00000000 </v>
   <v>       0.00000000     -32.68840912       0.00000000 </v>
   <v>       0.00000000       0.00000000      -0.01017252 </v>
  </varray>
  <energy>
   <i name="e_fr_energy">    -36.88308310 </i>
   <i name="e_wo_entrp">    -36.88308292 </i>
   <i name="e_0_energy">     -0.00000036 </i>
  </energy>
  <time name="totalsc"> 3153.18 3174.80</time>
 </calculation>
 <calculation>
  <scstep>
   <time name="dav">  336.58  337.94</time>
   <time name="total">  372.60  374.33</time>
   <energy>
    <i name="alphaZ">      6.18334092 </i>
    <i name="ewald">   2477.83427646 </i>
    <i name="hartreedc">  -2972.05073321 </i>
    <i name="XCdc">     57.22125053 </i>
    <i name="pawpsdc">    270.52395860 </i>
    <i name="pawaedc">   -275.64311414 </i>
    <i name="eentropy">     -0.00000042 </i>
    <i name="bandstr">   -189.57559111 </i>
    <i name="atom">    588.62352690 </i>
    <i name="e_fr_energy">    -36.88308547 </i>
    <i name="e_wo_entrp">    -36.88308505 </i>
    <i name="e_0_energy">    -36.88308526 </i>
   </energy>
  </scstep>
  <scstep>
   <time name="diag">   86.62   87.09</time>
   <time name="diis">  352.74  353.73</time>
   <time name="orth">    3.08    3.08</time>
   <time name="total">  478.78  480.34</time>
   <energy>
    <i name="e_fr_energy">    -36.88308555 </i>
    <i name="e_wo_entrp">    -36.88308513 </i>
    <i name="e_0_energy">    -36.88308534 </i>
   </energy>
  </scstep>
  <scstep>
   <time name="diag">   86.79   87.16</time>
   <time name="diis">  357.31  357.37</time>
   <time name="orth">    3.08    3.08</time>
   <time name="total">  483.59  484.14</time>
   <energy>
    <i name="e_fr_energy">    -36.88308547 </i>
    <i name="e_wo_entrp">    -36.88308506 </i>
    <i name="e_0_energy">    -36.88308527 </i>
   </energy>
  </scstep>
  <scstep>
   <time name="diag">   87.14   87.15</time>
   <time name="diis">  361.84  363.19</time>
   <time name="orth">    3.07    3.09</time>
   <time name="total">  488.26  490.08</time>
   <energy>
    <i name="e_fr_energy">    -36.88308547 </i>
    <i name="e_wo_entrp">    -36.88308505 </i>
    <i name="e_0_energy">    -36.88308526 </i>
   </energy>
  </scstep>
  <scstep>
   <time name="diag">   87.06   87.08</time>
   <time name="diis">  351.51  351.60</time>
   <time name="orth">    3.06    3.06</time>
   <time name="total">  477.97  481.62</time>
   <energy>
    <i name="e_fr_energy">    -36.88308547 </i>
    <i name="e_wo_entrp">    -36.88308505 </i>
    <i name="e_0_energy">    -36.88308526 </i>
   </energy>
  </scstep>
  <scstep>
   <time name="diag">   87.10   87.12</time>
   <time name="diis">  254.30  254.38</time>
   <time name="orth">    3.06    3.06</time>
   <time name="total">  380.81  380.97</time>
   <energy>
    <i name="e_fr_energy">    -36.88308547 </i>
    <i name="e_wo_entrp">    -36.88308505 </i>
    <i name="e_0_energy">    -36.88308526 </i>
   </energy>
  </scstep>
  <scstep>
   <time name="diag">   87.42   87.44</time>
   <time name="diis">  236.38  236.45</time>
   <time name="orth">    3.14    3.15</time>
   <time name="total">  329.58  329.72</time>
   <energy>
    <i name="alphaZ">      6.18334092 </i>
    <i name="ewald">   2477.83427646 </i>
    <i name="hartreedc">  -2972.05003777 </i>
    <i name="XCdc">     57.22121977 </i>
    <i name="pawpsdc">    270.52080379 </i>
    <i name="pawaedc">   -275.63994543 </i>
    <i name="eentropy">     -0.00000042 </i>
    <i name="bandstr">   -189.57626970 </i>
    <i name="atom">    588.62352690 </i>
    <i name="e_fr_energy">    -36.88308547 </i>
    <i name="e_wo_entrp">    -36.88308505 </i>
    <i name="e_0_energy">    -36.88308526 </i>
   </energy>
  </scstep>
  <structure>
   <crystal>
    <varray name="basis" >
     <v>       4.25873150       0.00000000       0.00000000 </v>
     <v>       0.00000000       2.51615423       0.00000000 </v>
     <v>       0.00000000       0.00000000      19.67574412 </v>
    </varray>
    <i name="volume">    210.83790140 </i>
    <varray name="rec_basis" >
     <v>       0.23481170       0.00000000       0.00000000 </v>
     <v>       0.00000000       0.39743192       0.00000000 </v>
     <v>       0.00000000       0.00000000       0.05082400 </v>
    </varray>
   </crystal>
   <varray name="positions" >
    <v>       0.00051298      -0.00000000      -0.00000000 </v>
    <v>       0.16615368       0.50000000       0.00000000 </v>
    <v>       0.50051298       0.50000000      -0.00000000 </v>
    <v>       0.66615368       0.00000000       0.00000000 </v>
   </varray>
  </structure>
  <varray name="forces" >
   <v>       0.00000976      -0.00000000       0.00000000 </v>
   <v>      -0.00000976       0.00000000      -0.00000000 </v>
   <v>       0.00000976       0.00000000       0.00000000 </v>
   <v>      -0.00000976      -0.00000000      -0.00000000 </v>
  </varray>
  <varray name="stress" >
   <v>      -0.00809029       0.00000000       0.00000000 </v>
   <v>       0.00000000     -32.65963396       0.00000000 </v>
   <v>       0.00000000       0.00000000      -0.01029256 </v>
  </varray>
  <energy>
   <i name="e_fr_energy">    -36.88308547 </i>
   <i name="e_wo_entrp">    -36.88308526 </i>
   <i name="e_0_energy">     -0.00000042 </i>
  </energy>
  <time name="totalsc"> 3117.57 3127.31</time>
 </calculation>
 <calculation>
  <scstep>
   <time name="dav">  273.39  273.91</time>
   <time name="total">  309.62  310.30</time>
   <energy>
    <i name="alphaZ">      6.18334092 </i>
    <i name="ewald">   2477.83427488 </i>
    <i name="hartreedc">  -2972.05003011 </i>
    <i name="XCdc">     57.22121965 </i>
    <i name="pawpsdc">    270.52081141 </i>
    <i name="pawaedc">   -275.63995305 </i>
    <i name="eentropy">     -0.00000042 </i>
    <i name="bandstr">   -189.57627566 </i>
    <i name="atom">    588.62352690 </i>
    <i name="e_fr_energy">    -36.88308547 </i>
    <i name="e_wo_entrp">    -36.88308505 </i>
    <i name="e_0_energy">    -36.88308526 </i>
   </energy>
  </scstep>
  <scstep>
   <time name="diag">   86.67   87.08</time>
   <time name="diis">  221.40  221.91</time>
   <time name="orth">    3.06    3.06</time>
   <time name="total">  347.47  348.43</time>
   <energy>
    <i name="e_fr_energy">    -36.88308547 </i>
    <i name="e_wo_entrp">    -36.88308505 </i>
    <i name="e_0_energy">    -36.88308526 </i>
   </energy>
  </scstep>
  <scstep>
   <time name="diag">   87.05   87.07</time>
   <time name="diis">  213.01  213.06</time>
   <time name="orth">    3.06    3.06</time>
   <time name="total">  339.44  339.60</time>
   <energy>
    <i name="e_fr_energy">    -36.88308547 </i>
    <i name="e_wo_entrp">    -36.88308505 </i>
    <i name="e_0_energy">    -36.88308526 </i>
   </energy>
  </scstep>
  <scstep>
   <time name="diag">   87.07   87.09</time>
   <time name="diis">  207.07  207.11</time>
   <time name="orth">    3.08    3.08</time>
   <time name="total">  333.61  333.80</time>
   <energy>
    <i name="e_fr_energy">    -36.88308547 </i>
    <i name="e_wo_entrp">    -36.88308505 </i>
    <i name="e_0_energy">    -36.88308526 </i>
   </energy>
  </scstep>
  <scstep>
   <time name="diag">   87.09   87.10</time>
   <time name="diis">  202.31  202.36</time>
   <time name="orth">    3.08    3.08</time>
   <time name="total">  328.87  328.96</time>
   <energy>
    <i name="e_fr_energy">    -36.88308547 </i>
    <i name="e_wo_entrp">    -36.88308505 </i>
    <i name="e_0_energy">    -36.88308526 </i>
   </energy>
  </scstep>
  <scstep>
   <time name="diag">   87.12   87.16</time>
   <time name="diis">  193.21  193.47</time>
   <time name="orth">    3.06    3.08</time>
   <time name="total">  286.03  286.37</time>
   <energy>
    <i name="alphaZ">      6.18334092 </i>
    <i name="ewald">   2477.83427488 </i>
    <i name="hartreedc">  -2972.05000581 </i>
    <i name="XCdc">     57.22121952 </i>
    <i name="pawpsdc">    270.52081314 </i>
    <i name="pawaedc">   -275.63995484 </i>
    <i name="eentropy">     -0.00000042 </i>
    <i name="bandstr">   -189.57629976 </i>
    <i name="atom">    588.62352690 </i>
    <i name="e_fr_energy">    -36.88308547 </i>
    <i name="e_wo_entrp">    -36.88308505 </i>
    <i name="e_0_energy">    -36.88308526 </i>
   </energy>
  </scstep>
  <structure>
   <crystal>
    <varray name="basis" >
     <v>       4.25873150       0.00000000       0.00000000 </v>
     <v>       0.00000000       2.51615423       0.00000000 </v>
     <v>       0.00000000       0.00000000      19.67574412 </v>
    </varray>
    <i name="volume">    210.83790140 </i>
    <varray name="rec_basis" >
     <v>       0.23481170       0.00000000       0.00000000 </v>
     <v>       0.00000000       0.39743192       0.00000000 </v>
     <v>       0.00000000       0.00000000       0.05082400 </v>
    </varray>
   </crystal>
   <varray name="positions" >
    <v>       0.00051301      -0.00000000      -0.00000000 </v>
    <v>       0.16615366       0.50000000       0.00000000 </v>
    <v>       0.50051301       0.50000000      -0.00000000 </v>
    <v>       0.66615366      -0.00000000       0.00000000 </v>
   </varray>
  </structure>
  <varray name="forces" >
   <v>      -0.00001204       0.00000000       0.00000000 </v>
   <v>       0.00001204      -0.00000000      -0.00000000 </v>
   <v>      -0.00001204       0.00000000       0.00000000 </v>
   <v>       0.00001204      -0.00000000      -0.00000000 </v>
  </varray>
  <varray name="stress" >
   <v>      -0.00818057       0.00000000       0.00000000 </v>
   <v>       0.00000000     -32.65954409       0.00000000 </v>
   <v>       0.00000000       0.00000000      -0.01025866 </v>
  </varray>
  <energy>
   <i name="e_fr_energy">    -36.88308547 </i>
   <i name="e_wo_entrp">    -36.88308526 </i>
   <i name="e_0_energy">     -0.00000042 </i>
  </energy>
  <time name="totalsc"> 2051.01 2053.97</time>
 </calculation>
 <calculation>
  <scstep>
   <time name="dav">  270.19  270.42</time>
   <time name="total">  306.57  306.82</time>
   <energy>
    <i name="alphaZ">      6.18334092 </i>
    <i name="ewald">   2477.83427575 </i>
    <i name="hartreedc">  -2972.05000326 </i>
    <i name="XCdc">     57.22121952 </i>
    <i name="pawpsdc">    270.52081315 </i>
    <i name="pawaedc">   -275.63995485 </i>
    <i name="eentropy">     -0.00000042 </i>
    <i name="bandstr">   -189.57630318 </i>
    <i name="atom">    588.62352690 </i>
    <i name="e_fr_energy">    -36.88308547 </i>
    <i name="e_wo_entrp">    -36.88308505 </i>
    <i name="e_0_energy">    -36.88308526 </i>
   </energy>
  </scstep>
  <scstep>
   <time name="diag">   87.07   87.09</time>
   <time name="diis">  165.30  165.33</time>
   <time name="orth">    3.06    3.06</time>
   <time name="total">  291.82  291.90</time>
   <energy>
    <i name="e_fr_energy">    -36.88308547 </i>
    <i name="e_wo_entrp">    -36.88308505 </i>
    <i name="e_0_energy">    -36.88308526 </i>
   </energy>
  </scstep>
  <scstep>
   <time name="diag">   87.09   87.12</time>
   <time name="diis">  162.78  162.89</time>
   <time name="orth">    3.10    3.11</time>
   <time name="total">  289.34  289.62</time>
   <energy>
    <i name="e_fr_energy">    -36.88308547 </i>
    <i name="e_wo_entrp">    -36.88308505 </i>
    <i name="e_0_energy">    -36.88308526 </i>
   </energy>
  </scstep>
  <scstep>
   <time name="diag">   87.08   87.11</time>
   <time name="diis">  161.53  161.62</time>
   <time name="orth">    3.09    3.09</time>
   <time name="total">  288.12  288.27</time>
   <energy>
    <i name="e_fr_energy">    -36.88308547 </i>
    <i name="e_wo_entrp">    -36.88308505 </i>
    <i name="e_0_energy">    -36.88308526 </i>
   </energy>
  </scstep>
  <scstep>
   <time name="diag">   87.06   87.07</time>
   <time name="diis">  160.74  160.79</time>
   <time name="orth">    3.06    3.06</time>
   <time name="total">  287.20  287.41</time>
   <energy>
    <i name="e_fr_energy">    -36.88308547 </i>
    <i name="e_wo_entrp">    -36.88308505 </i>
    <i name="e_0_energy">    -36.88308526 </i>
   </energy>
  </scstep>
  <scstep>
   <time name="diag">   87.07   87.09</time>
   <time name="diis">  156.49  156.57</time>
   <time name="orth">    3.08    3.08</time>
   <time name="total">  283.11  283.22</time>
   <energy>
    <i name="e_fr_energy">    -36.88308547 </i>
    <i name="e_wo_entrp">    -36.88308505 </i>
    <i name="e_0_energy">    -36.88308526 </i>
   </energy>
  </scstep>
  <scstep>
   <time name="diag">   87.07   87.08</time>
   <time name="diis">  159.16  159.84</time>
   <time name="orth">    3.06    3.06</time>
   <time name="total">  285.48  286.44</time>
   <energy>
    <i name="e_fr_energy">    -36.88308547 </i>
    <i name="e_wo_entrp">    -36.88308505 </i>
    <i name="e_0_energy">    -36.88308526 </i>
   </energy>
  </scstep>
  <scstep>
   <time name="diag">   86.69   87.13</time>
   <time name="diis">  157.81  158.57</time>
   <time name="orth">    3.06    3.06</time>
   <time name="total">  250.25  251.44</time>
   <energy>
    <i name="alphaZ">      6.18334092 </i>
    <i name="ewald">   2477.83427575 </i>
    <i name="hartreedc">  -2972.05000707 </i>
    <i name="XCdc">     57.22121964 </i>
    <i name="pawpsdc">    270.52081693 </i>
    <i name="pawaedc">   -275.63995866 </i>
    <i name="eentropy">     -0.00000042 </i>
    <i name="bandstr">   -189.57629947 </i>
    <i name="atom">    588.62352690 </i>
    <i name="e_fr_energy">    -36.88308547 </i>
    <i name="e_wo_entrp">    -36.88308505 </i>
    <i name="e_0_energy">    -36.88308526 </i>
   </energy>
  </scstep>
  <structure>
   <crystal>
    <varray name="basis" >
     <v>       4.25873150       0.00000000       0.00000000 </v>
     <v>       0.00000000       2.51615423       0.00000000 </v>
     <v>       0.00000000       0.00000000      19.67574412 </v>
    </varray>
    <i name="volume">    210.83790140 </i>
    <varray name="rec_basis" >
     <v>       0.23481170       0.00000000       0.00000000 </v>
     <v>       0.00000000       0.39743192       0.00000000 </v>
     <v>       0.00000000       0.00000000       0.05082400 </v>
    </varray>
   </crystal>
   <varray name="positions" >
    <v>       0.00051299      -0.00000000      -0.00000000 </v>
    <v>       0.16615367       0.50000000       0.00000000 </v>
    <v>       0.50051299       0.50000000      -0.00000000 </v>
    <v>       0.66615367      -0.00000000       0.00000000 </v>
   </varray>
  </structure>
  <varray name="forces" >
   <v>      -0.00000202       0.00000000      -0.00000000 </v>
   <v>       0.00000202       0.00000000       0.00000000 </v>
   <v>      -0.00000202       0.00000000      -0.00000000 </v>
   <v>       0.00000202      -0.00000000       0.00000000 </v>
  </varray>
  <varray name="stress" >
   <v>      -0.00814710       0.00000000       0.00000000 </v>
   <v>       0.00000000     -32.65957731       0.00000000 </v>
   <v>       0.00000000       0.00000000      -0.01023812 </v>
  </varray>
  <energy>
   <i name="e_fr_energy">    -36.88308547 </i>
   <i name="e_wo_entrp">    -36.88308526 </i>
   <i name="e_0_energy">     -0.00000042 </i>
  </energy>
  <time name="totalsc"> 2387.74 2391.50</time>
 </calculation>
 <calculation>
  <scstep>
   <time name="dav">  277.53  277.62</time>
   <time name="total">  313.91  314.01</time>
   <energy>
    <i name="alphaZ">      6.18334092 </i>
    <i name="ewald">   2477.83427593 </i>
    <i name="hartreedc">  -2972.05000716 </i>
    <i name="XCdc">     57.22121965 </i>
    <i name="pawpsdc">    270.52081693 </i>
    <i name="pawaedc">   -275.63995866 </i>
    <i name="eentropy">     -0.00000042 </i>
    <i name="bandstr">   -189.57629957 </i>
    <i name="atom">    588.62352690 </i>
    <i name="e_fr_energy">    -36.88308547 </i>
    <i name="e_wo_entrp">    -36.88308505 </i>
    <i name="e_0_energy">    -36.88308526 </i>
   </energy>
  </scstep>
  <scstep>
   <time name="diag">   86.40   87.08</time>
   <time name="diis">  132.87  134.14</time>
   <time name="orth">    3.07    3.09</time>
   <time name="total">  258.52  260.71</time>
   <energy>
    <i name="e_fr_energy">    -36.88308547 </i>
    <i name="e_wo_entrp">    -36.88308505 </i>
    <i name="e_0_energy">    -36.88308526 </i>
   </energy>
  </scstep>
  <scstep>
   <time name="diag">   86.50   87.11</time>
   <time name="diis">  140.77  142.13</time>
   <time name="orth">    3.06    3.06</time>
   <time name="total">  266.37  268.81</time>
   <energy>
    <i name="e_fr_energy">    -36.88308547 </i>
    <i name="e_wo_entrp">    -36.88308505 </i>
    <i name="e_0_energy">    -36.88308526 </i>
   </energy>
  </scstep>
  <scstep>
   <time name="diag">   86.34   87.10</time>
   <time name="diis">  142.60  143.58</time>
   <time name="orth">    3.06    3.06</time>
   <time name="total">  268.16  270.25</time>
   <energy>
    <i name="e_fr_energy">    -36.88308547 </i>
    <i name="e_wo_entrp">    -36.88308505 </i>
    <i name="e_0_energy">    -36.88308526 </i>
   </energy>
  </scstep>
  <scstep>
   <time name="diag">   86.43   87.11</time>
   <time name="diis">  133.79  135.19</time>
   <time name="orth">    3.06    3.09</time>
   <time name="total">  225.88  228.48</time>
   <energy>
    <i name="alphaZ">      6.18334092 </i>
    <i name="ewald">   2477.83427593 </i>
    <i name="hartreedc">  -2972.05000670 </i>
    <i name="XCdc">     57.22121963 </i>
    <i name="pawpsdc">    270.52081692 </i>
    <i name="pawaedc">   -275.63995865 </i>
    <i name="eentropy">     -0.00000042 </i>
    <i name="bandstr">   -189.57630001 </i>
    <i name="atom">    588.62352690 </i>
    <i name="e_fr_energy">    -36.88308547 </i>
    <i name="e_wo_entrp">    -36.88308505 </i>
    <i name="e_0_energy">    -36.88308526 </i>
   </energy>
  </scstep>
  <structure>
   <crystal>
    <varray name="basis" >
     <v>       4.25873150       0.00000000       0.00000000 </v>
     <v>       0.00000000       2.51615423       0.00000000 </v>
     <v>       0.00000000       0.00000000      19.67574412 </v>
    </varray>
    <i name="volume">    210.83790140 </i>
    <varray name="rec_basis" >
     <v>       0.23481170       0.00000000       0.00000000 </v>
     <v>       0.00000000       0.39743192       0.00000000 </v>
     <v>       0.00000000       0.00000000       0.05082400 </v>
    </varray>
   </crystal>
   <varray name="positions" >
    <v>       0.00051299      -0.00000000      -0.00000000 </v>
    <v>       0.16615368       0.50000000       0.00000000 </v>
    <v>       0.50051299       0.50000000      -0.00000000 </v>
    <v>       0.66615368      -0.00000000       0.00000000 </v>
   </varray>
  </structure>
  <varray name="forces" >
   <v>      -0.00000133       0.00000000       0.00000000 </v>
   <v>       0.00000133      -0.00000000      -0.00000000 </v>
   <v>      -0.00000133       0.00000000       0.00000000 </v>
   <v>       0.00000133      -0.00000000      -0.00000000 </v>
  </varray>
  <varray name="stress" >
   <v>      -0.00814447       0.00000000       0.00000000 </v>
   <v>       0.00000000     -32.65957488       0.00000000 </v>
   <v>       0.00000000       0.00000000      -0.01024540 </v>
  </varray>
  <energy>
   <i name="e_fr_energy">    -36.88308547 </i>
   <i name="e_wo_entrp">    -36.88308526 </i>
   <i name="e_0_energy">     -0.00000042 </i>
  </energy>
  <time name="totalsc"> 1438.64 1448.84</time>
 </calculation>
 <calculation>
  <scstep>
   <time name="dav">  256.59  258.09</time>
   <time name="total">  292.83  294.55</time>
   <energy>
    <i name="alphaZ">      6.18334092 </i>
    <i name="ewald">   2477.83427627 </i>
    <i name="hartreedc">  -2972.05000683 </i>
    <i name="XCdc">     57.22121964 </i>
    <i name="pawpsdc">    270.52081692 </i>
    <i name="pawaedc">   -275.63995865 </i>
    <i name="eentropy">     -0.00000042 </i>
    <i name="bandstr">   -189.57630022 </i>
    <i name="atom">    588.62352690 </i>
    <i name="e_fr_energy">    -36.88308547 </i>
    <i name="e_wo_entrp">    -36.88308505 </i>
    <i name="e_0_energy">    -36.88308526 </i>
   </energy>
  </scstep>
  <scstep>
   <time name="diag">   86.94   87.15</time>
   <time name="diis">  116.34  117.52</time>
   <time name="orth">    3.07    3.07</time>
   <time name="total">  242.37  244.17</time>
   <energy>
    <i name="e_fr_energy">    -36.88308547 </i>
    <i name="e_wo_entrp">    -36.88308505 </i>
    <i name="e_0_energy">    -36.88308526 </i>
   </energy>
  </scstep>
  <scstep>
   <time name="diag">   86.36   87.12</time>
   <time name="diis">  136.36  137.12</time>
   <time name="orth">    3.07    3.11</time>
   <time name="total">  261.80  263.81</time>
   <energy>
    <i name="e_fr_energy">    -36.88308547 </i>
    <i name="e_wo_entrp">    -36.88308505 </i>
    <i name="e_0_energy">    -36.88308526 </i>
   </energy>
  </scstep>
  <scstep>
   <time name="diag">   87.13   87.15</time>
   <time name="diis">  131.90  131.94</time>
   <time name="orth">    3.09    3.09</time>
   <time name="total">  258.56  258.64</time>
   <energy>
    <i name="e_fr_energy">    -36.88308547 </i>
    <i name="e_wo_entrp">    -36.88308505 </i>
    <i name="e_0_energy">    -36.88308526 </i>
   </energy>
  </scstep>
  <scstep>
   <time name="diag">   87.12   87.14</time>
   <time name="diis">  128.08  128.13</time>
   <time name="orth">    3.08    3.08</time>
   <time name="total">  254.53  254.80</time>
   <energy>
    <i name="e_fr_energy">    -36.88308547 </i>
    <i name="e_wo_entrp">    -36.88308505 </i>
    <i name="e_0_energy">    -36.88308526 </i>
   </energy>
  </scstep>
  <scstep>
   <time name="diag">   86.66   87.10</time>
   <time name="diis">  126.32  126.36</time>
   <time name="orth">    3.07    3.07</time>
   <time name="total">  252.37  252.97</time>
   <energy>
    <i name="e_fr_energy">    -36.88308547 </i>
    <i name="e_wo_entrp">    -36.88308505 </i>
    <i name="e_0_energy">    -36.88308526 </i>
   </energy>
  </scstep>
  <scstep>
   <time name="diag">   86.87   87.14</time>
   <time name="diis">  117.09  117.62</time>
   <time name="orth">    3.06    3.06</time>
   <time name="total">  243.25  244.40</time>
   <energy>
    <i name="e_fr_energy">    -36.88308547 </i>
    <i name="e_wo_entrp">    -36.88308505 </i>
    <i name="e_0_energy">    -36.88308526 </i>
   </energy>
  </scstep>
  <scstep>
   <time name="diag">   86.64   87.08</time>
   <time name="diis">  121.97  122.51</time>
   <time name="orth">    3.07    3.10</time>
   <time name="total">  247.94  249.12</time>
   <energy>
    <i name="e_fr_energy">    -36.88308547 </i>
    <i name="e_wo_entrp">    -36.88308505 </i>
    <i name="e_0_energy">    -36.88308526 </i>
   </energy>
  </scstep>
  <scstep>
   <time name="diag">   86.71   87.15</time>
   <time name="diis">  114.65  115.19</time>
   <time name="orth">    3.06    3.06</time>
   <time name="total">  207.04  208.18</time>
   <energy>
    <i name="alphaZ">      6.18334092 </i>
    <i name="ewald">   2477.83427627 </i>
    <i name="hartreedc">  -2972.05000761 </i>
    <i name="XCdc">     57.22121967 </i>
    <i name="pawpsdc">    270.52081800 </i>
    <i name="pawaedc">   -275.63995973 </i>
    <i name="eentropy">     -0.00000042 </i>
    <i name="bandstr">   -189.57629946 </i>
    <i name="atom">    588.62352690 </i>
    <i name="e_fr_energy">    -36.88308547 </i>
    <i name="e_wo_entrp">    -36.88308505 </i>
    <i name="e_0_energy">    -36.88308526 </i>
   </energy>
  </scstep>
  <structure>
   <crystal>
    <varray name="basis" >
     <v>       4.25873150       0.00000000       0.00000000 </v>
     <v>       0.00000000       2.51615423       0.00000000 </v>
     <v>       0.00000000       0.00000000      19.67574412 </v>
    </varray>
    <i name="volume">    210.83790140 </i>
    <varray name="rec_basis" >
     <v>       0.23481170       0.00000000       0.00000000 </v>
     <v>       0.00000000       0.39743192       0.00000000 </v>
     <v>       0.00000000       0.00000000       0.05082400 </v>
    </varray>
   </crystal>
   <varray name="positions" >
    <v>       0.00051299      -0.00000000      -0.00000000 </v>
    <v>       0.16615368       0.50000000       0.00000000 </v>
    <v>       0.50051299       0.50000000      -0.00000000 </v>
    <v>       0.66615368      -0.00000000       0.00000000 </v>
   </varray>
  </structure>
  <varray name="forces" >
   <v>       0.00000052      -0.00000000       0.00000000 </v>
   <v>      -0.00000052      -0.00000000       0.00000000 </v>
   <v>       0.00000052       0.00000000       0.00000000 </v>
   <v>      -0.00000052      -0.00000000       0.00000000 </v>
  </varray>
  <varray name="stress" >
   <v>      -0.00813978       0.00000000       0.00000000 </v>
   <v>       0.00000000     -32.65957935       0.00000000 </v>
   <v>       0.00000000       0.00000000      -0.01023958 </v>
  </varray>
  <energy>
   <i name="e_fr_energy">    -36.88308547 </i>
   <i name="e_wo_entrp">    -36.88308526 </i>
   <i name="e_0_energy">     -0.00000042 </i>
  </energy>
  <time name="totalsc"> 2359.57 2369.68</time>
  <eigenvalues>
   <array>
    <dimension dim="1">band</dimension>
    <dimension dim="2">kpoint</dimension>
    <dimension dim="3">spin</dimension>
    <field>eigene</field>
    <field>occ</field>
    <set>
     <set comment="spin 1">
      <set comment="kpoint 1">
       <r>  -22.1171    1.0000 </r>
       <r>  -16.7696    1.0000 </r>
       <r>  -15.8860    1.0000 </r>
       <r>  -10.2535    1.0000 </r>
       <r>   -9.4135    1.0000 </r>
       <r>   -5.9536    1.0000 </r>
       <r>   -5.7476    1.0000 </r>
       <r>   -4.9472    1.0000 </r>
       <r>   -1.1264    0.0000 </r>
       <r>    0.5403    0.0000 </r>
       <r>    1.3391    0.0000 </r>
       <r>    1.7302    0.0000 </r>
      </set>
      <set comment="kpoint 2">
       <r>  -22.1068    1.0000 </r>
       <r>  -16.9587    1.0000 </r>
       <r>  -15.6819    1.0000 </r>
       <r>  -10.2412    1.0000 </r>
       <r>   -9.4031    1.0000 </r>
       <r>   -5.9771    1.0000 </r>
       <r>   -5.7884    1.0000 </r>
       <r>   -5.0166    1.0000 </r>
       <r>   -1.0420    0.0000 </r>
       <r>    0.5543    0.0000 </r>
       <r>    1.3532    0.0000 </r>
       <r>    1.7446    0.0000 </r>
      </set>
      <set comment="kpoint 3">
       <r>  -22.0757    1.0000 </r>
       <r>  -17.3191    1.0000 </r>
       <r>  -15.2763    1.0000 </r>
[...]
       <r>   -9.0489    1.0000 </r>
       <r>   -5.6500    1.0000 </r>
       <r>   -5.6500    1.0000 </r>
       <r>   -0.5422    0.0000 </r>
       <r>   -0.5422    0.0000 </r>
       <r>    4.8170    0.0000 </r>
       <r>    4.8170    0.0000 </r>
      </set>
      <set comment="kpoint 209">
       <r>  -18.8395    1.0000 </r>
       <r>  -17.1310    1.0000 </r>
       <r>  -13.8996    1.0000 </r>
       <r>  -12.3346    1.0000 </r>
       <r>  -12.3293    1.0000 </r>
       <r>  -10.8571    1.0000 </r>
       <r>   -6.4825    1.0000 </r>
       <r>   -4.6640    1.0000 </r>
       <r>   -0.9947    0.0000 </r>
       <r>    1.0827    0.0000 </r>
       <r>    5.0766    0.0000 </r>
       <r>    5.8657    0.0000 </r>
      </set>
      <set comment="kpoint 210">
       <r>  -18.8297    1.0000 </r>
       <r>  -17.1234    1.0000 </r>
       <r>  -13.9909    1.0000 </r>
       <r>  -12.4151    1.0000 </r>
       <r>  -12.2350    1.0000 </r>
       <r>  -10.7730    1.0000 </r>
       <r>   -6.4737    1.0000 </r>
       <r>   -4.6662    1.0000 </r>
       <r>   -1.0056    0.0000 </r>
       <r>    1.0568    0.0000 </r>
       <r>    5.0904    0.0000 </r>
       <r>    5.8819    0.0000 </r>
      </set>
      <set comment="kpoint 211">
       <r>  -18.8005    1.0000 </r>
       <r>  -17.1013    1.0000 </r>
       <r>  -14.2143    1.0000 </r>
       <r>  -12.6289    1.0000 </r>
       <r>  -11.9866    1.0000 </r>
       <r>  -10.5649    1.0000 </r>
       <r>   -6.4473    1.0000 </r>
       <r>   -4.6733    1.0000 </r>
       <r>   -1.0363    0.0000 </r>
       <r>    0.9810    0.0000 </r>
       <r>    5.1314    0.0000 </r>
       <r>    5.9301    0.0000 </r>
      </set>
      <set comment="kpoint 212">
       <r>  -18.7519    1.0000 </r>
       <r>  -17.0658    1.0000 </r>
       <r>  -14.4957    1.0000 </r>
       <r>  -12.9054    1.0000 </r>
       <r>  -11.6637    1.0000 </r>
       <r>  -10.3003    1.0000 </r>
       <r>   -6.4037    1.0000 </r>
       <r>   -4.6870    1.0000 </r>
       <r>   -1.0817    0.0000 </r>
       <r>    0.8609    0.0000 </r>
       <r>    5.1995    0.0000 </r>
       <r>    6.0092    0.0000 </r>
      </set>
      <set comment="kpoint 213">
       <r>  -18.6841    1.0000 </r>
       <r>  -17.0197    1.0000 </r>
       <r>  -14.7922    1.0000 </r>
       <r>  -13.2070    1.0000 </r>
       <r>  -11.3088    1.0000 </r>
       <r>  -10.0201    1.0000 </r>
       <r>   -6.3434    1.0000 </r>
       <r>   -4.7094    1.0000 </r>
       <r>   -1.1336    0.0000 </r>
       <r>    0.7041    0.0000 </r>
       <r>    5.2938    0.0000 </r>
       <r>    6.1178    0.0000 </r>
      </set>
      <set comment="kpoint 214">
       <r>  -18.5973    1.0000 </r>
       <r>  -16.9681    1.0000 </r>
       <r>  -15.0804    1.0000 </r>
       <r>  -13.5156    1.0000 </r>
       <r>  -10.9436    1.0000 </r>
       <r>   -9.7471    1.0000 </r>
       <r>   -6.2672    1.0000 </r>
       <r>   -4.7436    1.0000 </r>
       <r>   -1.1829    0.0000 </r>
       <r>    0.5199    0.0000 </r>
       <r>    5.4107    0.0000 </r>
       <r>    6.1822    0.0000 </r>
      </set>
      <set comment="kpoint 215">
       <r>  -18.4920    1.0000 </r>
       <r>  -16.9205    1.0000 </r>
       <r>  -15.3415    1.0000 </r>
       <r>  -13.8218    1.0000 </r>
       <r>  -10.5818    1.0000 </r>
       <r>   -9.4965    1.0000 </r>
       <r>   -6.1760    1.0000 </r>
       <r>   -4.7923    1.0000 </r>
       <r>   -1.2197    0.0000 </r>
       <r>    0.3172    0.0000 </r>
       <r>    5.5140    0.0000 </r>
       <r>    5.7841    0.0000 </r>
      </set>
      <set comment="kpoint 216">
       <r>  -18.3686    1.0000 </r>
       <r>  -16.8944    1.0000 </r>
       <r>  -15.5534    1.0000 </r>
       <r>  -14.1200    1.0000 </r>
       <r>  -10.2337    1.0000 </r>
       <r>   -9.2806    1.0000 </r>
       <r>   -6.0713    1.0000 </r>
       <r>   -4.8578    1.0000 </r>
       <r>   -1.2358    0.0000 </r>
       <r>    0.1045    0.0000 </r>
       <r>    5.3031    0.0000 </r>
       <r>    5.7912    0.0000 </r>
      </set>
      <set comment="kpoint 217">
       <r>  -18.2278    1.0000 </r>
       <r>  -16.9154    1.0000 </r>
       <r>  -15.6877    1.0000 </r>
       <r>  -14.4062    1.0000 </r>
       <r>   -9.9090    1.0000 </r>
       <r>   -9.1100    1.0000 </r>
       <r>   -5.9547    1.0000 </r>
       <r>   -4.9411    1.0000 </r>
       <r>   -1.2246    0.0000 </r>
       <r>   -0.1103    0.0000 </r>
       <r>    5.0102    0.0000 </r>
       <r>    5.8309    0.0000 </r>
      </set>
      <set comment="kpoint 218">
       <r>  -18.0707    1.0000 </r>
       <r>  -17.0029    1.0000 </r>
       <r>  -15.7229    1.0000 </r>
       <r>  -14.6774    1.0000 </r>
       <r>   -9.6168    1.0000 </r>
       <r>   -8.9937    1.0000 </r>
       <r>   -5.8284    1.0000 </r>
       <r>   -5.0416    1.0000 </r>
       <r>   -1.1821    0.0000 </r>
       <r>   -0.3204    0.0000 </r>
       <r>    4.7915    0.0000 </r>
       <r>    5.4315    0.0000 </r>
      </set>
      <set comment="kpoint 219">
       <r>  -17.8990    1.0000 </r>
       <r>  -17.1496    1.0000 </r>
       <r>  -15.6656    1.0000 </r>
       <r>  -14.9307    1.0000 </r>
       <r>   -9.3667    1.0000 </r>
       <r>   -8.9388    1.0000 </r>
       <r>   -5.6949    1.0000 </r>
       <r>   -5.1571    1.0000 </r>
       <r>   -1.1071    0.0000 </r>
       <r>   -0.5197    0.0000 </r>
       <r>    4.6628    0.0000 </r>
       <r>    5.1025    0.0000 </r>
      </set>
      <set comment="kpoint 220">
       <r>  -17.7150    1.0000 </r>
       <r>  -17.3302    1.0000 </r>
       <r>  -15.5402    1.0000 </r>
       <r>  -15.1625    1.0000 </r>
       <r>   -9.1674    1.0000 </r>
       <r>   -8.9494    1.0000 </r>
       <r>   -5.5572    1.0000 </r>
       <r>   -5.2843    1.0000 </r>
       <r>   -1.0003    0.0000 </r>
       <r>   -0.7026    0.0000 </r>
       <r>    4.6301    0.0000 </r>
       <r>    4.8542    0.0000 </r>
      </set>
      <set comment="kpoint 221">
       <r>  -17.5230    1.0000 </r>
       <r>  -17.5230    1.0000 </r>
       <r>  -15.3682    1.0000 </r>
       <r>  -15.3682    1.0000 </r>
       <r>   -9.0264    1.0000 </r>
       <r>   -9.0264    1.0000 </r>
       <r>   -5.4190    1.0000 </r>
       <r>   -5.4190    1.0000 </r>
       <r>   -0.8643    0.0000 </r>
       <r>   -0.8643    0.0000 </r>
       <r>    4.6947    0.0000 </r>
       <r>    4.6947    0.0000 </r>
      </set>
      <set comment="kpoint 222">
       <r>  -18.4351    1.0000 </r>
       <r>  -17.5771    1.0000 </r>
       <r>  -13.5360    1.0000 </r>
       <r>  -12.7501    1.0000 </r>
       <r>  -11.9994    1.0000 </r>
       <r>  -11.2561    1.0000 </r>
       <r>   -6.0409    1.0000 </r>
       <r>   -5.1267    1.0000 </r>
       <r>   -0.5074    0.0000 </r>
       <r>    0.5333    0.0000 </r>
       <r>    5.6519    0.0000 </r>
       <r>    6.4085    0.0000 </r>
      </set>
      <set comment="kpoint 223">
       <r>  -18.4255    1.0000 </r>
       <r>  -17.5684    1.0000 </r>
       <r>  -13.6278    1.0000 </r>
       <r>  -12.8386    1.0000 </r>
       <r>  -11.9020    1.0000 </r>
       <r>  -11.1668    1.0000 </r>
       <r>   -6.0333    1.0000 </r>
       <r>   -5.1241    1.0000 </r>
       <r>   -0.5245    0.0000 </r>
       <r>    0.5094    0.0000 </r>
       <r>    5.6655    0.0000 </r>
       <r>    6.4255    0.0000 </r>
      </set>
      <set comment="kpoint 224">
       <r>  -18.3969    1.0000 </r>
       <r>  -17.5426    1.0000 </r>
       <r>  -13.8532    1.0000 </r>
       <r>  -13.0578    1.0000 </r>
       <r>  -11.6602    1.0000 </r>
       <r>  -10.9456    1.0000 </r>
       <r>   -6.0109    1.0000 </r>
       <r>   -5.1165    1.0000 </r>
       <r>   -0.5738    0.0000 </r>
       <r>    0.4396    0.0000 </r>
       <r>    5.7063    0.0000 </r>
       <r>    6.4761    0.0000 </r>
      </set>
      <set comment="kpoint 225">
       <r>  -18.3494    1.0000 </r>
       <r>  -17.5002    1.0000 </r>
       <r>  -14.1393    1.0000 </r>
       <r>  -13.3395    1.0000 </r>
       <r>  -11.3479    1.0000 </r>
       <r>  -10.6628    1.0000 </r>
       <r>   -5.9740    1.0000 </r>
       <r>   -5.1051    1.0000 </r>
       <r>   -0.6500    0.0000 </r>
       <r>    0.3293    0.0000 </r>
       <r>    5.7739    0.0000 </r>
       <r>    6.5587    0.0000 </r>
      </set>
      <set comment="kpoint 226">
       <r>  -18.2833    1.0000 </r>
       <r>  -17.4423    1.0000 </r>
       <r>  -14.4453    1.0000 </r>
       <r>  -13.6451    1.0000 </r>
       <r>  -11.0074    1.0000 </r>
       <r>  -10.3598    1.0000 </r>
       <r>   -5.9234    1.0000 </r>
       <r>   -5.0917    1.0000 </r>
       <r>   -0.7450    0.0000 </r>
       <r>    0.1863    0.0000 </r>
       <r>    5.8666    0.0000 </r>
       <r>    6.6715    0.0000 </r>
      </set>
      <set comment="kpoint 227">
       <r>  -18.1989    1.0000 </r>
       <r>  -17.3705    1.0000 </r>
       <r>  -14.7513    1.0000 </r>
       <r>  -13.9561    1.0000 </r>
       <r>  -10.6607    1.0000 </r>
       <r>  -10.0593    1.0000 </r>
       <r>   -5.8604    1.0000 </r>
       <r>   -5.0789    1.0000 </r>
       <r>   -0.8493    0.0000 </r>
       <r>    0.0197    0.0000 </r>
       <r>    5.9742    0.0000 </r>
       <r>    6.4529    0.0000 </r>
      </set>
      <set comment="kpoint 228">
       <r>  -18.0969    1.0000 </r>
       <r>  -17.2882    1.0000 </r>
       <r>  -15.0450    1.0000 </r>
       <r>  -14.2630    1.0000 </r>
       <r>  -10.3218    1.0000 </r>
       <r>   -9.7761    1.0000 </r>
       <r>   -5.7865    1.0000 </r>
       <r>   -5.0698    1.0000 </r>
       <r>   -0.9524    0.0000 </r>
       <r>   -0.1610    0.0000 </r>
       <r>    5.8926    0.0000 </r>
       <r>    6.2060    0.0000 </r>
      </set>
      <set comment="kpoint 229">
       <r>  -17.9782    1.0000 </r>
       <r>  -17.2010    1.0000 </r>
       <r>  -15.3161    1.0000 </r>
       <r>  -14.5598    1.0000 </r>
       <r>  -10.0015    1.0000 </r>
       <r>   -9.5219    1.0000 </r>
       <r>   -5.7036    1.0000 </r>
       <r>   -5.0680    1.0000 </r>
       <r>   -1.0443    0.0000 </r>
       <r>   -0.3468    0.0000 </r>
       <r>    5.5041    0.0000 </r>
       <r>    5.9960    0.0000 </r>
      </set>
      <set comment="kpoint 230">
       <r>  -17.8443    1.0000 </r>
       <r>  -17.1193    1.0000 </r>
       <r>  -15.5511    1.0000 </r>
       <r>  -14.8421    1.0000 </r>
       <r>   -9.7098    1.0000 </r>
       <r>   -9.3075    1.0000 </r>
       <r>   -5.6144    1.0000 </r>
       <r>   -5.0770    1.0000 </r>
       <r>   -1.1156    0.0000 </r>
       <r>   -0.5292    0.0000 </r>
       <r>    5.1571    0.0000 </r>
       <r>    5.5689    0.0000 </r>
      </set>
      <set comment="kpoint 231">
       <r>  -17.6974    1.0000 </r>
       <r>  -17.0620    1.0000 </r>
       <r>  -15.7295    1.0000 </r>
       <r>  -15.1056    1.0000 </r>
       <r>   -9.4564    1.0000 </r>
       <r>   -9.1424    1.0000 </r>
       <r>   -5.5218    1.0000 </r>
       <r>   -5.0998    1.0000 </r>
       <r>   -1.1588    0.0000 </r>
       <r>   -0.7002    0.0000 </r>
       <r>    4.8860    0.0000 </r>
       <r>    5.2078    0.0000 </r>
      </set>
      <set comment="kpoint 232">
       <r>  -17.5414    1.0000 </r>
       <r>  -17.0552    1.0000 </r>
       <r>  -15.8240    1.0000 </r>
       <r>  -15.3453    1.0000 </r>
       <r>   -9.2505    1.0000 </r>
       <r>   -9.0347    1.0000 </r>
       <r>   -5.4294    1.0000 </r>
       <r>   -5.1380    1.0000 </r>
       <r>   -1.1683    0.0000 </r>
       <r>   -0.8528    0.0000 </r>
       <r>    4.7022    0.0000 </r>
       <r>    4.9235    0.0000 </r>
      </set>
      <set comment="kpoint 233">
       <r>  -17.3829    1.0000 </r>
       <r>  -17.1163    1.0000 </r>
       <r>  -15.8164    1.0000 </r>
       <r>  -15.5535    1.0000 </r>
       <r>   -9.1003    1.0000 </r>
       <r>   -8.9904    1.0000 </r>
       <r>   -5.3410    1.0000 </r>
       <r>   -5.1922    1.0000 </r>
       <r>   -1.1415    0.0000 </r>
       <r>   -0.9806    0.0000 </r>
       <r>    4.6125    0.0000 </r>
       <r>    4.7254    0.0000 </r>
      </set>
      <set comment="kpoint 234">
       <r>  -17.2343    1.0000 </r>
       <r>  -17.2343    1.0000 </r>
       <r>  -15.7176    1.0000 </r>
       <r>  -15.7176    1.0000 </r>
       <r>   -9.0124    1.0000 </r>
       <r>   -9.0124    1.0000 </r>
       <r>   -5.2608    1.0000 </r>
       <r>   -5.2608    1.0000 </r>
       <r>   -1.0782    0.0000 </r>
       <r>   -1.0782    0.0000 </r>
       <r>    4.6204    0.0000 </r>
       <r>    4.6204    0.0000 </r>
      </set>
      <set comment="kpoint 235">
       <r>  -18.0133    1.0000 </r>
       <r>  -18.0133    1.0000 </r>
       <r>  -13.1526    1.0000 </r>
       <r>  -13.1526    1.0000 </r>
       <r>  -11.6382    1.0000 </r>
       <r>  -11.6382    1.0000 </r>
       <r>   -5.5874    1.0000 </r>
       <r>   -5.5874    1.0000 </r>
       <r>    0.0025    0.0000 </r>
       <r>    0.0025    0.0000 </r>
       <r>    6.2564    0.0000 </r>
       <r>    6.2564    0.0000 </r>
      </set>
      <set comment="kpoint 236">
       <r>  -18.0041    1.0000 </r>
       <r>  -18.0041    1.0000 </r>
       <r>  -13.2432    1.0000 </r>
       <r>  -13.2432    1.0000 </r>
       <r>  -11.5444    1.0000 </r>
       <r>  -11.5444    1.0000 </r>
       <r>   -5.5818    1.0000 </r>
       <r>   -5.5818    1.0000 </r>
       <r>   -0.0186    0.0000 </r>
       <r>   -0.0186    0.0000 </r>
       <r>    6.2700    0.0000 </r>
       <r>    6.2700    0.0000 </r>
      </set>
      <set comment="kpoint 237">
       <r>  -17.9765    1.0000 </r>
       <r>  -17.9765    1.0000 </r>
       <r>  -13.4666    1.0000 </r>
       <r>  -13.4666    1.0000 </r>
       <r>  -11.3118    1.0000 </r>
       <r>  -11.3118    1.0000 </r>
       <r>   -5.5652    1.0000 </r>
       <r>   -5.5652    1.0000 </r>
       <r>   -0.0800    0.0000 </r>
       <r>   -0.0800    0.0000 </r>
       <r>    6.3105    0.0000 </r>
       <r>    6.3105    0.0000 </r>
      </set>
      <set comment="kpoint 238">
       <r>  -17.9308    1.0000 </r>
       <r>  -17.9308    1.0000 </r>
       <r>  -13.7519    1.0000 </r>
       <r>  -13.7519    1.0000 </r>
       <r>  -11.0130    1.0000 </r>
       <r>  -11.0130    1.0000 </r>
       <r>   -5.5383    1.0000 </r>
       <r>   -5.5383    1.0000 </r>
       <r>   -0.1765    0.0000 </r>
       <r>   -0.1765    0.0000 </r>
       <r>    6.3773    0.0000 </r>
       <r>    6.3773    0.0000 </r>
      </set>
      <set comment="kpoint 239">
       <r>  -17.8674    1.0000 </r>
       <r>  -17.8674    1.0000 </r>
       <r>  -14.0595    1.0000 </r>
       <r>  -14.0595    1.0000 </r>
       <r>  -10.6900    1.0000 </r>
       <r>  -10.6900    1.0000 </r>
       <r>   -5.5024    1.0000 </r>
       <r>   -5.5024    1.0000 </r>
       <r>   -0.3000    0.0000 </r>
       <r>   -0.3000    0.0000 </r>
       <r>    6.4669    0.0000 </r>
       <r>    6.4669    0.0000 </r>
      </set>
      <set comment="kpoint 240">
       <r>  -17.7872    1.0000 </r>
       <r>  -17.7872    1.0000 </r>
       <r>  -14.3705    1.0000 </r>
       <r>  -14.3705    1.0000 </r>
       <r>  -10.3649    1.0000 </r>
       <r>  -10.3649    1.0000 </r>
       <r>   -5.4592    1.0000 </r>
       <r>   -5.4592    1.0000 </r>
       <r>   -0.4414    0.0000 </r>
       <r>   -0.4414    0.0000 </r>
       <r>    6.5341    0.0000 </r>
       <r>    6.5341    0.0000 </r>
      </set>
      <set comment="kpoint 241">
       <r>  -17.6914    1.0000 </r>
       <r>  -17.6914    1.0000 </r>
       <r>  -14.6747    1.0000 </r>
       <r>  -14.6747    1.0000 </r>
       <r>  -10.0522    1.0000 </r>
       <r>  -10.0522    1.0000 </r>
       <r>   -5.4110    1.0000 </r>
       <r>   -5.4110    1.0000 </r>
       <r>   -0.5906    0.0000 </r>
       <r>   -0.5906    0.0000 </r>
       <r>    6.1789    0.0000 </r>
       <r>    6.1789    0.0000 </r>
      </set>
      <set comment="kpoint 242">
       <r>  -17.5821    1.0000 </r>
       <r>  -17.5821    1.0000 </r>
       <r>  -14.9653    1.0000 </r>
       <r>  -14.9653    1.0000 </r>
       <r>   -9.7632    1.0000 </r>
       <r>   -9.7632    1.0000 </r>
       <r>   -5.3608    1.0000 </r>
       <r>   -5.3608    1.0000 </r>
       <r>   -0.7378    0.0000 </r>
       <r>   -0.7378    0.0000 </r>
       <r>    5.7338    0.0000 </r>
       <r>    5.7338    0.0000 </r>
      </set>
      <set comment="kpoint 243">
       <r>  -17.4628    1.0000 </r>
       <r>  -17.4628    1.0000 </r>
       <r>  -15.2356    1.0000 </r>
       <r>  -15.2356    1.0000 </r>
       <r>   -9.5083    1.0000 </r>
       <r>   -9.5083    1.0000 </r>
       <r>   -5.3121    1.0000 </r>
       <r>   -5.3121    1.0000 </r>
       <r>   -0.8738    0.0000 </r>
       <r>   -0.8738    0.0000 </r>
       <r>    5.3436    0.0000 </r>
       <r>    5.3436    0.0000 </r>
      </set>
      <set comment="kpoint 244">
       <r>  -17.3397    1.0000 </r>
       <r>  -17.3397    1.0000 </r>
       <r>  -15.4777    1.0000 </r>
       <r>  -15.4777    1.0000 </r>
       <r>   -9.2973    1.0000 </r>
       <r>   -9.2973    1.0000 </r>
       <r>   -5.2685    1.0000 </r>
       <r>   -5.2685    1.0000 </r>
       <r>   -0.9899    0.0000 </r>
       <r>   -0.9899    0.0000 </r>
       <r>    5.0253    0.0000 </r>
       <r>    5.0253    0.0000 </r>
      </set>
      <set comment="kpoint 245">
       <r>  -17.2242    1.0000 </r>
       <r>  -17.2242    1.0000 </r>
       <r>  -15.6790    1.0000 </r>
       <r>  -15.6790    1.0000 </r>
       <r>   -9.1391    1.0000 </r>
       <r>   -9.1391    1.0000 </r>
       <r>   -5.2339    1.0000 </r>
       <r>   -5.2339    1.0000 </r>
       <r>   -1.0789    0.0000 </r>
       <r>   -1.0789    0.0000 </r>
       <r>    4.7895    0.0000 </r>
       <r>    4.7895    0.0000 </r>
      </set>
      <set comment="kpoint 246">
       <r>  -17.1361    1.0000 </r>
       <r>  -17.1361    1.0000 </r>
       <r>  -15.8188    1.0000 </r>
       <r>  -15.8188    1.0000 </r>
       <r>   -9.0409    1.0000 </r>
       <r>   -9.0409    1.0000 </r>
       <r>   -5.2115    1.0000 </r>
       <r>   -5.2115    1.0000 </r>
       <r>   -1.1348    0.0000 </r>
       <r>   -1.1348    0.0000 </r>
       <r>    4.6444    0.0000 </r>
       <r>    4.6444    0.0000 </r>
      </set>
      <set comment="kpoint 247">
       <r>  -17.1019    1.0000 </r>
       <r>  -17.1019    1.0000 </r>
       <r>  -15.8703    1.0000 </r>
       <r>  -15.8703    1.0000 </r>
       <r>   -9.0076    1.0000 </r>
       <r>   -9.0076    1.0000 </r>
       <r>   -5.2038    1.0000 </r>
       <r>   -5.2038    1.0000 </r>
       <r>   -1.1539    0.0000 </r>
       <r>   -1.1539    0.0000 </r>
       <r>    4.5955    0.0000 </r>
       <r>    4.5955    0.0000 </r>
      </set>
     </set>
    </set>
   </array>
  </eigenvalues>
  <separator name="orbital magnetization" >
   <v name="MAGDIPOLOUT">      0.00000000      0.00000000      0.00000000</v>
  </separator>
 </calculation>
 <structure name="finalpos" >
  <crystal>
   <varray name="basis" >
    <v>       4.25873150       0.00000000       0.00000000 </v>
    <v>       0.00000000       2.51615423       0.00000000 </v>
    <v>       0.00000000       0.00000000      19.67574412 </v>
   </varray>
   <i name="volume">    210.83790140 </i>
   <varray name="rec_basis" >
    <v>       0.23481170       0.00000000       0.00000000 </v>
    <v>       0.00000000       0.39743192       0.00000000 </v>
    <v>       0.00000000       0.00000000       0.05082400 </v>
   </varray>
  </crystal>
  <varray name="positions" >
   <v>       0.00051299      -0.00000000      -0.00000000 </v>
   <v>       0.16615368       0.50000000       0.00000000 </v>
   <v>       0.50051299       0.50000000      -0.00000000 </v>
   <v>       0.66615368      -0.00000000       0.00000000 </v>
  </varray>
 </structure>
</modeling>
