gr                                      
           1
     4.258732    0.000000    0.000000
     0.000000    2.516154    0.000000
     0.000000    0.000000   19.675744
   C 
   4
Direct configuration=     1
   0.00051919  0.00000000  0.00000000
   0.16614747  0.50000000  0.00000000
   0.50051919  0.50000000  0.00000000
   0.66614747  0.00000000  0.00000000
Direct configuration=     2
   0.00048791 -0.00000000 -0.00000000
   0.16617876  0.50000000  0.00000000
   0.50048791  0.50000000 -0.00000000
   0.66617876  0.00000000  0.00000000
Direct configuration=     3
   0.00051298 -0.00000000 -0.00000000
   0.16615368  0.50000000  0.00000000
   0.50051298  0.50000000 -0.00000000
   0.66615368  0.00000000  0.00000000
Direct configuration=     4
   0.00051301 -0.00000000 -0.00000000
   0.16615366  0.50000000  0.00000000
   0.50051301  0.50000000 -0.00000000
   0.66615366 -0.00000000  0.00000000
Direct configuration=     5
   0.00051299 -0.00000000 -0.00000000
   0.16615367  0.50000000  0.00000000
   0.50051299  0.50000000 -0.00000000
   0.66615367 -0.00000000  0.00000000
Direct configuration=     6
   0.00051299 -0.00000000 -0.00000000
   0.16615368  0.50000000  0.00000000
   0.50051299  0.50000000 -0.00000000
   0.66615368 -0.00000000  0.00000000
Direct configuration=     7
   0.00051299 -0.00000000 -0.00000000
   0.16615368  0.50000000  0.00000000
   0.50051299  0.50000000 -0.00000000
   0.66615368 -0.00000000  0.00000000
