 running on    8 total cores
 distrk:  each k-point on    8 cores,    1 groups
 distr:  one band on    2 cores,    4 groups
 using from now: INCAR     
 vasp.5.3.5 31Mar14 (build Mar 02 2015 18:14:16) complex                        
  
 POSCAR found type information on POSCAR  C 
 POSCAR found :  1 types and       4 ions
 LDA part: xc-table for Pade appr. of Perdew
 POSCAR, INCAR and KPOINTS ok, starting setup
 FFT: planning ...
 WAVECAR not read
 entering main loop
       N       E                     dE             d eps       ncg     rms          rms(c)
DAV:   1     0.188153382454E+03    0.18815E+03   -0.10658E+04  5928   0.275E+03
DAV:   2    -0.945015595972E+01   -0.19760E+03   -0.17527E+03 10364   0.261E+02
DAV:   3    -0.381400232053E+02   -0.28690E+02   -0.28067E+02  7388   0.118E+02    0.709E+00
RMM:   4    -0.375714911457E+02    0.56853E+00   -0.91052E+00  5928   0.260E+01    0.411E+00
RMM:   5    -0.368675699013E+02    0.70392E+00   -0.26427E+00  5933   0.111E+01    0.697E-01
RMM:   6    -0.368696896595E+02   -0.21198E-02   -0.83253E-02  6367   0.200E+00    0.501E-01
RMM:   7    -0.368609382936E+02    0.87514E-02   -0.31165E-02  5947   0.153E+00    0.325E-01
RMM:   8    -0.368561777562E+02    0.47605E-02   -0.59787E-03  5933   0.514E-01    0.139E-01
RMM:   9    -0.368558801545E+02    0.29760E-03   -0.20024E-02  5928   0.837E-01    0.150E-01
RMM:  10    -0.368557868354E+02    0.93319E-04   -0.20823E-03  5928   0.331E-01    0.268E-02
RMM:  11    -0.368580634914E+02   -0.22767E-02   -0.66455E-04  5931   0.172E-01    0.413E-02
RMM:  12    -0.368585611123E+02   -0.49762E-03   -0.19173E-04  5953   0.913E-02    0.527E-03
RMM:  13    -0.368588157331E+02   -0.25462E-03   -0.46623E-05  6042   0.354E-02    0.269E-03
RMM:  14    -0.368588978334E+02   -0.82100E-04   -0.10104E-05  6000   0.137E-02    0.827E-04
RMM:  15    -0.368589108500E+02   -0.13017E-04   -0.18359E-06  5953   0.731E-03    0.227E-03
RMM:  16    -0.368589238347E+02   -0.12985E-04   -0.20552E-06  5928   0.951E-03    0.147E-03
RMM:  17    -0.368589297218E+02   -0.58872E-05   -0.22789E-07  5928   0.293E-03    0.484E-04
RMM:  18    -0.368589307437E+02   -0.10219E-05   -0.28994E-08  5995   0.140E-03    0.940E-05
WARNING in EDDRMM: call to ZHEGV failed, returncode =   6  3  1
WARNING in EDDRMM: call to ZHEGV failed, returncode =   6  3  1
WARNING in EDDRMM: call to ZHEGV failed, returncode =   6  3  1
WARNING in EDDRMM: call to ZHEGV failed, returncode =   6  3  1
RMM:  19    -0.368589314896E+02   -0.74592E-06   -0.99045E-09  5720   0.442E-04    0.167E-05
RMM:  20    -0.368589315274E+02   -0.37810E-07   -0.68590E-10  4497   0.136E-04    0.226E-05
RMM:  21    -0.368589315397E+02   -0.12276E-07   -0.18982E-10  4306   0.809E-05    0.806E-06
RMM:  22    -0.368589315401E+02   -0.43883E-09   -0.19409E-11  3901   0.497E-05    0.780E-07
RMM:  23    -0.368589315405E+02   -0.37971E-09   -0.17284E-11  3585   0.394E-05    0.178E-06
RMM:  24    -0.368589315403E+02    0.22169E-09   -0.47505E-12  3131   0.298E-05    0.539E-07
RMM:  25    -0.368589315403E+02    0.13074E-10   -0.50577E-12  2803   0.252E-05
   1 F= -.36858932E+02 E0= -.36858932E+02  d E =-.368589E+02
 BRION: g(F)=  0.365E-06 g(S)=  0.000E+00
 bond charge predicted
       N       E                     dE             d eps       ncg     rms          rms(c)
DAV:   1    -0.368589310373E+02    0.50294E-06   -0.48479E-05  6412   0.652E-02    0.130E-03
RMM:   2    -0.368589310780E+02   -0.40653E-07   -0.78052E-07  5964   0.777E-03    0.946E-04
RMM:   3    -0.368589310668E+02    0.11199E-07   -0.13111E-07  5973   0.291E-03    0.256E-04
RMM:   4    -0.368589310625E+02    0.42916E-08   -0.91006E-09  6113   0.753E-04    0.730E-05
RMM:   5    -0.368589310635E+02   -0.94872E-09   -0.61248E-10  4728   0.177E-04    0.313E-05
RMM:   6    -0.368589310634E+02    0.45247E-10   -0.74799E-11  3774   0.808E-05
   2 F= -.36858931E+02 E0= -.36858931E+02  d E =0.476857E-06
 BRION: g(F)=  0.496E-05 g(S)=  0.000E+00 retain N=  1 mean eig= 0.21
 eig:   0.213
 bond charge predicted
       N       E                     dE             d eps       ncg     rms          rms(c)
DAV:   1    -0.368589315893E+02   -0.52587E-06   -0.29999E-05  6748   0.513E-02    0.103E-03
RMM:   2    -0.368589316023E+02   -0.12987E-07   -0.46638E-07  5966   0.610E-03    0.745E-04
RMM:   3    -0.368589315830E+02    0.19283E-07   -0.80326E-08  5974   0.228E-03    0.194E-04
RMM:   4    -0.368589315832E+02   -0.17167E-09   -0.53861E-09  6071   0.583E-04    0.569E-05
RMM:   5    -0.368589315826E+02    0.62414E-09   -0.37867E-10  4342   0.141E-04    0.252E-05
RMM:   6    -0.368589315821E+02    0.49374E-09   -0.46245E-11  3728   0.696E-05    0.366E-06
RMM:   7    -0.368589315824E+02   -0.28808E-09   -0.20203E-11  3700   0.521E-05    0.278E-06
RMM:   8    -0.368589315824E+02    0.11369E-10   -0.12296E-11  3182   0.370E-05
   3 F= -.36858932E+02 E0= -.36858932E+02  d E =-.518954E-06
 BRION: g(F)=  0.349E-11 g(S)=  0.000E+00 retain N=  1 mean eig= 0.21
 eig:   0.213
 bond charge predicted
       N       E                     dE             d eps       ncg     rms          rms(c)
DAV:   1    -0.368589315817E+02    0.64142E-09    0.53484E-09  4612   0.522E-05    0.504E-07
RMM:   2    -0.368589315823E+02   -0.57264E-09    0.71564E-13  2077   0.188E-05    0.316E-07
RMM:   3    -0.368589315822E+02    0.15621E-09   -0.20726E-12  1898   0.188E-05    0.673E-08
RMM:   4    -0.368589315824E+02   -0.20850E-09   -0.90239E-13  1805   0.182E-05    0.436E-08
RMM:   5    -0.368589315822E+02    0.13108E-09   -0.10764E-12  1746   0.177E-05    0.270E-08
RMM:   6    -0.368589315821E+02    0.87766E-10   -0.81673E-13  1679   0.170E-05
   4 F= -.36858932E+02 E0= -.36858932E+02  d E =0.223963E-09
 BRION: g(F)=  0.322E-11 g(S)=  0.000E+00 retain N=  1 mean eig= 0.11
 eig:   0.109
 bond charge predicted
       N       E                     dE             d eps       ncg     rms          rms(c)
DAV:   1    -0.368589315820E+02    0.26989E-09    0.53664E-09  4440   0.240E-05    0.290E-07
RMM:   2    -0.368589315824E+02   -0.39881E-09    0.69409E-14  1322   0.807E-06    0.179E-07
RMM:   3    -0.368589315821E+02    0.29115E-09   -0.10444E-14  1306   0.799E-06    0.967E-09
RMM:   4    -0.368589315825E+02   -0.43599E-09    0.11308E-14  1280   0.798E-06    0.638E-09
RMM:   5    -0.368589315823E+02    0.15871E-09    0.18742E-13  1286   0.790E-06    0.333E-09
RMM:   6    -0.368589315823E+02    0.32969E-10   -0.91449E-14  1169   0.789E-06
   5 F= -.36858932E+02 E0= -.36858932E+02  d E =-.169848E-09
 BRION: g(F)=  0.446E-13 g(S)=  0.000E+00 retain N=  1 mean eig= 0.10
 eig:   0.097
 reached required accuracy - stopping structural energy minimisation
