    4    4  400    1
  0.5270948E+02  0.4379670E-09  0.2457219E-09  0.1959131E-08  0.5000000E-15
  1.000000000000000E-004
  CAR 
 gr                                      
     16    247     12
 
  0.0000000E+00  0.0000000E+00  0.0000000E+00  0.1157407E-02
    1      -22.081270
    2      -17.256639
    3      -15.833114
    4      -10.225851
    5       -8.806024
    6       -6.005772
    7       -5.727369
    8       -5.334527
    9       -1.185622
   10        0.544718
   11        1.342816
   12        1.736219
 
  0.4166667E-01  0.0000000E+00  0.0000000E+00  0.2314815E-02
    1      -22.071510
    2      -17.374954
    3      -15.699818
    4      -10.214271
    5       -8.796576
    6       -6.050055
    7       -5.747444
    8       -5.393268
    9       -1.111163
   10        0.557918
   11        1.356210
   12        1.749781
 
  0.8333333E-01  0.0000000E+00  0.0000000E+00  0.2314815E-02
    1      -22.042236
    2      -17.648617
    3      -15.381289
    4      -10.179547
    5       -8.768283
    6       -6.180791
    7       -5.806629
    8       -5.557632
    9       -0.899801
   10        0.597527
   11        1.396384
   12        1.790467
 
  0.1250000E+00  0.0000000E+00  0.0000000E+00  0.2314815E-02
    1      -21.993468
    2      -17.979154
    3      -14.976227
    4      -10.121739
    5       -8.721296
    6       -6.392059
    7       -5.901953
    8       -5.800364
    9       -0.579263
   10        0.663565
   11        1.463326
   12        1.858283
 
  0.1666667E+00  0.0000000E+00  0.0000000E+00  0.2314815E-02
    1      -21.925241
    2      -18.324121
    3      -14.527469
    4      -10.040943
    5       -8.655876
    6       -6.675197
    7       -6.093035
    8       -6.028956
    9       -0.178783
   10        0.756057
   11        1.557007
   12        1.953232
 
  0.2083333E+00  0.0000000E+00  0.0000000E+00  0.2314815E-02
    1      -21.837607
    2      -18.667160
    3      -14.051932
    4       -9.937304
    5       -8.572397
    6       -7.020106
    7       -6.413360
    8       -6.182255
    9        0.278194
   10        0.875017
   11        1.677385
   12        2.075317
 
  0.2500000E+00  0.0000000E+00  0.0000000E+00  0.2314815E-02
    1      -21.730629
    2      -19.001130
    3      -13.557505
    4       -9.811012
    5       -8.471360
    6       -7.416394
    7       -6.745839
    8       -6.356095
    9        0.774601
   10        1.020448
   11        1.824393
   12        2.224540
 
  0.2916667E+00  0.0000000E+00  0.0000000E+00  0.2314815E-02
    1      -21.604393
    2      -19.322443
    3      -13.048729
    4       -9.662315
    5       -8.353406
    6       -7.854188
    7       -7.080091
    8       -6.544799
    9        1.192335
   10        1.297995
   11        1.997924
   12        2.400900
 
  0.3333333E+00  0.0000000E+00  0.0000000E+00  0.2314815E-02
    1      -21.459003
    2      -19.629073
    3      -12.528823
    4       -9.491528
    5       -8.324578
    6       -8.219340
    7       -7.409159
    8       -6.743065
    9        1.390645
   10        1.838604
   11        2.197797
   12        2.604393
 
  0.3750000E+00  0.0000000E+00  0.0000000E+00  0.2314815E-02
    1      -21.294581
    2      -19.919760
    3      -12.000513
    4       -9.299050
    5       -8.819775
    6       -8.070152
    7       -7.728287
    8       -6.946126
    9        1.615333
   10        2.387261
   11        2.423669
   12        2.835010
 
  0.4166667E+00  0.0000000E+00  0.0000000E+00  0.2314815E-02
    1      -21.111280
    2      -20.193655
    3      -11.466432
    4       -9.333103
    5       -9.085376
    6       -8.034148
    7       -7.907053
    8       -7.149815
    9        1.866334
   10        2.674772
   11        2.929822
   12        3.092739
 
  0.4583333E+00  0.0000000E+00  0.0000000E+00  0.2314815E-02
    1      -20.909282
    2      -20.450156
    3      -10.929348
    4       -9.858889
    5       -8.851133
    6       -8.324346
    7       -7.731511
    8       -7.350551
    9        2.143560
   10        2.776181
   11        2.948865
   12        3.376931
 
  0.5000000E+00  0.0000000E+00  0.0000000E+00  0.1157407E-02
    1      -20.688815
    2      -20.688815
    3      -10.392332
    4      -10.392332
    5       -8.597117
    6       -8.597117
    7       -7.545300
    8       -7.545300
    9        2.446896
   10        2.446896
   11        3.235019
   12        3.235019
 
  0.0000000E+00  0.2777778E-01  0.0000000E+00  0.2314815E-02
    1      -22.067441
    2      -17.244636
    3      -15.821324
    4      -10.209439
    5       -8.869338
    6       -6.031880
    7       -5.786419
    8       -5.317840
    9       -1.188067
   10        0.563452
   11        1.361740
   12        1.755381
 
  0.4166667E-01  0.2777778E-01  0.0000000E+00  0.4629630E-02
    1      -22.057682
    2      -17.362832
    3      -15.688191
    4      -10.197862
    5       -8.859878
    6       -6.076890
    7       -5.805162
    8       -5.376695
    9       -1.113596
   10        0.576652
   11        1.375133
   12        1.768943
 
  0.8333333E-01  0.2777778E-01  0.0000000E+00  0.4629630E-02
    1      -22.028413
    2      -17.636274
    3      -15.370017
    4      -10.163150
    5       -8.831549
    6       -6.208487
    7       -5.861780
    8       -5.541327
    9       -0.902271
   10        0.616261
   11        1.415305
   12        1.809630
 
  0.1250000E+00  0.2777778E-01  0.0000000E+00  0.4629630E-02
    1      -21.979653
    2      -17.966598
    3      -14.965396
    4      -10.105361
    5       -8.784502
    6       -6.419129
    7       -5.955206
    8       -5.784349
    9       -0.581956
   10        0.682301
   11        1.482244
   12        1.877446
 
  0.1666667E+00  0.2777778E-01  0.0000000E+00  0.4629630E-02
    1      -21.911437
    2      -18.311379
    3      -14.517153
    4      -10.024593
    5       -8.718990
    6       -6.699981
    7       -6.081514
    8       -6.077247
    9       -0.181967
   10        0.774794
   11        1.575920
   12        1.972395
 
  0.2083333E+00  0.2777778E-01  0.0000000E+00  0.4629630E-02
    1      -21.823818
    2      -18.654258
    3      -14.042217
    4       -9.920988
    5       -8.635383
    6       -7.041498
    7       -6.397712
    8       -6.235082
    9        0.274226
   10        0.893758
   11        1.696294
   12        2.094482
 
  0.2500000E+00  0.2777778E-01  0.0000000E+00  0.4629630E-02
    1      -21.716859
    2      -18.988090
    3      -13.548492
    4       -9.794738
    5       -8.534174
    6       -7.433901
    7       -6.730257
    8       -6.409786
    9        0.769574
   10        1.039193
   11        1.843297
   12        2.243707
 
  0.2916667E+00  0.2777778E-01  0.0000000E+00  0.4629630E-02
    1      -21.590646
    2      -19.309284
    3      -13.040540
    4       -9.646090
    5       -8.415995
    6       -7.867761
    7       -7.064518
    8       -6.599647
    9        1.211086
   10        1.291668
   11        2.016824
   12        2.420069
 
  0.3333333E+00  0.2777778E-01  0.0000000E+00  0.4629630E-02
    1      -21.445283
    2      -19.615810
    3      -12.521604
    4       -9.475361
    5       -8.334434
    6       -8.281638
    7       -7.393556
    8       -6.799156
    9        1.409404
   10        1.830804
   11        2.216696
   12        2.623565
 
  0.3750000E+00  0.2777778E-01  0.0000000E+00  0.4629630E-02
    1      -21.280893
    2      -19.906408
    3      -11.994438
    4       -9.282946
    5       -8.826266
    6       -8.132082
    7       -7.712631
    8       -7.003425
    9        1.634101
   10        2.377992
   11        2.442574
   12        2.854186
 
  0.4166667E+00  0.2777778E-01  0.0000000E+00  0.4629630E-02
    1      -21.097629
    2      -20.180225
    3      -11.461708
    4       -9.336626
    5       -9.069342
    6       -8.018422
    7       -7.968521
    8       -7.208218
    9        1.885112
   10        2.693693
   11        2.919903
   12        3.111921
 
  0.4583333E+00  0.2777778E-01  0.0000000E+00  0.4629630E-02
    1      -20.895675
    2      -20.436658
    3      -10.926218
    4       -9.859841
    5       -8.835174
    6       -8.308543
    7       -7.792410
    8       -7.409926
    9        2.162350
   10        2.795016
   11        2.967797
   12        3.380035
 
  0.5000000E+00  0.2777778E-01  0.0000000E+00  0.2314815E-02
    1      -20.675259
    2      -20.675259
    3      -10.391080
    4      -10.391080
    5       -8.581236
    6       -8.581236
    7       -7.605505
    8       -7.605505
    9        2.465704
   10        2.465704
   11        3.253543
   12        3.253543
 
  0.0000000E+00  0.5555556E-01  0.0000000E+00  0.2314815E-02
    1      -22.025965
    2      -17.208629
    3      -15.786093
    4      -10.160237
    5       -9.054145
    6       -6.109811
    7       -5.958711
    8       -5.267800
    9       -1.196208
   10        0.619655
   11        1.418505
   12        1.812869
 
  0.4166667E-01  0.5555556E-01  0.0000000E+00  0.4629630E-02
    1      -22.016211
    2      -17.326475
    3      -15.653447
    4      -10.148672
    5       -9.044647
    6       -6.159828
    7       -5.970666
    8       -5.327007
    9       -1.121696
   10        0.632854
   11        1.431895
   12        1.826430
 
  0.8333333E-01  0.5555556E-01  0.0000000E+00  0.4629630E-02
    1      -21.986955
    2      -17.599259
    3      -15.336343
    4      -10.113995
    5       -9.016200
    6       -6.296844
    7       -6.016830
    8       -5.492467
    9       -0.910478
   10        0.672463
   11        1.472061
   12        1.867117
 
  0.1250000E+00  0.5555556E-01  0.0000000E+00  0.4629630E-02
    1      -21.938219
    2      -17.928949
    3      -14.933059
    4      -10.056264
    5       -8.968945
    6       -6.506295
    7       -6.103975
    8       -5.736376
    9       -0.590838
   10        0.738502
   11        1.538989
   12        1.934934
 
  0.1666667E+00  0.5555556E-01  0.0000000E+00  0.4629630E-02
    1      -21.870037
    2      -18.273173
    3      -14.486385
    4       -9.975579
    5       -8.903127
    6       -6.780000
    7       -6.228549
    8       -6.029964
    9       -0.192353
   10        0.830998
   11        1.632652
   12        2.029884
 
  0.2083333E+00  0.5555556E-01  0.0000000E+00  0.4629630E-02
    1      -21.782462
    2      -18.615571
    3      -14.013285
    4       -9.872079
    5       -8.819093
    6       -7.110712
    7       -6.383596
    8       -6.350857
    9        0.261443
   10        0.949967
   11        1.753009
   12        2.151973
 
  0.2500000E+00  0.5555556E-01  0.0000000E+00  0.4629630E-02
    1      -21.675559
    2      -18.948987
    3      -13.521713
    4       -9.745957
    5       -8.717312
    6       -7.490711
    7       -6.683599
    8       -6.561649
    9        0.753548
   10        1.095412
   11        1.899996
   12        2.301203
 
  0.2916667E+00  0.5555556E-01  0.0000000E+00  0.4629630E-02
    1      -21.549415
    2      -19.269822
    3      -13.016295
    4       -9.597461
    5       -8.598384
    6       -7.912017
    7       -7.017886
    8       -6.755711
    9        1.267319
   10        1.271659
   11        2.073510
   12        2.477571
 
  0.3333333E+00  0.5555556E-01  0.0000000E+00  0.4629630E-02
    1      -21.404133
    2      -19.576038
    3      -12.500351
    4       -9.426905
    5       -8.463066
    6       -8.366853
    7       -7.346831
    8       -6.959610
    9        1.465654
   10        1.806262
   11        2.273380
   12        2.681075
 
  0.3750000E+00  0.5555556E-01  0.0000000E+00  0.4629630E-02
    1      -21.239840
    2      -19.866365
    3      -11.976725
    4       -9.234684
    5       -8.847997
    6       -8.312289
    7       -7.665737
    8       -7.168061
    9        1.690371
   10        2.348835
   11        2.499275
   12        2.911707
 
  0.4166667E+00  0.5555556E-01  0.0000000E+00  0.4629630E-02
    1      -21.056689
    2      -20.139948
    3      -11.448186
    4       -9.348969
    5       -9.021292
    6       -8.147199
    7       -7.971316
    8       -7.376626
    9        1.941403
   10        2.750446
   11        2.888097
   12        3.169457
 
  0.4583333E+00  0.5555556E-01  0.0000000E+00  0.4629630E-02
    1      -20.854866
    2      -20.396179
    3      -10.917662
    4       -9.864079
    5       -8.787352
    6       -8.261202
    7       -7.969194
    8       -7.581615
    9        2.218668
   10        2.851426
   11        3.024588
   12        3.368074
 
  0.5000000E+00  0.5555556E-01  0.0000000E+00  0.2314815E-02
    1      -20.634603
    2      -20.634603
    3      -10.388396
    4      -10.388396
    5       -8.533652
    6       -8.533652
    7       -7.779976
    8       -7.779976
    9        2.522058
   10        2.522058
   11        3.308861
   12        3.308861
 
  0.0000000E+00  0.8333333E-01  0.0000000E+00  0.2314815E-02
    1      -21.956876
    2      -17.148631
    3      -15.727868
    4      -10.078351
    5       -9.346499
    6       -6.238384
    7       -6.231197
    8       -5.184473
    9       -1.212461
   10        0.713324
   11        1.513087
   12        1.908682
 
  0.4166667E-01  0.8333333E-01  0.0000000E+00  0.4629630E-02
    1      -21.947130
    2      -17.265911
    3      -15.596026
    4      -10.066806
    5       -9.336922
    6       -6.324082
    7       -6.204605
    8       -5.244300
    9       -1.137866
   10        0.726522
   11        1.526473
   12        1.922244
 
  0.8333333E-01  0.8333333E-01  0.0000000E+00  0.4629630E-02
    1      -21.917897
    2      -17.537620
    3      -15.280718
    4      -10.032190
    5       -9.308233
    6       -6.471970
    7       -6.231771
    8       -5.411213
    9       -0.926808
   10        0.766125
   11        1.566627
   12        1.962930
 
  0.1250000E+00  0.8333333E-01  0.0000000E+00  0.4629630E-02
    1      -21.869201
    2      -17.866260
    3      -14.879713
    4       -9.974560
    5       -9.260560
    6       -6.676862
    7       -6.311337
    8       -5.656669
    9       -0.608316
   10        0.832158
   11        1.633536
   12        2.030746
 
  0.1666667E+00  0.8333333E-01  0.0000000E+00  0.4629630E-02
    1      -21.801077
    2      -18.209557
    3      -14.435741
    4       -9.894015
    5       -9.194120
    6       -6.936053
    7       -6.435886
    8       -5.951448
    9       -0.212424
   10        0.924648
   11        1.727173
   12        2.125697
 
  0.2083333E+00  0.8333333E-01  0.0000000E+00  0.4629630E-02
    1      -21.713576
    2      -18.551152
    3      -13.965824
    4       -9.790696
    5       -9.109225
    6       -7.246058
    7       -6.596245
    8       -6.273070
    9        0.237231
   10        1.043615
   11        1.847500
   12        2.247787
 
  0.2500000E+00  0.8333333E-01  0.0000000E+00  0.4629630E-02
    1      -21.606767
    2      -18.883873
    3      -13.478013
    4       -9.664795
    5       -9.006295
    6       -7.602454
    7       -6.782841
    8       -6.606140
    9        0.723728
   10        1.189064
   11        1.994455
   12        2.397021
 
  0.2916667E+00  0.8333333E-01  0.0000000E+00  0.4629630E-02
    1      -21.480737
    2      -19.204107
    3      -12.977052
    4       -9.516559
    5       -8.885866
    6       -7.999855
    7       -6.986842
    8       -6.940459
    9        1.234937
   10        1.360978
   11        2.167943
   12        2.573396
 
  0.3333333E+00  0.8333333E-01  0.0000000E+00  0.4629630E-02
    1      -21.335591
    2      -19.509801
    3      -12.466404
    4       -9.346301
    5       -8.748616
    6       -8.432183
    7       -7.269234
    8       -7.200743
    9        1.559326
   10        1.761625
   11        2.367804
   12        2.776909
 
  0.3750000E+00  0.8333333E-01  0.0000000E+00  0.4629630E-02
    1      -21.171459
    2      -19.799676
    3      -11.949087
    4       -9.154414
    5       -8.893103
    6       -8.595383
    7       -7.587842
    8       -7.418472
    9        1.784057
   10        2.295891
   11        2.593728
   12        3.007554
 
  0.4166667E+00  0.8333333E-01  0.0000000E+00  0.4629630E-02
    1      -20.988497
    2      -20.072868
    3      -11.428078
    4       -9.376439
    5       -8.941388
    6       -8.427200
    7       -7.893047
    8       -7.635216
    9        2.035105
   10        2.828824
   11        2.844995
   12        3.265322
 
  0.4583333E+00  0.8333333E-01  0.0000000E+00  0.4629630E-02
    1      -20.786894
    2      -20.328757
    3      -10.906546
    4       -9.876459
    5       -8.707842
    6       -8.245335
    7       -8.182525
    8       -7.847178
    9        2.312386
   10        2.945198
   11        3.119218
   12        3.332501
 
  0.5000000E+00  0.8333333E-01  0.0000000E+00  0.2314815E-02
    1      -20.566886
    2      -20.566886
    3      -10.388010
    4      -10.388010
    5       -8.454555
    6       -8.454555
    7       -8.051351
    8       -8.051351
    9        2.615796
   10        2.615796
   11        3.399696
   12        3.399697
 
  0.0000000E+00  0.1111111E+00  0.0000000E+00  0.2314815E-02
    1      -21.860235
    2      -17.064663
    3      -15.647484
    4       -9.963962
    5       -9.727068
    6       -6.586161
    7       -6.415592
    8       -5.067969
    9       -1.240859
   10        0.844456
   11        1.645447
   12        2.042822
 
  0.4166667E-01  0.1111111E+00  0.0000000E+00  0.4629630E-02
    1      -21.850499
    2      -17.181190
    3      -15.516755
    4       -9.952447
    5       -9.717350
    6       -6.639164
    7       -6.417903
    8       -5.128744
    9       -1.166103
   10        0.857649
   11        1.658827
   12        2.056383
 
  0.8333333E-01  0.1111111E+00  0.0000000E+00  0.4629630E-02
    1      -21.821301
    2      -17.451441
    3      -15.203997
    4       -9.917919
    5       -9.688228
    6       -6.772899
    7       -6.448411
    8       -5.297861
    9       -0.955211
   10        0.897239
   11        1.698961
   12        2.097067
 
  0.1250000E+00  0.1111111E+00  0.0000000E+00  0.4629630E-02
    1      -21.772660
    2      -17.778628
    3      -14.806308
    4       -9.860436
    5       -9.639804
    6       -6.963085
    7       -6.526379
    8       -5.545633
    9       -0.638358
   10        0.963252
   11        1.765837
   12        2.164880
 
  0.1666667E+00  0.1111111E+00  0.0000000E+00  0.4629630E-02
    1      -21.704615
    2      -18.120630
    3      -14.366334
    4       -9.780097
    5       -9.572248
    6       -7.200289
    7       -6.653153
    8       -5.842167
    9       -0.246257
   10        1.055719
   11        1.859431
   12        2.259828
 
  0.2083333E+00  0.1111111E+00  0.0000000E+00  0.4629630E-02
    1      -21.617219
    2      -18.461095
    3      -13.901190
    4       -9.677043
    5       -9.485807
    6       -7.480220
    7       -6.822402
    8       -6.164843
    9        0.197315
   10        1.174663
   11        1.979706
   12        2.381917
 
  0.2500000E+00  0.1111111E+00  0.0000000E+00  0.4629630E-02
    1      -21.510543
    2      -18.792837
    3      -13.419081
    4       -9.551466
    5       -9.380807
    6       -7.800553
    7       -7.024110
    8       -6.498369
    9        0.675572
   10        1.320094
   11        2.126606
   12        2.531151
 
  0.2916667E+00  0.1111111E+00  0.0000000E+00  0.4629630E-02
    1      -21.384673
    2      -19.112221
    3      -12.924954
    4       -9.403611
    5       -9.257663
    6       -8.159364
    7       -7.247094
    8       -6.832706
    9        1.176625
   10        1.491996
   11        2.300044
   12        2.707531
 
  0.3333333E+00  0.1111111E+00  0.0000000E+00  0.4629630E-02
    1      -21.239719
    2      -19.417180
    3      -12.422524
    4       -9.233790
    5       -9.116895
    6       -8.553965
    7       -7.481053
    8       -7.161207
    9        1.690336
   10        1.691585
   11        2.499879
   12        2.911051
 
  0.3750000E+00  0.1111111E+00  0.0000000E+00  0.4629630E-02
    1      -21.075813
    2      -19.706416
    3      -11.915127
    4       -9.042394
    5       -8.980390
    6       -8.959142
    7       -7.717748
    8       -7.479356
    9        1.915059
   10        2.213179
   11        2.725839
   12        3.141707
 
  0.4166667E+00  0.1111111E+00  0.0000000E+00  0.4629630E-02
    1      -20.893116
    2      -19.979054
    3      -11.406123
    4       -9.433596
    5       -8.829908
    6       -8.785189
    7       -7.951180
    8       -7.783998
    9        2.166096
   10        2.734413
   11        2.977264
   12        3.399489
 
  0.4583333E+00  0.1111111E+00  0.0000000E+00  0.4629630E-02
    1      -20.691824
    2      -20.234464
    3      -10.899149
    4       -9.908050
    5       -8.596943
    6       -8.596007
    7       -8.177172
    8       -8.072862
    9        2.443359
   10        3.076115
   11        3.243349
   12        3.251656
 
  0.5000000E+00  0.1111111E+00  0.0000000E+00  0.2314815E-02
    1      -20.472176
    2      -20.472176
    3      -10.398266
    4      -10.398266
    5       -8.392813
    6       -8.392813
    7       -8.344268
    8       -8.344268
    9        2.746744
   10        2.746744
   11        3.518642
   12        3.518643
 
  0.0000000E+00  0.1388889E+00  0.0000000E+00  0.2314815E-02
    1      -21.736127
    2      -16.956755
    3      -15.546350
    4      -10.174670
    5       -9.817331
    6       -7.004891
    7       -6.638594
    8       -4.918444
    9       -1.286983
   10        1.013038
   11        1.815526
   12        2.215291
 
  0.4166667E-01  0.1388889E+00  0.0000000E+00  0.4629630E-02
    1      -21.726406
    2      -17.072388
    3      -15.417036
    4      -10.164709
    5       -9.805855
    6       -7.050896
    7       -6.643385
    8       -4.980598
    9       -1.211922
   10        1.026224
   11        1.828895
   12        2.228850
 
  0.8333333E-01  0.1388889E+00  0.0000000E+00  0.4629630E-02
    1      -21.697250
    2      -17.340850
    3      -15.107647
    4      -10.134843
    5       -9.771447
    6       -7.174703
    7       -6.670860
    8       -5.152878
    9       -1.001085
   10        1.065790
   11        1.868998
   12        2.269529
 
  0.1250000E+00  0.1388889E+00  0.0000000E+00  0.4629630E-02
    1      -21.648682
    2      -17.666203
    3      -14.714499
    4      -10.085123
    5       -9.714165
    6       -7.354155
    7       -6.739790
    8       -5.403911
    9       -0.686338
   10        1.131763
   11        1.935822
   12        2.337335
 
  0.1666667E+00  0.1388889E+00  0.0000000E+00  0.4629630E-02
    1      -21.580741
    2      -18.006543
    3      -14.280141
    4      -10.015636
    5       -9.634107
    6       -7.575047
    7       -6.858553
    8       -5.702862
    9       -0.299338
   10        1.224180
   11        2.029344
   12        2.432274
 
  0.2083333E+00  0.1388889E+00  0.0000000E+00  0.4629630E-02
    1      -21.493481
    2      -18.345545
    3      -13.821834
    4       -9.926497
    5       -9.531415
    6       -7.829661
    7       -7.026632
    8       -6.026946
    9        0.135991
   10        1.343070
   11        2.149530
   12        2.554355
 
  0.2500000E+00  0.1388889E+00  0.0000000E+00  0.4629630E-02
    1      -21.386973
    2      -18.676013
    3      -13.348042
    4       -9.817849
    5       -9.406280
    6       -8.114313
    7       -7.237434
    8       -6.361042
    9        0.603082
   10        1.488447
   11        2.296330
   12        2.703583
 
  0.2916667E+00  0.1388889E+00  0.0000000E+00  0.4629630E-02
    1      -21.261311
    2      -18.994292
    3      -12.864068
    4       -9.689860
    5       -9.258947
    6       -8.428104
    7       -7.480244
    8       -6.695349
    9        1.090385
   10        1.660302
   11        2.469671
   12        2.879961
 
  0.3333333E+00  0.1388889E+00  0.0000000E+00  0.4629630E-02
    1      -21.116604
    2      -19.298291
    3      -12.374096
    4       -9.542710
    5       -9.089726
    6       -8.771780
    7       -7.742209
    8       -7.023424
    9        1.589419
   10        1.858598
   11        2.669436
   12        3.083484
 
  0.3750000E+00  0.1388889E+00  0.0000000E+00  0.4629630E-02
    1      -20.952992
    2      -19.586696
    3      -11.882059
    4       -9.376596
    5       -9.146188
    6       -8.899004
    7       -8.010644
    8       -7.340905
    9        2.083277
   10        2.093488
   11        2.895416
   12        3.314146
 
  0.4166667E+00  0.1388889E+00  0.0000000E+00  0.4629630E-02
    1      -20.770639
    2      -19.858613
    3      -11.392079
    4       -9.550715
    5       -9.191733
    6       -8.687263
    7       -8.275143
    8       -7.644744
    9        2.334262
   10        2.596819
   11        3.147085
   12        3.571938
 
  0.4583333E+00  0.1388889E+00  0.0000000E+00  0.4629630E-02
    1      -20.569750
    2      -20.113400
    3      -10.908709
    4       -9.982540
    5       -8.988399
    6       -8.528627
    7       -8.455102
    8       -7.932744
    9        2.611460
   10        3.093388
   11        3.244009
   12        3.421847
 
  0.5000000E+00  0.1388889E+00  0.0000000E+00  0.2314815E-02
    1      -20.350570
    2      -20.350570
    3      -10.437031
    4      -10.437031
    5       -8.767051
    6       -8.767051
    7       -8.203276
    8       -8.203276
    9        2.914755
   10        2.914755
   11        3.558074
   12        3.558075
 
  0.0000000E+00  0.1666667E+00  0.0000000E+00  0.2314815E-02
    1      -21.584668
    2      -16.824949
    3      -15.426816
    4      -10.668535
    5       -9.638805
    6       -7.470139
    7       -6.903742
    8       -4.736107
    9       -1.357759
   10        1.219049
   11        2.023238
   12        2.426087
 
  0.4166667E-01  0.1666667E+00  0.0000000E+00  0.4629630E-02
    1      -21.574965
    2      -16.939614
    3      -15.299221
    4      -10.658158
    5       -9.627382
    6       -7.514863
    7       -6.904798
    8       -4.800241
    9       -1.282105
   10        1.232223
   11        2.036590
   12        2.439643
 
  0.8333333E-01  0.1666667E+00  0.0000000E+00  0.4629630E-02
    1      -21.545862
    2      -17.206037
    3      -14.994170
    4      -10.627011
    5       -9.593132
    6       -7.636572
    7       -6.919884
    8       -4.976986
    9       -1.070965
   10        1.271752
   11        2.076641
   12        2.480315
 
  0.1250000E+00  0.1666667E+00  0.0000000E+00  0.4629630E-02
    1      -21.497383
    2      -17.529203
    3      -14.607176
    4      -10.575048
    5       -9.536114
    6       -7.812990
    7       -6.969456
    8       -5.232498
    9       -0.758666
   10        1.337665
   11        2.143378
   12        2.548108
 
  0.1666667E+00  0.1666667E+00  0.0000000E+00  0.4629630E-02
    1      -21.429568
    2      -17.867512
    3      -14.180702
    4      -10.502180
    5       -9.456426
    6       -8.027298
    7       -7.066792
    8       -5.534658
    9       -0.378123
   10        1.429999
   11        2.236778
   12        2.643030
 
  0.2083333E+00  0.1666667E+00  0.0000000E+00  0.4629630E-02
    1      -21.342474
    2      -18.204707
    3      -13.732274
    4      -10.408250
    5       -9.354211
    6       -8.269058
    7       -7.216650
    8       -5.860530
    9        0.046636
   10        1.548791
   11        2.356807
   12        2.765092
 
  0.2500000E+00  0.1666667E+00  0.0000000E+00  0.4629630E-02
    1      -21.236176
    2      -18.533594
    3      -13.270839
    4      -10.293006
    5       -9.229660
    6       -8.532142
    7       -7.417258
    8       -6.195277
    9        0.499421
   10        1.694066
   11        2.503418
   12        2.914302
 
  0.2916667E+00  0.1666667E+00  0.0000000E+00  0.4629630E-02
    1      -21.110768
    2      -18.850496
    3      -12.802388
    4      -10.156054
    5       -9.083017
    6       -8.813551
    7       -7.661870
    8       -6.529441
    9        0.969180
   10        1.865821
   11        2.676547
   12        3.090666
 
  0.3333333E+00  0.1666667E+00  0.0000000E+00  0.4629630E-02
    1      -20.966367
    2      -19.153301
    3      -12.332043
    4       -9.996808
    5       -9.112932
    6       -8.914592
    7       -7.939953
    8       -6.856861
    9        1.447956
   10        2.064023
   11        2.876108
   12        3.294183
 
  0.3750000E+00  0.1666667E+00  0.0000000E+00  0.4629630E-02
    1      -20.803117
    2      -19.440670
    3      -11.864953
    4       -9.814451
    5       -9.432210
    6       -8.724768
    7       -8.238354
    8       -7.173383
    9        1.929636
   10        2.288609
   11        3.101975
   12        3.524845
 
  0.4166667E+00  0.1666667E+00  0.0000000E+00  0.4629630E-02
    1      -20.621193
    2      -19.711691
    3      -11.406704
    4       -9.774797
    5       -9.607980
    6       -8.542800
    7       -8.514020
    8       -7.476100
    9        2.409222
   10        2.539493
   11        3.353904
   12        3.782640
 
  0.4583333E+00  0.1666667E+00  0.0000000E+00  0.4629630E-02
    1      -20.420802
    2      -19.965702
    3      -10.963338
    4      -10.143963
    5       -9.376465
    6       -8.839978
    7       -8.282938
    8       -7.762914
    9        2.816568
   10        2.882379
   11        3.448750
   12        3.629586
 
  0.5000000E+00  0.1666667E+00  0.0000000E+00  0.2314815E-02
    1      -20.202202
    2      -20.202202
    3      -10.540840
    4      -10.540840
    5       -9.119786
    6       -9.119786
    7       -8.032258
    8       -8.032258
    9        3.119705
   10        3.119705
   11        3.344971
   12        3.344971
 