<?xml version="1.0" encoding="ISO-8859-1"?>
<modeling>
 <generator>
  <i name="program" type="string">vasp </i>
  <i name="version" type="string">5.3.5  </i>
  <i name="subversion" type="string">31Mar14 (build Mar 02 2015 18:14:16) complex                          parallel </i>
  <i name="platform" type="string">LinuxIFC </i>
  <i name="date" type="string">2018 08 09 </i>
  <i name="time" type="string">14:06:49 </i>
 </generator>
 <incar>
  <i type="string" name="SYSTEM">  gr</i>
  <i type="string" name="PREC">accurate : accuracy</i>
  <i type="string" name="ALGO"> FAST.</i>
  <i type="int" name="NELM">   100</i>
  <i type="int" name="NELMDL">    -3</i>
  <i type="int" name="NELMIN">     5</i>
  <i type="int" name="IBRION">     1</i>
  <i name="EDIFF">      0.00000000</i>
  <i name="EDIFFG">     -0.00000100</i>
  <i type="int" name="NSW">   400</i>
  <i type="int" name="ISIF">     2</i>
  <i name="ENCUT">   2000.00000000</i>
  <i type="int" name="ISMEAR">     0</i>
  <i name="SIGMA">      0.05000000</i>
  <i type="int" name="NWRITE">     2</i>
  <i type="logical" name="LWAVE"> F  </i>
  <i type="logical" name="LCHARG"> F  </i>
  <i type="int" name="NELM">   100</i>
 </incar>
 <kpoints>
  <generation param="Gamma">
   <v type="int" name="divisions">      24       36        1 </v>
   <v name="usershift">      0.00000000       0.00000000       0.00000000 </v>
   <v name="genvec1">      0.04166667       0.00000000       0.00000000 </v>
   <v name="genvec2">      0.00000000       0.02777778       0.00000000 </v>
   <v name="genvec3">      0.00000000       0.00000000       1.00000000 </v>
   <v name="shift">      0.00000000       0.00000000       0.00000000 </v>
  </generation>
  <varray name="kpointlist" >
   <v>       0.00000000       0.00000000       0.00000000 </v>
   <v>       0.04166667       0.00000000       0.00000000 </v>
   <v>       0.08333333       0.00000000       0.00000000 </v>
   <v>       0.12500000       0.00000000       0.00000000 </v>
   <v>       0.16666667       0.00000000       0.00000000 </v>
   <v>       0.20833333       0.00000000       0.00000000 </v>
   <v>       0.25000000       0.00000000       0.00000000 </v>
   <v>       0.29166667       0.00000000       0.00000000 </v>
   <v>       0.33333333       0.00000000       0.00000000 </v>
   <v>       0.37500000       0.00000000       0.00000000 </v>
   <v>       0.41666667       0.00000000       0.00000000 </v>
   <v>       0.45833333       0.00000000       0.00000000 </v>
   <v>       0.50000000       0.00000000       0.00000000 </v>
   <v>       0.00000000       0.02777778       0.00000000 </v>
   <v>       0.04166667       0.02777778       0.00000000 </v>
   <v>       0.08333333       0.02777778       0.00000000 </v>
   <v>       0.12500000       0.02777778       0.00000000 </v>
   <v>       0.16666667       0.02777778       0.00000000 </v>
   <v>       0.20833333       0.02777778       0.00000000 </v>
   <v>       0.25000000       0.02777778       0.00000000 </v>
   <v>       0.29166667       0.02777778       0.00000000 </v>
   <v>       0.33333333       0.02777778       0.00000000 </v>
   <v>       0.37500000       0.02777778       0.00000000 </v>
   <v>       0.41666667       0.02777778       0.00000000 </v>
   <v>       0.45833333       0.02777778       0.00000000 </v>
   <v>       0.50000000       0.02777778       0.00000000 </v>
   <v>       0.00000000       0.05555556       0.00000000 </v>
   <v>       0.04166667       0.05555556       0.00000000 </v>
   <v>       0.08333333       0.05555556       0.00000000 </v>
   <v>       0.12500000       0.05555556       0.00000000 </v>
   <v>       0.16666667       0.05555556       0.00000000 </v>
   <v>       0.20833333       0.05555556       0.00000000 </v>
   <v>       0.25000000       0.05555556       0.00000000 </v>
   <v>       0.29166667       0.05555556       0.00000000 </v>
   <v>       0.33333333       0.05555556       0.00000000 </v>
   <v>       0.37500000       0.05555556       0.00000000 </v>
   <v>       0.41666667       0.05555556       0.00000000 </v>
   <v>       0.45833333       0.05555556       0.00000000 </v>
   <v>       0.50000000       0.05555556       0.00000000 </v>
   <v>       0.00000000       0.08333333       0.00000000 </v>
   <v>       0.04166667       0.08333333       0.00000000 </v>
   <v>       0.08333333       0.08333333       0.00000000 </v>
   <v>       0.12500000       0.08333333       0.00000000 </v>
   <v>       0.16666667       0.08333333       0.00000000 </v>
   <v>       0.20833333       0.08333333       0.00000000 </v>
   <v>       0.25000000       0.08333333       0.00000000 </v>
   <v>       0.29166667       0.08333333       0.00000000 </v>
   <v>       0.33333333       0.08333333       0.00000000 </v>
   <v>       0.37500000       0.08333333       0.00000000 </v>
   <v>       0.41666667       0.08333333       0.00000000 </v>
   <v>       0.45833333       0.08333333       0.00000000 </v>
   <v>       0.50000000       0.08333333       0.00000000 </v>
   <v>       0.00000000       0.11111111       0.00000000 </v>
   <v>       0.04166667       0.11111111       0.00000000 </v>
   <v>       0.08333333       0.11111111       0.00000000 </v>
   <v>       0.12500000       0.11111111       0.00000000 </v>
   <v>       0.16666667       0.11111111       0.00000000 </v>
   <v>       0.20833333       0.11111111       0.00000000 </v>
   <v>       0.25000000       0.11111111       0.00000000 </v>
   <v>       0.29166667       0.11111111       0.00000000 </v>
   <v>       0.33333333       0.11111111       0.00000000 </v>
   <v>       0.37500000       0.11111111       0.00000000 </v>
   <v>       0.41666667       0.11111111       0.00000000 </v>
   <v>       0.45833333       0.11111111       0.00000000 </v>
   <v>       0.50000000       0.11111111       0.00000000 </v>
   <v>       0.00000000       0.13888889       0.00000000 </v>
   <v>       0.04166667       0.13888889       0.00000000 </v>
   <v>       0.08333333       0.13888889       0.00000000 </v>
   <v>       0.12500000       0.13888889       0.00000000 </v>
   <v>       0.16666667       0.13888889       0.00000000 </v>
   <v>       0.20833333       0.13888889       0.00000000 </v>
   <v>       0.25000000       0.13888889       0.00000000 </v>
   <v>       0.29166667       0.13888889       0.00000000 </v>
   <v>       0.33333333       0.13888889       0.00000000 </v>
   <v>       0.37500000       0.13888889       0.00000000 </v>
   <v>       0.41666667       0.13888889       0.00000000 </v>
   <v>       0.45833333       0.13888889       0.00000000 </v>
   <v>       0.50000000       0.13888889       0.00000000 </v>
   <v>       0.00000000       0.16666667       0.00000000 </v>
   <v>       0.04166667       0.16666667       0.00000000 </v>
   <v>       0.08333333       0.16666667       0.00000000 </v>
   <v>       0.12500000       0.16666667       0.00000000 </v>
   <v>       0.16666667       0.16666667       0.00000000 </v>
   <v>       0.20833333       0.16666667       0.00000000 </v>
   <v>       0.25000000       0.16666667       0.00000000 </v>
   <v>       0.29166667       0.16666667       0.00000000 </v>
   <v>       0.33333333       0.16666667       0.00000000 </v>
   <v>       0.37500000       0.16666667       0.00000000 </v>
   <v>       0.41666667       0.16666667       0.00000000 </v>
   <v>       0.45833333       0.16666667       0.00000000 </v>
   <v>       0.50000000       0.16666667       0.00000000 </v>
   <v>       0.00000000       0.19444444       0.00000000 </v>
   <v>       0.04166667       0.19444444       0.00000000 </v>
   <v>       0.08333333       0.19444444       0.00000000 </v>
   <v>       0.12500000       0.19444444       0.00000000 </v>
   <v>       0.16666667       0.19444444       0.00000000 </v>
   <v>       0.20833333       0.19444444       0.00000000 </v>
   <v>       0.25000000       0.19444444       0.00000000 </v>
   <v>       0.29166667       0.19444444       0.00000000 </v>
   <v>       0.33333333       0.19444444       0.00000000 </v>
   <v>       0.37500000       0.19444444       0.00000000 </v>
   <v>       0.41666667       0.19444444       0.00000000 </v>
   <v>       0.45833333       0.19444444       0.00000000 </v>
   <v>       0.50000000       0.19444444       0.00000000 </v>
   <v>       0.00000000       0.22222222       0.00000000 </v>
   <v>       0.04166667       0.22222222       0.00000000 </v>
   <v>       0.08333333       0.22222222       0.00000000 </v>
   <v>       0.12500000       0.22222222       0.00000000 </v>
   <v>       0.16666667       0.22222222       0.00000000 </v>
   <v>       0.20833333       0.22222222       0.00000000 </v>
   <v>       0.25000000       0.22222222       0.00000000 </v>
   <v>       0.29166667       0.22222222       0.00000000 </v>
   <v>       0.33333333       0.22222222       0.00000000 </v>
   <v>       0.37500000       0.22222222       0.00000000 </v>
   <v>       0.41666667       0.22222222       0.00000000 </v>
   <v>       0.45833333       0.22222222       0.00000000 </v>
   <v>       0.50000000       0.22222222       0.00000000 </v>
   <v>       0.00000000       0.25000000       0.00000000 </v>
   <v>       0.04166667       0.25000000       0.00000000 </v>
   <v>       0.08333333       0.25000000       0.00000000 </v>
   <v>       0.12500000       0.25000000       0.00000000 </v>
   <v>       0.16666667       0.25000000       0.00000000 </v>
   <v>       0.20833333       0.25000000       0.00000000 </v>
   <v>       0.25000000       0.25000000       0.00000000 </v>
   <v>       0.29166667       0.25000000       0.00000000 </v>
   <v>       0.33333333       0.25000000       0.00000000 </v>
   <v>       0.37500000       0.25000000       0.00000000 </v>
   <v>       0.41666667       0.25000000       0.00000000 </v>
   <v>       0.45833333       0.25000000       0.00000000 </v>
   <v>       0.50000000       0.25000000       0.00000000 </v>
   <v>       0.00000000       0.27777778       0.00000000 </v>
   <v>       0.04166667       0.27777778       0.00000000 </v>
   <v>       0.08333333       0.27777778       0.00000000 </v>
   <v>       0.12500000       0.27777778       0.00000000 </v>
   <v>       0.16666667       0.27777778       0.00000000 </v>
   <v>       0.20833333       0.27777778       0.00000000 </v>
   <v>       0.25000000       0.27777778       0.00000000 </v>
   <v>       0.29166667       0.27777778       0.00000000 </v>
   <v>       0.33333333       0.27777778       0.00000000 </v>
   <v>       0.37500000       0.27777778       0.00000000 </v>
   <v>       0.41666667       0.27777778       0.00000000 </v>
   <v>       0.45833333       0.27777778       0.00000000 </v>
   <v>       0.50000000       0.27777778       0.00000000 </v>
   <v>       0.00000000       0.30555556       0.00000000 </v>
   <v>       0.04166667       0.30555556       0.00000000 </v>
   <v>       0.08333333       0.30555556       0.00000000 </v>
   <v>       0.12500000       0.30555556       0.00000000 </v>
   <v>       0.16666667       0.30555556       0.00000000 </v>
   <v>       0.20833333       0.30555556       0.00000000 </v>
   <v>       0.25000000       0.30555556       0.00000000 </v>
   <v>       0.29166667       0.30555556       0.00000000 </v>
   <v>       0.33333333       0.30555556       0.00000000 </v>
   <v>       0.37500000       0.30555556       0.00000000 </v>
   <v>       0.41666667       0.30555556       0.00000000 </v>
   <v>       0.45833333       0.30555556       0.00000000 </v>
   <v>       0.50000000       0.30555556       0.00000000 </v>
   <v>       0.00000000       0.33333333       0.00000000 </v>
   <v>       0.04166667       0.33333333       0.00000000 </v>
   <v>       0.08333333       0.33333333       0.00000000 </v>
   <v>       0.12500000       0.33333333       0.00000000 </v>
   <v>       0.16666667       0.33333333       0.00000000 </v>
   <v>       0.20833333       0.33333333       0.00000000 </v>
   <v>       0.25000000       0.33333333       0.00000000 </v>
   <v>       0.29166667       0.33333333       0.00000000 </v>
   <v>       0.33333333       0.33333333       0.00000000 </v>
   <v>       0.37500000       0.33333333       0.00000000 </v>
   <v>       0.41666667       0.33333333       0.00000000 </v>
   <v>       0.45833333       0.33333333       0.00000000 </v>
   <v>       0.50000000       0.33333333       0.00000000 </v>
   <v>       0.00000000       0.36111111       0.00000000 </v>
   <v>       0.04166667       0.36111111       0.00000000 </v>
   <v>       0.08333333       0.36111111       0.00000000 </v>
   <v>       0.12500000       0.36111111       0.00000000 </v>
   <v>       0.16666667       0.36111111       0.00000000 </v>
   <v>       0.20833333       0.36111111       0.00000000 </v>
   <v>       0.25000000       0.36111111       0.00000000 </v>
   <v>       0.29166667       0.36111111       0.00000000 </v>
   <v>       0.33333333       0.36111111       0.00000000 </v>
   <v>       0.37500000       0.36111111       0.00000000 </v>
   <v>       0.41666667       0.36111111       0.00000000 </v>
   <v>       0.45833333       0.36111111       0.00000000 </v>
   <v>       0.50000000       0.36111111       0.00000000 </v>
   <v>       0.00000000       0.38888889       0.00000000 </v>
   <v>       0.04166667       0.38888889       0.00000000 </v>
   <v>       0.08333333       0.38888889       0.00000000 </v>
   <v>       0.12500000       0.38888889       0.00000000 </v>
   <v>       0.16666667       0.38888889       0.00000000 </v>
   <v>       0.20833333       0.38888889       0.00000000 </v>
   <v>       0.25000000       0.38888889       0.00000000 </v>
   <v>       0.29166667       0.38888889       0.00000000 </v>
   <v>       0.33333333       0.38888889       0.00000000 </v>
   <v>       0.37500000       0.38888889       0.00000000 </v>
   <v>       0.41666667       0.38888889       0.00000000 </v>
   <v>       0.45833333       0.38888889       0.00000000 </v>
   <v>       0.50000000       0.38888889       0.00000000 </v>
   <v>       0.00000000       0.41666667       0.00000000 </v>
   <v>       0.04166667       0.41666667       0.00000000 </v>
   <v>       0.08333333       0.41666667       0.00000000 </v>
   <v>       0.12500000       0.41666667       0.00000000 </v>
   <v>       0.16666667       0.41666667       0.00000000 </v>
   <v>       0.20833333       0.41666667       0.00000000 </v>
   <v>       0.25000000       0.41666667       0.00000000 </v>
   <v>       0.29166667       0.41666667       0.00000000 </v>
   <v>       0.33333333       0.41666667       0.00000000 </v>
   <v>       0.37500000       0.41666667       0.00000000 </v>
   <v>       0.41666667       0.41666667       0.00000000 </v>
   <v>       0.45833333       0.41666667       0.00000000 </v>
   <v>       0.50000000       0.41666667       0.00000000 </v>
   <v>       0.00000000       0.44444444       0.00000000 </v>
   <v>       0.04166667       0.44444444       0.00000000 </v>
   <v>       0.08333333       0.44444444       0.00000000 </v>
   <v>       0.12500000       0.44444444       0.00000000 </v>
   <v>       0.16666667       0.44444444       0.00000000 </v>
   <v>       0.20833333       0.44444444       0.00000000 </v>
   <v>       0.25000000       0.44444444       0.00000000 </v>
   <v>       0.29166667       0.44444444       0.00000000 </v>
   <v>       0.33333333       0.44444444       0.00000000 </v>
   <v>       0.37500000       0.44444444       0.00000000 </v>
   <v>       0.41666667       0.44444444       0.00000000 </v>
   <v>       0.45833333       0.44444444       0.00000000 </v>
   <v>       0.50000000       0.44444444       0.00000000 </v>
   <v>       0.00000000       0.47222222       0.00000000 </v>
   <v>       0.04166667       0.47222222       0.00000000 </v>
   <v>       0.08333333       0.47222222       0.00000000 </v>
   <v>       0.12500000       0.47222222       0.00000000 </v>
   <v>       0.16666667       0.47222222       0.00000000 </v>
   <v>       0.20833333       0.47222222       0.00000000 </v>
   <v>       0.25000000       0.47222222       0.00000000 </v>
   <v>       0.29166667       0.47222222       0.00000000 </v>
   <v>       0.33333333       0.47222222       0.00000000 </v>
   <v>       0.37500000       0.47222222       0.00000000 </v>
   <v>       0.41666667       0.47222222       0.00000000 </v>
   <v>       0.45833333       0.47222222       0.00000000 </v>
   <v>       0.50000000       0.47222222       0.00000000 </v>
   <v>       0.00000000       0.50000000       0.00000000 </v>
   <v>       0.04166667       0.50000000       0.00000000 </v>
   <v>       0.08333333       0.50000000       0.00000000 </v>
   <v>       0.12500000       0.50000000       0.00000000 </v>
   <v>       0.16666667       0.50000000       0.00000000 </v>
   <v>       0.20833333       0.50000000       0.00000000 </v>
   <v>       0.25000000       0.50000000       0.00000000 </v>
   <v>       0.29166667       0.50000000       0.00000000 </v>
   <v>       0.33333333       0.50000000       0.00000000 </v>
   <v>       0.37500000       0.50000000       0.00000000 </v>
   <v>       0.41666667       0.50000000       0.00000000 </v>
   <v>       0.45833333       0.50000000       0.00000000 </v>
   <v>       0.50000000       0.50000000       0.00000000 </v>
  </varray>
  <varray name="weights" >
   <v>       0.00115741 </v>
   <v>       0.00231481 </v>
   <v>       0.00231481 </v>
   <v>       0.00231481 </v>
   <v>       0.00231481 </v>
   <v>       0.00231481 </v>
   <v>       0.00231481 </v>
   <v>       0.00231481 </v>
   <v>       0.00231481 </v>
   <v>       0.00231481 </v>
   <v>       0.00231481 </v>
   <v>       0.00231481 </v>
   <v>       0.00115741 </v>
   <v>       0.00231481 </v>
   <v>       0.00462963 </v>
   <v>       0.00462963 </v>
   <v>       0.00462963 </v>
   <v>       0.00462963 </v>
   <v>       0.00462963 </v>
   <v>       0.00462963 </v>
   <v>       0.00462963 </v>
   <v>       0.00462963 </v>
   <v>       0.00462963 </v>
   <v>       0.00462963 </v>
   <v>       0.00462963 </v>
   <v>       0.00231481 </v>
   <v>       0.00231481 </v>
   <v>       0.00462963 </v>
   <v>       0.00462963 </v>
   <v>       0.00462963 </v>
   <v>       0.00462963 </v>
   <v>       0.00462963 </v>
   <v>       0.00462963 </v>
   <v>       0.00462963 </v>
   <v>       0.00462963 </v>
   <v>       0.00462963 </v>
   <v>       0.00462963 </v>
   <v>       0.00462963 </v>
   <v>       0.00231481 </v>
   <v>       0.00231481 </v>
   <v>       0.00462963 </v>
   <v>       0.00462963 </v>
   <v>       0.00462963 </v>
   <v>       0.00462963 </v>
   <v>       0.00462963 </v>
   <v>       0.00462963 </v>
   <v>       0.00462963 </v>
   <v>       0.00462963 </v>
   <v>       0.00462963 </v>
   <v>       0.00462963 </v>
   <v>       0.00462963 </v>
   <v>       0.00231481 </v>
   <v>       0.00231481 </v>
   <v>       0.00462963 </v>
   <v>       0.00462963 </v>
   <v>       0.00462963 </v>
   <v>       0.00462963 </v>
   <v>       0.00462963 </v>
   <v>       0.00462963 </v>
   <v>       0.00462963 </v>
   <v>       0.00462963 </v>
   <v>       0.00462963 </v>
   <v>       0.00462963 </v>
   <v>       0.00462963 </v>
   <v>       0.00231481 </v>
   <v>       0.00231481 </v>
   <v>       0.00462963 </v>
   <v>       0.00462963 </v>
   <v>       0.00462963 </v>
   <v>       0.00462963 </v>
   <v>       0.00462963 </v>
   <v>       0.00462963 </v>
   <v>       0.00462963 </v>
   <v>       0.00462963 </v>
   <v>       0.00462963 </v>
   <v>       0.00462963 </v>
   <v>       0.00462963 </v>
   <v>       0.00231481 </v>
   <v>       0.00231481 </v>
   <v>       0.00462963 </v>
   <v>       0.00462963 </v>
   <v>       0.00462963 </v>
   <v>       0.00462963 </v>
   <v>       0.00462963 </v>
   <v>       0.00462963 </v>
   <v>       0.00462963 </v>
   <v>       0.00462963 </v>
   <v>       0.00462963 </v>
   <v>       0.00462963 </v>
   <v>       0.00462963 </v>
   <v>       0.00231481 </v>
   <v>       0.00231481 </v>
   <v>       0.00462963 </v>
   <v>       0.00462963 </v>
   <v>       0.00462963 </v>
   <v>       0.00462963 </v>
   <v>       0.00462963 </v>
   <v>       0.00462963 </v>
   <v>       0.00462963 </v>
   <v>       0.00462963 </v>
   <v>       0.00462963 </v>
   <v>       0.00462963 </v>
   <v>       0.00462963 </v>
   <v>       0.00231481 </v>
   <v>       0.00231481 </v>
   <v>       0.00462963 </v>
   <v>       0.00462963 </v>
   <v>       0.00462963 </v>
   <v>       0.00462963 </v>
   <v>       0.00462963 </v>
   <v>       0.00462963 </v>
   <v>       0.00462963 </v>
   <v>       0.00462963 </v>
   <v>       0.00462963 </v>
   <v>       0.00462963 </v>
   <v>       0.00462963 </v>
   <v>       0.00231481 </v>
   <v>       0.00231481 </v>
   <v>       0.00462963 </v>
   <v>       0.00462963 </v>
   <v>       0.00462963 </v>
   <v>       0.00462963 </v>
   <v>       0.00462963 </v>
   <v>       0.00462963 </v>
   <v>       0.00462963 </v>
   <v>       0.00462963 </v>
   <v>       0.00462963 </v>
   <v>       0.00462963 </v>
   <v>       0.00462963 </v>
   <v>       0.00231481 </v>
   <v>       0.00231481 </v>
   <v>       0.00462963 </v>
   <v>       0.00462963 </v>
   <v>       0.00462963 </v>
   <v>       0.00462963 </v>
   <v>       0.00462963 </v>
   <v>       0.00462963 </v>
   <v>       0.00462963 </v>
   <v>       0.00462963 </v>
   <v>       0.00462963 </v>
   <v>       0.00462963 </v>
   <v>       0.00462963 </v>
   <v>       0.00231481 </v>
   <v>       0.00231481 </v>
   <v>       0.00462963 </v>
   <v>       0.00462963 </v>
   <v>       0.00462963 </v>
   <v>       0.00462963 </v>
   <v>       0.00462963 </v>
   <v>       0.00462963 </v>
   <v>       0.00462963 </v>
   <v>       0.00462963 </v>
   <v>       0.00462963 </v>
   <v>       0.00462963 </v>
   <v>       0.00462963 </v>
   <v>       0.00231481 </v>
   <v>       0.00231481 </v>
   <v>       0.00462963 </v>
   <v>       0.00462963 </v>
   <v>       0.00462963 </v>
   <v>       0.00462963 </v>
   <v>       0.00462963 </v>
   <v>       0.00462963 </v>
   <v>       0.00462963 </v>
   <v>       0.00462963 </v>
   <v>       0.00462963 </v>
   <v>       0.00462963 </v>
   <v>       0.00462963 </v>
   <v>       0.00231481 </v>
   <v>       0.00231481 </v>
   <v>       0.00462963 </v>
   <v>       0.00462963 </v>
   <v>       0.00462963 </v>
   <v>       0.00462963 </v>
   <v>       0.00462963 </v>
   <v>       0.00462963 </v>
   <v>       0.00462963 </v>
   <v>       0.00462963 </v>
   <v>       0.00462963 </v>
   <v>       0.00462963 </v>
   <v>       0.00462963 </v>
   <v>       0.00231481 </v>
   <v>       0.00231481 </v>
   <v>       0.00462963 </v>
   <v>       0.00462963 </v>
   <v>       0.00462963 </v>
   <v>       0.00462963 </v>
   <v>       0.00462963 </v>
   <v>       0.00462963 </v>
   <v>       0.00462963 </v>
   <v>       0.00462963 </v>
   <v>       0.00462963 </v>
   <v>       0.00462963 </v>
   <v>       0.00462963 </v>
   <v>       0.00231481 </v>
   <v>       0.00231481 </v>
   <v>       0.00462963 </v>
   <v>       0.00462963 </v>
   <v>       0.00462963 </v>
   <v>       0.00462963 </v>
   <v>       0.00462963 </v>
   <v>       0.00462963 </v>
   <v>       0.00462963 </v>
   <v>       0.00462963 </v>
   <v>       0.00462963 </v>
   <v>       0.00462963 </v>
   <v>       0.00462963 </v>
   <v>       0.00231481 </v>
   <v>       0.00231481 </v>
   <v>       0.00462963 </v>
   <v>       0.00462963 </v>
   <v>       0.00462963 </v>
   <v>       0.00462963 </v>
   <v>       0.00462963 </v>
   <v>       0.00462963 </v>
   <v>       0.00462963 </v>
   <v>       0.00462963 </v>
   <v>       0.00462963 </v>
   <v>       0.00462963 </v>
   <v>       0.00462963 </v>
   <v>       0.00231481 </v>
   <v>       0.00231481 </v>
   <v>       0.00462963 </v>
   <v>       0.00462963 </v>
   <v>       0.00462963 </v>
   <v>       0.00462963 </v>
   <v>       0.00462963 </v>
   <v>       0.00462963 </v>
   <v>       0.00462963 </v>
   <v>       0.00462963 </v>
   <v>       0.00462963 </v>
   <v>       0.00462963 </v>
   <v>       0.00462963 </v>
   <v>       0.00231481 </v>
   <v>       0.00115741 </v>
   <v>       0.00231481 </v>
   <v>       0.00231481 </v>
   <v>       0.00231481 </v>
   <v>       0.00231481 </v>
   <v>       0.00231481 </v>
   <v>       0.00231481 </v>
   <v>       0.00231481 </v>
   <v>       0.00231481 </v>
   <v>       0.00231481 </v>
   <v>       0.00231481 </v>
   <v>       0.00231481 </v>
   <v>       0.00115741 </v>
  </varray>
 </kpoints>
 <parameters>
  <separator name="general" >
   <i type="string" name="SYSTEM">gr</i>
   <i type="logical" name="LCOMPAT"> F  </i>
  </separator>
  <separator name="electronic" >
   <i type="string" name="PREC">accura</i>
   <i name="ENMAX">   2000.00000000</i>
   <i name="ENAUG">    644.87300000</i>
   <i name="EDIFF">      0.00000000</i>
   <i type="int" name="IALGO">    68</i>
   <i type="int" name="IWAVPR">    11</i>
   <i type="int" name="NBANDS">    12</i>
   <i name="NELECT">     16.00000000</i>
   <i type="int" name="TURBO">     0</i>
   <i type="int" name="IRESTART">     0</i>
   <i type="int" name="NREBOOT">     0</i>
   <i type="int" name="NMIN">     0</i>
   <i name="EREF">      0.00000000</i>
   <separator name="electronic smearing" >
    <i type="int" name="ISMEAR">     0</i>
    <i name="SIGMA">      0.05000000</i>
    <i name="KSPACING">      0.50000000</i>
    <i type="logical" name="KGAMMA"> T  </i>
   </separator>
   <separator name="electronic projectors" >
    <i type="logical" name="LREAL"> F  </i>
    <v name="ROPT">      0.00000000</v>
    <i type="int" name="LMAXPAW">  -100</i>
    <i type="int" name="LMAXMIX">     2</i>
    <i type="logical" name="NLSPLINE"> F  </i>
   </separator>
   <separator name="electronic startup" >
    <i type="int" name="ISTART">     0</i>
    <i type="int" name="ICHARG">     2</i>
    <i type="int" name="INIWAV">     1</i>
   </separator>
   <separator name="electronic spin" >
    <i type="int" name="ISPIN">     1</i>
    <i type="logical" name="LNONCOLLINEAR"> F  </i>
    <v name="MAGMOM">      1.00000000      1.00000000      1.00000000      1.00000000</v>
    <i name="NUPDOWN">     -1.00000000</i>
    <i type="logical" name="LSORBIT"> F  </i>
    <v name="SAXIS">      0.00000000      0.00000000      1.00000000</v>
    <i type="logical" name="LSPIRAL"> F  </i>
    <v name="QSPIRAL">      0.00000000      0.00000000      0.00000000</v>
    <i type="logical" name="LZEROZ"> F  </i>
   </separator>
   <separator name="electronic exchange-correlation" >
    <i type="logical" name="LASPH"> F  </i>
    <i type="logical" name="LMETAGGA"> F  </i>
   </separator>
   <separator name="electronic convergence" >
    <i type="int" name="NELM">   100</i>
    <i type="int" name="NELMDL">    -3</i>
    <i type="int" name="NELMIN">     5</i>
    <i name="ENINI">   2000.00000000</i>
    <separator name="electronic convergence detail" >
     <i type="logical" name="LDIAG"> T  </i>
     <i type="logical" name="LSUBROT"> F  </i>
     <i name="WEIMIN">      0.00100000</i>
     <i name="EBREAK">      0.00000000</i>
     <i name="DEPER">      0.30000000</i>
     <i type="int" name="NRMM">     4</i>
     <i name="TIME">      0.40000000</i>
    </separator>
   </separator>
   <separator name="electronic mixer" >
    <i name="AMIX">      0.40000000</i>
    <i name="BMIX">      1.00000000</i>
    <i name="AMIN">      0.10000000</i>
    <i name="AMIX_MAG">      1.60000000</i>
    <i name="BMIX_MAG">      1.00000000</i>
    <separator name="electronic mixer details" >
     <i type="int" name="IMIX">     4</i>
     <i type="int" name="MAXMIX">   -45</i>
     <i name="WC">    100.00000000</i>
     <i type="int" name="INIMIX">     1</i>
     <i type="int" name="MIXPRE">     1</i>
     <i type="int" name="MREMOVE">     5</i>
    </separator>
   </separator>
   <separator name="electronic dipolcorrection" >
    <i type="logical" name="LDIPOL"> F  </i>
    <i type="logical" name="LMONO"> F  </i>
    <i type="int" name="IDIPOL">     0</i>
    <i name="EPSILON">      1.00000000</i>
    <v name="DIPOL">   -100.00000000   -100.00000000   -100.00000000</v>
    <i name="EFIELD">      0.00000000</i>
   </separator>
  </separator>
  <separator name="grids" >
   <i type="int" name="NGX">    64</i>
   <i type="int" name="NGY">    36</i>
   <i type="int" name="NGZ">   288</i>
   <i type="int" name="NGXF">   128</i>
   <i type="int" name="NGYF">    72</i>
   <i type="int" name="NGZF">   576</i>
   <i type="logical" name="ADDGRID"> F  </i>
  </separator>
  <separator name="ionic" >
   <i type="int" name="NSW">   400</i>
   <i type="int" name="IBRION">     1</i>
   <i type="int" name="ISIF">     2</i>
   <i name="PSTRESS">      0.00000000</i>
   <i name="EDIFFG">     -0.00000100</i>
   <i type="int" name="NFREE">     0</i>
   <i name="POTIM">      0.50000000</i>
   <i name="SMASS">     -3.00000000</i>
   <i name="SCALEE">      1.00000000</i>
  </separator>
  <separator name="ionic md" >
   <i name="TEBEG">      0.00010000</i>
   <i name="TEEND">      0.00010000</i>
   <i type="int" name="NBLOCK">     1</i>
   <i type="int" name="KBLOCK">   400</i>
   <i type="int" name="NPACO">   256</i>
   <i name="APACO">     16.00000000</i>
  </separator>
  <separator name="symmetry" >
   <i type="int" name="ISYM">     2</i>
   <i name="SYMPREC">      0.00001000</i>
  </separator>
  <separator name="dos" >
   <i type="logical" name="LORBIT"> F  </i>
   <v name="RWIGS">     -1.00000000</v>
   <i type="int" name="NEDOS">   301</i>
   <i name="EMIN">     10.00000000</i>
   <i name="EMAX">    -10.00000000</i>
   <i name="EFERMI">      0.00000000</i>
  </separator>
  <separator name="writing" >
   <i type="int" name="NWRITE">     2</i>
   <i type="logical" name="LWAVE"> F  </i>
   <i type="logical" name="LCHARG"> F  </i>
   <i type="logical" name="LPARD"> F  </i>
   <i type="logical" name="LVTOT"> F  </i>
   <i type="logical" name="LVHAR"> F  </i>
   <i type="logical" name="LELF"> F  </i>
   <i type="logical" name="LOPTICS"> F  </i>
   <v name="STM">      0.00000000      0.00000000      0.00000000      0.00000000      0.00000000      0.00000000      0.00000000</v>
  </separator>
  <separator name="performance" >
   <i type="int" name="NPAR">     4</i>
   <i type="int" name="NSIM">     4</i>
   <i type="int" name="NBLK">    -1</i>
   <i type="logical" name="LPLANE"> T  </i>
   <i type="logical" name="LSCALAPACK"> F  </i>
   <i type="logical" name="LSCAAWARE"> F  </i>
   <i type="logical" name="LSCALU"> F  </i>
   <i type="logical" name="LASYNC"> F  </i>
   <i type="logical" name="LORBITALREAL"> F  </i>
  </separator>
  <separator name="miscellaneous" >
   <i type="int" name="IDIOT">     3</i>
   <i type="logical" name="LMUSIC"> F  </i>
   <v name="POMASS">     12.01100000</v>
   <v name="DARWINR">      0.00000000</v>
   <v name="DARWINV">      1.00000000</v>
   <i type="logical" name="LCORR"> T  </i>
  </separator>
  <i type="logical" name="GGA_COMPAT"> T  </i>
  <i type="logical" name="LBERRY"> F  </i>
  <i type="int" name="ICORELEVEL">     0</i>
  <i type="logical" name="LDAU"> F  </i>
  <i type="int" name="I_CONSTRAINED_M">     0</i>
  <separator name="electronic exchange-correlation" >
   <i type="string" name="GGA">--</i>
   <i type="int" name="VOSKOWN">     0</i>
   <i type="logical" name="LHFCALC"> F  </i>
   <i type="string" name="PRECFOCK"></i>
   <i type="logical" name="LSYMGRAD"> F  </i>
   <i type="logical" name="LHFONE"> F  </i>
   <i type="logical" name="LRHFCALC"> F  </i>
   <i type="logical" name="LTHOMAS"> F  </i>
   <i type="logical" name="LMODELHF"> F  </i>
   <i name="ENCUT4O">     -1.00000000</i>
   <i type="int" name="EXXOEP">     0</i>
   <i type="int" name="FOURORBIT">     0</i>
   <i name="AEXX">      0.00000000</i>
   <i name="HFALPHA">      0.00000000</i>
   <i name="MCALPHA">      0.00000000</i>
   <i name="ALDAX">      1.00000000</i>
   <i name="AGGAX">      1.00000000</i>
   <i name="ALDAC">      1.00000000</i>
   <i name="AGGAC">      1.00000000</i>
   <i type="int" name="NKREDX">     1</i>
   <i type="int" name="NKREDY">     1</i>
   <i type="int" name="NKREDZ">     1</i>
   <i type="logical" name="SHIFTRED"> F  </i>
   <i type="logical" name="ODDONLY"> F  </i>
   <i type="logical" name="EVENONLY"> F  </i>
   <i type="int" name="LMAXFOCK">     0</i>
   <i type="int" name="NMAXFOCKAE">     0</i>
   <i type="logical" name="LFOCKAEDFT"> F  </i>
   <i name="HFSCREEN">      0.00000000</i>
   <i name="HFSCREENC">      0.00000000</i>
   <i type="int" name="NBANDSGWLOW">     0</i>
  </separator>
  <separator name="vdW DFT" >
   <i type="logical" name="LUSE_VDW"> F  </i>
   <i name="Zab_VDW">     -0.84910000</i>
   <i name="PARAM1">      0.12340000</i>
   <i name="PARAM2">      1.00000000</i>
   <i name="PARAM3">      0.00000000</i>
  </separator>
  <separator name="model GW" >
   <i type="int" name="MODEL_GW">     0</i>
   <i name="MODEL_EPS0">     31.62568521</i>
   <i name="MODEL_ALPHA">      1.00000000</i>
  </separator>
  <separator name="linear response parameters" >
   <i type="logical" name="LEPSILON"> F  </i>
   <i type="logical" name="LRPA"> F  </i>
   <i type="logical" name="LNABLA"> F  </i>
   <i type="logical" name="LVEL"> F  </i>
   <i type="int" name="KINTER">     0</i>
   <i name="CSHIFT">      0.10000000</i>
   <i name="OMEGAMAX">     -1.00000000</i>
   <i name="DEG_THRESHOLD">      0.00200000</i>
  </separator>
  <separator name="orbital magnetization" >
   <i type="logical" name="NUCIND"> F  </i>
   <v name="MAGPOS">      0.00000000      0.00000000      0.00000000</v>
   <i type="logical" name="LNICSALL"> T  </i>
   <i type="logical" name="ORBITALMAG"> F  </i>
   <i type="logical" name="LMAGBLOCH"> F  </i>
   <i type="logical" name="LCHIMAG"> F  </i>
   <i type="logical" name="LGAUGE"> T  </i>
   <i type="int" name="MAGATOM">     0</i>
   <v name="MAGDIPOL">      0.00000000      0.00000000      0.00000000</v>
   <v name="AVECCONST">      0.00000000      0.00000000      0.00000000</v>
  </separator>
  <separator name="response functions" >
   <i type="logical" name="LADDER"> F  </i>
   <i type="logical" name="LFXC"> F  </i>
   <i type="logical" name="LHARTREE"> T  </i>
   <i type="int" name="IBSE">     0</i>
   <i type="logical" name="LTCTE"> F  </i>
   <i type="logical" name="LTETE"> F  </i>
   <i type="logical" name="LTRIPLET"> F  </i>
   <i type="logical" name="LFXCEPS"> F  </i>
   <i type="logical" name="LFXHEG"> F  </i>
   <i type="logical" name="L2ORDER"> F  </i>
   <i type="logical" name="LUSEW"> F  </i>
   <i name="ENCUTGW">     -2.00000000</i>
   <i name="ENCUTGWSOFT">     -2.00000000</i>
   <i name="ENCUTLF">     -1.00000000</i>
   <i type="int" name="LMAXMP2">    -1</i>
   <i name="SCISSOR">      0.00000000</i>
   <i type="int" name="NOMEGA">     0</i>
   <i type="int" name="NOMEGAR">     0</i>
   <i type="int" name="NBANDSGW">    -1</i>
   <i type="int" name="NBANDSO">    -1</i>
   <i type="int" name="NBANDSV">    -1</i>
   <i type="int" name="NELM">   100</i>
   <i type="int" name="DIM">     3</i>
   <i type="int" name="ANTIRES">     0</i>
   <i name="OMEGAMAX">    -30.00000000</i>
   <i name="OMEGAMIN">    -30.00000000</i>
   <i name="OMEGATL">   -200.00000000</i>
   <i type="int" name="OMEGAGRID">     0</i>
   <i name="CSHIFT">     -0.10000000</i>
   <i type="logical" name="SELFENERGY"> F  </i>
   <i type="logical" name="LSPECTRAL"> F  </i>
   <i type="logical" name="ODDONLYGW"> F  </i>
   <i type="logical" name="EVENONLYGW"> F  </i>
   <i type="int" name="NKREDLFX">     1</i>
   <i type="int" name="NKREDLFY">     1</i>
   <i type="int" name="NKREDLFZ">     1</i>
   <i type="int" name="MAXMEM">  1800</i>
   <i type="int" name="TELESCOPE">     0</i>
   <i type="int" name="TAUPAR">     1</i>
  </separator>
  <separator name="External order field" >
   <i name="OFIELD_KAPPA">      0.00000000</i>
   <v name="OFIELD_K">      0.00000000      0.00000000      0.00000000</v>
   <i name="OFIELD_Q6_NEAR">      0.00000000</i>
   <i name="OFIELD_Q6_FAR">      0.00000000</i>
   <i name="OFIELD_A">      0.00000000</i>
  </separator>
 </parameters>
 <atominfo>
  <atoms>       4 </atoms>
  <types>       1 </types>
  <array name="atoms" >
   <dimension dim="1">ion</dimension>
   <field type="string">element</field>
   <field type="int">atomtype</field>
   <set>
    <rc><c>C </c><c>   1</c></rc>
    <rc><c>C </c><c>   1</c></rc>
    <rc><c>C </c><c>   1</c></rc>
    <rc><c>C </c><c>   1</c></rc>
   </set>
  </array>
  <array name="atomtypes" >
   <dimension dim="1">type</dimension>
   <field type="int">atomspertype</field>
   <field type="string">element</field>
   <field>mass</field>
   <field>valence</field>
   <field type="string">pseudopotential</field>
   <set>
    <rc><c>   4</c><c>C </c><c>     12.01100000</c><c>      4.00000000</c><c> PAW_PBE C 08Apr2002                    </c></rc>
   </set>
  </array>
 </atominfo>
 <structure name="initialpos" >
  <crystal>
   <varray name="basis" >
    <v>       4.37966960       0.00000000       0.00000000 </v>
    <v>       0.00000000       2.45721886       0.00000000 </v>
    <v>       0.00000000       0.00000000      19.59131092 </v>
   </varray>
   <i name="volume">    210.83790140 </i>
   <varray name="rec_basis" >
    <v>       0.22832773       0.00000000       0.00000000 </v>
    <v>       0.00000000       0.40696416       0.00000000 </v>
    <v>       0.00000000       0.00000000       0.05104304 </v>
   </varray>
  </crystal>
  <varray name="positions" >
   <v>       0.99945869       0.00000000       0.00000000 </v>
   <v>       0.16720798       0.50000000       0.00000000 </v>
   <v>       0.49945869       0.50000000       0.00000000 </v>
   <v>       0.66720798       0.00000000       0.00000000 </v>
  </varray>
 </structure>
 <calculation>
  <scstep>
   <time name="dav">  289.05  289.77</time>
   <time name="total">  291.63  292.37</time>
   <energy>
    <i name="alphaZ">      6.18334092 </i>
    <i name="ewald">   2449.77667309 </i>
    <i name="hartreedc">  -2879.26110283 </i>
    <i name="XCdc">     54.81777040 </i>
    <i name="pawpsdc">    151.32577238 </i>
    <i name="pawaedc">   -155.92769107 </i>
    <i name="eentropy">     -0.00204261 </i>
    <i name="bandstr">    -27.38286473 </i>
    <i name="atom">    588.62352690 </i>
    <i name="e_fr_energy">    188.15338245 </i>
    <i name="e_wo_entrp">    188.15542506 </i>
    <i name="e_0_energy">    188.15440376 </i>
   </energy>
  </scstep>
  <scstep>
   <time name="dav">  437.03  437.66</time>
   <time name="total">  437.04  437.67</time>
   <energy>
    <i name="e_fr_energy">     -9.45015596 </i>
    <i name="e_wo_entrp">     -9.44973809 </i>
    <i name="e_0_energy">     -9.44994702 </i>
   </energy>
  </scstep>
  <scstep>
   <time name="dav">  336.66  336.82</time>
   <time name="total">  366.68  367.13</time>
   <energy>
    <i name="e_fr_energy">    -38.14002321 </i>
    <i name="e_wo_entrp">    -38.14002320 </i>
    <i name="e_0_energy">    -38.14002320 </i>
   </energy>
  </scstep>
  <scstep>
   <time name="diag">   78.62   78.64</time>
   <time name="diis">  333.08  333.17</time>
   <time name="orth">    3.08    3.08</time>
   <time name="total">  447.24  447.60</time>
   <energy>
    <i name="e_fr_energy">    -37.57149115 </i>
    <i name="e_wo_entrp">    -37.57149114 </i>
    <i name="e_0_energy">    -37.57149114 </i>
   </energy>
  </scstep>
  <scstep>
   <time name="diag">   78.61   78.63</time>
   <time name="diis">  329.61  329.75</time>
   <time name="orth">    3.08    3.08</time>
   <time name="total">  443.59  444.19</time>
   <energy>
    <i name="e_fr_energy">    -36.86756990 </i>
    <i name="e_wo_entrp">    -36.86756987 </i>
    <i name="e_0_energy">    -36.86756989 </i>
   </energy>
  </scstep>
  <scstep>
   <time name="diag">   78.19   78.59</time>
   <time name="diis">  361.93  362.28</time>
   <time name="orth">    3.08    3.08</time>
   <time name="total">  475.60  476.45</time>
   <energy>
    <i name="e_fr_energy">    -36.86968966 </i>
    <i name="e_wo_entrp">    -36.86968964 </i>
    <i name="e_0_energy">    -36.86968965 </i>
   </energy>
  </scstep>
  <scstep>
   <time name="diag">   78.64   78.66</time>
   <time name="diis">  327.48  328.11</time>
   <time name="orth">    3.09    3.09</time>
   <time name="total">  441.61  442.37</time>
   <energy>
    <i name="e_fr_energy">    -36.86093829 </i>
    <i name="e_wo_entrp">    -36.86093828 </i>
    <i name="e_0_energy">    -36.86093829 </i>
   </energy>
  </scstep>
  <scstep>
   <time name="diag">   78.56   78.60</time>
   <time name="diis">  329.35  329.45</time>
   <time name="orth">    3.10    3.10</time>
   <time name="total">  443.49  443.64</time>
   <energy>
    <i name="e_fr_energy">    -36.85617776 </i>
    <i name="e_wo_entrp">    -36.85617774 </i>
    <i name="e_0_energy">    -36.85617775 </i>
   </energy>
  </scstep>
  <scstep>
   <time name="diag">   78.56   78.62</time>
   <time name="diis">  316.68  316.97</time>
   <time name="orth">    3.09    3.09</time>
   <time name="total">  430.81  431.19</time>
   <energy>
    <i name="e_fr_energy">    -36.85588015 </i>
    <i name="e_wo_entrp">    -36.85588013 </i>
    <i name="e_0_energy">    -36.85588014 </i>
   </energy>
  </scstep>
  <scstep>
   <time name="diag">   78.51   78.59</time>
   <time name="diis">  317.98  318.28</time>
   <time name="orth">    3.07    3.07</time>
   <time name="total">  432.07  432.48</time>
   <energy>
    <i name="e_fr_energy">    -36.85578684 </i>
    <i name="e_wo_entrp">    -36.85578682 </i>
    <i name="e_0_energy">    -36.85578683 </i>
   </energy>
  </scstep>
  <scstep>
   <time name="diag">   78.15   78.63</time>
   <time name="diis">  319.80  320.09</time>
   <time name="orth">    3.07    3.07</time>
   <time name="total">  433.48  434.32</time>
   <energy>
    <i name="e_fr_energy">    -36.85806349 </i>
    <i name="e_wo_entrp">    -36.85806347 </i>
    <i name="e_0_energy">    -36.85806348 </i>
   </energy>
  </scstep>
  <scstep>
   <time name="diag">   78.53   78.58</time>
   <time name="diis">  319.73  320.04</time>
   <time name="orth">    3.07    3.07</time>
   <time name="total">  433.73  434.66</time>
   <energy>
    <i name="e_fr_energy">    -36.85856111 </i>
    <i name="e_wo_entrp">    -36.85856109 </i>
    <i name="e_0_energy">    -36.85856110 </i>
   </energy>
  </scstep>
  <scstep>
   <time name="diag">   78.54   78.59</time>
   <time name="diis">  326.12  326.20</time>
   <time name="orth">    3.07    3.07</time>
   <time name="total">  440.15  440.38</time>
   <energy>
    <i name="e_fr_energy">    -36.85881573 </i>
    <i name="e_wo_entrp">    -36.85881571 </i>
    <i name="e_0_energy">    -36.85881572 </i>
   </energy>
  </scstep>
  <scstep>
   <time name="diag">   78.50   78.53</time>
   <time name="diis">  323.05  323.21</time>
   <time name="orth">    3.08    3.08</time>
   <time name="total">  437.10  437.63</time>
   <energy>
    <i name="e_fr_energy">    -36.85889783 </i>
    <i name="e_wo_entrp">    -36.85889781 </i>
    <i name="e_0_energy">    -36.85889782 </i>
   </energy>
  </scstep>
  <scstep>
   <time name="diag">   78.48   78.55</time>
   <time name="diis">  318.41  318.74</time>
   <time name="orth">    3.09    3.09</time>
   <time name="total">  432.41  434.06</time>
   <energy>
    <i name="e_fr_energy">    -36.85891085 </i>
    <i name="e_wo_entrp">    -36.85891083 </i>
    <i name="e_0_energy">    -36.85891084 </i>
   </energy>
  </scstep>
  <scstep>
   <time name="diag">   78.39   78.61</time>
   <time name="diis">  315.93  317.77</time>
   <time name="orth">    3.06    3.09</time>
   <time name="total">  429.67  431.94</time>
   <energy>
    <i name="e_fr_energy">    -36.85892383 </i>
    <i name="e_wo_entrp">    -36.85892381 </i>
    <i name="e_0_energy">    -36.85892382 </i>
   </energy>
  </scstep>
  <scstep>
   <time name="diag">   78.18   78.57</time>
   <time name="diis">  316.84  318.10</time>
   <time name="orth">    3.07    3.07</time>
   <time name="total">  430.53  432.25</time>
   <energy>
    <i name="e_fr_energy">    -36.85892972 </i>
    <i name="e_wo_entrp">    -36.85892970 </i>
    <i name="e_0_energy">    -36.85892971 </i>
   </energy>
  </scstep>
  <scstep>
   <time name="diag">   78.53   78.57</time>
   <time name="diis">  320.59  320.89</time>
   <time name="orth">    3.06    3.07</time>
   <time name="total">  434.64  435.02</time>
   <energy>
    <i name="e_fr_energy">    -36.85893074 </i>
    <i name="e_wo_entrp">    -36.85893072 </i>
    <i name="e_0_energy">    -36.85893073 </i>
   </energy>
  </scstep>
  <scstep>
   <time name="diag">   78.38   78.41</time>
   <time name="diis">  316.90  316.98</time>
   <time name="orth">    3.08    3.08</time>
   <time name="total">  430.80  431.44</time>
   <energy>
    <i name="e_fr_energy">    -36.85893149 </i>
    <i name="e_wo_entrp">    -36.85893147 </i>
    <i name="e_0_energy">    -36.85893148 </i>
   </energy>
  </scstep>
  <scstep>
   <time name="diag">   78.38   78.40</time>
   <time name="diis">  250.57  251.23</time>
   <time name="orth">    3.08    3.09</time>
   <time name="total">  364.52  365.38</time>
   <energy>
    <i name="e_fr_energy">    -36.85893153 </i>
    <i name="e_wo_entrp">    -36.85893151 </i>
    <i name="e_0_energy">    -36.85893152 </i>
   </energy>
  </scstep>
  <scstep>
   <time name="diag">   78.34   78.37</time>
   <time name="diis">  242.88  242.95</time>
   <time name="orth">    3.07    3.07</time>
   <time name="total">  356.79  356.91</time>
   <energy>
    <i name="e_fr_energy">    -36.85893154 </i>
    <i name="e_wo_entrp">    -36.85893152 </i>
    <i name="e_0_energy">    -36.85893153 </i>
   </energy>
  </scstep>
  <scstep>
   <time name="diag">   78.35   78.37</time>
   <time name="diis">  221.35  221.57</time>
   <time name="orth">    3.07    3.07</time>
   <time name="total">  335.25  335.52</time>
   <energy>
    <i name="e_fr_energy">    -36.85893154 </i>
    <i name="e_wo_entrp">    -36.85893152 </i>
    <i name="e_0_energy">    -36.85893153 </i>
   </energy>
  </scstep>
  <scstep>
   <time name="diag">   78.29   78.31</time>
   <time name="diis">  211.84  212.31</time>
   <time name="orth">    3.07    3.08</time>
   <time name="total">  325.53  326.27</time>
   <energy>
    <i name="e_fr_energy">    -36.85893154 </i>
    <i name="e_wo_entrp">    -36.85893152 </i>
    <i name="e_0_energy">    -36.85893153 </i>
   </energy>
  </scstep>
  <scstep>
   <time name="diag">   78.29   78.52</time>
   <time name="diis">  196.98  197.03</time>
   <time name="orth">    3.09    3.09</time>
   <time name="total">  310.81  311.18</time>
   <energy>
    <i name="e_fr_energy">    -36.85893154 </i>
    <i name="e_wo_entrp">    -36.85893152 </i>
    <i name="e_0_energy">    -36.85893153 </i>
   </energy>
  </scstep>
  <scstep>
   <time name="diag">   78.48   78.50</time>
   <time name="diis">  187.28  187.87</time>
   <time name="orth">    3.07    3.07</time>
   <time name="total">  271.35  271.96</time>
   <energy>
    <i name="alphaZ">      6.18334092 </i>
    <i name="ewald">   2449.77667309 </i>
    <i name="hartreedc">  -2944.06102751 </i>
    <i name="XCdc">     57.14256074 </i>
    <i name="pawpsdc">    268.83931186 </i>
    <i name="pawaedc">   -273.95089269 </i>
    <i name="eentropy">     -0.00000002 </i>
    <i name="bandstr">   -189.41242485 </i>
    <i name="atom">    588.62352690 </i>
    <i name="e_fr_energy">    -36.85893154 </i>
    <i name="e_wo_entrp">    -36.85893152 </i>
    <i name="e_0_energy">    -36.85893153 </i>
   </energy>
  </scstep>
  <structure>
   <crystal>
    <varray name="basis" >
     <v>       4.37966960       0.00000000       0.00000000 </v>
     <v>       0.00000000       2.45721886       0.00000000 </v>
     <v>       0.00000000       0.00000000      19.59131092 </v>
    </varray>
    <i name="volume">    210.83790140 </i>
    <varray name="rec_basis" >
     <v>       0.22832773       0.00000000       0.00000000 </v>
     <v>       0.00000000       0.40696416       0.00000000 </v>
     <v>       0.00000000       0.00000000       0.05104304 </v>
    </varray>
   </crystal>
   <varray name="positions" >
    <v>       0.99945869       0.00000000       0.00000000 </v>
    <v>       0.16720798       0.50000000       0.00000000 </v>
    <v>       0.49945869       0.50000000       0.00000000 </v>
    <v>       0.66720798       0.00000000       0.00000000 </v>
   </varray>
  </structure>
  <varray name="forces" >
   <v>       0.00137486       0.00000000      -0.00000000 </v>
   <v>      -0.00137486      -0.00000000       0.00000000 </v>
   <v>       0.00137486       0.00000000      -0.00000000 </v>
   <v>      -0.00137486      -0.00000000       0.00000000 </v>
  </varray>
  <varray name="stress" >
   <v>     -40.97988465       0.00000000       0.00000000 </v>
   <v>       0.00000000      -0.01389736       0.00000000 </v>
   <v>       0.00000000       0.00000000      -0.01020915 </v>
  </varray>
  <energy>
   <i name="e_fr_energy">    -36.85893154 </i>
   <i name="e_wo_entrp">    -36.85893153 </i>
   <i name="e_0_energy">     -0.00000002 </i>
  </energy>
  <time name="totalsc">10176.7410194.98</time>
 </calculation>
 <calculation>
  <scstep>
   <time name="dav">  307.12  307.94</time>
   <time name="total">  339.65  340.50</time>
   <energy>
    <i name="alphaZ">      6.18334092 </i>
    <i name="ewald">   2449.77808720 </i>
    <i name="hartreedc">  -2944.06164674 </i>
    <i name="XCdc">     57.14260100 </i>
    <i name="pawpsdc">    268.83931158 </i>
    <i name="pawaedc">   -273.95089235 </i>
    <i name="eentropy">     -0.00000002 </i>
    <i name="bandstr">   -189.41325953 </i>
    <i name="atom">    588.62352690 </i>
    <i name="e_fr_energy">    -36.85893104 </i>
    <i name="e_wo_entrp">    -36.85893102 </i>
    <i name="e_0_energy">    -36.85893103 </i>
   </energy>
  </scstep>
  <scstep>
   <time name="diag">   78.53   78.56</time>
   <time name="diis">  321.73  321.82</time>
   <time name="orth">    3.09    3.09</time>
   <time name="total">  435.89  436.02</time>
   <energy>
    <i name="e_fr_energy">    -36.85893108 </i>
    <i name="e_wo_entrp">    -36.85893106 </i>
    <i name="e_0_energy">    -36.85893107 </i>
   </energy>
  </scstep>
  <scstep>
   <time name="diag">   78.49   78.52</time>
   <time name="diis">  324.83  324.92</time>
   <time name="orth">    3.08    3.08</time>
   <time name="total">  438.91  439.14</time>
   <energy>
    <i name="e_fr_energy">    -36.85893107 </i>
    <i name="e_wo_entrp">    -36.85893105 </i>
    <i name="e_0_energy">    -36.85893106 </i>
   </energy>
  </scstep>
  <scstep>
   <time name="diag">   78.59   78.61</time>
   <time name="diis">  332.89  333.00</time>
   <time name="orth">    3.11    3.11</time>
   <time name="total">  447.10  447.25</time>
   <energy>
    <i name="e_fr_energy">    -36.85893106 </i>
    <i name="e_wo_entrp">    -36.85893104 </i>
    <i name="e_0_energy">    -36.85893105 </i>
   </energy>
  </scstep>
  <scstep>
   <time name="diag">   78.48   78.51</time>
   <time name="diis">  260.98  261.05</time>
   <time name="orth">    3.09    3.09</time>
   <time name="total">  375.02  375.16</time>
   <energy>
    <i name="e_fr_energy">    -36.85893106 </i>
    <i name="e_wo_entrp">    -36.85893105 </i>
    <i name="e_0_energy">    -36.85893105 </i>
   </energy>
  </scstep>
  <scstep>
   <time name="diag">   78.50   78.56</time>
   <time name="diis">  215.70  216.62</time>
   <time name="orth">    3.07    3.07</time>
   <time name="total">  299.76  300.76</time>
   <energy>
    <i name="alphaZ">      6.18334092 </i>
    <i name="ewald">   2449.77808720 </i>
    <i name="hartreedc">  -2944.06216719 </i>
    <i name="XCdc">     57.14262383 </i>
    <i name="pawpsdc">    268.84170365 </i>
    <i name="pawaedc">   -273.95329490 </i>
    <i name="eentropy">     -0.00000002 </i>
    <i name="bandstr">   -189.41275147 </i>
    <i name="atom">    588.62352690 </i>
    <i name="e_fr_energy">    -36.85893106 </i>
    <i name="e_wo_entrp">    -36.85893105 </i>
    <i name="e_0_energy">    -36.85893105 </i>
   </energy>
  </scstep>
  <structure>
   <crystal>
    <varray name="basis" >
     <v>       4.37966960       0.00000000       0.00000000 </v>
     <v>       0.00000000       2.45721886       0.00000000 </v>
     <v>       0.00000000       0.00000000      19.59131092 </v>
    </varray>
    <i name="volume">    210.83790140 </i>
    <varray name="rec_basis" >
     <v>       0.22832773       0.00000000       0.00000000 </v>
     <v>       0.00000000       0.40696416       0.00000000 </v>
     <v>       0.00000000       0.00000000       0.05104304 </v>
    </varray>
   </crystal>
   <varray name="positions" >
    <v>       0.99947384       0.00000000      -0.00000000 </v>
    <v>       0.16719283       0.50000000       0.00000000 </v>
    <v>       0.49947384       0.50000000      -0.00000000 </v>
    <v>       0.66719283      -0.00000000       0.00000000 </v>
   </varray>
  </structure>
  <varray name="forces" >
   <v>      -0.00507224       0.00000000       0.00000000 </v>
   <v>       0.00507224       0.00000000       0.00000000 </v>
   <v>      -0.00507224       0.00000000       0.00000000 </v>
   <v>       0.00507224      -0.00000000       0.00000000 </v>
  </varray>
  <varray name="stress" >
   <v>     -40.99018293       0.00000000       0.00000000 </v>
   <v>       0.00000000       0.00734689       0.00000000 </v>
   <v>       0.00000000       0.00000000      -0.01010146 </v>
  </varray>
  <energy>
   <i name="e_fr_energy">    -36.85893106 </i>
   <i name="e_wo_entrp">    -36.85893105 </i>
   <i name="e_0_energy">     -0.00000002 </i>
  </energy>
  <time name="totalsc"> 2438.19 2441.34</time>
 </calculation>
 <calculation>
  <scstep>
   <time name="dav">  314.08  314.20</time>
   <time name="total">  346.62  346.74</time>
   <energy>
    <i name="alphaZ">      6.18334092 </i>
    <i name="ewald">   2449.77697415 </i>
    <i name="hartreedc">  -2944.06170190 </i>
    <i name="XCdc">     57.14259261 </i>
    <i name="pawpsdc">    268.84171156 </i>
    <i name="pawaedc">   -273.95330294 </i>
    <i name="eentropy">     -0.00000002 </i>
    <i name="bandstr">   -189.41207287 </i>
    <i name="atom">    588.62352690 </i>
    <i name="e_fr_energy">    -36.85893159 </i>
    <i name="e_wo_entrp">    -36.85893157 </i>
    <i name="e_0_energy">    -36.85893158 </i>
   </energy>
  </scstep>
  <scstep>
   <time name="diag">   78.48   78.51</time>
   <time name="diis">  319.20  319.28</time>
   <time name="orth">    3.09    3.09</time>
   <time name="total">  433.27  433.39</time>
   <energy>
    <i name="e_fr_energy">    -36.85893160 </i>
    <i name="e_wo_entrp">    -36.85893158 </i>
    <i name="e_0_energy">    -36.85893159 </i>
   </energy>
  </scstep>
  <scstep>
   <time name="diag">   78.43   78.52</time>
   <time name="diis">  324.05  324.61</time>
   <time name="orth">    3.07    3.07</time>
   <time name="total">  438.05  438.91</time>
   <energy>
    <i name="e_fr_energy">    -36.85893158 </i>
    <i name="e_wo_entrp">    -36.85893156 </i>
    <i name="e_0_energy">    -36.85893157 </i>
   </energy>
  </scstep>
  <scstep>
   <time name="diag">   78.23   78.59</time>
   <time name="diis">  329.12  329.55</time>
   <time name="orth">    3.07    3.07</time>
   <time name="total">  442.93  445.18</time>
   <energy>
    <i name="e_fr_energy">    -36.85893158 </i>
    <i name="e_wo_entrp">    -36.85893156 </i>
    <i name="e_0_energy">    -36.85893157 </i>
   </energy>
  </scstep>
  <scstep>
   <time name="diag">   78.42   78.58</time>
   <time name="diis">  241.41  242.56</time>
   <time name="orth">    3.07    3.09</time>
   <time name="total">  355.22  356.75</time>
   <energy>
    <i name="e_fr_energy">    -36.85893158 </i>
    <i name="e_wo_entrp">    -36.85893156 </i>
    <i name="e_0_energy">    -36.85893157 </i>
   </energy>
  </scstep>
  <scstep>
   <time name="diag">   78.09   78.56</time>
   <time name="diis">  213.60  214.26</time>
   <time name="orth">    3.07    3.09</time>
   <time name="total">  327.17  328.48</time>
   <energy>
    <i name="e_fr_energy">    -36.85893158 </i>
    <i name="e_wo_entrp">    -36.85893156 </i>
    <i name="e_0_energy">    -36.85893157 </i>
   </energy>
  </scstep>
  <scstep>
   <time name="diag">   78.38   78.51</time>
   <time name="diis">  211.86  212.04</time>
   <time name="orth">    3.09    3.09</time>
   <time name="total">  325.79  326.42</time>
   <energy>
    <i name="e_fr_energy">    -36.85893158 </i>
    <i name="e_wo_entrp">    -36.85893156 </i>
    <i name="e_0_energy">    -36.85893157 </i>
   </energy>
  </scstep>
  <scstep>
   <time name="diag">   78.48   78.51</time>
   <time name="diis">  196.02  196.08</time>
   <time name="orth">    3.09    3.09</time>
   <time name="total">  280.08  280.22</time>
   <energy>
    <i name="alphaZ">      6.18334092 </i>
    <i name="ewald">   2449.77697415 </i>
    <i name="hartreedc">  -2944.06129572 </i>
    <i name="XCdc">     57.14257424 </i>
    <i name="pawpsdc">    268.83981684 </i>
    <i name="pawaedc">   -273.95139984 </i>
    <i name="eentropy">     -0.00000002 </i>
    <i name="bandstr">   -189.41246905 </i>
    <i name="atom">    588.62352690 </i>
    <i name="e_fr_energy">    -36.85893158 </i>
    <i name="e_wo_entrp">    -36.85893156 </i>
    <i name="e_0_energy">    -36.85893157 </i>
   </energy>
  </scstep>
  <structure>
   <crystal>
    <varray name="basis" >
     <v>       4.37966960       0.00000000       0.00000000 </v>
     <v>       0.00000000       2.45721886       0.00000000 </v>
     <v>       0.00000000       0.00000000      19.59131092 </v>
    </varray>
    <i name="volume">    210.83790140 </i>
    <varray name="rec_basis" >
     <v>       0.22832773       0.00000000       0.00000000 </v>
     <v>       0.00000000       0.40696416       0.00000000 </v>
     <v>       0.00000000       0.00000000       0.05104304 </v>
    </varray>
   </crystal>
   <varray name="positions" >
    <v>       0.99946192       0.00000000      -0.00000000 </v>
    <v>       0.16720475       0.50000000       0.00000000 </v>
    <v>       0.49946192       0.50000000      -0.00000000 </v>
    <v>       0.66720475      -0.00000000       0.00000000 </v>
   </varray>
  </structure>
  <varray name="forces" >
   <v>      -0.00000425       0.00000000       0.00000000 </v>
   <v>       0.00000425      -0.00000000       0.00000000 </v>
   <v>      -0.00000425       0.00000000       0.00000000 </v>
   <v>       0.00000425      -0.00000000       0.00000000 </v>
  </varray>
  <varray name="stress" >
   <v>     -40.98211192       0.00000000       0.00000000 </v>
   <v>       0.00000000      -0.00931006       0.00000000 </v>
   <v>       0.00000000       0.00000000      -0.01021943 </v>
  </varray>
  <energy>
   <i name="e_fr_energy">    -36.85893158 </i>
   <i name="e_wo_entrp">    -36.85893157 </i>
   <i name="e_0_energy">     -0.00000002 </i>
  </energy>
  <time name="totalsc"> 3051.64 3058.81</time>
 </calculation>
 <calculation>
  <scstep>
   <time name="dav">  244.98  245.44</time>
   <time name="total">  277.39  277.87</time>
   <energy>
    <i name="alphaZ">      6.18334092 </i>
    <i name="ewald">   2449.77697322 </i>
    <i name="hartreedc">  -2944.06129330 </i>
    <i name="XCdc">     57.14257424 </i>
    <i name="pawpsdc">    268.83981827 </i>
    <i name="pawaedc">   -273.95140130 </i>
    <i name="eentropy">     -0.00000002 </i>
    <i name="bandstr">   -189.41247051 </i>
    <i name="atom">    588.62352690 </i>
    <i name="e_fr_energy">    -36.85893158 </i>
    <i name="e_wo_entrp">    -36.85893156 </i>
    <i name="e_0_energy">    -36.85893157 </i>
   </energy>
  </scstep>
  <scstep>
   <time name="diag">   78.54   78.61</time>
   <time name="diis">  164.60  164.71</time>
   <time name="orth">    3.09    3.10</time>
   <time name="total">  278.74  278.96</time>
   <energy>
    <i name="e_fr_energy">    -36.85893158 </i>
    <i name="e_wo_entrp">    -36.85893156 </i>
    <i name="e_0_energy">    -36.85893157 </i>
   </energy>
  </scstep>
  <scstep>
   <time name="diag">   78.60   78.64</time>
   <time name="diis">  160.64  160.69</time>
   <time name="orth">    3.09    3.09</time>
   <time name="total">  274.78  275.04</time>
   <energy>
    <i name="e_fr_energy">    -36.85893158 </i>
    <i name="e_wo_entrp">    -36.85893156 </i>
    <i name="e_0_energy">    -36.85893157 </i>
   </energy>
  </scstep>
  <scstep>
   <time name="diag">   78.44   78.56</time>
   <time name="diis">  158.65  158.68</time>
   <time name="orth">    3.07    3.07</time>
   <time name="total">  272.69  272.85</time>
   <energy>
    <i name="e_fr_energy">    -36.85893158 </i>
    <i name="e_wo_entrp">    -36.85893156 </i>
    <i name="e_0_energy">    -36.85893157 </i>
   </energy>
  </scstep>
  <scstep>
   <time name="diag">   78.52   78.54</time>
   <time name="diis">  157.40  157.45</time>
   <time name="orth">    3.08    3.08</time>
   <time name="total">  271.44  271.61</time>
   <energy>
    <i name="e_fr_energy">    -36.85893158 </i>
    <i name="e_wo_entrp">    -36.85893156 </i>
    <i name="e_0_energy">    -36.85893157 </i>
   </energy>
  </scstep>
  <scstep>
   <time name="diag">   78.51   78.53</time>
   <time name="diis">  155.04  155.10</time>
   <time name="orth">    3.09    3.09</time>
   <time name="total">  239.17  239.26</time>
   <energy>
    <i name="alphaZ">      6.18334092 </i>
    <i name="ewald">   2449.77697322 </i>
    <i name="hartreedc">  -2944.06128030 </i>
    <i name="XCdc">     57.14257417 </i>
    <i name="pawpsdc">    268.83981937 </i>
    <i name="pawaedc">   -273.95140241 </i>
    <i name="eentropy">     -0.00000002 </i>
    <i name="bandstr">   -189.41248344 </i>
    <i name="atom">    588.62352690 </i>
    <i name="e_fr_energy">    -36.85893158 </i>
    <i name="e_wo_entrp">    -36.85893156 </i>
    <i name="e_0_energy">    -36.85893157 </i>
   </energy>
  </scstep>
  <structure>
   <crystal>
    <varray name="basis" >
     <v>       4.37966960       0.00000000       0.00000000 </v>
     <v>       0.00000000       2.45721886       0.00000000 </v>
     <v>       0.00000000       0.00000000      19.59131092 </v>
    </varray>
    <i name="volume">    210.83790140 </i>
    <varray name="rec_basis" >
     <v>       0.22832773       0.00000000       0.00000000 </v>
     <v>       0.00000000       0.40696416       0.00000000 </v>
     <v>       0.00000000       0.00000000       0.05104304 </v>
    </varray>
   </crystal>
   <varray name="positions" >
    <v>       0.99946191       0.00000000      -0.00000000 </v>
    <v>       0.16720476       0.50000000       0.00000000 </v>
    <v>       0.49946191       0.50000000      -0.00000000 </v>
    <v>       0.66720476      -0.00000000       0.00000000 </v>
   </varray>
  </structure>
  <varray name="forces" >
   <v>       0.00000408       0.00000000       0.00000000 </v>
   <v>      -0.00000408      -0.00000000      -0.00000000 </v>
   <v>       0.00000408      -0.00000000       0.00000000 </v>
   <v>      -0.00000408       0.00000000      -0.00000000 </v>
  </varray>
  <varray name="stress" >
   <v>     -40.98209068       0.00000000       0.00000000 </v>
   <v>       0.00000000      -0.00934533       0.00000000 </v>
   <v>       0.00000000       0.00000000      -0.01019953 </v>
  </varray>
  <energy>
   <i name="e_fr_energy">    -36.85893158 </i>
   <i name="e_wo_entrp">    -36.85893157 </i>
   <i name="e_0_energy">     -0.00000002 </i>
  </energy>
  <time name="totalsc"> 1716.51 1718.04</time>
 </calculation>
 <calculation>
  <scstep>
   <time name="dav">  240.04  240.12</time>
   <time name="total">  272.55  272.63</time>
   <energy>
    <i name="alphaZ">      6.18334092 </i>
    <i name="ewald">   2449.77697367 </i>
    <i name="hartreedc">  -2944.06128035 </i>
    <i name="XCdc">     57.14257418 </i>
    <i name="pawpsdc">    268.83981937 </i>
    <i name="pawaedc">   -273.95140241 </i>
    <i name="eentropy">     -0.00000002 </i>
    <i name="bandstr">   -189.41248385 </i>
    <i name="atom">    588.62352690 </i>
    <i name="e_fr_energy">    -36.85893158 </i>
    <i name="e_wo_entrp">    -36.85893156 </i>
    <i name="e_0_energy">    -36.85893157 </i>
   </energy>
  </scstep>
  <scstep>
   <time name="diag">   78.54   78.60</time>
   <time name="diis">  145.16  145.28</time>
   <time name="orth">    3.07    3.08</time>
   <time name="total">  259.31  259.53</time>
   <energy>
    <i name="e_fr_energy">    -36.85893158 </i>
    <i name="e_wo_entrp">    -36.85893156 </i>
    <i name="e_0_energy">    -36.85893157 </i>
   </energy>
  </scstep>
  <scstep>
   <time name="diag">   78.51   78.59</time>
   <time name="diis">  144.66  144.78</time>
   <time name="orth">    3.07    3.08</time>
   <time name="total">  258.63  258.87</time>
   <energy>
    <i name="e_fr_energy">    -36.85893158 </i>
    <i name="e_wo_entrp">    -36.85893156 </i>
    <i name="e_0_energy">    -36.85893157 </i>
   </energy>
  </scstep>
  <scstep>
   <time name="diag">   78.50   78.56</time>
   <time name="diis">  143.89  144.00</time>
   <time name="orth">    3.09    3.09</time>
   <time name="total">  257.97  258.20</time>
   <energy>
    <i name="e_fr_energy">    -36.85893158 </i>
    <i name="e_wo_entrp">    -36.85893156 </i>
    <i name="e_0_energy">    -36.85893157 </i>
   </energy>
  </scstep>
  <scstep>
   <time name="diag">   78.49   78.57</time>
   <time name="diis">  144.02  144.14</time>
   <time name="orth">    3.18    3.19</time>
   <time name="total">  258.16  258.41</time>
   <energy>
    <i name="e_fr_energy">    -36.85893158 </i>
    <i name="e_wo_entrp">    -36.85893156 </i>
    <i name="e_0_energy">    -36.85893157 </i>
   </energy>
  </scstep>
  <scstep>
   <time name="diag">   78.45   78.54</time>
   <time name="diis">  139.92  140.04</time>
   <time name="orth">    3.07    3.07</time>
   <time name="total">  223.96  224.19</time>
   <energy>
    <i name="alphaZ">      6.18334092 </i>
    <i name="ewald">   2449.77697367 </i>
    <i name="hartreedc">  -2944.06128158 </i>
    <i name="XCdc">     57.14257423 </i>
    <i name="pawpsdc">    268.83982023 </i>
    <i name="pawaedc">   -273.95140328 </i>
    <i name="eentropy">     -0.00000002 </i>
    <i name="bandstr">   -189.41248265 </i>
    <i name="atom">    588.62352690 </i>
    <i name="e_fr_energy">    -36.85893158 </i>
    <i name="e_wo_entrp">    -36.85893156 </i>
    <i name="e_0_energy">    -36.85893157 </i>
   </energy>
  </scstep>
  <structure>
   <crystal>
    <varray name="basis" >
     <v>       4.37966960       0.00000000       0.00000000 </v>
     <v>       0.00000000       2.45721886       0.00000000 </v>
     <v>       0.00000000       0.00000000      19.59131092 </v>
    </varray>
    <i name="volume">    210.83790140 </i>
    <varray name="rec_basis" >
     <v>       0.22832773       0.00000000       0.00000000 </v>
     <v>       0.00000000       0.40696416       0.00000000 </v>
     <v>       0.00000000       0.00000000       0.05104304 </v>
    </varray>
   </crystal>
   <varray name="positions" >
    <v>       0.99946192       0.00000000      -0.00000000 </v>
    <v>       0.16720475       0.50000000       0.00000000 </v>
    <v>       0.49946192       0.50000000      -0.00000000 </v>
    <v>       0.66720475      -0.00000000       0.00000000 </v>
   </varray>
  </structure>
  <varray name="forces" >
   <v>      -0.00000048      -0.00000000       0.00000000 </v>
   <v>       0.00000048      -0.00000000      -0.00000000 </v>
   <v>      -0.00000048       0.00000000       0.00000000 </v>
   <v>       0.00000048      -0.00000000      -0.00000000 </v>
  </varray>
  <varray name="stress" >
   <v>     -40.98210150       0.00000000       0.00000000 </v>
   <v>       0.00000000      -0.00932853       0.00000000 </v>
   <v>       0.00000000       0.00000000      -0.01019397 </v>
  </varray>
  <energy>
   <i name="e_fr_energy">    -36.85893158 </i>
   <i name="e_wo_entrp">    -36.85893157 </i>
   <i name="e_0_energy">     -0.00000002 </i>
  </energy>
  <time name="totalsc"> 1626.93 1628.45</time>
  <eigenvalues>
   <array>
    <dimension dim="1">band</dimension>
    <dimension dim="2">kpoint</dimension>
    <dimension dim="3">spin</dimension>
    <field>eigene</field>
    <field>occ</field>
    <set>
     <set comment="spin 1">
      <set comment="kpoint 1">
       <r>  -22.0813    1.0000 </r>
       <r>  -17.2566    1.0000 </r>
       <r>  -15.8331    1.0000 </r>
       <r>  -10.2259    1.0000 </r>
       <r>   -8.8060    1.0000 </r>
       <r>   -6.0058    1.0000 </r>
       <r>   -5.7274    1.0000 </r>
       <r>   -5.3345    1.0000 </r>
       <r>   -1.1856    0.0000 </r>
       <r>    0.5447    0.0000 </r>
       <r>    1.3428    0.0000 </r>
       <r>    1.7362    0.0000 </r>
      </set>
      <set comment="kpoint 2">
       <r>  -22.0715    1.0000 </r>
       <r>  -17.3750    1.0000 </r>
       <r>  -15.6998    1.0000 </r>
       <r>  -10.2143    1.0000 </r>
       <r>   -8.7966    1.0000 </r>
       <r>   -6.0501    1.0000 </r>
       <r>   -5.7474    1.0000 </r>
       <r>   -5.3933    1.0000 </r>
       <r>   -1.1112    0.0000 </r>
       <r>    0.5579    0.0000 </r>
       <r>    1.3562    0.0000 </r>
       <r>    1.7498    0.0000 </r>
      </set>
      <set comment="kpoint 3">
       <r>  -22.0422    1.0000 </r>
       <r>  -17.6486    1.0000 </r>
       <r>  -15.3813    1.0000 </r>
       <r>  -10.1795    1.0000 </r>
       <r>   -8.7683    1.0000 </r>
       <r>   -6.1808    1.0000 </r>
       <r>   -5.8066    1.0000 </r>
       <r>   -5.5576    1.0000 </r>
       <r>   -0.8998    0.0000 </r>
       <r>    0.5975    0.0000 </r>
       <r>    1.3964    0.0000 </r>
       <r>    1.7905    0.0000 </r>
      </set>
      <set comment="kpoint 4">
       <r>  -21.9935    1.0000 </r>
       <r>  -17.9792    1.0000 </r>
       <r>  -14.9762    1.0000 </r>
       <r>  -10.1217    1.0000 </r>
       <r>   -8.7213    1.0000 </r>
       <r>   -6.3921    1.0000 </r>
       <r>   -5.9020    1.0000 </r>
       <r>   -5.8004    1.0000 </r>
       <r>   -0.5793    0.0000 </r>
       <r>    0.6636    0.0000 </r>
       <r>    1.4633    0.0000 </r>
       <r>    1.8583    0.0000 </r>
      </set>
      <set comment="kpoint 5">
       <r>  -21.9252    1.0000 </r>
       <r>  -18.3241    1.0000 </r>
       <r>  -14.5275    1.0000 </r>
       <r>  -10.0409    1.0000 </r>
       <r>   -8.6559    1.0000 </r>
       <r>   -6.6752    1.0000 </r>
       <r>   -6.0930    1.0000 </r>
       <r>   -6.0290    1.0000 </r>
       <r>   -0.1788    0.0000 </r>
       <r>    0.7561    0.0000 </r>
       <r>    1.5570    0.0000 </r>
       <r>    1.9532    0.0000 </r>
      </set>
      <set comment="kpoint 6">
       <r>  -21.8376    1.0000 </r>
       <r>  -18.6672    1.0000 </r>
       <r>  -14.0519    1.0000 </r>
       <r>   -9.9373    1.0000 </r>
       <r>   -8.5724    1.0000 </r>
       <r>   -7.0201    1.0000 </r>
       <r>   -6.4134    1.0000 </r>
       <r>   -6.1823    1.0000 </r>
       <r>    0.2782    0.0000 </r>
       <r>    0.8750    0.0000 </r>
       <r>    1.6774    0.0000 </r>
       <r>    2.0753    0.0000 </r>
      </set>
      <set comment="kpoint 7">
       <r>  -21.7306    1.0000 </r>
       <r>  -19.0011    1.0000 </r>
       <r>  -13.5575    1.0000 </r>
       <r>   -9.8110    1.0000 </r>
       <r>   -8.4714    1.0000 </r>
       <r>   -7.4164    1.0000 </r>
       <r>   -6.7458    1.0000 </r>
       <r>   -6.3561    1.0000 </r>
       <r>    0.7746    0.0000 </r>
       <r>    1.0204    0.0000 </r>
       <r>    1.8244    0.0000 </r>
       <r>    2.2245    0.0000 </r>
      </set>
      <set comment="kpoint 8">
       <r>  -21.6044    1.0000 </r>
       <r>  -19.3224    1.0000 </r>
       <r>  -13.0487    1.0000 </r>
       <r>   -9.6623    1.0000 </r>
       <r>   -8.3534    1.0000 </r>
       <r>   -7.8542    1.0000 </r>
       <r>   -7.0801    1.0000 </r>
       <r>   -6.5448    1.0000 </r>
       <r>    1.1923    0.0000 </r>
       <r>    1.2980    0.0000 </r>
       <r>    1.9979    0.0000 </r>
       <r>    2.4009    0.0000 </r>
      </set>
      <set comment="kpoint 9">
       <r>  -21.4590    1.0000 </r>
       <r>  -19.6291    1.0000 </r>
       <r>  -12.5288    1.0000 </r>
       <r>   -9.4915    1.0000 </r>
       <r>   -8.3246    1.0000 </r>
       <r>   -8.2193    1.0000 </r>
       <r>   -7.4092    1.0000 </r>
       <r>   -6.7431    1.0000 </r>
       <r>    1.3906    0.0000 </r>
       <r>    1.8386    0.0000 </r>
       <r>    2.1978    0.0000 </r>
       <r>    2.6044    0.0000 </r>
      </set>
      <set comment="kpoint 10">
       <r>  -21.2946    1.0000 </r>
       <r>  -19.9198    1.0000 </r>
       <r>  -12.0005    1.0000 </r>
       <r>   -9.2990    1.0000 </r>
       <r>   -8.8198    1.0000 </r>
       <r>   -8.0702    1.0000 </r>
       <r>   -7.7283    1.0000 </r>
       <r>   -6.9461    1.0000 </r>
       <r>    1.6153    0.0000 </r>
       <r>    2.3873    0.0000 </r>
       <r>    2.4237    0.0000 </r>
       <r>    2.8350    0.0000 </r>
      </set>
      <set comment="kpoint 11">
       <r>  -21.1113    1.0000 </r>
       <r>  -20.1937    1.0000 </r>
       <r>  -11.4664    1.0000 </r>
       <r>   -9.3331    1.0000 </r>
       <r>   -9.0854    1.0000 </r>
       <r>   -8.0341    1.0000 </r>
       <r>   -7.9071    1.0000 </r>
       <r>   -7.1498    1.0000 </r>
       <r>    1.8663    0.0000 </r>
       <r>    2.6748    0.0000 </r>
       <r>    2.9298    0.0000 </r>
       <r>    3.0927    0.0000 </r>
      </set>
      <set comment="kpoint 12">
       <r>  -20.9093    1.0000 </r>
       <r>  -20.4502    1.0000 </r>
       <r>  -10.9293    1.0000 </r>
       <r>   -9.8589    1.0000 </r>
       <r>   -8.8511    1.0000 </r>
       <r>   -8.3243    1.0000 </r>
       <r>   -7.7315    1.0000 </r>
       <r>   -7.3506    1.0000 </r>
       <r>    2.1436    0.0000 </r>
       <r>    2.7762    0.0000 </r>
       <r>    2.9489    0.0000 </r>
       <r>    3.3769    0.0000 </r>
      </set>
      <set comment="kpoint 13">
       <r>  -20.6888    1.0000 </r>
       <r>  -20.6888    1.0000 </r>
       <r>  -10.3923    1.0000 </r>
       <r>  -10.3923    1.0000 </r>
       <r>   -8.5971    1.0000 </r>
       <r>   -8.5971    1.0000 </r>
       <r>   -7.5453    1.0000 </r>
       <r>   -7.5453    1.0000 </r>
       <r>    2.4469    0.0000 </r>
       <r>    2.4469    0.0000 </r>
       <r>    3.2350    0.0000 </r>
       <r>    3.2350    0.0000 </r>
      </set>
      <set comment="kpoint 14">
       <r>  -22.0674    1.0000 </r>
       <r>  -17.2446    1.0000 </r>
       <r>  -15.8213    1.0000 </r>
       <r>  -10.2094    1.0000 </r>
       <r>   -8.8693    1.0000 </r>
       <r>   -6.0319    1.0000 </r>
       <r>   -5.7864    1.0000 </r>
       <r>   -5.3178    1.0000 </r>
       <r>   -1.1881    0.0000 </r>
       <r>    0.5635    0.0000 </r>
       <r>    1.3617    0.0000 </r>
       <r>    1.7554    0.0000 </r>
      </set>
      <set comment="kpoint 15">
       <r>  -22.0577    1.0000 </r>
       <r>  -17.3628    1.0000 </r>
       <r>  -15.6882    1.0000 </r>
       <r>  -10.1979    1.0000 </r>
       <r>   -8.8599    1.0000 </r>
       <r>   -6.0769    1.0000 </r>
       <r>   -5.8052    1.0000 </r>
       <r>   -5.3767    1.0000 </r>
       <r>   -1.1136    0.0000 </r>
       <r>    0.5767    0.0000 </r>
       <r>    1.3751    0.0000 </r>
       <r>    1.7689    0.0000 </r>
      </set>
      <set comment="kpoint 16">
       <r>  -22.0284    1.0000 </r>
       <r>  -17.6363    1.0000 </r>
       <r>  -15.3700    1.0000 </r>
       <r>  -10.1632    1.0000 </r>
       <r>   -8.8315    1.0000 </r>
       <r>   -6.2085    1.0000 </r>
       <r>   -5.8618    1.0000 </r>
       <r>   -5.5413    1.0000 </r>
       <r>   -0.9023    0.0000 </r>
       <r>    0.6163    0.0000 </r>
       <r>    1.4153    0.0000 </r>
       <r>    1.8096    0.0000 </r>
      </set>
      <set comment="kpoint 17">
       <r>  -21.9797    1.0000 </r>
       <r>  -17.9666    1.0000 </r>
       <r>  -14.9654    1.0000 </r>
       <r>  -10.1054    1.0000 </r>
       <r>   -8.7845    1.0000 </r>
       <r>   -6.4191    1.0000 </r>
       <r>   -5.9552    1.0000 </r>
       <r>   -5.7843    1.0000 </r>
       <r>   -0.5820    0.0000 </r>
       <r>    0.6823    0.0000 </r>
       <r>    1.4822    0.0000 </r>
       <r>    1.8774    0.0000 </r>
      </set>
      <set comment="kpoint 18">
       <r>  -21.9114    1.0000 </r>
       <r>  -18.3114    1.0000 </r>
       <r>  -14.5172    1.0000 </r>
       <r>  -10.0246    1.0000 </r>
       <r>   -8.7190    1.0000 </r>
       <r>   -6.7000    1.0000 </r>
       <r>   -6.0815    1.0000 </r>
       <r>   -6.0772    1.0000 </r>
       <r>   -0.1820    0.0000 </r>
       <r>    0.7748    0.0000 </r>
       <r>    1.5759    0.0000 </r>
       <r>    1.9724    0.0000 </r>
      </set>
      <set comment="kpoint 19">
       <r>  -21.8238    1.0000 </r>
       <r>  -18.6543    1.0000 </r>
       <r>  -14.0422    1.0000 </r>
       <r>   -9.9210    1.0000 </r>
       <r>   -8.6354    1.0000 </r>
       <r>   -7.0415    1.0000 </r>
       <r>   -6.3977    1.0000 </r>
       <r>   -6.2351    1.0000 </r>
       <r>    0.2742    0.0000 </r>
       <r>    0.8938    0.0000 </r>
       <r>    1.6963    0.0000 </r>
       <r>    2.0945    0.0000 </r>
      </set>
      <set comment="kpoint 20">
       <r>  -21.7169    1.0000 </r>
       <r>  -18.9881    1.0000 </r>
       <r>  -13.5485    1.0000 </r>
       <r>   -9.7947    1.0000 </r>
       <r>   -8.5342    1.0000 </r>
       <r>   -7.4339    1.0000 </r>
       <r>   -6.7303    1.0000 </r>
       <r>   -6.4098    1.0000 </r>
       <r>    0.7696    0.0000 </r>
       <r>    1.0392    0.0000 </r>
       <r>    1.8433    0.0000 </r>
       <r>    2.2437    0.0000 </r>
      </set>
      <set comment="kpoint 21">
       <r>  -21.5906    1.0000 </r>
       <r>  -19.3093    1.0000 </r>
       <r>  -13.0405    1.0000 </r>
       <r>   -9.6461    1.0000 </r>
       <r>   -8.4160    1.0000 </r>
       <r>   -7.8678    1.0000 </r>
       <r>   -7.0645    1.0000 </r>
       <r>   -6.5996    1.0000 </r>
       <r>    1.2111    0.0000 </r>
       <r>    1.2917    0.0000 </r>
       <r>    2.0168    0.0000 </r>
       <r>    2.4201    0.0000 </r>
      </set>
      <set comment="kpoint 22">
       <r>  -21.4453    1.0000 </r>
       <r>  -19.6158    1.0000 </r>
       <r>  -12.5216    1.0000 </r>
       <r>   -9.4754    1.0000 </r>
       <r>   -8.3344    1.0000 </r>
       <r>   -8.2816    1.0000 </r>
       <r>   -7.3936    1.0000 </r>
       <r>   -6.7992    1.0000 </r>
       <r>    1.4094    0.0000 </r>
       <r>    1.8308    0.0000 </r>
       <r>    2.2167    0.0000 </r>
       <r>    2.6236    0.0000 </r>
      </set>
      <set comment="kpoint 23">
       <r>  -21.2809    1.0000 </r>
       <r>  -19.9064    1.0000 </r>
       <r>  -11.9944    1.0000 </r>
       <r>   -9.2829    1.0000 </r>
       <r>   -8.8263    1.0000 </r>
       <r>   -8.1321    1.0000 </r>
       <r>   -7.7126    1.0000 </r>
       <r>   -7.0034    1.0000 </r>
       <r>    1.6341    0.0000 </r>
       <r>    2.3780    0.0000 </r>
       <r>    2.4426    0.0000 </r>
       <r>    2.8542    0.0000 </r>
      </set>
      <set comment="kpoint 24">
       <r>  -21.0976    1.0000 </r>
       <r>  -20.1802    1.0000 </r>
       <r>  -11.4617    1.0000 </r>
       <r>   -9.3366    1.0000 </r>
       <r>   -9.0693    1.0000 </r>
       <r>   -8.0184    1.0000 </r>
       <r>   -7.9685    1.0000 </r>
       <r>   -7.2082    1.0000 </r>
       <r>    1.8851    0.0000 </r>
       <r>    2.6937    0.0000 </r>
       <r>    2.9199    0.0000 </r>
       <r>    3.1119    0.0000 </r>
      </set>
      <set comment="kpoint 25">
       <r>  -20.8957    1.0000 </r>
       <r>  -20.4367    1.0000 </r>
       <r>  -10.9262    1.0000 </r>
       <r>   -9.8598    1.0000 </r>
       <r>   -8.8352    1.0000 </r>
[...]
       <r>   -9.3554    1.0000 </r>
       <r>   -5.5142    1.0000 </r>
       <r>   -5.5142    1.0000 </r>
       <r>   -0.4924    0.0000 </r>
       <r>   -0.4924    0.0000 </r>
       <r>    4.1430    0.0000 </r>
       <r>    4.1430    0.0000 </r>
      </set>
      <set comment="kpoint 209">
       <r>  -18.6237    1.0000 </r>
       <r>  -16.8074    1.0000 </r>
       <r>  -14.2146    1.0000 </r>
       <r>  -12.5480    1.0000 </r>
       <r>  -12.2994    1.0000 </r>
       <r>  -10.7866    1.0000 </r>
       <r>   -6.2766    1.0000 </r>
       <r>   -4.3996    1.0000 </r>
       <r>   -1.2030    0.0000 </r>
       <r>    0.9561    0.0000 </r>
       <r>    5.3144    0.0000 </r>
       <r>    6.0841    0.0000 </r>
      </set>
      <set comment="kpoint 210">
       <r>  -18.6145    1.0000 </r>
       <r>  -16.8002    1.0000 </r>
       <r>  -14.2816    1.0000 </r>
       <r>  -12.6110    1.0000 </r>
       <r>  -12.2247    1.0000 </r>
       <r>  -10.7261    1.0000 </r>
       <r>   -6.2683    1.0000 </r>
       <r>   -4.4036    1.0000 </r>
       <r>   -1.2094    0.0000 </r>
       <r>    0.9335    0.0000 </r>
       <r>    5.3273    0.0000 </r>
       <r>    6.0993    0.0000 </r>
      </set>
      <set comment="kpoint 211">
       <r>  -18.5869    1.0000 </r>
       <r>  -16.7791    1.0000 </r>
       <r>  -14.4561    1.0000 </r>
       <r>  -12.7775    1.0000 </r>
       <r>  -12.0271    1.0000 </r>
       <r>  -10.5678    1.0000 </r>
       <r>   -6.2435    1.0000 </r>
       <r>   -4.4161    1.0000 </r>
       <r>   -1.2270    0.0000 </r>
       <r>    0.8671    0.0000 </r>
       <r>    5.3658    0.0000 </r>
       <r>    6.1443    0.0000 </r>
      </set>
      <set comment="kpoint 212">
       <r>  -18.5409    1.0000 </r>
       <r>  -16.7455    1.0000 </r>
       <r>  -14.6900    1.0000 </r>
       <r>  -13.0062    1.0000 </r>
       <r>  -11.7548    1.0000 </r>
       <r>  -10.3548    1.0000 </r>
       <r>   -6.2024    1.0000 </r>
       <r>   -4.4383    1.0000 </r>
       <r>   -1.2516    0.0000 </r>
       <r>    0.7613    0.0000 </r>
       <r>    5.4292    0.0000 </r>
       <r>    6.2185    0.0000 </r>
      </set>
      <set comment="kpoint 213">
       <r>  -18.4767    1.0000 </r>
       <r>  -16.7023    1.0000 </r>
       <r>  -14.9463    1.0000 </r>
       <r>  -13.2661    1.0000 </r>
       <r>  -11.4438    1.0000 </r>
       <r>  -10.1215    1.0000 </r>
       <r>   -6.1455    1.0000 </r>
       <r>   -4.4721    1.0000 </r>
       <r>   -1.2771    0.0000 </r>
       <r>    0.6224    0.0000 </r>
       <r>    5.5108    0.0000 </r>
       <r>    5.8774    0.0000 </r>
      </set>
      <set comment="kpoint 214">
       <r>  -18.3945    1.0000 </r>
       <r>  -16.6554    1.0000 </r>
       <r>  -15.1999    1.0000 </r>
       <r>  -13.5389    1.0000 </r>
       <r>  -11.1165    1.0000 </r>
       <r>   -9.8902    1.0000 </r>
       <r>   -6.0735    1.0000 </r>
       <r>   -4.5197    1.0000 </r>
       <r>   -1.2962    0.0000 </r>
       <r>    0.4577    0.0000 </r>
       <r>    5.3568    0.0000 </r>
       <r>    5.6640    0.0000 </r>
      </set>
      <set comment="kpoint 215">
       <r>  -18.2946    1.0000 </r>
       <r>  -16.6171    1.0000 </r>
       <r>  -15.4281    1.0000 </r>
       <r>  -13.8142    1.0000 </r>
       <r>  -10.7873    1.0000 </r>
       <r>   -9.6770    1.0000 </r>
       <r>   -5.9873    1.0000 </r>
       <r>   -4.5828    1.0000 </r>
       <r>   -1.3017    0.0000 </r>
       <r>    0.2750    0.0000 </r>
       <r>    4.9405    0.0000 </r>
       <r>    5.7949    0.0000 </r>
      </set>
      <set comment="kpoint 216">
       <r>  -18.1774    1.0000 </r>
       <r>  -16.6108    1.0000 </r>
       <r>  -15.6014    1.0000 </r>
       <r>  -14.0856    1.0000 </r>
       <r>  -10.4674    1.0000 </r>
       <r>   -9.4942    1.0000 </r>
       <r>   -5.8879    1.0000 </r>
       <r>   -4.6623    1.0000 </r>
       <r>   -1.2875    0.0000 </r>
       <r>    0.0815    0.0000 </r>
       <r>    4.5795    0.0000 </r>
       <r>    5.5396    0.0000 </r>
      </set>
      <set comment="kpoint 217">
       <r>  -18.0432    1.0000 </r>
       <r>  -16.6674    1.0000 </r>
       <r>  -15.6856    1.0000 </r>
       <r>  -14.3487    1.0000 </r>
       <r>  -10.1664    1.0000 </r>
       <r>   -9.3522    1.0000 </r>
       <r>   -5.7768    1.0000 </r>
       <r>   -4.7581    1.0000 </r>
       <r>   -1.2492    0.0000 </r>
       <r>   -0.1161    0.0000 </r>
       <r>    4.2916    0.0000 </r>
       <r>    5.0993    0.0000 </r>
      </set>
      <set comment="kpoint 218">
       <r>  -17.8930    1.0000 </r>
       <r>  -16.7956    1.0000 </r>
       <r>  -15.6695    1.0000 </r>
       <r>  -14.6004    1.0000 </r>
       <r>   -9.8933    1.0000 </r>
       <r>   -9.2594    1.0000 </r>
       <r>   -5.6558    1.0000 </r>
       <r>   -4.8684    1.0000 </r>
       <r>   -1.1846    0.0000 </r>
       <r>   -0.3118    0.0000 </r>
       <r>    4.0856    0.0000 </r>
       <r>    4.7169    0.0000 </r>
      </set>
      <set comment="kpoint 219">
       <r>  -17.7278    1.0000 </r>
       <r>  -16.9703    1.0000 </r>
       <r>  -15.5769    1.0000 </r>
       <r>  -14.8379    1.0000 </r>
       <r>   -9.6570    1.0000 </r>
       <r>   -9.2223    1.0000 </r>
       <r>   -5.5269    1.0000 </r>
       <r>   -4.9906    1.0000 </r>
       <r>   -1.0933    0.0000 </r>
       <r>   -0.5001    0.0000 </r>
       <r>    3.9678    0.0000 </r>
       <r>    4.4019    0.0000 </r>
      </set>
      <set comment="kpoint 220">
       <r>  -17.5491    1.0000 </r>
       <r>  -17.1639    1.0000 </r>
       <r>  -15.4347    1.0000 </r>
       <r>  -15.0586    1.0000 </r>
       <r>   -9.4657    1.0000 </r>
       <r>   -9.2445    1.0000 </r>
       <r>   -5.3929    1.0000 </r>
       <r>   -5.1212    1.0000 </r>
       <r>   -0.9765    0.0000 </r>
       <r>   -0.6764    0.0000 </r>
       <r>    3.9418    0.0000 </r>
       <r>    4.1630    0.0000 </r>
      </set>
      <set comment="kpoint 221">
       <r>  -17.3596    1.0000 </r>
       <r>  -17.3596    1.0000 </r>
       <r>  -15.2591    1.0000 </r>
       <r>  -15.2591    1.0000 </r>
       <r>   -9.3265    1.0000 </r>
       <r>   -9.3265    1.0000 </r>
       <r>   -5.2565    1.0000 </r>
       <r>   -5.2565    1.0000 </r>
       <r>   -0.8365    0.0000 </r>
       <r>   -0.8365    0.0000 </r>
       <r>    4.0077    0.0000 </r>
       <r>    4.0077    0.0000 </r>
      </set>
      <set comment="kpoint 222">
       <r>  -18.1951    1.0000 </r>
       <r>  -17.2832    1.0000 </r>
       <r>  -13.8289    1.0000 </r>
       <r>  -12.9948    1.0000 </r>
       <r>  -11.9522    1.0000 </r>
       <r>  -11.1908    1.0000 </r>
       <r>   -5.8176    1.0000 </r>
       <r>   -4.8734    1.0000 </r>
       <r>   -0.6955    0.0000 </r>
       <r>    0.3863    0.0000 </r>
       <r>    5.9207    0.0000 </r>
       <r>    6.6455    0.0000 </r>
      </set>
      <set comment="kpoint 223">
       <r>  -18.1861    1.0000 </r>
       <r>  -17.2749    1.0000 </r>
       <r>  -13.8963    1.0000 </r>
       <r>  -13.0597    1.0000 </r>
       <r>  -11.8798    1.0000 </r>
       <r>  -11.1257    1.0000 </r>
       <r>   -5.8106    1.0000 </r>
       <r>   -4.8717    1.0000 </r>
       <r>   -0.7089    0.0000 </r>
       <r>    0.3657    0.0000 </r>
       <r>    5.9335    0.0000 </r>
       <r>    6.6615    0.0000 </r>
      </set>
      <set comment="kpoint 224">
       <r>  -18.1589    1.0000 </r>
       <r>  -17.2502    1.0000 </r>
       <r>  -14.0726    1.0000 </r>
       <r>  -13.2307    1.0000 </r>
       <r>  -11.6891    1.0000 </r>
       <r>  -10.9551    1.0000 </r>
       <r>   -5.7898    1.0000 </r>
       <r>   -4.8669    1.0000 </r>
       <r>   -0.7475    0.0000 </r>
       <r>    0.3054    0.0000 </r>
       <r>    5.9718    0.0000 </r>
       <r>    6.7091    0.0000 </r>
      </set>
      <set comment="kpoint 225">
       <r>  -18.1138    1.0000 </r>
       <r>  -17.2095    1.0000 </r>
       <r>  -14.3111    1.0000 </r>
       <r>  -13.4643    1.0000 </r>
       <r>  -11.4278    1.0000 </r>
       <r>  -10.7238    1.0000 </r>
       <r>   -5.7555    1.0000 </r>
       <r>   -4.8601    1.0000 </r>
       <r>   -0.8070    0.0000 </r>
       <r>    0.2096    0.0000 </r>
       <r>    6.0337    0.0000 </r>
       <r>    6.6961    0.0000 </r>
      </set>
      <set comment="kpoint 226">
       <r>  -18.0510    1.0000 </r>
       <r>  -17.1538    1.0000 </r>
       <r>  -14.5772    1.0000 </r>
       <r>  -13.7284    1.0000 </r>
       <r>  -11.1319    1.0000 </r>
       <r>  -10.4670    1.0000 </r>
       <r>   -5.7085    1.0000 </r>
       <r>   -4.8530    1.0000 </r>
       <r>   -0.8810    0.0000 </r>
       <r>    0.0847    0.0000 </r>
       <r>    6.0657    0.0000 </r>
       <r>    6.2042    0.0000 </r>
      </set>
      <set comment="kpoint 227">
       <r>  -17.9707    1.0000 </r>
       <r>  -17.0846    1.0000 </r>
       <r>  -14.8504    1.0000 </r>
       <r>  -14.0044    1.0000 </r>
       <r>  -10.8239    1.0000 </r>
       <r>  -10.2071    1.0000 </r>
       <r>   -5.6498    1.0000 </r>
       <r>   -4.8479    1.0000 </r>
       <r>   -0.9612    0.0000 </r>
       <r>   -0.0619    0.0000 </r>
       <r>    5.6183    0.0000 </r>
       <r>    6.2168    0.0000 </r>
      </set>
      <set comment="kpoint 228">
       <r>  -17.8734    1.0000 </r>
       <r>  -17.0049    1.0000 </r>
       <r>  -15.1173    1.0000 </r>
       <r>  -14.2815    1.0000 </r>
       <r>  -10.5185    1.0000 </r>
       <r>   -9.9597    1.0000 </r>
       <r>   -5.5808    1.0000 </r>
       <r>   -4.8476    1.0000 </r>
       <r>   -1.0392    0.0000 </r>
       <r>   -0.2222    0.0000 </r>
       <r>    5.1604    0.0000 </r>
       <r>    5.7067    0.0000 </r>
      </set>
      <set comment="kpoint 229">
       <r>  -17.7598    1.0000 </r>
       <r>  -16.9203    1.0000 </r>
       <r>  -15.3666    1.0000 </r>
       <r>  -14.5531    1.0000 </r>
       <r>  -10.2272    1.0000 </r>
       <r>   -9.7371    1.0000 </r>
       <r>   -5.5032    1.0000 </r>
       <r>   -4.8551    1.0000 </r>
       <r>   -1.1063    0.0000 </r>
       <r>   -0.3883    0.0000 </r>
       <r>    4.7592    0.0000 </r>
       <r>    5.2421    0.0000 </r>
      </set>
      <set comment="kpoint 230">
       <r>  -17.6309    1.0000 </r>
       <r>  -16.8420    1.0000 </r>
       <r>  -15.5832    1.0000 </r>
       <r>  -14.8144    1.0000 </r>
       <r>   -9.9601    1.0000 </r>
       <r>   -9.5498    1.0000 </r>
       <r>   -5.4192    1.0000 </r>
       <r>   -4.8731    1.0000 </r>
       <r>   -1.1548    0.0000 </r>
       <r>   -0.5530    0.0000 </r>
       <r>    4.4260    0.0000 </r>
       <r>    4.8326    0.0000 </r>
      </set>
      <set comment="kpoint 231">
       <r>  -17.4883    1.0000 </r>
       <r>  -16.7919    1.0000 </r>
       <r>  -15.7433    1.0000 </r>
       <r>  -15.0614    1.0000 </r>
       <r>   -9.7266    1.0000 </r>
       <r>   -9.4068    1.0000 </r>
       <r>   -5.3315    1.0000 </r>
       <r>   -4.9039    1.0000 </r>
       <r>   -1.1784    0.0000 </r>
       <r>   -0.7093    0.0000 </r>
       <r>    4.1697    0.0000 </r>
       <r>    4.4878    0.0000 </r>
      </set>
      <set comment="kpoint 232">
       <r>  -17.3348    1.0000 </r>
       <r>  -16.8012    1.0000 </r>
       <r>  -15.8140    1.0000 </r>
       <r>  -15.2898    1.0000 </r>
       <r>   -9.5353    1.0000 </r>
       <r>   -9.3159    1.0000 </r>
       <r>   -5.2430    1.0000 </r>
       <r>   -4.9487    1.0000 </r>
       <r>   -1.1729    0.0000 </r>
       <r>   -0.8509    0.0000 </r>
       <r>    3.9978    0.0000 </r>
       <r>    4.2166    0.0000 </r>
      </set>
      <set comment="kpoint 233">
       <r>  -17.1752    1.0000 </r>
       <r>  -16.8843    1.0000 </r>
       <r>  -15.7801    1.0000 </r>
       <r>  -15.4938    1.0000 </r>
       <r>   -9.3939    1.0000 </r>
       <r>   -9.2822    1.0000 </r>
       <r>   -5.1571    1.0000 </r>
       <r>   -5.0070    1.0000 </r>
       <r>   -1.1362    0.0000 </r>
       <r>   -0.9723    0.0000 </r>
       <r>    3.9156    0.0000 </r>
       <r>    4.0272    0.0000 </r>
      </set>
      <set comment="kpoint 234">
       <r>  -17.0190    1.0000 </r>
       <r>  -17.0190    1.0000 </r>
       <r>  -15.6635    1.0000 </r>
       <r>  -15.6635    1.0000 </r>
       <r>   -9.3084    1.0000 </r>
       <r>   -9.3084    1.0000 </r>
       <r>   -5.0774    1.0000 </r>
       <r>   -5.0774    1.0000 </r>
       <r>   -1.0686    0.0000 </r>
       <r>   -1.0686    0.0000 </r>
       <r>    3.9256    0.0000 </r>
       <r>    3.9256    0.0000 </r>
      </set>
      <set comment="kpoint 235">
       <r>  -17.7473    1.0000 </r>
       <r>  -17.7473    1.0000 </r>
       <r>  -13.4220    1.0000 </r>
       <r>  -13.4220    1.0000 </r>
       <r>  -11.5808    1.0000 </r>
       <r>  -11.5808    1.0000 </r>
       <r>   -5.3482    1.0000 </r>
       <r>   -5.3482    1.0000 </r>
       <r>   -0.1651    0.0000 </r>
       <r>   -0.1651    0.0000 </r>
       <r>    6.5593    0.0000 </r>
       <r>    6.5593    0.0000 </r>
      </set>
      <set comment="kpoint 236">
       <r>  -17.7385    1.0000 </r>
       <r>  -17.7385    1.0000 </r>
       <r>  -13.4885    1.0000 </r>
       <r>  -13.4885    1.0000 </r>
       <r>  -11.5117    1.0000 </r>
       <r>  -11.5117    1.0000 </r>
       <r>   -5.3432    1.0000 </r>
       <r>   -5.3432    1.0000 </r>
       <r>   -0.1828    0.0000 </r>
       <r>   -0.1828    0.0000 </r>
       <r>    6.5720    0.0000 </r>
       <r>    6.5720    0.0000 </r>
      </set>
      <set comment="kpoint 237">
       <r>  -17.7122    1.0000 </r>
       <r>  -17.7122    1.0000 </r>
       <r>  -13.6631    1.0000 </r>
       <r>  -13.6631    1.0000 </r>
       <r>  -11.3302    1.0000 </r>
       <r>  -11.3302    1.0000 </r>
       <r>   -5.3285    1.0000 </r>
       <r>   -5.3285    1.0000 </r>
       <r>   -0.2344    0.0000 </r>
       <r>   -0.2344    0.0000 </r>
       <r>    6.6096    0.0000 </r>
       <r>    6.6096    0.0000 </r>
      </set>
      <set comment="kpoint 238">
       <r>  -17.6686    1.0000 </r>
       <r>  -17.6686    1.0000 </r>
       <r>  -13.9003    1.0000 </r>
       <r>  -13.9003    1.0000 </r>
       <r>  -11.0827    1.0000 </r>
       <r>  -11.0827    1.0000 </r>
       <r>   -5.3047    1.0000 </r>
       <r>   -5.3047    1.0000 </r>
       <r>   -0.3158    0.0000 </r>
       <r>   -0.3158    0.0000 </r>
       <r>    6.6667    0.0000 </r>
       <r>    6.6668    0.0000 </r>
      </set>
      <set comment="kpoint 239">
       <r>  -17.6080    1.0000 </r>
       <r>  -17.6080    1.0000 </r>
       <r>  -14.1671    1.0000 </r>
       <r>  -14.1671    1.0000 </r>
       <r>  -10.8050    1.0000 </r>
       <r>  -10.8050    1.0000 </r>
       <r>   -5.2730    1.0000 </r>
       <r>   -5.2730    1.0000 </r>
       <r>   -0.4204    0.0000 </r>
       <r>   -0.4204    0.0000 </r>
       <r>    6.4277    0.0000 </r>
       <r>    6.4277    0.0000 </r>
      </set>
      <set comment="kpoint 240">
       <r>  -17.5312    1.0000 </r>
       <r>  -17.5312    1.0000 </r>
       <r>  -14.4442    1.0000 </r>
       <r>  -14.4442    1.0000 </r>
       <r>  -10.5195    1.0000 </r>
       <r>  -10.5195    1.0000 </r>
       <r>   -5.2350    1.0000 </r>
       <r>   -5.2350    1.0000 </r>
       <r>   -0.5406    0.0000 </r>
       <r>   -0.5406    0.0000 </r>
       <r>    5.9038    0.0000 </r>
       <r>    5.9038    0.0000 </r>
      </set>
      <set comment="kpoint 241">
       <r>  -17.4390    1.0000 </r>
       <r>  -17.4390    1.0000 </r>
       <r>  -14.7202    1.0000 </r>
       <r>  -14.7202    1.0000 </r>
       <r>  -10.2414    1.0000 </r>
       <r>  -10.2414    1.0000 </r>
       <r>   -5.1927    1.0000 </r>
       <r>   -5.1927    1.0000 </r>
       <r>   -0.6680    0.0000 </r>
       <r>   -0.6680    0.0000 </r>
       <r>    5.4165    0.0000 </r>
       <r>    5.4165    0.0000 </r>
      </set>
      <set comment="kpoint 242">
       <r>  -17.3331    1.0000 </r>
       <r>  -17.3331    1.0000 </r>
       <r>  -14.9876    1.0000 </r>
       <r>  -14.9876    1.0000 </r>
       <r>   -9.9826    1.0000 </r>
       <r>   -9.9826    1.0000 </r>
       <r>   -5.1488    1.0000 </r>
       <r>   -5.1488    1.0000 </r>
       <r>   -0.7940    0.0000 </r>
       <r>   -0.7940    0.0000 </r>
       <r>    4.9809    0.0000 </r>
       <r>    4.9809    0.0000 </r>
      </set>
      <set comment="kpoint 243">
       <r>  -17.2163    1.0000 </r>
       <r>  -17.2163    1.0000 </r>
       <r>  -15.2400    1.0000 </r>
       <r>  -15.2400    1.0000 </r>
       <r>   -9.7535    1.0000 </r>
       <r>   -9.7535    1.0000 </r>
       <r>   -5.1062    1.0000 </r>
       <r>   -5.1062    1.0000 </r>
       <r>   -0.9107    0.0000 </r>
       <r>   -0.9107    0.0000 </r>
       <r>    4.6072    0.0000 </r>
       <r>    4.6072    0.0000 </r>
      </set>
      <set comment="kpoint 244">
       <r>  -17.0939    1.0000 </r>
       <r>  -17.0939    1.0000 </r>
       <r>  -15.4697    1.0000 </r>
       <r>  -15.4697    1.0000 </r>
       <r>   -9.5634    1.0000 </r>
       <r>   -9.5634    1.0000 </r>
       <r>   -5.0683    1.0000 </r>
       <r>   -5.0683    1.0000 </r>
       <r>   -1.0106    0.0000 </r>
       <r>   -1.0106    0.0000 </r>
       <r>    4.3044    0.0000 </r>
       <r>    4.3044    0.0000 </r>
      </set>
      <set comment="kpoint 245">
       <r>  -16.9762    1.0000 </r>
       <r>  -16.9762    1.0000 </r>
       <r>  -15.6650    1.0000 </r>
       <r>  -15.6650    1.0000 </r>
       <r>   -9.4208    1.0000 </r>
       <r>   -9.4208    1.0000 </r>
       <r>   -5.0383    1.0000 </r>
       <r>   -5.0383    1.0000 </r>
       <r>   -1.0871    0.0000 </r>
       <r>   -1.0871    0.0000 </r>
       <r>    4.0812    0.0000 </r>
       <r>    4.0812    0.0000 </r>
      </set>
      <set comment="kpoint 246">
       <r>  -16.8831    1.0000 </r>
       <r>  -16.8831    1.0000 </r>
       <r>  -15.8049    1.0000 </r>
       <r>  -15.8049    1.0000 </r>
       <r>   -9.3323    1.0000 </r>
       <r>   -9.3323    1.0000 </r>
       <r>   -5.0190    1.0000 </r>
       <r>   -5.0190    1.0000 </r>
       <r>   -1.1352    0.0000 </r>
       <r>   -1.1352    0.0000 </r>
       <r>    3.9442    0.0000 </r>
       <r>    3.9442    0.0000 </r>
      </set>
      <set comment="kpoint 247">
       <r>  -16.8459    1.0000 </r>
       <r>  -16.8459    1.0000 </r>
       <r>  -15.8579    1.0000 </r>
       <r>  -15.8579    1.0000 </r>
       <r>   -9.3022    1.0000 </r>
       <r>   -9.3022    1.0000 </r>
       <r>   -5.0123    1.0000 </r>
       <r>   -5.0123    1.0000 </r>
       <r>   -1.1516    0.0000 </r>
       <r>   -1.1516    0.0000 </r>
       <r>    3.8980    0.0000 </r>
       <r>    3.8980    0.0000 </r>
      </set>
     </set>
    </set>
   </array>
  </eigenvalues>
  <separator name="orbital magnetization" >
   <v name="MAGDIPOLOUT">      0.00000000      0.00000000      0.00000000</v>
  </separator>
 </calculation>
 <structure name="finalpos" >
  <crystal>
   <varray name="basis" >
    <v>       4.37966960       0.00000000       0.00000000 </v>
    <v>       0.00000000       2.45721886       0.00000000 </v>
    <v>       0.00000000       0.00000000      19.59131092 </v>
   </varray>
   <i name="volume">    210.83790140 </i>
   <varray name="rec_basis" >
    <v>       0.22832773       0.00000000       0.00000000 </v>
    <v>       0.00000000       0.40696416       0.00000000 </v>
    <v>       0.00000000       0.00000000       0.05104304 </v>
   </varray>
  </crystal>
  <varray name="positions" >
   <v>       0.99946192       0.00000000      -0.00000000 </v>
   <v>       0.16720475       0.50000000       0.00000000 </v>
   <v>       0.49946192       0.50000000      -0.00000000 </v>
   <v>       0.66720475      -0.00000000       0.00000000 </v>
  </varray>
 </structure>
</modeling>
