gr                                      
           1
     4.379670    0.000000    0.000000
     0.000000    2.457219    0.000000
     0.000000    0.000000   19.591311
   C 
   4
Direct configuration=     1
   0.99945869  0.00000000  0.00000000
   0.16720798  0.50000000  0.00000000
   0.49945869  0.50000000  0.00000000
   0.66720798  0.00000000  0.00000000
Direct configuration=     2
   0.99947384  0.00000000 -0.00000000
   0.16719283  0.50000000  0.00000000
   0.49947384  0.50000000 -0.00000000
   0.66719283 -0.00000000  0.00000000
Direct configuration=     3
   0.99946192  0.00000000 -0.00000000
   0.16720475  0.50000000  0.00000000
   0.49946192  0.50000000 -0.00000000
   0.66720475 -0.00000000  0.00000000
Direct configuration=     4
   0.99946191  0.00000000 -0.00000000
   0.16720476  0.50000000  0.00000000
   0.49946191  0.50000000 -0.00000000
   0.66720476 -0.00000000  0.00000000
Direct configuration=     5
   0.99946192  0.00000000 -0.00000000
   0.16720475  0.50000000  0.00000000
   0.49946192  0.50000000 -0.00000000
   0.66720475 -0.00000000  0.00000000
