    4    4  400    1
  0.5270948E+02  0.4255145E-09  0.2529108E-09  0.1959146E-08  0.5000000E-15
  1.000000000000000E-004
  CAR 
 gr                                      
     16    247     12
 
  0.0000000E+00  0.0000000E+00  0.0000000E+00  0.1157407E-02
    1      -22.081253
    2      -16.704105
    3      -15.864479
    4      -10.225840
    5       -9.474412
    6       -5.991330
    7       -5.742213
    8       -4.904542
    9       -1.143125
   10        0.544709
   11        1.342777
   12        3.487371
 
  0.4166667E-01  0.0000000E+00  0.0000000E+00  0.2314815E-02
    1      -22.070880
    2      -16.900441
    3      -15.653134
    4      -10.213529
    5       -9.463999
    6       -6.015069
    7       -5.782393
    8       -4.974709
    9       -1.058159
   10        0.558765
   11        1.356980
   12        3.422730
 
  0.8333333E-01  0.0000000E+00  0.0000000E+00  0.2314815E-02
    1      -22.039765
    2      -17.267066
    3      -15.241571
    4      -10.176618
    5       -9.432810
    6       -6.084912
    7       -5.901480
    8       -5.168026
    9       -0.820622
   10        0.600930
   11        1.399569
   12        3.493619
 
  0.1250000E+00  0.0000000E+00  0.0000000E+00  0.2314815E-02
    1      -21.987928
    2      -17.660009
    3      -14.774045
    4      -10.115162
    5       -9.380995
    6       -6.196992
    7       -6.095326
    8       -5.447322
    9       -0.468217
   10        0.671219
   11        1.470554
   12        1.870104
 
  0.1666667E+00  0.0000000E+00  0.0000000E+00  0.2314815E-02
    1      -21.915404
    2      -18.049688
    3      -14.280618
    4      -10.029260
    5       -9.308811
    6       -6.357651
    7       -6.345587
    8       -5.777299
    9       -0.037140
   10        0.769549
   11        1.569867
   12        1.968079
 
  0.2083333E+00  0.0000000E+00  0.0000000E+00  0.2314815E-02
    1      -21.822243
    2      -18.427848
    3      -13.770235
    4       -9.919049
    5       -9.216629
    6       -6.680805
    7       -6.523927
    8       -6.132761
    9        0.446157
   10        0.895988
   11        1.697700
   12        2.098850
 
  0.2500000E+00  0.0000000E+00  0.0000000E+00  0.2314815E-02
    1      -21.708509
    2      -18.791214
    3      -13.247084
    4       -9.784720
    5       -9.104945
    6       -7.056505
    7       -6.724947
    8       -6.497453
    9        0.963777
   10        1.050486
   11        1.853513
   12        2.257722
 
  0.2916667E+00  0.0000000E+00  0.0000000E+00  0.2314815E-02
    1      -21.574282
    2      -19.138129
    3      -12.713979
    4       -9.626513
    5       -8.974400
    6       -7.476449
    7       -6.941852
    8       -6.861061
    9        1.232991
   10        1.503484
   11        2.037675
   12        2.444857
 
  0.3333333E+00  0.0000000E+00  0.0000000E+00  0.2314815E-02
    1      -21.419659
    2      -19.467599
    3      -12.173352
    4       -9.444735
    5       -8.825797
    6       -7.932732
    7       -7.216905
    8       -7.168449
    9        1.443497
   10        2.068974
   11        2.250025
   12        2.675870
 
  0.3750000E+00  0.0000000E+00  0.0000000E+00  0.2314815E-02
    1      -21.244754
    2      -19.778950
    3      -11.627626
    4       -9.239769
    5       -8.660137
    6       -8.418098
    7       -7.560520
    8       -7.399305
    9        1.681878
   10        2.490322
   11        2.631210
   12        2.903777
 
  0.4166667E+00  0.0000000E+00  0.0000000E+00  0.2314815E-02
    1      -21.049702
    2      -20.071684
    3      -11.079403
    4       -9.012091
    5       -8.926045
    6       -8.478647
    7       -7.888810
    8       -7.629769
    9        1.948098
   10        2.758145
   11        3.219721
   12        3.283893
 
  0.4583333E+00  0.0000000E+00  0.0000000E+00  0.2314815E-02
    1      -20.834663
    2      -20.345413
    3      -10.531585
    4       -9.450839
    5       -8.762296
    6       -8.282828
    7       -8.199561
    8       -7.855925
    9        2.242053
   10        2.911909
   11        3.054553
   12        4.261035
 
  0.5000000E+00  0.0000000E+00  0.0000000E+00  0.1157407E-02
    1      -20.599827
    2      -20.599827
    3       -9.987470
    4       -9.987470
    5       -8.491134
    6       -8.491134
    7       -8.074512
    8       -8.074512
    9        2.563363
   10        2.563476
   11        3.373165
   12        3.983904
 
  0.0000000E+00  0.2777778E-01  0.0000000E+00  0.2314815E-02
    1      -22.068241
    2      -16.692873
    3      -15.854104
    4      -10.210398
    5       -9.532594
    6       -6.044925
    7       -5.774386
    8       -4.888791
    9       -1.149286
   10        0.562308
   11        1.360652
   12        2.456906
 
  0.4166667E-01  0.2777778E-01  0.0000000E+00  0.4629630E-02
    1      -22.057869
    2      -16.889109
    3      -15.642920
    4      -10.198093
    5       -9.522150
    6       -6.071642
    7       -5.810854
    8       -4.959136
    9       -1.064274
   10        0.576363
   11        1.374843
   12        1.768080
 
  0.8333333E-01  0.2777778E-01  0.0000000E+00  0.4629630E-02
    1      -22.026758
    2      -17.255533
    3      -15.231746
    4      -10.161195
    5       -9.490866
    6       -6.151576
    7       -5.917786
    8       -5.152850
    9       -0.826736
   10        0.618554
   11        1.417464
   12        1.812623
 
  0.1250000E+00  0.2777778E-01  0.0000000E+00  0.4629630E-02
    1      -21.974929
    2      -17.648271
    3      -14.764747
    4      -10.099762
    5       -9.438888
    6       -6.286190
    7       -6.086050
    8       -5.432538
    9       -0.474601
   10        0.688926
   11        1.488485
   12        1.884085
 
  0.1666667E+00  0.2777778E-01  0.0000000E+00  0.4629630E-02
    1      -21.902415
    2      -18.037764
    3      -14.271972
    4      -10.013891
    5       -9.366461
    6       -6.485447
    7       -6.294116
    8       -5.762789
    9       -0.044155
   10        0.787200
   11        1.587726
   12        1.983885
 
  0.2083333E+00  0.2777778E-01  0.0000000E+00  0.4629630E-02
    1      -21.809269
    2      -18.415761
    3      -13.762385
    4       -9.903722
    5       -9.273941
    6       -6.763806
    7       -6.513509
    8       -6.118399
    9        0.438091
   10        0.913615
   11        1.715346
   12        3.571511
 
  0.2500000E+00  0.2777778E-01  0.0000000E+00  0.4629630E-02
    1      -21.695552
    2      -18.778985
    3      -13.240199
    4       -9.769442
    5       -9.161807
    6       -7.113751
    7       -6.736697
    8       -6.483139
    9        0.954307
   10        1.068130
   11        1.871280
   12        2.271492
 
  0.2916667E+00  0.2777778E-01  0.0000000E+00  0.4629630E-02
    1      -21.561347
    2      -19.125778
    3      -12.708269
    4       -9.611295
    5       -9.030671
    6       -7.517606
    7       -6.966432
    8       -6.846727
    9        1.250651
   10        1.492805
   11        2.055487
   12        2.460915
 
  0.3333333E+00  0.2777778E-01  0.0000000E+00  0.4629630E-02
    1      -21.406749
    2      -19.455142
    3      -12.169074
    4       -9.429586
    5       -8.881304
    6       -7.962606
    7       -7.202509
    8       -7.201458
    9        1.461159
   10        2.042896
   11        2.267978
   12        2.679542
 
  0.3750000E+00  0.2777778E-01  0.0000000E+00  0.4629630E-02
    1      -21.231875
    2      -19.766402
    3      -11.625101
    4       -9.224697
    5       -8.714660
    6       -8.439515
    7       -7.546037
    8       -7.438326
    9        1.699568
   10        2.508047
   11        2.625514
   12        2.922099
 
  0.4166667E+00  0.2777778E-01  0.0000000E+00  0.4629630E-02
    1      -21.036860
    2      -20.059059
    3      -11.079032
    4       -8.997105
    5       -8.940909
    6       -8.531909
    7       -7.874227
    8       -7.673274
    9        1.965829
   10        2.776109
   11        3.190662
   12        3.303621
 
  0.4583333E+00  0.2777778E-01  0.0000000E+00  0.4629630E-02
    1      -20.821863
    2      -20.332721
    3      -10.533873
    4       -9.460538
    5       -8.747404
    6       -8.334477
    7       -8.184873
    8       -7.902857
    9        2.259783
   10        2.930111
   11        3.071675
   12        3.528194
 
  0.5000000E+00  0.2777778E-01  0.0000000E+00  0.2314815E-02
    1      -20.587076
    2      -20.587076
    3       -9.993056
    4       -9.993056
    5       -8.476343
    6       -8.476343
    7       -8.124095
    8       -8.124095
    9        2.581168
   10        2.581258
   11        3.390114
   12        3.391184
 
  0.0000000E+00  0.5555556E-01  0.0000000E+00  0.2314815E-02
    1      -22.029218
    2      -16.659181
    3      -15.823189
    4      -10.164107
    5       -9.702343
    6       -6.201538
    7       -5.869874
    8       -4.841559
    9       -1.168555
   10        0.615111
   11        1.414184
   12        1.840230
 
  0.4166667E-01  0.5555556E-01  0.0000000E+00  0.4629630E-02
    1      -22.018849
    2      -16.855139
    3      -15.612475
    4      -10.151815
    5       -9.691799
    6       -6.234534
    7       -5.897931
    8       -4.912455
    9       -1.083392
   10        0.629165
   11        1.428407
   12        3.722009
 
  0.8333333E-01  0.5555556E-01  0.0000000E+00  0.4629630E-02
    1      -21.987751
    2      -17.220969
    3      -15.202476
    4      -10.114959
    5       -9.660211
    6       -6.331516
    7       -5.981793
    8       -5.107394
    9       -0.845833
   10        0.671341
   11        1.470953
   12        3.593948
 
  0.1250000E+00  0.5555556E-01  0.0000000E+00  0.4629630E-02
    1      -21.935944
    2      -17.613091
    3      -14.737089
    4      -10.053594
    5       -9.607704
    6       -6.487900
    7       -6.119348
    8       -5.388280
    9       -0.494509
   10        0.741629
   11        1.541892
   12        3.736522
 
  0.1666667E+00  0.5555556E-01  0.0000000E+00  0.4629630E-02
    1      -21.863463
    2      -18.002024
    3      -14.246328
    4       -9.967820
    5       -9.534493
    6       -6.699425
    7       -6.304542
    8       -5.719366
    9       -0.066069
   10        0.840025
   11        1.641189
   12        2.038374
 
  0.2083333E+00  0.5555556E-01  0.0000000E+00  0.4629630E-02
    1      -21.770358
    2      -18.379528
    3      -13.739207
    4       -9.857775
    5       -9.440885
    6       -6.964029
    7       -6.526593
    8       -6.075420
    9        0.413006
   10        0.966520
   11        1.768805
   12        2.172530
 
  0.2500000E+00  0.5555556E-01  0.0000000E+00  0.4629630E-02
    1      -21.656693
    2      -18.742325
    3      -13.220030
    4       -9.723648
    5       -9.327290
    6       -7.281081
    7       -6.771974
    8       -6.440303
    9        0.924985
   10        1.121036
   11        1.924702
   12        3.532371
 
  0.2916667E+00  0.5555556E-01  0.0000000E+00  0.4629630E-02
    1      -21.522553
    2      -19.088748
    3      -12.691777
    4       -9.565681
    5       -9.194232
    6       -7.648486
    7       -7.028394
    8       -6.803826
    9        1.303600
   10        1.457607
   11        2.108960
   12        2.513328
 
  0.3333333E+00  0.5555556E-01  0.0000000E+00  0.4629630E-02
    1      -21.368033
    2      -19.417795
    3      -12.157092
    4       -9.384181
    5       -9.042363
    6       -8.060967
    7       -7.287351
    8       -7.159414
    9        1.514143
   10        2.002127
   11        2.321189
   12        2.728365
 
  0.3750000E+00  0.5555556E-01  0.0000000E+00  0.4629630E-02
    1      -21.193252
    2      -19.728780
    3      -11.618674
    4       -9.179529
    5       -8.872477
    6       -8.511100
    7       -7.543621
    8       -7.502672
    9        1.752696
   10        2.561323
   11        2.971527
   12        3.709269
 
  0.4166667E+00  0.5555556E-01  0.0000000E+00  0.4629630E-02
    1      -20.998345
    2      -20.021201
    3      -11.079485
    4       -8.991081
    5       -8.952200
    6       -8.685539
    7       -7.830555
    8       -7.793738
    9        2.018927
   10        2.829306
   11        3.246424
   12        3.356149
 
  0.4583333E+00  0.5555556E-01  0.0000000E+00  0.4629630E-02
    1      -20.783477
    2      -20.294660
    3      -10.542889
    4       -9.493729
    5       -8.702785
    6       -8.482700
    7       -8.140879
    8       -8.035046
    9        2.313209
   10        2.983561
   11        3.125619
   12        3.553591
 
  0.5000000E+00  0.5555556E-01  0.0000000E+00  0.2314815E-02
    1      -20.548840
    2      -20.548840
    3      -10.012784
    4      -10.012784
    5       -8.432030
    6       -8.432030
    7       -8.265330
    8       -8.265330
    9        2.634503
   10        2.634723
   11        3.452228
   12        3.670753
 
  0.0000000E+00  0.8333333E-01  0.0000000E+00  0.2314815E-02
    1      -21.964219
    2      -16.603042
    3      -15.772401
    4      -10.087062
    5       -9.970557
    6       -6.449880
    7       -6.025692
    8       -4.762902
    9       -1.203261
   10        0.703133
   11        1.503432
   12        1.962282
 
  0.4166667E-01  0.8333333E-01  0.0000000E+00  0.4629630E-02
    1      -21.953858
    2      -16.798604
    3      -15.562424
    4      -10.074794
    5       -9.959824
    6       -6.489149
    7       -6.044132
    8       -4.834777
    9       -1.117805
   10        0.717208
   11        1.517693
   12        1.914289
 
  0.8333333E-01  0.8333333E-01  0.0000000E+00  0.4629630E-02
    1      -21.922781
    2      -17.163478
    3      -15.154421
    4      -10.038008
    5       -9.927655
    6       -6.600729
    7       -6.103893
    8       -5.031873
    9       -0.880148
   10        0.759376
   11        1.560160
   12        3.173004
 
  0.1250000E+00  0.8333333E-01  0.0000000E+00  0.4629630E-02
    1      -21.871011
    2      -17.554572
    3      -14.691849
    4       -9.976761
    5       -9.874137
    6       -6.771825
    7       -6.212510
    8       -5.314846
    9       -0.530171
   10        0.829688
   11        1.631098
   12        2.027749
 
  0.1666667E+00  0.8333333E-01  0.0000000E+00  0.4629630E-02
    1      -21.798584
    2      -17.942561
    3      -14.204649
    4       -9.891152
    5       -9.799419
    6       -6.990935
    7       -6.373053
    8       -5.647363
    9       -0.105110
   10        0.928104
   11        1.730316
   12        2.289592
 
  0.2083333E+00  0.8333333E-01  0.0000000E+00  0.4629630E-02
    1      -21.705548
    2      -18.319234
    3      -13.701932
    4       -9.781320
    5       -9.703709
    6       -7.250413
    7       -6.582165
    8       -6.004165
    9        0.368533
   10        1.054619
   11        1.857873
   12        2.257824
 
  0.2500000E+00  0.8333333E-01  0.0000000E+00  0.4629630E-02
    1      -21.591973
    2      -18.681309
    3      -13.188186
    4       -9.647455
    5       -9.587274
    6       -7.546512
    7       -6.830892
    8       -6.369271
    9        0.873197
   10        1.209195
   11        2.013728
   12        2.417002
 
  0.2916667E+00  0.8333333E-01  0.0000000E+00  0.4629630E-02
    1      -21.457941
    2      -19.027108
    3      -12.666644
    4       -9.489799
    5       -9.450444
    6       -7.878660
    7       -7.106355
    8       -6.732664
    9        1.391805
   10        1.396968
   11        2.197752
   12        2.603738
 
  0.3333333E+00  0.8333333E-01  0.0000000E+00  0.4629630E-02
    1      -21.303552
    2      -19.355617
    3      -12.140295
    4       -9.308658
    5       -9.293604
    6       -8.247813
    7       -7.394281
    8       -7.087901
    9        1.602399
   10        1.931204
   11        2.409917
   12        2.820700
 
  0.3750000E+00  0.8333333E-01  0.0000000E+00  0.4629630E-02
    1      -21.128925
    2      -19.666139
    3      -11.612290
    4       -9.117196
    5       -9.104413
    6       -8.654001
    7       -7.682097
    8       -7.430682
    9        1.840919
   10        2.469586
   11        2.650141
   12        3.064000
 
  0.4166667E+00  0.8333333E-01  0.0000000E+00  0.4629630E-02
    1      -20.934201
    2      -19.958162
    3      -11.086187
    4       -9.094572
    5       -8.921704
    6       -8.877536
    7       -7.961087
    8       -7.758026
    9        2.107432
   10        2.918376
   11        3.323724
   12        3.446004
 
  0.4583333E+00  0.8333333E-01  0.0000000E+00  0.4629630E-02
    1      -20.719549
    2      -20.231279
    3      -10.566123
    4       -9.564341
    5       -8.707657
    6       -8.628615
    7       -8.226390
    8       -8.067790
    9        2.401396
   10        3.072347
   11        3.213314
   12        3.662071
 
  0.5000000E+00  0.8333333E-01  0.0000000E+00  0.2314815E-02
    1      -20.485164
    2      -20.485164
    3      -10.056958
    4      -10.056958
    5       -8.475641
    6       -8.475641
    7       -8.358388
    8       -8.358388
    9        2.723107
   10        2.723160
   11        3.532554
   12        3.535090
 
  0.0000000E+00  0.1111111E+00  0.0000000E+00  0.2314815E-02
    1      -21.873308
    2      -16.524477
    3      -15.703011
    4      -10.318878
    5       -9.979428
    6       -6.774450
    7       -6.237211
    8       -4.652920
    9       -1.257193
   10        0.826410
   11        1.628333
   12        2.025224
 
  0.4166667E-01  0.1111111E+00  0.0000000E+00  0.4629630E-02
    1      -21.862957
    2      -16.719645
    3      -15.493962
    4      -10.307822
    5       -9.967193
    6       -6.819040
    7       -6.246032
    8       -4.726305
    9       -1.171220
   10        0.840476
   11        1.642468
   12        2.040404
 
  0.8333333E-01  0.1111111E+00  0.0000000E+00  0.4629630E-02
    1      -21.831912
    2      -17.083253
    3      -15.088856
    4      -10.274660
    5       -9.930510
    6       -6.942412
    7       -6.281722
    8       -4.926688
    9       -0.933256
   10        0.882662
   11        1.685023
   12        2.082516
 
  0.1250000E+00  0.1111111E+00  0.0000000E+00  0.4629630E-02
    1      -21.780195
    2      -17.472905
    3      -14.630543
    4      -10.219408
    5       -9.869435
    6       -7.124935
    7       -6.360311
    8       -5.212781
    9       -0.585127
   10        0.952977
   11        1.755855
   12        2.155075
 
  0.1666667E+00  0.1111111E+00  0.0000000E+00  0.4629630E-02
    1      -21.707842
    2      -17.859550
    3      -14.148842
    4      -10.142087
    5       -9.784067
    6       -7.350602
    7       -6.491641
    8       -5.547388
    9       -0.164917
   10        1.051402
   11        1.855009
   12        2.254995
 
  0.2083333E+00  0.1111111E+00  0.0000000E+00  0.4629630E-02
    1      -21.614906
    2      -18.235032
    3      -13.653044
    4      -10.042708
    5       -9.674548
    6       -7.608889
    7       -6.677577
    8       -5.905244
    9        0.300891
   10        1.177945
   11        1.982467
   12        2.384624
 
  0.2500000E+00  0.1111111E+00  0.0000000E+00  0.4629630E-02
    1      -21.501457
    2      -18.596072
    3      -13.147975
    4       -9.921257
    5       -9.541065
    6       -7.893541
    7       -6.913632
    8       -6.270627
    9        0.795055
   10        1.332548
   11        2.138179
   12        2.543889
 
  0.2916667E+00  0.1111111E+00  0.0000000E+00  0.4629630E-02
    1      -21.367577
    2      -18.940978
    3      -12.637357
    4       -9.777661
    5       -9.383864
    6       -8.201767
    7       -7.190512
    8       -6.633783
    9        1.306031
   10        1.515198
   11        2.322101
   12        2.730428
 
  0.3333333E+00  0.1111111E+00  0.0000000E+00  0.4629630E-02
    1      -21.213372
    2      -19.268717
    3      -12.124846
    4       -9.611754
    5       -9.203249
    6       -8.533794
    7       -7.495415
    8       -6.988468
    9        1.725840
   10        1.825511
   11        2.534083
   12        2.945218
 
  0.3750000E+00  0.1111111E+00  0.0000000E+00  0.4629630E-02
    1      -21.038964
    2      -19.578579
    3      -11.614485
    4       -9.423227
    5       -8.999601
    6       -8.892148
    7       -7.813533
    8       -7.330521
    9        1.964402
   10        2.375904
   11        2.774311
   12        3.219270
 
  0.4166667E+00  0.1111111E+00  0.0000000E+00  0.4629630E-02
    1      -20.844501
    2      -19.870033
    3      -11.110975
    4       -9.280018
    5       -9.211596
    6       -8.773389
    7       -8.130241
    8       -7.657051
    9        2.230937
   10        3.039603
   11        3.292673
   12        3.563693
 
  0.4583333E+00  0.1111111E+00  0.0000000E+00  0.4629630E-02
    1      -20.630155
    2      -20.142663
    3      -10.619797
    4       -9.698916
    5       -8.976257
    6       -8.525197
    7       -8.433745
    8       -7.965978
    9        2.524985
   10        3.196353
   11        3.337768
   12        3.392760
 
  0.5000000E+00  0.1111111E+00  0.0000000E+00  0.2314815E-02
    1      -20.396130
    2      -20.396130
    3      -10.147077
    4      -10.147077
    5       -8.716782
    6       -8.716782
    7       -8.255754
    8       -8.255754
    9        2.846793
   10        2.847438
   11        3.656649
   12        3.662402
 
  0.0000000E+00  0.1388889E+00  0.0000000E+00  0.2314815E-02
    1      -21.756578
    2      -16.423516
    3      -15.617178
    4      -10.726803
    5       -9.841440
    6       -7.158609
    7       -6.498583
    8       -4.511751
    9       -1.335396
   10        0.984969
   11        1.788746
   12        2.187938
 
  0.4166667E-01  0.1388889E+00  0.0000000E+00  0.4629630E-02
    1      -21.746241
    2      -16.618491
    3      -15.409132
    4      -10.715208
    5       -9.829252
    6       -7.207712
    7       -6.497944
    8       -4.587364
    9       -1.248522
   10        0.999038
   11        1.802899
   12        2.202131
 
  0.8333333E-01  0.1388889E+00  0.0000000E+00  0.4629630E-02
    1      -21.715236
    2      -16.980610
    3      -15.008000
    4      -10.680385
    5       -9.792708
    6       -7.341061
    7       -6.509414
    8       -4.792501
    9       -1.009778
   10        1.041200
   11        1.845371
   12        3.263353
 
  0.1250000E+00  0.1388889E+00  0.0000000E+00  0.4629630E-02
    1      -21.663586
    2      -17.368393
    3      -14.555873
    4      -10.622210
    5       -9.731867
    6       -7.533467
    7       -6.556245
    8       -5.082973
    9       -0.663876
   10        1.111495
   11        1.916139
   12        2.317339
 
  0.1666667E+00  0.1388889E+00  0.0000000E+00  0.4629630E-02
    1      -21.591332
    2      -17.753261
    3      -14.082392
    4      -10.540451
    5       -9.646827
    6       -7.765607
    7       -6.653984
    8       -5.420412
    9       -0.250034
   10        1.209909
   11        2.015191
   12        2.418081
 
  0.2083333E+00  0.1388889E+00  0.0000000E+00  0.4629630E-02
    1      -21.498526
    2      -18.127160
    3      -13.597193
    4      -10.434725
    5       -9.537731
    6       -8.025168
    7       -6.808898
    8       -5.779621
    9        0.205399
   10        1.336435
   11        2.142493
   12        4.049441
 
  0.2500000E+00  0.1388889E+00  0.0000000E+00  0.4629630E-02
    1      -21.385238
    2      -18.486823
    3      -13.105749
    4      -10.304436
    5       -9.404771
    6       -8.304455
    7       -7.020311
    8       -6.145284
    9        0.685699
   10        1.491057
   11        2.297981
   12        2.706035
 
  0.2916667E+00  0.1388889E+00  0.0000000E+00  0.4629630E-02
    1      -21.251559
    2      -18.830542
    3      -12.612728
    4      -10.148686
    5       -9.248190
    6       -8.598974
    7       -7.282414
    8       -6.508024
    9        1.179871
   10        1.673725
   11        2.481597
   12        2.930278
 
  0.3333333E+00  0.1388889E+00  0.0000000E+00  0.4629630E-02
    1      -21.097594
    2      -19.157261
    3      -12.123059
    4       -9.966189
    5       -9.068295
    6       -8.906884
    7       -7.585576
    8       -6.861878
    9        1.680176
   10        1.884382
   11        2.693283
   12        3.108418
 
  0.3750000E+00  0.1388889E+00  0.0000000E+00  0.4629630E-02
    1      -20.923474
    2      -19.466247
    3      -11.642374
    4       -9.755237
    5       -9.228872
    6       -8.865466
    7       -7.917317
    8       -7.202874
    9        2.122975
   10        2.180784
   11        2.932918
   12        3.353819
 
  0.4166667E+00  0.1388889E+00  0.0000000E+00  0.4629630E-02
    1      -20.729351
    2      -19.756950
    3      -11.177034
    4       -9.568030
    5       -9.513923
    6       -8.640169
    7       -8.263156
    8       -7.528248
    9        2.389412
   10        2.722441
   11        3.200462
   12        3.642658
 
  0.4583333E+00  0.1388889E+00  0.0000000E+00  0.4629630E-02
    1      -20.515407
    2      -20.028937
    3      -10.733518
    4       -9.929151
    5       -9.240924
    6       -8.607793
    7       -8.392983
    8       -7.835997
    9        2.683642
   10        3.353839
   11        3.495051
   12        3.883773
 
  0.5000000E+00  0.1388889E+00  0.0000000E+00  0.2314815E-02
    1      -20.281853
    2      -20.281853
    3      -10.316937
    4      -10.316937
    5       -8.937153
    6       -8.937153
    7       -8.124626
    8       -8.124626
    9        3.005415
   10        3.005717
   11        3.809030
   12        3.818295
 
  0.0000000E+00  0.1666667E+00  0.0000000E+00  0.2314815E-02
    1      -21.614149
    2      -16.300201
    3      -15.518535
    4      -11.173539
    5       -9.673414
    6       -7.586771
    7       -6.803212
    8       -4.339581
    9       -1.443780
   10        1.178824
   11        1.984709
   12        2.388866
 
  0.4166667E-01  0.1666667E+00  0.0000000E+00  0.4629630E-02
    1      -21.603829
    2      -16.495523
    3      -15.311393
    4      -11.161029
    5       -9.661287
    6       -7.639877
    7       -6.793266
    8       -4.418464
    9       -1.355312
   10        1.192863
   11        1.998826
   12        2.401754
 
  0.8333333E-01  0.1666667E+00  0.0000000E+00  0.4629630E-02
    1      -21.572875
    2      -16.856053
    3      -14.915703
    4      -11.123367
    5       -9.624926
    6       -7.782159
    7       -6.780411
    8       -4.630378
    9       -1.114803
   10        1.235004
   11        2.041213
   12        2.444544
 
  0.1250000E+00  0.1666667E+00  0.0000000E+00  0.4629630E-02
    1      -21.521311
    2      -17.241514
    3      -14.472669
    4      -11.060143
    5       -9.564390
    6       -7.983701
    7       -6.794121
    8       -4.926826
    9       -0.771228
   10        1.305262
   11        2.111849
   12        2.516131
 
  0.1666667E+00  0.1666667E+00  0.0000000E+00  0.4629630E-02
    1      -21.449178
    2      -17.624111
    3      -14.011722
    4      -10.970600
    5       -9.479781
    6       -8.222496
    7       -6.854891
    8       -5.267938
    9       -0.365217
   10        1.403608
   11        2.210682
   12        2.616650
 
  0.2083333E+00  0.1666667E+00  0.0000000E+00  0.4629630E-02
    1      -21.356531
    2      -17.995977
    3      -13.543207
    4      -10.853533
    5       -9.371243
    6       -8.484980
    7       -6.972894
    8       -5.628757
    9        0.077266
   10        1.530093
   11        2.337706
   12        2.745994
 
  0.2500000E+00  0.1666667E+00  0.0000000E+00  0.4629630E-02
    1      -21.243446
    2      -18.353870
    3      -13.073868
    4      -10.707149
    5       -9.238969
    6       -8.762667
    7       -7.150855
    8       -5.994596
    9        0.540341
   10        1.684666
   11        2.492800
   12        3.970493
 
  0.2916667E+00  0.1666667E+00  0.0000000E+00  0.4629630E-02
    1      -21.110015
    2      -18.696067
    3      -12.610125
    4      -10.528948
    5       -9.083206
    6       -9.050171
    7       -7.386025
    8       -6.356617
    9        1.013845
   10        1.867311
   11        2.675907
   12        3.092529
 
  0.3333333E+00  0.1666667E+00  0.0000000E+00  0.4629630E-02
    1      -20.956351
    2      -19.021482
    3      -12.158942
    4      -10.315809
    5       -9.344341
    6       -8.904263
    7       -7.671575
    8       -6.709235
    9        1.490801
   10        2.077961
   11        2.886872
   12        3.307741
 
  0.3750000E+00  0.1666667E+00  0.0000000E+00  0.4629630E-02
    1      -20.782591
    2      -19.329352
    3      -11.727566
    4      -10.064658
    5       -9.643989
    6       -8.702519
    7       -7.997704
    8       -7.048730
    9        1.966066
   10        2.316535
   11        3.125461
   12        3.552242
 
  0.4166667E+00  0.1666667E+00  0.0000000E+00  0.4629630E-02
    1      -20.588896
    2      -19.619102
    3      -11.322081
    4       -9.949920
    5       -9.774161
    6       -8.478441
    7       -8.352458
    8       -7.372496
    9        2.456237
   10        2.582943
   11        3.391072
   12        3.894517
 
  0.4583333E+00  0.1666667E+00  0.0000000E+00  0.4629630E-02
    1      -20.375457
    2      -19.890275
    3      -10.945153
    4      -10.265117
    5       -9.447156
    6       -8.722220
    7       -8.232602
    8       -7.678633
    9        2.877171
   10        3.060525
   11        3.548202
   12        3.729742
 
  0.5000000E+00  0.1666667E+00  0.0000000E+00  0.2314815E-02
    1      -20.142497
    2      -20.142497
    3      -10.594709
    4      -10.594709
    5       -9.092140
    6       -9.092140
    7       -7.965705
    8       -7.965705
    9        3.198811
   10        3.198988
   11        3.928893
   12        4.007013
 