       N       E                     dE             d eps       ncg     rms          rms(c)
DAV:   1     0.186524848390E+03    0.18652E+03   -0.10613E+04  5928   0.275E+03
DAV:   2    -0.100718857877E+02   -0.19660E+03   -0.17608E+03 10496   0.261E+02
DAV:   3    -0.381598900111E+02   -0.28088E+02   -0.27691E+02  7344   0.118E+02    0.710E+00
RMM:   4    -0.375703513964E+02    0.58954E+00   -0.89189E+00  5928   0.260E+01    0.410E+00
RMM:   5    -0.368668728324E+02    0.70348E+00   -0.26086E+00  5931   0.111E+01    0.689E-01
RMM:   6    -0.368690362425E+02   -0.21634E-02   -0.81486E-02  6391   0.201E+00    0.500E-01
RMM:   7    -0.368601910156E+02    0.88452E-02   -0.31188E-02  5945   0.153E+00    0.324E-01
RMM:   8    -0.368552944768E+02    0.48965E-02   -0.64997E-03  5928   0.535E-01    0.133E-01
RMM:   9    -0.368551836686E+02    0.11081E-03   -0.19425E-02  5928   0.825E-01    0.153E-01
RMM:  10    -0.368550329425E+02    0.15073E-03   -0.21773E-03  5928   0.336E-01    0.271E-02
RMM:  11    -0.368573432684E+02   -0.23103E-02   -0.73059E-04  5928   0.183E-01    0.451E-02
RMM:  12    -0.368578081686E+02   -0.46490E-03   -0.21559E-04  5942   0.981E-02    0.573E-03
RMM:  13    -0.368580823723E+02   -0.27420E-03   -0.55347E-05  6019   0.404E-02    0.373E-03
RMM:  14    -0.368581633311E+02   -0.80959E-04   -0.10303E-05  5958   0.162E-02    0.120E-03
RMM:  15    -0.368581756923E+02   -0.12361E-04   -0.18505E-06  5975   0.768E-03    0.195E-03
RMM:  16    -0.368581892184E+02   -0.13526E-04   -0.14543E-06  5928   0.776E-03    0.104E-03
RMM:  17    -0.368581952929E+02   -0.60744E-05   -0.85443E-08  6077   0.183E-03    0.789E-04
RMM:  18    -0.368581964170E+02   -0.11241E-05   -0.68208E-08  5928   0.194E-03    0.837E-05
RMM:  19    -0.368581971535E+02   -0.73652E-06   -0.98819E-09  5952   0.464E-04    0.152E-05
RMM:  20    -0.368581972093E+02   -0.55807E-07   -0.85665E-10  4471   0.139E-04    0.196E-05
RMM:  21    -0.368581972224E+02   -0.13078E-07   -0.19141E-10  4322   0.819E-05    0.696E-06
RMM:  22    -0.368581972221E+02    0.27285E-09   -0.13982E-11  3884   0.468E-05    0.103E-06
RMM:  23    -0.368581972227E+02   -0.57003E-09   -0.18736E-11  3521   0.372E-05    0.158E-06
RMM:  24    -0.368581972230E+02   -0.28160E-09   -0.65253E-12  3138   0.286E-05    0.548E-07
RMM:  25    -0.368581972229E+02    0.62187E-10   -0.45233E-12  2831   0.248E-05
   1 F= -.36858197E+02 E0= -.36858197E+02  d E =-.368582E+02
