<?xml version="1.0" encoding="ISO-8859-1"?>
<modeling>
 <generator>
  <i name="program" type="string">vasp </i>
  <i name="version" type="string">5.3.5  </i>
  <i name="subversion" type="string">31Mar14 (build Mar 02 2015 18:14:16) complex                          parallel </i>
  <i name="platform" type="string">LinuxIFC </i>
  <i name="date" type="string">2018 08 09 </i>
  <i name="time" type="string">21:20:55 </i>
 </generator>
 <incar>
  <i type="string" name="SYSTEM">  gr</i>
  <i type="string" name="PREC">accurate : accuracy</i>
  <i type="string" name="ALGO"> FAST.</i>
  <i type="int" name="NELM">   100</i>
  <i type="int" name="NELMDL">    -3</i>
  <i type="int" name="NELMIN">     5</i>
  <i type="int" name="IBRION">     1</i>
  <i name="EDIFF">      0.00000000</i>
  <i name="EDIFFG">     -0.00000100</i>
  <i type="int" name="NSW">   400</i>
  <i type="int" name="ISIF">     2</i>
  <i name="ENCUT">   2000.00000000</i>
  <i type="int" name="ISMEAR">     0</i>
  <i name="SIGMA">      0.05000000</i>
  <i type="int" name="NWRITE">     2</i>
  <i type="logical" name="LWAVE"> F  </i>
  <i type="logical" name="LCHARG"> F  </i>
  <i type="int" name="NELM">   100</i>
 </incar>
 <kpoints>
  <generation param="Gamma">
   <v type="int" name="divisions">      24       36        1 </v>
   <v name="usershift">      0.00000000       0.00000000       0.00000000 </v>
   <v name="genvec1">      0.04166667       0.00000000       0.00000000 </v>
   <v name="genvec2">      0.00000000       0.02777778       0.00000000 </v>
   <v name="genvec3">      0.00000000       0.00000000       1.00000000 </v>
   <v name="shift">      0.00000000       0.00000000       0.00000000 </v>
  </generation>
  <varray name="kpointlist" >
   <v>       0.00000000       0.00000000       0.00000000 </v>
   <v>       0.04166667       0.00000000       0.00000000 </v>
   <v>       0.08333333       0.00000000       0.00000000 </v>
   <v>       0.12500000       0.00000000       0.00000000 </v>
   <v>       0.16666667       0.00000000       0.00000000 </v>
   <v>       0.20833333       0.00000000       0.00000000 </v>
   <v>       0.25000000       0.00000000       0.00000000 </v>
   <v>       0.29166667       0.00000000       0.00000000 </v>
   <v>       0.33333333       0.00000000       0.00000000 </v>
   <v>       0.37500000       0.00000000       0.00000000 </v>
   <v>       0.41666667       0.00000000       0.00000000 </v>
   <v>       0.45833333       0.00000000       0.00000000 </v>
   <v>       0.50000000       0.00000000       0.00000000 </v>
   <v>       0.00000000       0.02777778       0.00000000 </v>
   <v>       0.04166667       0.02777778       0.00000000 </v>
   <v>       0.08333333       0.02777778       0.00000000 </v>
   <v>       0.12500000       0.02777778       0.00000000 </v>
   <v>       0.16666667       0.02777778       0.00000000 </v>
   <v>       0.20833333       0.02777778       0.00000000 </v>
   <v>       0.25000000       0.02777778       0.00000000 </v>
   <v>       0.29166667       0.02777778       0.00000000 </v>
   <v>       0.33333333       0.02777778       0.00000000 </v>
   <v>       0.37500000       0.02777778       0.00000000 </v>
   <v>       0.41666667       0.02777778       0.00000000 </v>
   <v>       0.45833333       0.02777778       0.00000000 </v>
   <v>       0.50000000       0.02777778       0.00000000 </v>
   <v>       0.00000000       0.05555556       0.00000000 </v>
   <v>       0.04166667       0.05555556       0.00000000 </v>
   <v>       0.08333333       0.05555556       0.00000000 </v>
   <v>       0.12500000       0.05555556       0.00000000 </v>
   <v>       0.16666667       0.05555556       0.00000000 </v>
   <v>       0.20833333       0.05555556       0.00000000 </v>
   <v>       0.25000000       0.05555556       0.00000000 </v>
   <v>       0.29166667       0.05555556       0.00000000 </v>
   <v>       0.33333333       0.05555556       0.00000000 </v>
   <v>       0.37500000       0.05555556       0.00000000 </v>
   <v>       0.41666667       0.05555556       0.00000000 </v>
   <v>       0.45833333       0.05555556       0.00000000 </v>
   <v>       0.50000000       0.05555556       0.00000000 </v>
   <v>       0.00000000       0.08333333       0.00000000 </v>
   <v>       0.04166667       0.08333333       0.00000000 </v>
   <v>       0.08333333       0.08333333       0.00000000 </v>
   <v>       0.12500000       0.08333333       0.00000000 </v>
   <v>       0.16666667       0.08333333       0.00000000 </v>
   <v>       0.20833333       0.08333333       0.00000000 </v>
   <v>       0.25000000       0.08333333       0.00000000 </v>
   <v>       0.29166667       0.08333333       0.00000000 </v>
   <v>       0.33333333       0.08333333       0.00000000 </v>
   <v>       0.37500000       0.08333333       0.00000000 </v>
   <v>       0.41666667       0.08333333       0.00000000 </v>
   <v>       0.45833333       0.08333333       0.00000000 </v>
   <v>       0.50000000       0.08333333       0.00000000 </v>
   <v>       0.00000000       0.11111111       0.00000000 </v>
   <v>       0.04166667       0.11111111       0.00000000 </v>
   <v>       0.08333333       0.11111111       0.00000000 </v>
   <v>       0.12500000       0.11111111       0.00000000 </v>
   <v>       0.16666667       0.11111111       0.00000000 </v>
   <v>       0.20833333       0.11111111       0.00000000 </v>
   <v>       0.25000000       0.11111111       0.00000000 </v>
   <v>       0.29166667       0.11111111       0.00000000 </v>
   <v>       0.33333333       0.11111111       0.00000000 </v>
   <v>       0.37500000       0.11111111       0.00000000 </v>
   <v>       0.41666667       0.11111111       0.00000000 </v>
   <v>       0.45833333       0.11111111       0.00000000 </v>
   <v>       0.50000000       0.11111111       0.00000000 </v>
   <v>       0.00000000       0.13888889       0.00000000 </v>
   <v>       0.04166667       0.13888889       0.00000000 </v>
   <v>       0.08333333       0.13888889       0.00000000 </v>
   <v>       0.12500000       0.13888889       0.00000000 </v>
   <v>       0.16666667       0.13888889       0.00000000 </v>
   <v>       0.20833333       0.13888889       0.00000000 </v>
   <v>       0.25000000       0.13888889       0.00000000 </v>
   <v>       0.29166667       0.13888889       0.00000000 </v>
   <v>       0.33333333       0.13888889       0.00000000 </v>
   <v>       0.37500000       0.13888889       0.00000000 </v>
   <v>       0.41666667       0.13888889       0.00000000 </v>
   <v>       0.45833333       0.13888889       0.00000000 </v>
   <v>       0.50000000       0.13888889       0.00000000 </v>
   <v>       0.00000000       0.16666667       0.00000000 </v>
   <v>       0.04166667       0.16666667       0.00000000 </v>
   <v>       0.08333333       0.16666667       0.00000000 </v>
   <v>       0.12500000       0.16666667       0.00000000 </v>
   <v>       0.16666667       0.16666667       0.00000000 </v>
   <v>       0.20833333       0.16666667       0.00000000 </v>
   <v>       0.25000000       0.16666667       0.00000000 </v>
   <v>       0.29166667       0.16666667       0.00000000 </v>
   <v>       0.33333333       0.16666667       0.00000000 </v>
   <v>       0.37500000       0.16666667       0.00000000 </v>
   <v>       0.41666667       0.16666667       0.00000000 </v>
   <v>       0.45833333       0.16666667       0.00000000 </v>
   <v>       0.50000000       0.16666667       0.00000000 </v>
   <v>       0.00000000       0.19444444       0.00000000 </v>
   <v>       0.04166667       0.19444444       0.00000000 </v>
   <v>       0.08333333       0.19444444       0.00000000 </v>
   <v>       0.12500000       0.19444444       0.00000000 </v>
   <v>       0.16666667       0.19444444       0.00000000 </v>
   <v>       0.20833333       0.19444444       0.00000000 </v>
   <v>       0.25000000       0.19444444       0.00000000 </v>
   <v>       0.29166667       0.19444444       0.00000000 </v>
   <v>       0.33333333       0.19444444       0.00000000 </v>
   <v>       0.37500000       0.19444444       0.00000000 </v>
   <v>       0.41666667       0.19444444       0.00000000 </v>
   <v>       0.45833333       0.19444444       0.00000000 </v>
   <v>       0.50000000       0.19444444       0.00000000 </v>
   <v>       0.00000000       0.22222222       0.00000000 </v>
   <v>       0.04166667       0.22222222       0.00000000 </v>
   <v>       0.08333333       0.22222222       0.00000000 </v>
   <v>       0.12500000       0.22222222       0.00000000 </v>
   <v>       0.16666667       0.22222222       0.00000000 </v>
   <v>       0.20833333       0.22222222       0.00000000 </v>
   <v>       0.25000000       0.22222222       0.00000000 </v>
   <v>       0.29166667       0.22222222       0.00000000 </v>
   <v>       0.33333333       0.22222222       0.00000000 </v>
   <v>       0.37500000       0.22222222       0.00000000 </v>
   <v>       0.41666667       0.22222222       0.00000000 </v>
   <v>       0.45833333       0.22222222       0.00000000 </v>
   <v>       0.50000000       0.22222222       0.00000000 </v>
   <v>       0.00000000       0.25000000       0.00000000 </v>
   <v>       0.04166667       0.25000000       0.00000000 </v>
   <v>       0.08333333       0.25000000       0.00000000 </v>
   <v>       0.12500000       0.25000000       0.00000000 </v>
   <v>       0.16666667       0.25000000       0.00000000 </v>
   <v>       0.20833333       0.25000000       0.00000000 </v>
   <v>       0.25000000       0.25000000       0.00000000 </v>
   <v>       0.29166667       0.25000000       0.00000000 </v>
   <v>       0.33333333       0.25000000       0.00000000 </v>
   <v>       0.37500000       0.25000000       0.00000000 </v>
   <v>       0.41666667       0.25000000       0.00000000 </v>
   <v>       0.45833333       0.25000000       0.00000000 </v>
   <v>       0.50000000       0.25000000       0.00000000 </v>
   <v>       0.00000000       0.27777778       0.00000000 </v>
   <v>       0.04166667       0.27777778       0.00000000 </v>
   <v>       0.08333333       0.27777778       0.00000000 </v>
   <v>       0.12500000       0.27777778       0.00000000 </v>
   <v>       0.16666667       0.27777778       0.00000000 </v>
   <v>       0.20833333       0.27777778       0.00000000 </v>
   <v>       0.25000000       0.27777778       0.00000000 </v>
   <v>       0.29166667       0.27777778       0.00000000 </v>
   <v>       0.33333333       0.27777778       0.00000000 </v>
   <v>       0.37500000       0.27777778       0.00000000 </v>
   <v>       0.41666667       0.27777778       0.00000000 </v>
   <v>       0.45833333       0.27777778       0.00000000 </v>
   <v>       0.50000000       0.27777778       0.00000000 </v>
   <v>       0.00000000       0.30555556       0.00000000 </v>
   <v>       0.04166667       0.30555556       0.00000000 </v>
   <v>       0.08333333       0.30555556       0.00000000 </v>
   <v>       0.12500000       0.30555556       0.00000000 </v>
   <v>       0.16666667       0.30555556       0.00000000 </v>
   <v>       0.20833333       0.30555556       0.00000000 </v>
   <v>       0.25000000       0.30555556       0.00000000 </v>
   <v>       0.29166667       0.30555556       0.00000000 </v>
   <v>       0.33333333       0.30555556       0.00000000 </v>
   <v>       0.37500000       0.30555556       0.00000000 </v>
   <v>       0.41666667       0.30555556       0.00000000 </v>
   <v>       0.45833333       0.30555556       0.00000000 </v>
   <v>       0.50000000       0.30555556       0.00000000 </v>
   <v>       0.00000000       0.33333333       0.00000000 </v>
   <v>       0.04166667       0.33333333       0.00000000 </v>
   <v>       0.08333333       0.33333333       0.00000000 </v>
   <v>       0.12500000       0.33333333       0.00000000 </v>
   <v>       0.16666667       0.33333333       0.00000000 </v>
   <v>       0.20833333       0.33333333       0.00000000 </v>
   <v>       0.25000000       0.33333333       0.00000000 </v>
   <v>       0.29166667       0.33333333       0.00000000 </v>
   <v>       0.33333333       0.33333333       0.00000000 </v>
   <v>       0.37500000       0.33333333       0.00000000 </v>
   <v>       0.41666667       0.33333333       0.00000000 </v>
   <v>       0.45833333       0.33333333       0.00000000 </v>
   <v>       0.50000000       0.33333333       0.00000000 </v>
   <v>       0.00000000       0.36111111       0.00000000 </v>
   <v>       0.04166667       0.36111111       0.00000000 </v>
   <v>       0.08333333       0.36111111       0.00000000 </v>
   <v>       0.12500000       0.36111111       0.00000000 </v>
   <v>       0.16666667       0.36111111       0.00000000 </v>
   <v>       0.20833333       0.36111111       0.00000000 </v>
   <v>       0.25000000       0.36111111       0.00000000 </v>
   <v>       0.29166667       0.36111111       0.00000000 </v>
   <v>       0.33333333       0.36111111       0.00000000 </v>
   <v>       0.37500000       0.36111111       0.00000000 </v>
   <v>       0.41666667       0.36111111       0.00000000 </v>
   <v>       0.45833333       0.36111111       0.00000000 </v>
   <v>       0.50000000       0.36111111       0.00000000 </v>
   <v>       0.00000000       0.38888889       0.00000000 </v>
   <v>       0.04166667       0.38888889       0.00000000 </v>
   <v>       0.08333333       0.38888889       0.00000000 </v>
   <v>       0.12500000       0.38888889       0.00000000 </v>
   <v>       0.16666667       0.38888889       0.00000000 </v>
   <v>       0.20833333       0.38888889       0.00000000 </v>
   <v>       0.25000000       0.38888889       0.00000000 </v>
   <v>       0.29166667       0.38888889       0.00000000 </v>
   <v>       0.33333333       0.38888889       0.00000000 </v>
   <v>       0.37500000       0.38888889       0.00000000 </v>
   <v>       0.41666667       0.38888889       0.00000000 </v>
   <v>       0.45833333       0.38888889       0.00000000 </v>
   <v>       0.50000000       0.38888889       0.00000000 </v>
   <v>       0.00000000       0.41666667       0.00000000 </v>
   <v>       0.04166667       0.41666667       0.00000000 </v>
   <v>       0.08333333       0.41666667       0.00000000 </v>
   <v>       0.12500000       0.41666667       0.00000000 </v>
   <v>       0.16666667       0.41666667       0.00000000 </v>
   <v>       0.20833333       0.41666667       0.00000000 </v>
   <v>       0.25000000       0.41666667       0.00000000 </v>
   <v>       0.29166667       0.41666667       0.00000000 </v>
   <v>       0.33333333       0.41666667       0.00000000 </v>
   <v>       0.37500000       0.41666667       0.00000000 </v>
   <v>       0.41666667       0.41666667       0.00000000 </v>
   <v>       0.45833333       0.41666667       0.00000000 </v>
   <v>       0.50000000       0.41666667       0.00000000 </v>
   <v>       0.00000000       0.44444444       0.00000000 </v>
   <v>       0.04166667       0.44444444       0.00000000 </v>
   <v>       0.08333333       0.44444444       0.00000000 </v>
   <v>       0.12500000       0.44444444       0.00000000 </v>
   <v>       0.16666667       0.44444444       0.00000000 </v>
   <v>       0.20833333       0.44444444       0.00000000 </v>
   <v>       0.25000000       0.44444444       0.00000000 </v>
   <v>       0.29166667       0.44444444       0.00000000 </v>
   <v>       0.33333333       0.44444444       0.00000000 </v>
   <v>       0.37500000       0.44444444       0.00000000 </v>
   <v>       0.41666667       0.44444444       0.00000000 </v>
   <v>       0.45833333       0.44444444       0.00000000 </v>
   <v>       0.50000000       0.44444444       0.00000000 </v>
   <v>       0.00000000       0.47222222       0.00000000 </v>
   <v>       0.04166667       0.47222222       0.00000000 </v>
   <v>       0.08333333       0.47222222       0.00000000 </v>
   <v>       0.12500000       0.47222222       0.00000000 </v>
   <v>       0.16666667       0.47222222       0.00000000 </v>
   <v>       0.20833333       0.47222222       0.00000000 </v>
   <v>       0.25000000       0.47222222       0.00000000 </v>
   <v>       0.29166667       0.47222222       0.00000000 </v>
   <v>       0.33333333       0.47222222       0.00000000 </v>
   <v>       0.37500000       0.47222222       0.00000000 </v>
   <v>       0.41666667       0.47222222       0.00000000 </v>
   <v>       0.45833333       0.47222222       0.00000000 </v>
   <v>       0.50000000       0.47222222       0.00000000 </v>
   <v>       0.00000000       0.50000000       0.00000000 </v>
   <v>       0.04166667       0.50000000       0.00000000 </v>
   <v>       0.08333333       0.50000000       0.00000000 </v>
   <v>       0.12500000       0.50000000       0.00000000 </v>
   <v>       0.16666667       0.50000000       0.00000000 </v>
   <v>       0.20833333       0.50000000       0.00000000 </v>
   <v>       0.25000000       0.50000000       0.00000000 </v>
   <v>       0.29166667       0.50000000       0.00000000 </v>
   <v>       0.33333333       0.50000000       0.00000000 </v>
   <v>       0.37500000       0.50000000       0.00000000 </v>
   <v>       0.41666667       0.50000000       0.00000000 </v>
   <v>       0.45833333       0.50000000       0.00000000 </v>
   <v>       0.50000000       0.50000000       0.00000000 </v>
  </varray>
  <varray name="weights" >
   <v>       0.00115741 </v>
   <v>       0.00231481 </v>
   <v>       0.00231481 </v>
   <v>       0.00231481 </v>
   <v>       0.00231481 </v>
   <v>       0.00231481 </v>
   <v>       0.00231481 </v>
   <v>       0.00231481 </v>
   <v>       0.00231481 </v>
   <v>       0.00231481 </v>
   <v>       0.00231481 </v>
   <v>       0.00231481 </v>
   <v>       0.00115741 </v>
   <v>       0.00231481 </v>
   <v>       0.00462963 </v>
   <v>       0.00462963 </v>
   <v>       0.00462963 </v>
   <v>       0.00462963 </v>
   <v>       0.00462963 </v>
   <v>       0.00462963 </v>
   <v>       0.00462963 </v>
   <v>       0.00462963 </v>
   <v>       0.00462963 </v>
   <v>       0.00462963 </v>
   <v>       0.00462963 </v>
   <v>       0.00231481 </v>
   <v>       0.00231481 </v>
   <v>       0.00462963 </v>
   <v>       0.00462963 </v>
   <v>       0.00462963 </v>
   <v>       0.00462963 </v>
   <v>       0.00462963 </v>
   <v>       0.00462963 </v>
   <v>       0.00462963 </v>
   <v>       0.00462963 </v>
   <v>       0.00462963 </v>
   <v>       0.00462963 </v>
   <v>       0.00462963 </v>
   <v>       0.00231481 </v>
   <v>       0.00231481 </v>
   <v>       0.00462963 </v>
   <v>       0.00462963 </v>
   <v>       0.00462963 </v>
   <v>       0.00462963 </v>
   <v>       0.00462963 </v>
   <v>       0.00462963 </v>
   <v>       0.00462963 </v>
   <v>       0.00462963 </v>
   <v>       0.00462963 </v>
   <v>       0.00462963 </v>
   <v>       0.00462963 </v>
   <v>       0.00231481 </v>
   <v>       0.00231481 </v>
   <v>       0.00462963 </v>
   <v>       0.00462963 </v>
   <v>       0.00462963 </v>
   <v>       0.00462963 </v>
   <v>       0.00462963 </v>
   <v>       0.00462963 </v>
   <v>       0.00462963 </v>
   <v>       0.00462963 </v>
   <v>       0.00462963 </v>
   <v>       0.00462963 </v>
   <v>       0.00462963 </v>
   <v>       0.00231481 </v>
   <v>       0.00231481 </v>
   <v>       0.00462963 </v>
   <v>       0.00462963 </v>
   <v>       0.00462963 </v>
   <v>       0.00462963 </v>
   <v>       0.00462963 </v>
   <v>       0.00462963 </v>
   <v>       0.00462963 </v>
   <v>       0.00462963 </v>
   <v>       0.00462963 </v>
   <v>       0.00462963 </v>
   <v>       0.00462963 </v>
   <v>       0.00231481 </v>
   <v>       0.00231481 </v>
   <v>       0.00462963 </v>
   <v>       0.00462963 </v>
   <v>       0.00462963 </v>
   <v>       0.00462963 </v>
   <v>       0.00462963 </v>
   <v>       0.00462963 </v>
   <v>       0.00462963 </v>
   <v>       0.00462963 </v>
   <v>       0.00462963 </v>
   <v>       0.00462963 </v>
   <v>       0.00462963 </v>
   <v>       0.00231481 </v>
   <v>       0.00231481 </v>
   <v>       0.00462963 </v>
   <v>       0.00462963 </v>
   <v>       0.00462963 </v>
   <v>       0.00462963 </v>
   <v>       0.00462963 </v>
   <v>       0.00462963 </v>
   <v>       0.00462963 </v>
   <v>       0.00462963 </v>
   <v>       0.00462963 </v>
   <v>       0.00462963 </v>
   <v>       0.00462963 </v>
   <v>       0.00231481 </v>
   <v>       0.00231481 </v>
   <v>       0.00462963 </v>
   <v>       0.00462963 </v>
   <v>       0.00462963 </v>
   <v>       0.00462963 </v>
   <v>       0.00462963 </v>
   <v>       0.00462963 </v>
   <v>       0.00462963 </v>
   <v>       0.00462963 </v>
   <v>       0.00462963 </v>
   <v>       0.00462963 </v>
   <v>       0.00462963 </v>
   <v>       0.00231481 </v>
   <v>       0.00231481 </v>
   <v>       0.00462963 </v>
   <v>       0.00462963 </v>
   <v>       0.00462963 </v>
   <v>       0.00462963 </v>
   <v>       0.00462963 </v>
   <v>       0.00462963 </v>
   <v>       0.00462963 </v>
   <v>       0.00462963 </v>
   <v>       0.00462963 </v>
   <v>       0.00462963 </v>
   <v>       0.00462963 </v>
   <v>       0.00231481 </v>
   <v>       0.00231481 </v>
   <v>       0.00462963 </v>
   <v>       0.00462963 </v>
   <v>       0.00462963 </v>
   <v>       0.00462963 </v>
   <v>       0.00462963 </v>
   <v>       0.00462963 </v>
   <v>       0.00462963 </v>
   <v>       0.00462963 </v>
   <v>       0.00462963 </v>
   <v>       0.00462963 </v>
   <v>       0.00462963 </v>
   <v>       0.00231481 </v>
   <v>       0.00231481 </v>
   <v>       0.00462963 </v>
   <v>       0.00462963 </v>
   <v>       0.00462963 </v>
   <v>       0.00462963 </v>
   <v>       0.00462963 </v>
   <v>       0.00462963 </v>
   <v>       0.00462963 </v>
   <v>       0.00462963 </v>
   <v>       0.00462963 </v>
   <v>       0.00462963 </v>
   <v>       0.00462963 </v>
   <v>       0.00231481 </v>
   <v>       0.00231481 </v>
   <v>       0.00462963 </v>
   <v>       0.00462963 </v>
   <v>       0.00462963 </v>
   <v>       0.00462963 </v>
   <v>       0.00462963 </v>
   <v>       0.00462963 </v>
   <v>       0.00462963 </v>
   <v>       0.00462963 </v>
   <v>       0.00462963 </v>
   <v>       0.00462963 </v>
   <v>       0.00462963 </v>
   <v>       0.00231481 </v>
   <v>       0.00231481 </v>
   <v>       0.00462963 </v>
   <v>       0.00462963 </v>
   <v>       0.00462963 </v>
   <v>       0.00462963 </v>
   <v>       0.00462963 </v>
   <v>       0.00462963 </v>
   <v>       0.00462963 </v>
   <v>       0.00462963 </v>
   <v>       0.00462963 </v>
   <v>       0.00462963 </v>
   <v>       0.00462963 </v>
   <v>       0.00231481 </v>
   <v>       0.00231481 </v>
   <v>       0.00462963 </v>
   <v>       0.00462963 </v>
   <v>       0.00462963 </v>
   <v>       0.00462963 </v>
   <v>       0.00462963 </v>
   <v>       0.00462963 </v>
   <v>       0.00462963 </v>
   <v>       0.00462963 </v>
   <v>       0.00462963 </v>
   <v>       0.00462963 </v>
   <v>       0.00462963 </v>
   <v>       0.00231481 </v>
   <v>       0.00231481 </v>
   <v>       0.00462963 </v>
   <v>       0.00462963 </v>
   <v>       0.00462963 </v>
   <v>       0.00462963 </v>
   <v>       0.00462963 </v>
   <v>       0.00462963 </v>
   <v>       0.00462963 </v>
   <v>       0.00462963 </v>
   <v>       0.00462963 </v>
   <v>       0.00462963 </v>
   <v>       0.00462963 </v>
   <v>       0.00231481 </v>
   <v>       0.00231481 </v>
   <v>       0.00462963 </v>
   <v>       0.00462963 </v>
   <v>       0.00462963 </v>
   <v>       0.00462963 </v>
   <v>       0.00462963 </v>
   <v>       0.00462963 </v>
   <v>       0.00462963 </v>
   <v>       0.00462963 </v>
   <v>       0.00462963 </v>
   <v>       0.00462963 </v>
   <v>       0.00462963 </v>
   <v>       0.00231481 </v>
   <v>       0.00231481 </v>
   <v>       0.00462963 </v>
   <v>       0.00462963 </v>
   <v>       0.00462963 </v>
   <v>       0.00462963 </v>
   <v>       0.00462963 </v>
   <v>       0.00462963 </v>
   <v>       0.00462963 </v>
   <v>       0.00462963 </v>
   <v>       0.00462963 </v>
   <v>       0.00462963 </v>
   <v>       0.00462963 </v>
   <v>       0.00231481 </v>
   <v>       0.00115741 </v>
   <v>       0.00231481 </v>
   <v>       0.00231481 </v>
   <v>       0.00231481 </v>
   <v>       0.00231481 </v>
   <v>       0.00231481 </v>
   <v>       0.00231481 </v>
   <v>       0.00231481 </v>
   <v>       0.00231481 </v>
   <v>       0.00231481 </v>
   <v>       0.00231481 </v>
   <v>       0.00231481 </v>
   <v>       0.00115741 </v>
  </varray>
 </kpoints>
 <parameters>
  <separator name="general" >
   <i type="string" name="SYSTEM">gr</i>
   <i type="logical" name="LCOMPAT"> F  </i>
  </separator>
  <separator name="electronic" >
   <i type="string" name="PREC">accura</i>
   <i name="ENMAX">   2000.00000000</i>
   <i name="ENAUG">    644.87300000</i>
   <i name="EDIFF">      0.00000000</i>
   <i type="int" name="IALGO">    68</i>
   <i type="int" name="IWAVPR">    11</i>
   <i type="int" name="NBANDS">    12</i>
   <i name="NELECT">     16.00000000</i>
   <i type="int" name="TURBO">     0</i>
   <i type="int" name="IRESTART">     0</i>
   <i type="int" name="NREBOOT">     0</i>
   <i type="int" name="NMIN">     0</i>
   <i name="EREF">      0.00000000</i>
   <separator name="electronic smearing" >
    <i type="int" name="ISMEAR">     0</i>
    <i name="SIGMA">      0.05000000</i>
    <i name="KSPACING">      0.50000000</i>
    <i type="logical" name="KGAMMA"> T  </i>
   </separator>
   <separator name="electronic projectors" >
    <i type="logical" name="LREAL"> F  </i>
    <v name="ROPT">      0.00000000</v>
    <i type="int" name="LMAXPAW">  -100</i>
    <i type="int" name="LMAXMIX">     2</i>
    <i type="logical" name="NLSPLINE"> F  </i>
   </separator>
   <separator name="electronic startup" >
    <i type="int" name="ISTART">     0</i>
    <i type="int" name="ICHARG">     2</i>
    <i type="int" name="INIWAV">     1</i>
   </separator>
   <separator name="electronic spin" >
    <i type="int" name="ISPIN">     1</i>
    <i type="logical" name="LNONCOLLINEAR"> F  </i>
    <v name="MAGMOM">      1.00000000      1.00000000      1.00000000      1.00000000</v>
    <i name="NUPDOWN">     -1.00000000</i>
    <i type="logical" name="LSORBIT"> F  </i>
    <v name="SAXIS">      0.00000000      0.00000000      1.00000000</v>
    <i type="logical" name="LSPIRAL"> F  </i>
    <v name="QSPIRAL">      0.00000000      0.00000000      0.00000000</v>
    <i type="logical" name="LZEROZ"> F  </i>
   </separator>
   <separator name="electronic exchange-correlation" >
    <i type="logical" name="LASPH"> F  </i>
    <i type="logical" name="LMETAGGA"> F  </i>
   </separator>
   <separator name="electronic convergence" >
    <i type="int" name="NELM">   100</i>
    <i type="int" name="NELMDL">    -3</i>
    <i type="int" name="NELMIN">     5</i>
    <i name="ENINI">   2000.00000000</i>
    <separator name="electronic convergence detail" >
     <i type="logical" name="LDIAG"> T  </i>
     <i type="logical" name="LSUBROT"> F  </i>
     <i name="WEIMIN">      0.00100000</i>
     <i name="EBREAK">      0.00000000</i>
     <i name="DEPER">      0.30000000</i>
     <i type="int" name="NRMM">     4</i>
     <i name="TIME">      0.40000000</i>
    </separator>
   </separator>
   <separator name="electronic mixer" >
    <i name="AMIX">      0.40000000</i>
    <i name="BMIX">      1.00000000</i>
    <i name="AMIN">      0.10000000</i>
    <i name="AMIX_MAG">      1.60000000</i>
    <i name="BMIX_MAG">      1.00000000</i>
    <separator name="electronic mixer details" >
     <i type="int" name="IMIX">     4</i>
     <i type="int" name="MAXMIX">   -45</i>
     <i name="WC">    100.00000000</i>
     <i type="int" name="INIMIX">     1</i>
     <i type="int" name="MIXPRE">     1</i>
     <i type="int" name="MREMOVE">     5</i>
    </separator>
   </separator>
   <separator name="electronic dipolcorrection" >
    <i type="logical" name="LDIPOL"> F  </i>
    <i type="logical" name="LMONO"> F  </i>
    <i type="int" name="IDIPOL">     0</i>
    <i name="EPSILON">      1.00000000</i>
    <v name="DIPOL">   -100.00000000   -100.00000000   -100.00000000</v>
    <i name="EFIELD">      0.00000000</i>
   </separator>
  </separator>
  <separator name="grids" >
   <i type="int" name="NGX">    64</i>
   <i type="int" name="NGY">    40</i>
   <i type="int" name="NGZ">   288</i>
   <i type="int" name="NGXF">   128</i>
   <i type="int" name="NGYF">    80</i>
   <i type="int" name="NGZF">   576</i>
   <i type="logical" name="ADDGRID"> F  </i>
  </separator>
  <separator name="ionic" >
   <i type="int" name="NSW">   400</i>
   <i type="int" name="IBRION">     1</i>
   <i type="int" name="ISIF">     2</i>
   <i name="PSTRESS">      0.00000000</i>
   <i name="EDIFFG">     -0.00000100</i>
   <i type="int" name="NFREE">     0</i>
   <i name="POTIM">      0.50000000</i>
   <i name="SMASS">     -3.00000000</i>
   <i name="SCALEE">      1.00000000</i>
  </separator>
  <separator name="ionic md" >
   <i name="TEBEG">      0.00010000</i>
   <i name="TEEND">      0.00010000</i>
   <i type="int" name="NBLOCK">     1</i>
   <i type="int" name="KBLOCK">   400</i>
   <i type="int" name="NPACO">   256</i>
   <i name="APACO">     16.00000000</i>
  </separator>
  <separator name="symmetry" >
   <i type="int" name="ISYM">     2</i>
   <i name="SYMPREC">      0.00001000</i>
  </separator>
  <separator name="dos" >
   <i type="logical" name="LORBIT"> F  </i>
   <v name="RWIGS">     -1.00000000</v>
   <i type="int" name="NEDOS">   301</i>
   <i name="EMIN">     10.00000000</i>
   <i name="EMAX">    -10.00000000</i>
   <i name="EFERMI">      0.00000000</i>
  </separator>
  <separator name="writing" >
   <i type="int" name="NWRITE">     2</i>
   <i type="logical" name="LWAVE"> F  </i>
   <i type="logical" name="LCHARG"> F  </i>
   <i type="logical" name="LPARD"> F  </i>
   <i type="logical" name="LVTOT"> F  </i>
   <i type="logical" name="LVHAR"> F  </i>
   <i type="logical" name="LELF"> F  </i>
   <i type="logical" name="LOPTICS"> F  </i>
   <v name="STM">      0.00000000      0.00000000      0.00000000      0.00000000      0.00000000      0.00000000      0.00000000</v>
  </separator>
  <separator name="performance" >
   <i type="int" name="NPAR">     4</i>
   <i type="int" name="NSIM">     4</i>
   <i type="int" name="NBLK">    -1</i>
   <i type="logical" name="LPLANE"> T  </i>
   <i type="logical" name="LSCALAPACK"> F  </i>
   <i type="logical" name="LSCAAWARE"> F  </i>
   <i type="logical" name="LSCALU"> F  </i>
   <i type="logical" name="LASYNC"> F  </i>
   <i type="logical" name="LORBITALREAL"> F  </i>
  </separator>
  <separator name="miscellaneous" >
   <i type="int" name="IDIOT">     3</i>
   <i type="logical" name="LMUSIC"> F  </i>
   <v name="POMASS">     12.01100000</v>
   <v name="DARWINR">      0.00000000</v>
   <v name="DARWINV">      1.00000000</v>
   <i type="logical" name="LCORR"> T  </i>
  </separator>
  <i type="logical" name="GGA_COMPAT"> T  </i>
  <i type="logical" name="LBERRY"> F  </i>
  <i type="int" name="ICORELEVEL">     0</i>
  <i type="logical" name="LDAU"> F  </i>
  <i type="int" name="I_CONSTRAINED_M">     0</i>
  <separator name="electronic exchange-correlation" >
   <i type="string" name="GGA">--</i>
   <i type="int" name="VOSKOWN">     0</i>
   <i type="logical" name="LHFCALC"> F  </i>
   <i type="string" name="PRECFOCK"></i>
   <i type="logical" name="LSYMGRAD"> F  </i>
   <i type="logical" name="LHFONE"> F  </i>
   <i type="logical" name="LRHFCALC"> F  </i>
   <i type="logical" name="LTHOMAS"> F  </i>
   <i type="logical" name="LMODELHF"> F  </i>
   <i name="ENCUT4O">     -1.00000000</i>
   <i type="int" name="EXXOEP">     0</i>
   <i type="int" name="FOURORBIT">     0</i>
   <i name="AEXX">      0.00000000</i>
   <i name="HFALPHA">      0.00000000</i>
   <i name="MCALPHA">      0.00000000</i>
   <i name="ALDAX">      1.00000000</i>
   <i name="AGGAX">      1.00000000</i>
   <i name="ALDAC">      1.00000000</i>
   <i name="AGGAC">      1.00000000</i>
   <i type="int" name="NKREDX">     1</i>
   <i type="int" name="NKREDY">     1</i>
   <i type="int" name="NKREDZ">     1</i>
   <i type="logical" name="SHIFTRED"> F  </i>
   <i type="logical" name="ODDONLY"> F  </i>
   <i type="logical" name="EVENONLY"> F  </i>
   <i type="int" name="LMAXFOCK">     0</i>
   <i type="int" name="NMAXFOCKAE">     0</i>
   <i type="logical" name="LFOCKAEDFT"> F  </i>
   <i name="HFSCREEN">      0.00000000</i>
   <i name="HFSCREENC">      0.00000000</i>
   <i type="int" name="NBANDSGWLOW">     0</i>
  </separator>
  <separator name="vdW DFT" >
   <i type="logical" name="LUSE_VDW"> F  </i>
   <i name="Zab_VDW">     -0.84910000</i>
   <i name="PARAM1">      0.12340000</i>
   <i name="PARAM2">      1.00000000</i>
   <i name="PARAM3">      0.00000000</i>
  </separator>
  <separator name="model GW" >
   <i type="int" name="MODEL_GW">     0</i>
   <i name="MODEL_EPS0">     31.62568521</i>
   <i name="MODEL_ALPHA">      1.00000000</i>
  </separator>
  <separator name="linear response parameters" >
   <i type="logical" name="LEPSILON"> F  </i>
   <i type="logical" name="LRPA"> F  </i>
   <i type="logical" name="LNABLA"> F  </i>
   <i type="logical" name="LVEL"> F  </i>
   <i type="int" name="KINTER">     0</i>
   <i name="CSHIFT">      0.10000000</i>
   <i name="OMEGAMAX">     -1.00000000</i>
   <i name="DEG_THRESHOLD">      0.00200000</i>
  </separator>
  <separator name="orbital magnetization" >
   <i type="logical" name="NUCIND"> F  </i>
   <v name="MAGPOS">      0.00000000      0.00000000      0.00000000</v>
   <i type="logical" name="LNICSALL"> T  </i>
   <i type="logical" name="ORBITALMAG"> F  </i>
   <i type="logical" name="LMAGBLOCH"> F  </i>
   <i type="logical" name="LCHIMAG"> F  </i>
   <i type="logical" name="LGAUGE"> T  </i>
   <i type="int" name="MAGATOM">     0</i>
   <v name="MAGDIPOL">      0.00000000      0.00000000      0.00000000</v>
   <v name="AVECCONST">      0.00000000      0.00000000      0.00000000</v>
  </separator>
  <separator name="response functions" >
   <i type="logical" name="LADDER"> F  </i>
   <i type="logical" name="LFXC"> F  </i>
   <i type="logical" name="LHARTREE"> T  </i>
   <i type="int" name="IBSE">     0</i>
   <i type="logical" name="LTCTE"> F  </i>
   <i type="logical" name="LTETE"> F  </i>
   <i type="logical" name="LTRIPLET"> F  </i>
   <i type="logical" name="LFXCEPS"> F  </i>
   <i type="logical" name="LFXHEG"> F  </i>
   <i type="logical" name="L2ORDER"> F  </i>
   <i type="logical" name="LUSEW"> F  </i>
   <i name="ENCUTGW">     -2.00000000</i>
   <i name="ENCUTGWSOFT">     -2.00000000</i>
   <i name="ENCUTLF">     -1.00000000</i>
   <i type="int" name="LMAXMP2">    -1</i>
   <i name="SCISSOR">      0.00000000</i>
   <i type="int" name="NOMEGA">     0</i>
   <i type="int" name="NOMEGAR">     0</i>
   <i type="int" name="NBANDSGW">    -1</i>
   <i type="int" name="NBANDSO">    -1</i>
   <i type="int" name="NBANDSV">    -1</i>
   <i type="int" name="NELM">   100</i>
   <i type="int" name="DIM">     3</i>
   <i type="int" name="ANTIRES">     0</i>
   <i name="OMEGAMAX">    -30.00000000</i>
   <i name="OMEGAMIN">    -30.00000000</i>
   <i name="OMEGATL">   -200.00000000</i>
   <i type="int" name="OMEGAGRID">     0</i>
   <i name="CSHIFT">     -0.10000000</i>
   <i type="logical" name="SELFENERGY"> F  </i>
   <i type="logical" name="LSPECTRAL"> F  </i>
   <i type="logical" name="ODDONLYGW"> F  </i>
   <i type="logical" name="EVENONLYGW"> F  </i>
   <i type="int" name="NKREDLFX">     1</i>
   <i type="int" name="NKREDLFY">     1</i>
   <i type="int" name="NKREDLFZ">     1</i>
   <i type="int" name="MAXMEM">  1800</i>
   <i type="int" name="TELESCOPE">     0</i>
   <i type="int" name="TAUPAR">     1</i>
  </separator>
  <separator name="External order field" >
   <i name="OFIELD_KAPPA">      0.00000000</i>
   <v name="OFIELD_K">      0.00000000      0.00000000      0.00000000</v>
   <i name="OFIELD_Q6_NEAR">      0.00000000</i>
   <i name="OFIELD_Q6_FAR">      0.00000000</i>
   <i name="OFIELD_A">      0.00000000</i>
  </separator>
 </parameters>
 <atominfo>
  <atoms>       4 </atoms>
  <types>       1 </types>
  <array name="atoms" >
   <dimension dim="1">ion</dimension>
   <field type="string">element</field>
   <field type="int">atomtype</field>
   <set>
    <rc><c>C </c><c>   1</c></rc>
    <rc><c>C </c><c>   1</c></rc>
    <rc><c>C </c><c>   1</c></rc>
    <rc><c>C </c><c>   1</c></rc>
   </set>
  </array>
  <array name="atomtypes" >
   <dimension dim="1">type</dimension>
   <field type="int">atomspertype</field>
   <field type="string">element</field>
   <field>mass</field>
   <field>valence</field>
   <field type="string">pseudopotential</field>
   <set>
    <rc><c>   4</c><c>C </c><c>     12.01100000</c><c>      4.00000000</c><c> PAW_PBE C 08Apr2002                    </c></rc>
   </set>
  </array>
 </atominfo>
 <structure name="initialpos" >
  <crystal>
   <varray name="basis" >
    <v>       4.25514536       0.00000000       0.00000000 </v>
    <v>       0.00000000       2.52910820       0.00000000 </v>
    <v>       0.00000000       0.00000000      19.59146324 </v>
   </varray>
   <i name="volume">    210.83790140 </i>
   <varray name="rec_basis" >
    <v>       0.23500960       0.00000000       0.00000000 </v>
    <v>       0.00000000       0.39539629       0.00000000 </v>
    <v>       0.00000000       0.00000000       0.05104264 </v>
   </varray>
  </crystal>
  <varray name="positions" >
   <v>       0.00063729       0.00000000       0.00000000 </v>
   <v>       0.16602938       0.50000000       0.00000000 </v>
   <v>       0.50063729       0.50000000       0.00000000 </v>
   <v>       0.66602938       0.00000000       0.00000000 </v>
  </varray>
 </structure>
 <calculation>
  <scstep>
   <time name="dav">  320.10  320.60</time>
   <time name="total">  322.81  323.33</time>
   <energy>
    <i name="alphaZ">      6.18334092 </i>
    <i name="ewald">   2449.82150940 </i>
    <i name="hartreedc">  -2879.30740226 </i>
    <i name="XCdc">     54.81772630 </i>
    <i name="pawpsdc">    151.32577238 </i>
    <i name="pawaedc">   -155.92769107 </i>
    <i name="eentropy">     -0.00145722 </i>
    <i name="bandstr">    -29.01047696 </i>
    <i name="atom">    588.62352690 </i>
    <i name="e_fr_energy">    186.52484839 </i>
    <i name="e_wo_entrp">    186.52630561 </i>
    <i name="e_0_energy">    186.52557700 </i>
   </energy>
  </scstep>
  <scstep>
   <time name="dav">  487.33  487.92</time>
   <time name="total">  487.33  487.93</time>
   <energy>
    <i name="e_fr_energy">    -10.07188579 </i>
    <i name="e_wo_entrp">    -10.07174697 </i>
    <i name="e_0_energy">    -10.07181638 </i>
   </energy>
  </scstep>
  <scstep>
   <time name="dav">  372.00  372.60</time>
   <time name="total">  404.88  405.51</time>
   <energy>
    <i name="e_fr_energy">    -38.15989001 </i>
    <i name="e_wo_entrp">    -38.15988997 </i>
    <i name="e_0_energy">    -38.15988999 </i>
   </energy>
  </scstep>
  <scstep>
   <time name="diag">   87.35   87.37</time>
   <time name="diis">  360.16  360.59</time>
   <time name="orth">    3.06    3.06</time>
   <time name="total">  486.07  486.53</time>
   <energy>
    <i name="e_fr_energy">    -37.57035140 </i>
    <i name="e_wo_entrp">    -37.57035139 </i>
    <i name="e_0_energy">    -37.57035140 </i>
   </energy>
  </scstep>
  <scstep>
   <time name="diag">   87.36   87.37</time>
   <time name="diis">  354.76  354.82</time>
   <time name="orth">    3.08    3.08</time>
   <time name="total">  480.64  480.75</time>
   <energy>
    <i name="e_fr_energy">    -36.86687283 </i>
    <i name="e_wo_entrp">    -36.86687282 </i>
    <i name="e_0_energy">    -36.86687282 </i>
   </energy>
  </scstep>
  <scstep>
   <time name="diag">   87.35   87.38</time>
   <time name="diis">  387.84  388.43</time>
   <time name="orth">    3.06    3.06</time>
   <time name="total">  513.20  513.90</time>
   <energy>
    <i name="e_fr_energy">    -36.86903624 </i>
    <i name="e_wo_entrp">    -36.86903623 </i>
    <i name="e_0_energy">    -36.86903623 </i>
   </energy>
  </scstep>
  <scstep>
   <time name="diag">   87.34   87.36</time>
   <time name="diis">  355.67  355.76</time>
   <time name="orth">    3.08    3.08</time>
   <time name="total">  481.12  481.38</time>
   <energy>
    <i name="e_fr_energy">    -36.86019102 </i>
    <i name="e_wo_entrp">    -36.86019100 </i>
    <i name="e_0_energy">    -36.86019101 </i>
   </energy>
  </scstep>
  <scstep>
   <time name="diag">   87.45   87.47</time>
   <time name="diis">  356.14  356.23</time>
   <time name="orth">    3.08    3.08</time>
   <time name="total">  482.36  482.50</time>
   <energy>
    <i name="e_fr_energy">    -36.85529448 </i>
    <i name="e_wo_entrp">    -36.85529446 </i>
    <i name="e_0_energy">    -36.85529447 </i>
   </energy>
  </scstep>
  <scstep>
   <time name="diag">   87.23   87.26</time>
   <time name="diis">  350.77  350.87</time>
   <time name="orth">    3.08    3.08</time>
   <time name="total">  476.26  476.57</time>
   <energy>
    <i name="e_fr_energy">    -36.85518367 </i>
    <i name="e_wo_entrp">    -36.85518365 </i>
    <i name="e_0_energy">    -36.85518366 </i>
   </energy>
  </scstep>
  <scstep>
   <time name="diag">   87.16   87.34</time>
   <time name="diis">  349.58  351.33</time>
   <time name="orth">    3.08    3.09</time>
   <time name="total">  475.04  477.17</time>
   <energy>
    <i name="e_fr_energy">    -36.85503294 </i>
    <i name="e_wo_entrp">    -36.85503293 </i>
    <i name="e_0_energy">    -36.85503294 </i>
   </energy>
  </scstep>
  <scstep>
   <time name="diag">   86.90   87.33</time>
   <time name="diis">  351.18  353.05</time>
   <time name="orth">    3.07    3.09</time>
   <time name="total">  476.51  478.97</time>
   <energy>
    <i name="e_fr_energy">    -36.85734327 </i>
    <i name="e_wo_entrp">    -36.85734326 </i>
    <i name="e_0_energy">    -36.85734326 </i>
   </energy>
  </scstep>
  <scstep>
   <time name="diag">   87.32   87.34</time>
   <time name="diis">  352.45  352.51</time>
   <time name="orth">    3.07    3.07</time>
   <time name="total">  478.17  478.28</time>
   <energy>
    <i name="e_fr_energy">    -36.85780817 </i>
    <i name="e_wo_entrp">    -36.85780815 </i>
    <i name="e_0_energy">    -36.85780816 </i>
   </energy>
  </scstep>
  <scstep>
   <time name="diag">   87.33   87.34</time>
   <time name="diis">  358.23  358.29</time>
   <time name="orth">    3.07    3.07</time>
   <time name="total">  484.13  484.25</time>
   <energy>
    <i name="e_fr_energy">    -36.85808237 </i>
    <i name="e_wo_entrp">    -36.85808236 </i>
    <i name="e_0_energy">    -36.85808237 </i>
   </energy>
  </scstep>
  <scstep>
   <time name="diag">   87.16   87.17</time>
   <time name="diis">  353.90  354.14</time>
   <time name="orth">    3.07    3.07</time>
   <time name="total">  479.83  480.11</time>
   <energy>
    <i name="e_fr_energy">    -36.85816333 </i>
    <i name="e_wo_entrp">    -36.85816332 </i>
    <i name="e_0_energy">    -36.85816332 </i>
   </energy>
  </scstep>
  <scstep>
   <time name="diag">   87.23   87.26</time>
   <time name="diis">  353.33  353.60</time>
   <time name="orth">    3.08    3.09</time>
   <time name="total">  478.96  479.30</time>
   <energy>
    <i name="e_fr_energy">    -36.85817569 </i>
    <i name="e_wo_entrp">    -36.85817568 </i>
    <i name="e_0_energy">    -36.85817569 </i>
   </energy>
  </scstep>
  <scstep>
   <time name="diag">   87.21   87.23</time>
   <time name="diis">  350.50  350.57</time>
   <time name="orth">    3.07    3.07</time>
   <time name="total">  475.92  476.10</time>
   <energy>
    <i name="e_fr_energy">    -36.85818922 </i>
    <i name="e_wo_entrp">    -36.85818920 </i>
    <i name="e_0_energy">    -36.85818921 </i>
   </energy>
  </scstep>
  <scstep>
   <time name="diag">   87.22   87.23</time>
   <time name="diis">  361.52  361.65</time>
   <time name="orth">    3.09    3.09</time>
   <time name="total">  487.25  487.46</time>
   <energy>
    <i name="e_fr_energy">    -36.85819529 </i>
    <i name="e_wo_entrp">    -36.85819528 </i>
    <i name="e_0_energy">    -36.85819529 </i>
   </energy>
  </scstep>
  <scstep>
   <time name="diag">   87.11   87.14</time>
   <time name="diis">  350.98  351.05</time>
   <time name="orth">    3.07    3.07</time>
   <time name="total">  477.68  477.80</time>
   <energy>
    <i name="e_fr_energy">    -36.85819642 </i>
    <i name="e_wo_entrp">    -36.85819640 </i>
    <i name="e_0_energy">    -36.85819641 </i>
   </energy>
  </scstep>
  <scstep>
   <time name="diag">   87.25   87.28</time>
   <time name="diis">  356.96  357.04</time>
   <time name="orth">    3.09    3.09</time>
   <time name="total">  483.51  483.65</time>
   <energy>
    <i name="e_fr_energy">    -36.85819715 </i>
    <i name="e_wo_entrp">    -36.85819714 </i>
    <i name="e_0_energy">    -36.85819715 </i>
   </energy>
  </scstep>
  <scstep>
   <time name="diag">   86.40   87.26</time>
   <time name="diis">  275.82  278.40</time>
   <time name="orth">    3.06    3.09</time>
   <time name="total">  401.00  404.87</time>
   <energy>
    <i name="e_fr_energy">    -36.85819721 </i>
    <i name="e_wo_entrp">    -36.85819720 </i>
    <i name="e_0_energy">    -36.85819720 </i>
   </energy>
  </scstep>
  <scstep>
   <time name="diag">   86.33   87.24</time>
   <time name="diis">  266.30  267.93</time>
   <time name="orth">    3.08    3.09</time>
   <time name="total">  391.53  394.28</time>
   <energy>
    <i name="e_fr_energy">    -36.85819722 </i>
    <i name="e_wo_entrp">    -36.85819721 </i>
    <i name="e_0_energy">    -36.85819722 </i>
   </energy>
  </scstep>
  <scstep>
   <time name="diag">   87.08   87.29</time>
   <time name="diis">  242.08  242.38</time>
   <time name="orth">    3.08    3.09</time>
   <time name="total">  368.19  368.94</time>
   <energy>
    <i name="e_fr_energy">    -36.85819722 </i>
    <i name="e_wo_entrp">    -36.85819721 </i>
    <i name="e_0_energy">    -36.85819722 </i>
   </energy>
  </scstep>
  <scstep>
   <time name="diag">   86.67   87.25</time>
   <time name="diis">  231.14  231.81</time>
   <time name="orth">    3.07    3.07</time>
   <time name="total">  357.12  358.56</time>
   <energy>
    <i name="e_fr_energy">    -36.85819722 </i>
    <i name="e_wo_entrp">    -36.85819721 </i>
    <i name="e_0_energy">    -36.85819722 </i>
   </energy>
  </scstep>
  <scstep>
   <time name="diag">   86.91   87.16</time>
   <time name="diis">  218.38  218.82</time>
   <time name="orth">    3.07    3.07</time>
   <time name="total">  344.46  345.31</time>
   <energy>
    <i name="e_fr_energy">    -36.85819722 </i>
    <i name="e_wo_entrp">    -36.85819721 </i>
    <i name="e_0_energy">    -36.85819722 </i>
   </energy>
  </scstep>
  <scstep>
   <time name="diag">   86.95   87.17</time>
   <time name="diis">  207.65  209.09</time>
   <time name="orth">    3.07    3.07</time>
   <time name="total">  300.31  301.98</time>
   <energy>
    <i name="alphaZ">      6.18334092 </i>
    <i name="ewald">   2449.82150940 </i>
    <i name="hartreedc">  -2944.10617703 </i>
    <i name="XCdc">     57.14247738 </i>
    <i name="pawpsdc">    268.83731606 </i>
    <i name="pawaedc">   -273.94888820 </i>
    <i name="eentropy">     -0.00000001 </i>
    <i name="bandstr">   -189.41130264 </i>
    <i name="atom">    588.62352690 </i>
    <i name="e_fr_energy">    -36.85819722 </i>
    <i name="e_wo_entrp">    -36.85819721 </i>
    <i name="e_0_energy">    -36.85819722 </i>
   </energy>
  </scstep>
  <structure>
   <crystal>
    <varray name="basis" >
     <v>       4.25514536       0.00000000       0.00000000 </v>
     <v>       0.00000000       2.52910820       0.00000000 </v>
     <v>       0.00000000       0.00000000      19.59146324 </v>
    </varray>
    <i name="volume">    210.83790140 </i>
    <varray name="rec_basis" >
     <v>       0.23500960       0.00000000       0.00000000 </v>
     <v>       0.00000000       0.39539629       0.00000000 </v>
     <v>       0.00000000       0.00000000       0.05104264 </v>
    </varray>
   </crystal>
   <varray name="positions" >
    <v>       0.00063729       0.00000000       0.00000000 </v>
    <v>       0.16602938       0.50000000       0.00000000 </v>
    <v>       0.50063729       0.50000000       0.00000000 </v>
    <v>       0.66602938       0.00000000       0.00000000 </v>
   </varray>
  </structure>
  <varray name="forces" >
   <v>      -0.00000012      -0.00000000       0.00000000 </v>
   <v>       0.00000012       0.00000000      -0.00000000 </v>
   <v>      -0.00000012      -0.00000000       0.00000000 </v>
   <v>       0.00000012       0.00000000      -0.00000000 </v>
  </varray>
  <varray name="stress" >
   <v>      -0.00036841       0.00000000       0.00000000 </v>
   <v>       0.00000000     -40.98330994       0.00000000 </v>
   <v>       0.00000000       0.00000000      -0.01015848 </v>
  </varray>
  <energy>
   <i name="e_fr_energy">    -36.85819722 </i>
   <i name="e_wo_entrp">    -36.85819722 </i>
   <i name="e_0_energy">     -0.00000001 </i>
  </energy>
  <time name="totalsc">11191.2011213.12</time>
  <eigenvalues>
   <array>
    <dimension dim="1">band</dimension>
    <dimension dim="2">kpoint</dimension>
    <dimension dim="3">spin</dimension>
    <field>eigene</field>
    <field>occ</field>
    <set>
     <set comment="spin 1">
      <set comment="kpoint 1">
       <r>  -22.0813    1.0000 </r>
       <r>  -16.7041    1.0000 </r>
       <r>  -15.8645    1.0000 </r>
       <r>  -10.2258    1.0000 </r>
       <r>   -9.4744    1.0000 </r>
       <r>   -5.9913    1.0000 </r>
       <r>   -5.7422    1.0000 </r>
       <r>   -4.9045    1.0000 </r>
       <r>   -1.1431    0.0000 </r>
       <r>    0.5447    0.0000 </r>
       <r>    1.3428    0.0000 </r>
       <r>    3.4874    0.0000 </r>
      </set>
      <set comment="kpoint 2">
       <r>  -22.0709    1.0000 </r>
       <r>  -16.9004    1.0000 </r>
       <r>  -15.6531    1.0000 </r>
       <r>  -10.2135    1.0000 </r>
       <r>   -9.4640    1.0000 </r>
       <r>   -6.0151    1.0000 </r>
       <r>   -5.7824    1.0000 </r>
       <r>   -4.9747    1.0000 </r>
       <r>   -1.0582    0.0000 </r>
       <r>    0.5588    0.0000 </r>
       <r>    1.3570    0.0000 </r>
       <r>    3.4227    0.0000 </r>
      </set>
      <set comment="kpoint 3">
       <r>  -22.0398    1.0000 </r>
       <r>  -17.2671    1.0000 </r>
       <r>  -15.2416    1.0000 </r>
       <r>  -10.1766    1.0000 </r>
       <r>   -9.4328    1.0000 </r>
       <r>   -6.0849    1.0000 </r>
       <r>   -5.9015    1.0000 </r>
       <r>   -5.1680    1.0000 </r>
       <r>   -0.8206    0.0000 </r>
       <r>    0.6009    0.0000 </r>
       <r>    1.3996    0.0000 </r>
       <r>    3.4936    0.0000 </r>
      </set>
      <set comment="kpoint 4">
       <r>  -21.9879    1.0000 </r>
       <r>  -17.6600    1.0000 </r>
       <r>  -14.7740    1.0000 </r>
       <r>  -10.1152    1.0000 </r>
       <r>   -9.3810    1.0000 </r>
       <r>   -6.1970    1.0000 </r>
       <r>   -6.0953    1.0000 </r>
       <r>   -5.4473    1.0000 </r>
       <r>   -0.4682    0.0000 </r>
       <r>    0.6712    0.0000 </r>
       <r>    1.4706    0.0000 </r>
       <r>    1.8701    0.0000 </r>
      </set>
      <set comment="kpoint 5">
       <r>  -21.9154    1.0000 </r>
       <r>  -18.0497    1.0000 </r>
       <r>  -14.2806    1.0000 </r>
       <r>  -10.0293    1.0000 </r>
       <r>   -9.3088    1.0000 </r>
       <r>   -6.3577    1.0000 </r>
       <r>   -6.3456    1.0000 </r>
       <r>   -5.7773    1.0000 </r>
       <r>   -0.0371    0.0000 </r>
       <r>    0.7695    0.0000 </r>
       <r>    1.5699    0.0000 </r>
       <r>    1.9681    0.0000 </r>
      </set>
      <set comment="kpoint 6">
       <r>  -21.8222    1.0000 </r>
       <r>  -18.4278    1.0000 </r>
       <r>  -13.7702    1.0000 </r>
       <r>   -9.9190    1.0000 </r>
       <r>   -9.2166    1.0000 </r>
       <r>   -6.6808    1.0000 </r>
       <r>   -6.5239    1.0000 </r>
       <r>   -6.1328    1.0000 </r>
       <r>    0.4462    0.0000 </r>
       <r>    0.8960    0.0000 </r>
       <r>    1.6977    0.0000 </r>
       <r>    2.0989    0.0000 </r>
      </set>
      <set comment="kpoint 7">
       <r>  -21.7085    1.0000 </r>
       <r>  -18.7912    1.0000 </r>
       <r>  -13.2471    1.0000 </r>
       <r>   -9.7847    1.0000 </r>
       <r>   -9.1049    1.0000 </r>
       <r>   -7.0565    1.0000 </r>
       <r>   -6.7249    1.0000 </r>
       <r>   -6.4975    1.0000 </r>
       <r>    0.9638    0.0000 </r>
       <r>    1.0505    0.0000 </r>
       <r>    1.8535    0.0000 </r>
       <r>    2.2577    0.0000 </r>
      </set>
      <set comment="kpoint 8">
       <r>  -21.5743    1.0000 </r>
       <r>  -19.1381    1.0000 </r>
       <r>  -12.7140    1.0000 </r>
       <r>   -9.6265    1.0000 </r>
       <r>   -8.9744    1.0000 </r>
       <r>   -7.4764    1.0000 </r>
       <r>   -6.9419    1.0000 </r>
       <r>   -6.8611    1.0000 </r>
       <r>    1.2330    0.0000 </r>
       <r>    1.5035    0.0000 </r>
       <r>    2.0377    0.0000 </r>
       <r>    2.4449    0.0000 </r>
      </set>
      <set comment="kpoint 9">
       <r>  -21.4197    1.0000 </r>
       <r>  -19.4676    1.0000 </r>
       <r>  -12.1734    1.0000 </r>
       <r>   -9.4447    1.0000 </r>
       <r>   -8.8258    1.0000 </r>
       <r>   -7.9327    1.0000 </r>
       <r>   -7.2169    1.0000 </r>
       <r>   -7.1684    1.0000 </r>
       <r>    1.4435    0.0000 </r>
       <r>    2.0690    0.0000 </r>
       <r>    2.2500    0.0000 </r>
       <r>    2.6759    0.0000 </r>
      </set>
      <set comment="kpoint 10">
       <r>  -21.2448    1.0000 </r>
       <r>  -19.7789    1.0000 </r>
       <r>  -11.6276    1.0000 </r>
       <r>   -9.2398    1.0000 </r>
       <r>   -8.6601    1.0000 </r>
       <r>   -8.4181    1.0000 </r>
       <r>   -7.5605    1.0000 </r>
       <r>   -7.3993    1.0000 </r>
       <r>    1.6819    0.0000 </r>
       <r>    2.4903    0.0000 </r>
       <r>    2.6312    0.0000 </r>
       <r>    2.9038    0.0000 </r>
      </set>
      <set comment="kpoint 11">
       <r>  -21.0497    1.0000 </r>
       <r>  -20.0717    1.0000 </r>
       <r>  -11.0794    1.0000 </r>
       <r>   -9.0121    1.0000 </r>
       <r>   -8.9260    1.0000 </r>
       <r>   -8.4786    1.0000 </r>
       <r>   -7.8888    1.0000 </r>
       <r>   -7.6298    1.0000 </r>
       <r>    1.9481    0.0000 </r>
       <r>    2.7581    0.0000 </r>
       <r>    3.2197    0.0000 </r>
       <r>    3.2839    0.0000 </r>
      </set>
      <set comment="kpoint 12">
       <r>  -20.8347    1.0000 </r>
       <r>  -20.3454    1.0000 </r>
       <r>  -10.5316    1.0000 </r>
       <r>   -9.4508    1.0000 </r>
       <r>   -8.7623    1.0000 </r>
       <r>   -8.2828    1.0000 </r>
       <r>   -8.1996    1.0000 </r>
       <r>   -7.8559    1.0000 </r>
       <r>    2.2421    0.0000 </r>
       <r>    2.9119    0.0000 </r>
       <r>    3.0546    0.0000 </r>
       <r>    4.2610    0.0000 </r>
      </set>
      <set comment="kpoint 13">
       <r>  -20.5998    1.0000 </r>
       <r>  -20.5998    1.0000 </r>
       <r>   -9.9875    1.0000 </r>
       <r>   -9.9875    1.0000 </r>
       <r>   -8.4911    1.0000 </r>
       <r>   -8.4911    1.0000 </r>
       <r>   -8.0745    1.0000 </r>
       <r>   -8.0745    1.0000 </r>
       <r>    2.5634    0.0000 </r>
       <r>    2.5635    0.0000 </r>
       <r>    3.3732    0.0000 </r>
       <r>    3.9839    0.0000 </r>
      </set>
      <set comment="kpoint 14">
       <r>  -22.0682    1.0000 </r>
       <r>  -16.6929    1.0000 </r>
       <r>  -15.8541    1.0000 </r>
       <r>  -10.2104    1.0000 </r>
       <r>   -9.5326    1.0000 </r>
       <r>   -6.0449    1.0000 </r>
       <r>   -5.7744    1.0000 </r>
       <r>   -4.8888    1.0000 </r>
       <r>   -1.1493    0.0000 </r>
       <r>    0.5623    0.0000 </r>
       <r>    1.3607    0.0000 </r>
       <r>    2.4569    0.0000 </r>
      </set>
      <set comment="kpoint 15">
       <r>  -22.0579    1.0000 </r>
       <r>  -16.8891    1.0000 </r>
       <r>  -15.6429    1.0000 </r>
       <r>  -10.1981    1.0000 </r>
       <r>   -9.5221    1.0000 </r>
       <r>   -6.0716    1.0000 </r>
       <r>   -5.8109    1.0000 </r>
       <r>   -4.9591    1.0000 </r>
       <r>   -1.0643    0.0000 </r>
       <r>    0.5764    0.0000 </r>
       <r>    1.3748    0.0000 </r>
       <r>    1.7681    0.0000 </r>
      </set>
      <set comment="kpoint 16">
       <r>  -22.0268    1.0000 </r>
       <r>  -17.2555    1.0000 </r>
       <r>  -15.2317    1.0000 </r>
       <r>  -10.1612    1.0000 </r>
       <r>   -9.4909    1.0000 </r>
       <r>   -6.1516    1.0000 </r>
       <r>   -5.9178    1.0000 </r>
       <r>   -5.1529    1.0000 </r>
       <r>   -0.8267    0.0000 </r>
       <r>    0.6186    0.0000 </r>
       <r>    1.4175    0.0000 </r>
       <r>    1.8126    0.0000 </r>
      </set>
      <set comment="kpoint 17">
       <r>  -21.9749    1.0000 </r>
       <r>  -17.6483    1.0000 </r>
       <r>  -14.7647    1.0000 </r>
       <r>  -10.0998    1.0000 </r>
       <r>   -9.4389    1.0000 </r>
       <r>   -6.2862    1.0000 </r>
       <r>   -6.0860    1.0000 </r>
       <r>   -5.4325    1.0000 </r>
       <r>   -0.4746    0.0000 </r>
       <r>    0.6889    0.0000 </r>
       <r>    1.4885    0.0000 </r>
       <r>    1.8841    0.0000 </r>
      </set>
      <set comment="kpoint 18">
       <r>  -21.9024    1.0000 </r>
       <r>  -18.0378    1.0000 </r>
       <r>  -14.2720    1.0000 </r>
       <r>  -10.0139    1.0000 </r>
       <r>   -9.3665    1.0000 </r>
       <r>   -6.4854    1.0000 </r>
       <r>   -6.2941    1.0000 </r>
       <r>   -5.7628    1.0000 </r>
       <r>   -0.0442    0.0000 </r>
       <r>    0.7872    0.0000 </r>
       <r>    1.5877    0.0000 </r>
       <r>    1.9839    0.0000 </r>
      </set>
      <set comment="kpoint 19">
       <r>  -21.8093    1.0000 </r>
       <r>  -18.4158    1.0000 </r>
       <r>  -13.7624    1.0000 </r>
       <r>   -9.9037    1.0000 </r>
       <r>   -9.2739    1.0000 </r>
       <r>   -6.7638    1.0000 </r>
       <r>   -6.5135    1.0000 </r>
       <r>   -6.1184    1.0000 </r>
       <r>    0.4381    0.0000 </r>
       <r>    0.9136    0.0000 </r>
       <r>    1.7153    0.0000 </r>
       <r>    3.5715    0.0000 </r>
      </set>
      <set comment="kpoint 20">
       <r>  -21.6956    1.0000 </r>
       <r>  -18.7790    1.0000 </r>
       <r>  -13.2402    1.0000 </r>
       <r>   -9.7694    1.0000 </r>
       <r>   -9.1618    1.0000 </r>
       <r>   -7.1138    1.0000 </r>
       <r>   -6.7367    1.0000 </r>
       <r>   -6.4831    1.0000 </r>
       <r>    0.9543    0.0000 </r>
       <r>    1.0681    0.0000 </r>
       <r>    1.8713    0.0000 </r>
       <r>    2.2715    0.0000 </r>
      </set>
      <set comment="kpoint 21">
       <r>  -21.5613    1.0000 </r>
       <r>  -19.1258    1.0000 </r>
       <r>  -12.7083    1.0000 </r>
       <r>   -9.6113    1.0000 </r>
       <r>   -9.0307    1.0000 </r>
       <r>   -7.5176    1.0000 </r>
       <r>   -6.9664    1.0000 </r>
       <r>   -6.8467    1.0000 </r>
       <r>    1.2507    0.0000 </r>
       <r>    1.4928    0.0000 </r>
       <r>    2.0555    0.0000 </r>
       <r>    2.4609    0.0000 </r>
      </set>
      <set comment="kpoint 22">
       <r>  -21.4067    1.0000 </r>
       <r>  -19.4551    1.0000 </r>
       <r>  -12.1691    1.0000 </r>
       <r>   -9.4296    1.0000 </r>
       <r>   -8.8813    1.0000 </r>
       <r>   -7.9626    1.0000 </r>
       <r>   -7.2025    1.0000 </r>
       <r>   -7.2015    1.0000 </r>
       <r>    1.4612    0.0000 </r>
       <r>    2.0429    0.0000 </r>
       <r>    2.2680    0.0000 </r>
       <r>    2.6795    0.0000 </r>
      </set>
      <set comment="kpoint 23">
       <r>  -21.2319    1.0000 </r>
       <r>  -19.7664    1.0000 </r>
       <r>  -11.6251    1.0000 </r>
       <r>   -9.2247    1.0000 </r>
       <r>   -8.7147    1.0000 </r>
       <r>   -8.4395    1.0000 </r>
       <r>   -7.5460    1.0000 </r>
       <r>   -7.4383    1.0000 </r>
       <r>    1.6996    0.0000 </r>
       <r>    2.5080    0.0000 </r>
       <r>    2.6255    0.0000 </r>
       <r>    2.9221    0.0000 </r>
      </set>
      <set comment="kpoint 24">
       <r>  -21.0369    1.0000 </r>
       <r>  -20.0591    1.0000 </r>
       <r>  -11.0790    1.0000 </r>
       <r>   -8.9971    1.0000 </r>
       <r>   -8.9409    1.0000 </r>
       <r>   -8.5319    1.0000 </r>
       <r>   -7.8742    1.0000 </r>
       <r>   -7.6733    1.0000 </r>
       <r>    1.9658    0.0000 </r>
       <r>    2.7761    0.0000 </r>
       <r>    3.1907    0.0000 </r>
       <r>    3.3036    0.0000 </r>
      </set>
      <set comment="kpoint 25">
       <r>  -20.8219    1.0000 </r>
       <r>  -20.3327    1.0000 </r>
       <r>  -10.5339    1.0000 </r>
       <r>   -9.4605    1.0000 </r>
       <r>   -8.7474    1.0000 </r>
       <r>   -8.3345    1.0000 </r>
       <r>   -8.1849    1.0000 </r>
       <r>   -7.9029    1.0000 </r>
       <r>    2.2598    0.0000 </r>
       <r>    2.9301    0.0000 </r>
       <r>    3.0717    0.0000 </r>
       <r>    3.5282    0.0000 </r>
      </set>
      <set comment="kpoint 26">
       <r>  -20.5871    1.0000 </r>
       <r>  -20.5871    1.0000 </r>
       <r>   -9.9931    1.0000 </r>
       <r>   -9.9931    1.0000 </r>
       <r>   -8.4763    1.0000 </r>
       <r>   -8.4763    1.0000 </r>
       <r>   -8.1241    1.0000 </r>
       <r>   -8.1241    1.0000 </r>
       <r>    2.5812    0.0000 </r>
       <r>    2.5813    0.0000 </r>
       <r>    3.3901    0.0000 </r>
       <r>    3.3912    0.0000 </r>
      </set>
      <set comment="kpoint 27">
       <r>  -22.0292    1.0000 </r>
       <r>  -16.6592    1.0000 </r>
       <r>  -15.8232    1.0000 </r>
       <r>  -10.1641    1.0000 </r>
       <r>   -9.7023    1.0000 </r>
       <r>   -6.2015    1.0000 </r>
       <r>   -5.8699    1.0000 </r>
       <r>   -4.8416    1.0000 </r>
       <r>   -1.1686    0.0000 </r>
       <r>    0.6151    0.0000 </r>
       <r>    1.4142    0.0000 </r>
       <r>    1.8402    0.0000 </r>
      </set>
      <set comment="kpoint 28">
       <r>  -22.0188    1.0000 </r>
       <r>  -16.8551    1.0000 </r>
       <r>  -15.6125    1.0000 </r>
       <r>  -10.1518    1.0000 </r>
       <r>   -9.6918    1.0000 </r>
       <r>   -6.2345    1.0000 </r>
       <r>   -5.8979    1.0000 </r>
       <r>   -4.9125    1.0000 </r>
       <r>   -1.0834    0.0000 </r>
       <r>    0.6292    0.0000 </r>
       <r>    1.4284    0.0000 </r>
       <r>    3.7220    0.0000 </r>
      </set>
      <set comment="kpoint 29">
       <r>  -21.9878    1.0000 </r>
       <r>  -17.2210    1.0000 </r>
       <r>  -15.2025    1.0000 </r>
       <r>  -10.1150    1.0000 </r>
       <r>   -9.6602    1.0000 </r>
       <r>   -6.3315    1.0000 </r>
       <r>   -5.9818    1.0000 </r>
       <r>   -5.1074    1.0000 </r>
       <r>   -0.8458    0.0000 </r>
       <r>    0.6713    0.0000 </r>
       <r>    1.4710    0.0000 </r>
       <r>    3.5939    0.0000 </r>
      </set>
      <set comment="kpoint 30">
       <r>  -21.9359    1.0000 </r>
       <r>  -17.6131    1.0000 </r>
       <r>  -14.7371    1.0000 </r>
       <r>  -10.0536    1.0000 </r>
       <r>   -9.6077    1.0000 </r>
       <r>   -6.4879    1.0000 </r>
       <r>   -6.1193    1.0000 </r>
       <r>   -5.3883    1.0000 </r>
       <r>   -0.4945    0.0000 </r>
       <r>    0.7416    0.0000 </r>
       <r>    1.5419    0.0000 </r>
       <r>    3.7365    0.0000 </r>
      </set>
      <set comment="kpoint 31">
       <r>  -21.8635    1.0000 </r>
       <r>  -18.0020    1.0000 </r>
       <r>  -14.2463    1.0000 </r>
       <r>   -9.9678    1.0000 </r>
       <r>   -9.5345    1.0000 </r>
       <r>   -6.6994    1.0000 </r>
       <r>   -6.3045    1.0000 </r>
       <r>   -5.7194    1.0000 </r>
       <r>   -0.0661    0.0000 </r>
       <r>    0.8400    0.0000 </r>
       <r>    1.6412    0.0000 </r>
       <r>    2.0384    0.0000 </r>
      </set>
      <set comment="kpoint 32">
       <r>  -21.7704    1.0000 </r>
       <r>  -18.3795    1.0000 </r>
       <r>  -13.7392    1.0000 </r>
       <r>   -9.8578    1.0000 </r>
       <r>   -9.4409    1.0000 </r>
       <r>   -6.9640    1.0000 </r>
       <r>   -6.5266    1.0000 </r>
       <r>   -6.0754    1.0000 </r>
       <r>    0.4130    0.0000 </r>
       <r>    0.9665    0.0000 </r>
       <r>    1.7688    0.0000 </r>
       <r>    2.1725    0.0000 </r>
      </set>
      <set comment="kpoint 33">
       <r>  -21.6567    1.0000 </r>
       <r>  -18.7423    1.0000 </r>
       <r>  -13.2200    1.0000 </r>
       <r>   -9.7236    1.0000 </r>
       <r>   -9.3273    1.0000 </r>
       <r>   -7.2811    1.0000 </r>
       <r>   -6.7720    1.0000 </r>
       <r>   -6.4403    1.0000 </r>
       <r>    0.9250    0.0000 </r>
       <r>    1.1210    0.0000 </r>
       <r>    1.9247    0.0000 </r>
       <r>    3.5324    0.0000 </r>
      </set>
      <set comment="kpoint 34">
       <r>  -21.5226    1.0000 </r>
       <r>  -19.0887    1.0000 </r>
       <r>  -12.6918    1.0000 </r>
       <r>   -9.5657    1.0000 </r>
       <r>   -9.1942    1.0000 </r>
       <r>   -7.6485    1.0000 </r>
       <r>   -7.0284    1.0000 </r>
       <r>   -6.8038    1.0000 </r>
       <r>    1.3036    0.0000 </r>
       <r>    1.4576    0.0000 </r>
       <r>    2.1090    0.0000 </r>
       <r>    2.5133    0.0000 </r>
      </set>
      <set comment="kpoint 35">
       <r>  -21.3680    1.0000 </r>
       <r>  -19.4178    1.0000 </r>
       <r>  -12.1571    1.0000 </r>
       <r>   -9.3842    1.0000 </r>
       <r>   -9.0424    1.0000 </r>
       <r>   -8.0610    1.0000 </r>
       <r>   -7.2874    1.0000 </r>
       <r>   -7.1594    1.0000 </r>
       <r>    1.5141    0.0000 </r>
       <r>    2.0021    0.0000 </r>
       <r>    2.3212    0.0000 </r>
       <r>    2.7284    0.0000 </r>
      </set>
      <set comment="kpoint 36">
       <r>  -21.1933    1.0000 </r>
       <r>  -19.7288    1.0000 </r>
       <r>  -11.6187    1.0000 </r>
       <r>   -9.1795    1.0000 </r>
       <r>   -8.8725    1.0000 </r>
       <r>   -8.5111    1.0000 </r>
       <r>   -7.5436    1.0000 </r>
       <r>   -7.5027    1.0000 </r>
       <r>    1.7527    0.0000 </r>
       <r>    2.5613    0.0000 </r>
       <r>    2.9715    0.0000 </r>
       <r>    3.7093    0.0000 </r>
      </set>
      <set comment="kpoint 37">
       <r>  -20.9983    1.0000 </r>
       <r>  -20.0212    1.0000 </r>
       <r>  -11.0795    1.0000 </r>
       <r>   -8.9911    1.0000 </r>
       <r>   -8.9522    1.0000 </r>
       <r>   -8.6855    1.0000 </r>
       <r>   -7.8306    1.0000 </r>
       <r>   -7.7937    1.0000 </r>
       <r>    2.0189    0.0000 </r>
       <r>    2.8293    0.0000 </r>
       <r>    3.2464    0.0000 </r>
       <r>    3.3561    0.0000 </r>
      </set>
      <set comment="kpoint 38">
       <r>  -20.7835    1.0000 </r>
       <r>  -20.2947    1.0000 </r>
       <r>  -10.5429    1.0000 </r>
       <r>   -9.4937    1.0000 </r>
       <r>   -8.7028    1.0000 </r>
       <r>   -8.4827    1.0000 </r>
       <r>   -8.1409    1.0000 </r>
       <r>   -8.0350    1.0000 </r>
       <r>    2.3132    0.0000 </r>
       <r>    2.9836    0.0000 </r>
       <r>    3.1256    0.0000 </r>
       <r>    3.5536    0.0000 </r>
      </set>
      <set comment="kpoint 39">
       <r>  -20.5488    1.0000 </r>
       <r>  -20.5488    1.0000 </r>
       <r>  -10.0128    1.0000 </r>
       <r>  -10.0128    1.0000 </r>
       <r>   -8.4320    1.0000 </r>
       <r>   -8.4320    1.0000 </r>
       <r>   -8.2653    1.0000 </r>
       <r>   -8.2653    1.0000 </r>
       <r>    2.6345    0.0000 </r>
       <r>    2.6347    0.0000 </r>
       <r>    3.4522    0.0000 </r>
       <r>    3.6708    0.0000 </r>
      </set>
      <set comment="kpoint 40">
       <r>  -21.9642    1.0000 </r>
       <r>  -16.6030    1.0000 </r>
       <r>  -15.7724    1.0000 </r>
       <r>  -10.0871    1.0000 </r>
       <r>   -9.9706    1.0000 </r>
       <r>   -6.4499    1.0000 </r>
       <r>   -6.0257    1.0000 </r>
       <r>   -4.7629    1.0000 </r>
       <r>   -1.2033    0.0000 </r>
       <r>    0.7031    0.0000 </r>
       <r>    1.5034    0.0000 </r>
       <r>    1.9623    0.0000 </r>
      </set>
      <set comment="kpoint 41">
       <r>  -21.9539    1.0000 </r>
       <r>  -16.7986    1.0000 </r>
       <r>  -15.5624    1.0000 </r>
       <r>  -10.0748    1.0000 </r>
       <r>   -9.9598    1.0000 </r>
       <r>   -6.4891    1.0000 </r>
       <r>   -6.0441    1.0000 </r>
       <r>   -4.8348    1.0000 </r>
       <r>   -1.1178    0.0000 </r>
       <r>    0.7172    0.0000 </r>
       <r>    1.5177    0.0000 </r>
       <r>    1.9143    0.0000 </r>
      </set>
      <set comment="kpoint 42">
       <r>  -21.9228    1.0000 </r>
       <r>  -17.1635    1.0000 </r>
       <r>  -15.1544    1.0000 </r>
       <r>  -10.0380    1.0000 </r>
       <r>   -9.9277    1.0000 </r>
       <r>   -6.6007    1.0000 </r>
       <r>   -6.1039    1.0000 </r>
       <r>   -5.0319    1.0000 </r>
       <r>   -0.8801    0.0000 </r>
       <r>    0.7594    0.0000 </r>
       <r>    1.5602    0.0000 </r>
       <r>    3.1730    0.0000 </r>
      </set>
      <set comment="kpoint 43">
       <r>  -21.8710    1.0000 </r>
       <r>  -17.5546    1.0000 </r>
       <r>  -14.6918    1.0000 </r>
       <r>   -9.9768    1.0000 </r>
       <r>   -9.8741    1.0000 </r>
       <r>   -6.7718    1.0000 </r>
       <r>   -6.2125    1.0000 </r>
       <r>   -5.3148    1.0000 </r>
       <r>   -0.5302    0.0000 </r>
       <r>    0.8297    0.0000 </r>
       <r>    1.6311    0.0000 </r>
       <r>    2.0277    0.0000 </r>
      </set>
      <set comment="kpoint 44">
       <r>  -21.7986    1.0000 </r>
       <r>  -17.9426    1.0000 </r>
       <r>  -14.2046    1.0000 </r>
       <r>   -9.8912    1.0000 </r>
       <r>   -9.7994    1.0000 </r>
       <r>   -6.9909    1.0000 </r>
       <r>   -6.3731    1.0000 </r>
       <r>   -5.6474    1.0000 </r>
       <r>   -0.1051    0.0000 </r>
       <r>    0.9281    0.0000 </r>
       <r>    1.7303    0.0000 </r>
       <r>    2.2896    0.0000 </r>
      </set>
      <set comment="kpoint 45">
       <r>  -21.7055    1.0000 </r>
       <r>  -18.3192    1.0000 </r>
       <r>  -13.7019    1.0000 </r>
       <r>   -9.7813    1.0000 </r>
       <r>   -9.7037    1.0000 </r>
       <r>   -7.2504    1.0000 </r>
       <r>   -6.5822    1.0000 </r>
       <r>   -6.0042    1.0000 </r>
       <r>    0.3685    0.0000 </r>
       <r>    1.0546    0.0000 </r>
       <r>    1.8579    0.0000 </r>
       <r>    2.2578    0.0000 </r>
      </set>
      <set comment="kpoint 46">
       <r>  -21.5920    1.0000 </r>
       <r>  -18.6813    1.0000 </r>
       <r>  -13.1882    1.0000 </r>
       <r>   -9.6475    1.0000 </r>
       <r>   -9.5873    1.0000 </r>
       <r>   -7.5465    1.0000 </r>
       <r>   -6.8309    1.0000 </r>
       <r>   -6.3693    1.0000 </r>
       <r>    0.8732    0.0000 </r>
       <r>    1.2092    0.0000 </r>
       <r>    2.0137    0.0000 </r>
       <r>    2.4170    0.0000 </r>
      </set>
      <set comment="kpoint 47">
       <r>  -21.4579    1.0000 </r>
       <r>  -19.0271    1.0000 </r>
       <r>  -12.6666    1.0000 </r>
       <r>   -9.4898    1.0000 </r>
       <r>   -9.4504    1.0000 </r>
       <r>   -7.8787    1.0000 </r>
       <r>   -7.1064    1.0000 </r>
       <r>   -6.7327    1.0000 </r>
       <r>    1.3918    0.0000 </r>
       <r>    1.3970    0.0000 </r>
       <r>    2.1978    0.0000 </r>
       <r>    2.6037    0.0000 </r>
      </set>
      <set comment="kpoint 48">
       <r>  -21.3036    1.0000 </r>
       <r>  -19.3556    1.0000 </r>
       <r>  -12.1403    1.0000 </r>
       <r>   -9.3087    1.0000 </r>
       <r>   -9.2936    1.0000 </r>
       <r>   -8.2478    1.0000 </r>
       <r>   -7.3943    1.0000 </r>
       <r>   -7.0879    1.0000 </r>
       <r>    1.6024    0.0000 </r>
       <r>    1.9312    0.0000 </r>
       <r>    2.4099    0.0000 </r>
       <r>    2.8207    0.0000 </r>
      </set>
      <set comment="kpoint 49">
       <r>  -21.1289    1.0000 </r>
       <r>  -19.6661    1.0000 </r>
       <r>  -11.6123    1.0000 </r>
       <r>   -9.1172    1.0000 </r>
       <r>   -9.1044    1.0000 </r>
       <r>   -8.6540    1.0000 </r>
       <r>   -7.6821    1.0000 </r>
       <r>   -7.4307    1.0000 </r>
       <r>    1.8409    0.0000 </r>
       <r>    2.4696    0.0000 </r>
       <r>    2.6501    0.0000 </r>
       <r>    3.0640    0.0000 </r>
      </set>
      <set comment="kpoint 50">
       <r>  -20.9342    1.0000 </r>
       <r>  -19.9582    1.0000 </r>
       <r>  -11.0862    1.0000 </r>
       <r>   -9.0946    1.0000 </r>
       <r>   -8.9217    1.0000 </r>
       <r>   -8.8775    1.0000 </r>
       <r>   -7.9611    1.0000 </r>
       <r>   -7.7580    1.0000 </r>
       <r>    2.1074    0.0000 </r>
       <r>    2.9184    0.0000 </r>
       <r>    3.3237    0.0000 </r>
       <r>    3.4460    0.0000 </r>
      </set>
      <set comment="kpoint 51">
       <r>  -20.7195    1.0000 </r>
       <r>  -20.2313    1.0000 </r>
       <r>  -10.5661    1.0000 </r>
       <r>   -9.5643    1.0000 </r>
       <r>   -8.7077    1.0000 </r>
       <r>   -8.6286    1.0000 </r>
       <r>   -8.2264    1.0000 </r>
       <r>   -8.0678    1.0000 </r>
       <r>    2.4014    0.0000 </r>
       <r>    3.0723    0.0000 </r>
       <r>    3.2133    0.0000 </r>
       <r>    3.6621    0.0000 </r>
      </set>
      <set comment="kpoint 52">
       <r>  -20.4852    1.0000 </r>
       <r>  -20.4852    1.0000 </r>
       <r>  -10.0570    1.0000 </r>
       <r>  -10.0570    1.0000 </r>
       <r>   -8.4756    1.0000 </r>
       <r>   -8.4756    1.0000 </r>
       <r>   -8.3584    1.0000 </r>
       <r>   -8.3584    1.0000 </r>
       <r>    2.7231    0.0000 </r>
       <r>    2.7232    0.0000 </r>
       <r>    3.5326    0.0000 </r>
       <r>    3.5351    0.0000 </r>
      </set>
      <set comment="kpoint 53">
       <r>  -21.8733    1.0000 </r>
       <r>  -16.5245    1.0000 </r>
       <r>  -15.7030    1.0000 </r>
       <r>  -10.3189    1.0000 </r>
       <r>   -9.9794    1.0000 </r>
       <r>   -6.7745    1.0000 </r>
       <r>   -6.2372    1.0000 </r>
       <r>   -4.6529    1.0000 </r>
       <r>   -1.2572    0.0000 </r>
       <r>    0.8264    0.0000 </r>
       <r>    1.6283    0.0000 </r>
       <r>    2.0252    0.0000 </r>
      </set>
      <set comment="kpoint 54">
       <r>  -21.8630    1.0000 </r>
       <r>  -16.7196    1.0000 </r>
       <r>  -15.4940    1.0000 </r>
       <r>  -10.3078    1.0000 </r>
       <r>   -9.9672    1.0000 </r>
       <r>   -6.8190    1.0000 </r>
       <r>   -6.2460    1.0000 </r>
       <r>   -4.7263    1.0000 </r>
       <r>   -1.1712    0.0000 </r>
       <r>    0.8405    0.0000 </r>
       <r>    1.6425    0.0000 </r>
       <r>    2.0404    0.0000 </r>
      </set>
      <set comment="kpoint 55">
       <r>  -21.8319    1.0000 </r>
       <r>  -17.0833    1.0000 </r>
       <r>  -15.0889    1.0000 </r>
       <r>  -10.2747    1.0000 </r>
       <r>   -9.9305    1.0000 </r>
       <r>   -6.9424    1.0000 </r>
       <r>   -6.2817    1.0000 </r>
       <r>   -4.9267    1.0000 </r>
       <r>   -0.9333    0.0000 </r>
       <r>    0.8827    0.0000 </r>
       <r>    1.6850    0.0000 </r>
       <r>    2.0825    0.0000 </r>
      </set>
      <set comment="kpoint 56">
       <r>  -21.7802    1.0000 </r>
       <r>  -17.4729    1.0000 </r>
       <r>  -14.6305    1.0000 </r>
       <r>  -10.2194    1.0000 </r>
       <r>   -9.8694    1.0000 </r>
       <r>   -7.1249    1.0000 </r>
       <r>   -6.3603    1.0000 </r>
       <r>   -5.2128    1.0000 </r>
       <r>   -0.5851    0.0000 </r>
       <r>    0.9530    0.0000 </r>
       <r>    1.7559    0.0000 </r>
       <r>    2.1551    0.0000 </r>
      </set>
      <set comment="kpoint 57">
       <r>  -21.7078    1.0000 </r>
       <r>  -17.8595    1.0000 </r>
       <r>  -14.1488    1.0000 </r>
       <r>  -10.1421    1.0000 </r>
       <r>   -9.7841    1.0000 </r>
       <r>   -7.3506    1.0000 </r>
       <r>   -6.4916    1.0000 </r>
       <r>   -5.5474    1.0000 </r>
       <r>   -0.1649    0.0000 </r>
       <r>    1.0514    0.0000 </r>
       <r>    1.8550    0.0000 </r>
       <r>    2.2550    0.0000 </r>
      </set>
      <set comment="kpoint 58">
       <r>  -21.6149    1.0000 </r>
       <r>  -18.2350    1.0000 </r>
       <r>  -13.6530    1.0000 </r>
       <r>  -10.0427    1.0000 </r>
       <r>   -9.6745    1.0000 </r>
       <r>   -7.6089    1.0000 </r>
       <r>   -6.6776    1.0000 </r>
       <r>   -5.9052    1.0000 </r>
       <r>    0.3009    0.0000 </r>
       <r>    1.1779    0.0000 </r>
       <r>    1.9825    0.0000 </r>
       <r>    2.3846    0.0000 </r>
      </set>
      <set comment="kpoint 59">
       <r>  -21.5015    1.0000 </r>
       <r>  -18.5961    1.0000 </r>
       <r>  -13.1480    1.0000 </r>
       <r>   -9.9213    1.0000 </r>
       <r>   -9.5411    1.0000 </r>
       <r>   -7.8935    1.0000 </r>
       <r>   -6.9136    1.0000 </r>
       <r>   -6.2706    1.0000 </r>
       <r>    0.7951    0.0000 </r>
       <r>    1.3325    0.0000 </r>
       <r>    2.1382    0.0000 </r>
       <r>    2.5439    0.0000 </r>
      </set>
      <set comment="kpoint 60">
       <r>  -21.3676    1.0000 </r>
       <r>  -18.9410    1.0000 </r>
       <r>  -12.6374    1.0000 </r>
       <r>   -9.7777    1.0000 </r>
       <r>   -9.3839    1.0000 </r>
       <r>   -8.2018    1.0000 </r>
       <r>   -7.1905    1.0000 </r>
       <r>   -6.6338    1.0000 </r>
       <r>    1.3060    0.0000 </r>
       <r>    1.5152    0.0000 </r>
       <r>    2.3221    0.0000 </r>
       <r>    2.7304    0.0000 </r>
      </set>
      <set comment="kpoint 61">
       <r>  -21.2134    1.0000 </r>
       <r>  -19.2687    1.0000 </r>
       <r>  -12.1248    1.0000 </r>
       <r>   -9.6118    1.0000 </r>
       <r>   -9.2032    1.0000 </r>
       <r>   -8.5338    1.0000 </r>
       <r>   -7.4954    1.0000 </r>
       <r>   -6.9885    1.0000 </r>
       <r>    1.7258    0.0000 </r>
       <r>    1.8255    0.0000 </r>
       <r>    2.5341    0.0000 </r>
       <r>    2.9452    0.0000 </r>
      </set>
      <set comment="kpoint 62">
       <r>  -21.0390    1.0000 </r>
       <r>  -19.5786    1.0000 </r>
       <r>  -11.6145    1.0000 </r>
       <r>   -9.4232    1.0000 </r>
       <r>   -8.9996    1.0000 </r>
       <r>   -8.8921    1.0000 </r>
       <r>   -7.8135    1.0000 </r>
       <r>   -7.3305    1.0000 </r>
       <r>    1.9644    0.0000 </r>
       <r>    2.3759    0.0000 </r>
       <r>    2.7743    0.0000 </r>
       <r>    3.2193    0.0000 </r>
      </set>
      <set comment="kpoint 63">
       <r>  -20.8445    1.0000 </r>
       <r>  -19.8700    1.0000 </r>
       <r>  -11.1110    1.0000 </r>
       <r>   -9.2800    1.0000 </r>
       <r>   -9.2116    1.0000 </r>
       <r>   -8.7734    1.0000 </r>
       <r>   -8.1302    1.0000 </r>
       <r>   -7.6571    1.0000 </r>
       <r>    2.2309    0.0000 </r>
       <r>    3.0396    0.0000 </r>
       <r>    3.2927    0.0000 </r>
       <r>    3.5637    0.0000 </r>
      </set>
      <set comment="kpoint 64">
       <r>  -20.6302    1.0000 </r>
       <r>  -20.1427    1.0000 </r>
       <r>  -10.6198    1.0000 </r>
       <r>   -9.6989    1.0000 </r>
       <r>   -8.9763    1.0000 </r>
       <r>   -8.5252    1.0000 </r>
       <r>   -8.4337    1.0000 </r>
       <r>   -7.9660    1.0000 </r>
       <r>    2.5250    0.0000 </r>
       <r>    3.1964    0.0000 </r>
       <r>    3.3378    0.0000 </r>
       <r>    3.3928    0.0000 </r>
      </set>
      <set comment="kpoint 65">
       <r>  -20.3961    1.0000 </r>
[...]
       <r>   -9.0082    1.0000 </r>
       <r>   -5.6636    1.0000 </r>
       <r>   -5.6636    1.0000 </r>
       <r>   -0.5721    0.0000 </r>
       <r>   -0.5721    0.0000 </r>
       <r>    4.8100    0.0000 </r>
       <r>    4.8100    0.0000 </r>
      </set>
      <set comment="kpoint 209">
       <r>  -18.8385    1.0000 </r>
       <r>  -17.1510    1.0000 </r>
       <r>  -13.8597    1.0000 </r>
       <r>  -12.3118    1.0000 </r>
       <r>  -12.3037    1.0000 </r>
       <r>  -10.8490    1.0000 </r>
       <r>   -6.4979    1.0000 </r>
       <r>   -4.6982    1.0000 </r>
       <r>   -0.9965    0.0000 </r>
       <r>    1.0576    0.0000 </r>
       <r>    5.0329    0.0000 </r>
       <r>    5.8220    0.0000 </r>
      </set>
      <set comment="kpoint 210">
       <r>  -18.8287    1.0000 </r>
       <r>  -17.1435    1.0000 </r>
       <r>  -13.9522    1.0000 </r>
       <r>  -12.3912    1.0000 </r>
       <r>  -12.2108    1.0000 </r>
       <r>  -10.7630    1.0000 </r>
       <r>   -6.4891    1.0000 </r>
       <r>   -4.7002    1.0000 </r>
       <r>   -1.0077    0.0000 </r>
       <r>    1.0316    0.0000 </r>
       <r>    5.0466    0.0000 </r>
       <r>    5.8383    0.0000 </r>
      </set>
      <set comment="kpoint 211">
       <r>  -18.7995    1.0000 </r>
       <r>  -17.1216    1.0000 </r>
       <r>  -14.1779    1.0000 </r>
       <r>  -12.6084    1.0000 </r>
       <r>  -11.9597    1.0000 </r>
       <r>  -10.5511    1.0000 </r>
       <r>   -6.4628    1.0000 </r>
       <r>   -4.7068    1.0000 </r>
       <r>   -1.0394    0.0000 </r>
       <r>    0.9556    0.0000 </r>
       <r>    5.0877    0.0000 </r>
       <r>    5.8867    0.0000 </r>
      </set>
      <set comment="kpoint 212">
       <r>  -18.7509    1.0000 </r>
       <r>  -17.0865    1.0000 </r>
       <r>  -14.4612    1.0000 </r>
       <r>  -12.8879    1.0000 </r>
       <r>  -11.6341    1.0000 </r>
       <r>  -10.2826    1.0000 </r>
       <r>   -6.4192    1.0000 </r>
       <r>   -4.7196    1.0000 </r>
       <r>   -1.0862    0.0000 </r>
       <r>    0.8351    0.0000 </r>
       <r>    5.1560    0.0000 </r>
       <r>    5.9680    0.0000 </r>
      </set>
      <set comment="kpoint 213">
       <r>  -18.6831    1.0000 </r>
       <r>  -17.0410    1.0000 </r>
       <r>  -14.7589    1.0000 </r>
       <r>  -13.1920    1.0000 </r>
       <r>  -11.2769    1.0000 </r>
       <r>   -9.9988    1.0000 </r>
       <r>   -6.3589    1.0000 </r>
       <r>   -4.7408    1.0000 </r>
       <r>   -1.1401    0.0000 </r>
       <r>    0.6780    0.0000 </r>
       <r>    5.2505    0.0000 </r>
       <r>    6.0904    0.0000 </r>
      </set>
      <set comment="kpoint 214">
       <r>  -18.5964    1.0000 </r>
       <r>  -16.9901    1.0000 </r>
       <r>  -15.0476    1.0000 </r>
       <r>  -13.5027    1.0000 </r>
       <r>  -10.9098    1.0000 </r>
       <r>   -9.7225    1.0000 </r>
       <r>   -6.2827    1.0000 </r>
       <r>   -4.7735    1.0000 </r>
       <r>   -1.1916    0.0000 </r>
       <r>    0.4934    0.0000 </r>
       <r>    5.3680    0.0000 </r>
       <r>    6.1937    0.0000 </r>
      </set>
      <set comment="kpoint 215">
       <r>  -18.4911    1.0000 </r>
       <r>  -16.9433    1.0000 </r>
       <r>  -15.3091    1.0000 </r>
       <r>  -13.8105    1.0000 </r>
       <r>  -10.5462    1.0000 </r>
       <r>   -9.4688    1.0000 </r>
       <r>   -6.1917    1.0000 </r>
       <r>   -4.8204    1.0000 </r>
       <r>   -1.2311    0.0000 </r>
       <r>    0.2903    0.0000 </r>
       <r>    5.4993    0.0000 </r>
       <r>    6.5455    0.0000 </r>
      </set>
      <set comment="kpoint 216">
       <r>  -18.3678    1.0000 </r>
       <r>  -16.9172    1.0000 </r>
       <r>  -15.5219    1.0000 </r>
       <r>  -14.1098    1.0000 </r>
       <r>  -10.1965    1.0000 </r>
       <r>   -9.2500    1.0000 </r>
       <r>   -6.0871    1.0000 </r>
       <r>   -4.8840    1.0000 </r>
       <r>   -1.2499    0.0000 </r>
       <r>    0.0775    0.0000 </r>
       <r>    5.3158    0.0000 </r>
       <r>    5.8250    0.0000 </r>
      </set>
      <set comment="kpoint 217">
       <r>  -18.2272    1.0000 </r>
       <r>  -16.9359    1.0000 </r>
       <r>  -15.6589    1.0000 </r>
       <r>  -14.3969    1.0000 </r>
       <r>   -9.8704    1.0000 </r>
       <r>   -9.0766    1.0000 </r>
       <r>   -5.9708    1.0000 </r>
       <r>   -4.9654    1.0000 </r>
       <r>   -1.2413    0.0000 </r>
       <r>   -0.1373    0.0000 </r>
       <r>    5.0114    0.0000 </r>
       <r>    5.9409    0.0000 </r>
      </set>
      <set comment="kpoint 218">
       <r>  -18.0706    1.0000 </r>
       <r>  -17.0187    1.0000 </r>
       <r>  -15.6993    1.0000 </r>
       <r>  -14.6686    1.0000 </r>
       <r>   -9.5773    1.0000 </r>
       <r>   -8.9579    1.0000 </r>
       <r>   -5.8448    1.0000 </r>
       <r>   -5.0641    1.0000 </r>
       <r>   -1.2013    0.0000 </r>
       <r>   -0.3472    0.0000 </r>
       <r>    4.7880    0.0000 </r>
       <r>    5.4263    0.0000 </r>
      </set>
      <set comment="kpoint 219">
       <r>  -17.8995    1.0000 </r>
       <r>  -17.1600    1.0000 </r>
       <r>  -15.6476    1.0000 </r>
       <r>  -14.9218    1.0000 </r>
       <r>   -9.3265    1.0000 </r>
       <r>   -8.9010    1.0000 </r>
       <r>   -5.7117    1.0000 </r>
       <r>   -5.1779    1.0000 </r>
       <r>   -1.1285    0.0000 </r>
       <r>   -0.5461    0.0000 </r>
       <r>    4.6584    0.0000 </r>
       <r>    5.0969    0.0000 </r>
      </set>
      <set comment="kpoint 220">
       <r>  -17.7166    1.0000 </r>
       <r>  -17.3364    1.0000 </r>
       <r>  -15.5265    1.0000 </r>
       <r>  -15.1530    1.0000 </r>
       <r>   -9.1269    1.0000 </r>
       <r>   -8.9102    1.0000 </r>
       <r>   -5.5747    1.0000 </r>
       <r>   -5.3037    1.0000 </r>
       <r>   -1.0235    0.0000 </r>
       <r>   -0.7283    0.0000 </r>
       <r>    4.6249    0.0000 </r>
       <r>    4.8484    0.0000 </r>
      </set>
      <set comment="kpoint 221">
       <r>  -17.5264    1.0000 </r>
       <r>  -17.5264    1.0000 </r>
       <r>  -15.3572    1.0000 </r>
       <r>  -15.3572    1.0000 </r>
       <r>   -8.9863    1.0000 </r>
       <r>   -8.9863    1.0000 </r>
       <r>   -5.4374    1.0000 </r>
       <r>   -5.4374    1.0000 </r>
       <r>   -0.8889    0.0000 </r>
       <r>   -0.8889    0.0000 </r>
       <r>    4.6891    0.0000 </r>
       <r>    4.6891    0.0000 </r>
      </set>
      <set comment="kpoint 222">
       <r>  -18.4388    1.0000 </r>
       <r>  -17.5913    1.0000 </r>
       <r>  -13.4994    1.0000 </r>
       <r>  -12.7206    1.0000 </r>
       <r>  -11.9806    1.0000 </r>
       <r>  -11.2446    1.0000 </r>
       <r>   -6.0611    1.0000 </r>
       <r>   -5.1565    1.0000 </r>
       <r>   -0.5147    0.0000 </r>
       <r>    0.5143    0.0000 </r>
       <r>    5.6017    0.0000 </r>
       <r>    6.3861    0.0000 </r>
      </set>
      <set comment="kpoint 223">
       <r>  -18.4293    1.0000 </r>
       <r>  -17.5827    1.0000 </r>
       <r>  -13.5927    1.0000 </r>
       <r>  -12.8108    1.0000 </r>
       <r>  -11.8816    1.0000 </r>
       <r>  -11.1535    1.0000 </r>
       <r>   -6.0535    1.0000 </r>
       <r>   -5.1538    1.0000 </r>
       <r>   -0.5320    0.0000 </r>
       <r>    0.4903    0.0000 </r>
       <r>    5.6154    0.0000 </r>
       <r>    6.3778    0.0000 </r>
      </set>
      <set comment="kpoint 224">
       <r>  -18.4007    1.0000 </r>
       <r>  -17.5570    1.0000 </r>
       <r>  -13.8207    1.0000 </r>
       <r>  -13.0332    1.0000 </r>
       <r>  -11.6367    1.0000 </r>
       <r>  -10.9287    1.0000 </r>
       <r>   -6.0311    1.0000 </r>
       <r>   -5.1460    1.0000 </r>
       <r>   -0.5818    0.0000 </r>
       <r>    0.4202    0.0000 </r>
       <r>    5.6563    0.0000 </r>
       <r>    6.4704    0.0000 </r>
      </set>
      <set comment="kpoint 225">
       <r>  -18.3532    1.0000 </r>
       <r>  -17.5149    1.0000 </r>
       <r>  -14.1090    1.0000 </r>
       <r>  -13.3178    1.0000 </r>
       <r>  -11.3214    1.0000 </r>
       <r>  -10.6423    1.0000 </r>
       <r>   -5.9942    1.0000 </r>
       <r>   -5.1342    1.0000 </r>
       <r>   -0.6588    0.0000 </r>
       <r>    0.3095    0.0000 </r>
       <r>    5.7240    0.0000 </r>
       <r>    6.5566    0.0000 </r>
      </set>
      <set comment="kpoint 226">
       <r>  -18.2872    1.0000 </r>
       <r>  -17.4573    1.0000 </r>
       <r>  -14.4166    1.0000 </r>
       <r>  -13.6256    1.0000 </r>
       <r>  -10.9783    1.0000 </r>
       <r>  -10.3361    1.0000 </r>
       <r>   -5.9436    1.0000 </r>
       <r>   -5.1204    1.0000 </r>
       <r>   -0.7550    0.0000 </r>
       <r>    0.1660    0.0000 </r>
       <r>    5.8172    0.0000 </r>
       <r>    6.7960    0.0000 </r>
      </set>
      <set comment="kpoint 227">
       <r>  -18.2029    1.0000 </r>
       <r>  -17.3862    1.0000 </r>
       <r>  -14.7235    1.0000 </r>
       <r>  -13.9383    1.0000 </r>
       <r>  -10.6293    1.0000 </r>
       <r>  -10.0327    1.0000 </r>
       <r>   -5.8806    1.0000 </r>
       <r>   -5.1069    1.0000 </r>
       <r>   -0.8606    0.0000 </r>
       <r>   -0.0011    0.0000 </r>
       <r>    5.9530    0.0000 </r>
       <r>    6.5340    0.0000 </r>
      </set>
      <set comment="kpoint 228">
       <r>  -18.1011    1.0000 </r>
       <r>  -17.3048    1.0000 </r>
       <r>  -15.0175    1.0000 </r>
       <r>  -14.2465    1.0000 </r>
       <r>  -10.2883    1.0000 </r>
       <r>   -9.7466    1.0000 </r>
       <r>   -5.8067    1.0000 </r>
       <r>   -5.0971    1.0000 </r>
       <r>   -0.9652    0.0000 </r>
       <r>   -0.1823    0.0000 </r>
       <r>    5.9308    0.0000 </r>
       <r>    6.2130    0.0000 </r>
      </set>
      <set comment="kpoint 229">
       <r>  -17.9828    1.0000 </r>
       <r>  -17.2188    1.0000 </r>
       <r>  -15.2883    1.0000 </r>
       <r>  -14.5441    1.0000 </r>
       <r>   -9.9661    1.0000 </r>
       <r>   -9.4899    1.0000 </r>
       <r>   -5.7239    1.0000 </r>
       <r>   -5.0945    1.0000 </r>
       <r>   -1.0586    0.0000 </r>
       <r>   -0.3685    0.0000 </r>
       <r>    5.5019    0.0000 </r>
       <r>    5.9947    0.0000 </r>
      </set>
      <set comment="kpoint 230">
       <r>  -17.8495    1.0000 </r>
       <r>  -17.1387    1.0000 </r>
       <r>  -15.5225    1.0000 </r>
       <r>  -14.8268    1.0000 </r>
       <r>   -9.6728    1.0000 </r>
       <r>   -9.2731    1.0000 </r>
       <r>   -5.6347    1.0000 </r>
       <r>   -5.1025    1.0000 </r>
       <r>   -1.1314    0.0000 </r>
       <r>   -0.5510    0.0000 </r>
       <r>    5.1600    0.0000 </r>
       <r>    6.4207    0.0000 </r>
      </set>
      <set comment="kpoint 231">
       <r>  -17.7036    1.0000 </r>
       <r>  -17.0825    1.0000 </r>
       <r>  -15.7003    1.0000 </r>
       <r>  -15.0901    1.0000 </r>
       <r>   -9.4180    1.0000 </r>
       <r>   -9.1060    1.0000 </r>
       <r>   -5.5424    1.0000 </r>
       <r>   -5.1243    1.0000 </r>
       <r>   -1.1760    0.0000 </r>
       <r>   -0.7221    0.0000 </r>
       <r>    4.8830    0.0000 </r>
       <r>    5.2038    0.0000 </r>
      </set>
      <set comment="kpoint 232">
       <r>  -17.5490    1.0000 </r>
       <r>  -17.0752    1.0000 </r>
       <r>  -15.7957    1.0000 </r>
       <r>  -15.3289    1.0000 </r>
       <r>   -9.2112    1.0000 </r>
       <r>   -8.9966    1.0000 </r>
       <r>   -5.4503    1.0000 </r>
       <r>   -5.1616    1.0000 </r>
       <r>   -1.1870    0.0000 </r>
       <r>   -0.8746    0.0000 </r>
       <r>    4.6984    0.0000 </r>
       <r>    4.9191    0.0000 </r>
      </set>
      <set comment="kpoint 233">
       <r>  -17.3928    1.0000 </r>
       <r>  -17.1333    1.0000 </r>
       <r>  -15.7912    1.0000 </r>
       <r>  -15.5352    1.0000 </r>
       <r>   -9.0606    1.0000 </r>
       <r>   -8.9512    1.0000 </r>
       <r>   -5.3624    1.0000 </r>
       <r>   -5.2149    1.0000 </r>
       <r>   -1.1613    0.0000 </r>
       <r>   -1.0020    0.0000 </r>
       <r>    4.6081    0.0000 </r>
       <r>    4.7206    0.0000 </r>
      </set>
      <set comment="kpoint 234">
       <r>  -17.2474    1.0000 </r>
       <r>  -17.2474    1.0000 </r>
       <r>  -15.6962    1.0000 </r>
       <r>  -15.6962    1.0000 </r>
       <r>   -8.9726    1.0000 </r>
       <r>   -8.9726    1.0000 </r>
       <r>   -5.2827    1.0000 </r>
       <r>   -5.2827    1.0000 </r>
       <r>   -1.0989    0.0000 </r>
       <r>   -1.0989    0.0000 </r>
       <r>    4.6157    0.0000 </r>
       <r>    4.6157    0.0000 </r>
      </set>
      <set comment="kpoint 235">
       <r>  -18.0221    1.0000 </r>
       <r>  -18.0221    1.0000 </r>
       <r>  -13.1195    1.0000 </r>
       <r>  -13.1195    1.0000 </r>
       <r>  -11.6232    1.0000 </r>
       <r>  -11.6232    1.0000 </r>
       <r>   -5.6125    1.0000 </r>
       <r>   -5.6125    1.0000 </r>
       <r>   -0.0105    0.0000 </r>
       <r>   -0.0105    0.0000 </r>
       <r>    6.1994    0.0000 </r>
       <r>    6.2026    0.0000 </r>
      </set>
      <set comment="kpoint 236">
       <r>  -18.0129    1.0000 </r>
       <r>  -18.0129    1.0000 </r>
       <r>  -13.2117    1.0000 </r>
       <r>  -13.2117    1.0000 </r>
       <r>  -11.5276    1.0000 </r>
       <r>  -11.5276    1.0000 </r>
       <r>   -5.6069    1.0000 </r>
       <r>   -5.6069    1.0000 </r>
       <r>   -0.0318    0.0000 </r>
       <r>   -0.0318    0.0000 </r>
       <r>    6.2128    0.0000 </r>
       <r>    6.2129    0.0000 </r>
      </set>
      <set comment="kpoint 237">
       <r>  -17.9853    1.0000 </r>
       <r>  -17.9853    1.0000 </r>
       <r>  -13.4381    1.0000 </r>
       <r>  -13.4381    1.0000 </r>
       <r>  -11.2917    1.0000 </r>
       <r>  -11.2917    1.0000 </r>
       <r>   -5.5902    1.0000 </r>
       <r>   -5.5902    1.0000 </r>
       <r>   -0.0936    0.0000 </r>
       <r>   -0.0936    0.0000 </r>
       <r>    6.2534    0.0000 </r>
       <r>    6.2549    0.0000 </r>
      </set>
      <set comment="kpoint 238">
       <r>  -17.9398    1.0000 </r>
       <r>  -17.9398    1.0000 </r>
       <r>  -13.7259    1.0000 </r>
       <r>  -13.7259    1.0000 </r>
       <r>  -10.9896    1.0000 </r>
       <r>  -10.9896    1.0000 </r>
       <r>   -5.5632    1.0000 </r>
       <r>   -5.5632    1.0000 </r>
       <r>   -0.1906    0.0000 </r>
       <r>   -0.1906    0.0000 </r>
       <r>    6.3218    0.0000 </r>
       <r>    7.0393    0.0000 </r>
      </set>
      <set comment="kpoint 239">
       <r>  -17.8766    1.0000 </r>
       <r>  -17.8766    1.0000 </r>
       <r>  -14.0354    1.0000 </r>
       <r>  -14.0354    1.0000 </r>
       <r>  -10.6636    1.0000 </r>
       <r>  -10.6636    1.0000 </r>
       <r>   -5.5271    1.0000 </r>
       <r>   -5.5271    1.0000 </r>
       <r>   -0.3148    0.0000 </r>
       <r>   -0.3148    0.0000 </r>
       <r>    6.4111    0.0000 </r>
       <r>    6.4929    0.0000 </r>
      </set>
      <set comment="kpoint 240">
       <r>  -17.7968    1.0000 </r>
       <r>  -17.7968    1.0000 </r>
       <r>  -14.3478    1.0000 </r>
       <r>  -14.3478    1.0000 </r>
       <r>  -10.3359    1.0000 </r>
       <r>  -10.3359    1.0000 </r>
       <r>   -5.4837    1.0000 </r>
       <r>   -5.4837    1.0000 </r>
       <r>   -0.4569    0.0000 </r>
       <r>   -0.4569    0.0000 </r>
       <r>    6.4927    0.0000 </r>
       <r>    6.7473    0.0000 </r>
      </set>
      <set comment="kpoint 241">
       <r>  -17.7015    1.0000 </r>
       <r>  -17.7015    1.0000 </r>
       <r>  -14.6529    1.0000 </r>
       <r>  -14.6529    1.0000 </r>
       <r>  -10.0208    1.0000 </r>
       <r>  -10.0208    1.0000 </r>
       <r>   -5.4353    1.0000 </r>
       <r>   -5.4353    1.0000 </r>
       <r>   -0.6069    0.0000 </r>
       <r>   -0.6069    0.0000 </r>
       <r>    6.1857    0.0000 </r>
       <r>    6.6861    0.0000 </r>
      </set>
      <set comment="kpoint 242">
       <r>  -17.5930    1.0000 </r>
       <r>  -17.5930    1.0000 </r>
       <r>  -14.9437    1.0000 </r>
       <r>  -14.9437    1.0000 </r>
       <r>   -9.7296    1.0000 </r>
       <r>   -9.7296    1.0000 </r>
       <r>   -5.3849    1.0000 </r>
       <r>   -5.3849    1.0000 </r>
       <r>   -0.7549    0.0000 </r>
       <r>   -0.7549    0.0000 </r>
       <r>    5.7314    0.0000 </r>
       <r>    5.7317    0.0000 </r>
      </set>
      <set comment="kpoint 243">
       <r>  -17.4749    1.0000 </r>
       <r>  -17.4749    1.0000 </r>
       <r>  -15.2137    1.0000 </r>
       <r>  -15.2137    1.0000 </r>
       <r>   -9.4727    1.0000 </r>
       <r>   -9.4727    1.0000 </r>
       <r>   -5.3359    1.0000 </r>
       <r>   -5.3359    1.0000 </r>
       <r>   -0.8916    0.0000 </r>
       <r>   -0.8916    0.0000 </r>
       <r>    5.3410    0.0000 </r>
       <r>    5.3410    0.0000 </r>
      </set>
      <set comment="kpoint 244">
       <r>  -17.3535    1.0000 </r>
       <r>  -17.3535    1.0000 </r>
       <r>  -15.4547    1.0000 </r>
       <r>  -15.4547    1.0000 </r>
       <r>   -9.2601    1.0000 </r>
       <r>   -9.2601    1.0000 </r>
       <r>   -5.2921    1.0000 </r>
       <r>   -5.2921    1.0000 </r>
       <r>   -1.0083    0.0000 </r>
       <r>   -1.0083    0.0000 </r>
       <r>    5.0220    0.0000 </r>
       <r>    5.0220    0.0000 </r>
      </set>
      <set comment="kpoint 245">
       <r>  -17.2403    1.0000 </r>
       <r>  -17.2403    1.0000 </r>
       <r>  -15.6541    1.0000 </r>
       <r>  -15.6541    1.0000 </r>
       <r>   -9.1006    1.0000 </r>
       <r>   -9.1006    1.0000 </r>
       <r>   -5.2573    1.0000 </r>
       <r>   -5.2573    1.0000 </r>
       <r>   -1.0978    0.0000 </r>
       <r>   -1.0978    0.0000 </r>
       <r>    4.7856    0.0000 </r>
       <r>    4.7856    0.0000 </r>
      </set>
      <set comment="kpoint 246">
       <r>  -17.1546    1.0000 </r>
       <r>  -17.1546    1.0000 </r>
       <r>  -15.7918    1.0000 </r>
       <r>  -15.7918    1.0000 </r>
       <r>   -9.0016    1.0000 </r>
       <r>   -9.0016    1.0000 </r>
       <r>   -5.2349    1.0000 </r>
       <r>   -5.2349    1.0000 </r>
       <r>   -1.1539    0.0000 </r>
       <r>   -1.1539    0.0000 </r>
       <r>    4.6401    0.0000 </r>
       <r>    4.6401    0.0000 </r>
      </set>
      <set comment="kpoint 247">
       <r>  -17.1216    1.0000 </r>
       <r>  -17.1216    1.0000 </r>
       <r>  -15.8422    1.0000 </r>
       <r>  -15.8422    1.0000 </r>
       <r>   -8.9680    1.0000 </r>
       <r>   -8.9680    1.0000 </r>
       <r>   -5.2271    1.0000 </r>
       <r>   -5.2271    1.0000 </r>
       <r>   -1.1731    0.0000 </r>
       <r>   -1.1731    0.0000 </r>
       <r>    4.5910    0.0000 </r>
       <r>    4.5910    0.0000 </r>
      </set>
     </set>
    </set>
   </array>
  </eigenvalues>
  <separator name="orbital magnetization" >
   <v name="MAGDIPOLOUT">      0.00000000      0.00000000      0.00000000</v>
  </separator>
 </calculation>
 <structure name="finalpos" >
  <crystal>
   <varray name="basis" >
    <v>       4.25514536       0.00000000       0.00000000 </v>
    <v>       0.00000000       2.52910820       0.00000000 </v>
    <v>       0.00000000       0.00000000      19.59146324 </v>
   </varray>
   <i name="volume">    210.83790140 </i>
   <varray name="rec_basis" >
    <v>       0.23500960       0.00000000       0.00000000 </v>
    <v>       0.00000000       0.39539629       0.00000000 </v>
    <v>       0.00000000       0.00000000       0.05104264 </v>
   </varray>
  </crystal>
  <varray name="positions" >
   <v>       0.00063729       0.00000000       0.00000000 </v>
   <v>       0.16602938       0.50000000       0.00000000 </v>
   <v>       0.50063729       0.50000000       0.00000000 </v>
   <v>       0.66602938       0.00000000       0.00000000 </v>
  </varray>
 </structure>
</modeling>
