gr                                      
           1
     4.255145    0.000000    0.000000
     0.000000    2.529108    0.000000
     0.000000    0.000000   19.591463
   C 
   4
Direct configuration=     1
   0.00063729  0.00000000  0.00000000
   0.16602938  0.50000000  0.00000000
   0.50063729  0.50000000  0.00000000
   0.66602938  0.00000000  0.00000000
