    4    4  400    1
  0.5270948E+02  0.4262016E-09  0.2504434E-09  0.1975259E-08  0.5000000E-15
  1.000000000000000E-004
  CAR 
 gr                                      
     16    247     12
 
  0.0000000E+00  0.0000000E+00  0.0000000E+00  0.1157407E-02
    1      -22.149735
    2      -16.828996
    3      -15.906237
    4      -10.278691
    5       -9.356050
    6       -5.916862
    7       -5.754429
    8       -4.985777
    9       -1.112586
   10        0.536314
   11        1.335658
   12        1.724802
 
  0.4166667E-01  0.0000000E+00  0.0000000E+00  0.2314815E-02
    1      -22.139408
    2      -17.011885
    3      -15.708231
    4      -10.266404
    5       -9.345726
    6       -5.940132
    7       -5.795641
    8       -5.054430
    9       -1.028646
   10        0.550312
   11        1.349814
   12        1.739133
 
  0.8333333E-01  0.0000000E+00  0.0000000E+00  0.2314815E-02
    1      -22.108435
    2      -17.366774
    3      -15.308074
    4      -10.229564
    5       -9.314802
    6       -6.008621
    7       -5.917703
    8       -5.244148
    9       -0.793239
   10        0.592306
   11        1.392275
   12        1.782127
 
  0.1250000E+00  0.0000000E+00  0.0000000E+00  0.2314815E-02
    1      -22.056833
    2      -17.753429
    3      -14.846277
    4      -10.168227
    5       -9.263431
    6       -6.118596
    7       -6.116145
    8       -5.519385
    9       -0.442440
   10        0.662294
   11        1.463032
   12        1.853783
 
  0.1666667E+00  0.0000000E+00  0.0000000E+00  0.2314815E-02
    1      -21.984637
    2      -18.139136
    3      -14.356015
    4      -10.082489
    5       -9.191871
    6       -6.384233
    7       -6.264521
    8       -5.845767
    9       -0.011508
   10        0.760271
   11        1.562064
   12        1.954102
 
  0.2083333E+00  0.0000000E+00  0.0000000E+00  0.2314815E-02
    1      -21.891898
    2      -18.514408
    3      -13.847448
    4       -9.972493
    5       -9.100496
    6       -6.713832
    7       -6.439826
    8       -6.198329
    9        0.473332
   10        0.886226
   11        1.689340
   12        2.083083
 
  0.2500000E+00  0.0000000E+00  0.0000000E+00  0.2314815E-02
    1      -21.778678
    2      -18.875469
    3      -13.325235
    4       -9.838425
    5       -8.989809
    6       -7.096211
    7       -6.637625
    8       -6.560747
    9        0.994105
   10        1.040140
   11        1.844812
   12        2.240723
 
  0.2916667E+00  0.0000000E+00  0.0000000E+00  0.2314815E-02
    1      -21.645058
    2      -19.220432
    3      -12.792388
    4       -9.680530
    5       -8.860452
    6       -7.522703
    7       -6.922567
    8       -6.851263
    9        1.221981
   10        1.538262
   11        2.028414
   12        2.427018
 
  0.3333333E+00  0.0000000E+00  0.0000000E+00  0.2314815E-02
    1      -21.491134
    2      -19.548188
    3      -12.251415
    4       -9.499114
    5       -8.713238
    6       -7.985142
    7       -7.276985
    8       -7.074656
    9        1.431708
   10        2.096319
   11        2.240038
   12        2.641961
 
  0.3750000E+00  0.0000000E+00  0.0000000E+00  0.2314815E-02
    1      -21.317021
    2      -19.858000
    3      -11.704757
    4       -9.294564
    5       -8.549171
    6       -8.476095
    7       -7.619438
    8       -7.302442
    9        1.669262
   10        2.479503
   11        2.659904
   12        2.885539
 
  0.4166667E+00  0.0000000E+00  0.0000000E+00  0.2314815E-02
    1      -21.122853
    2      -20.149336
    3      -11.155006
    4       -9.067361
    5       -8.988963
    6       -8.369484
    7       -7.946762
    8       -7.530017
    9        1.934562
   10        2.746444
   11        3.157727
   12        3.217788
 
  0.4583333E+00  0.0000000E+00  0.0000000E+00  0.2314815E-02
    1      -20.908791
    2      -20.421786
    3      -10.605035
    4       -9.517972
    5       -8.818106
    6       -8.256693
    7       -8.175686
    8       -7.753489
    9        2.227491
   10        2.895369
   11        3.039909
   12        3.458831
 
  0.5000000E+00  0.0000000E+00  0.0000000E+00  0.1157407E-02
    1      -20.675027
    2      -20.675027
    3      -10.058106
    4      -10.058106
    5       -8.547560
    6       -8.547560
    7       -7.969612
    8       -7.969612
    9        2.547868
   10        2.547868
   11        3.355813
   12        3.355814
 
  0.0000000E+00  0.2777778E-01  0.0000000E+00  0.2314815E-02
    1      -22.136468
    2      -16.817574
    3      -15.895369
    4      -10.262905
    5       -9.415561
    6       -5.971643
    7       -5.785887
    8       -4.969683
    9       -1.117891
   10        0.554278
   11        1.353873
   12        1.743241
 
  0.4166667E-01  0.2777778E-01  0.0000000E+00  0.4629630E-02
    1      -22.126142
    2      -17.000327
    3      -15.697555
    4      -10.250623
    5       -9.405211
    6       -5.998817
    7       -5.822485
    8       -5.038500
    9       -1.033912
   10        0.568277
   11        1.368027
   12        1.757572
 
  0.8333333E-01  0.2777778E-01  0.0000000E+00  0.4629630E-02
    1      -22.095173
    2      -17.354990
    3      -15.297797
    4      -10.213796
    5       -9.374211
    6       -6.082010
    7       -5.927842
    8       -5.228589
    9       -0.798515
   10        0.610274
   11        1.410486
   12        1.800567
 
  0.1250000E+00  0.2777778E-01  0.0000000E+00  0.4629630E-02
    1      -22.043579
    2      -17.741431
    3      -14.836510
    4      -10.152480
    5       -9.322708
    6       -6.230802
    7       -6.084510
    8       -5.504197
    9       -0.447981
   10        0.680268
   11        1.481237
   12        1.872224
 
  0.1666667E+00  0.2777778E-01  0.0000000E+00  0.4629630E-02
    1      -21.971394
    2      -18.126952
    3      -14.346867
    4      -10.066774
    5       -9.250952
    6       -6.461677
    7       -6.264157
    8       -5.830845
    9       -0.017676
   10        0.778252
   11        1.580262
   12        1.972545
 
  0.2083333E+00  0.2777778E-01  0.0000000E+00  0.4629630E-02
    1      -21.878669
    2      -18.502061
    3      -13.839044
    4       -9.956817
    5       -9.159306
    6       -6.769738
    7       -6.457358
    8       -6.183555
    9        0.466163
   10        0.904218
   11        1.707529
   12        2.101528
 
  0.2500000E+00  0.2777778E-01  0.0000000E+00  0.4629630E-02
    1      -21.765466
    2      -18.862981
    3      -13.317727
    4       -9.822798
    5       -9.048253
    6       -7.138120
    7       -6.665649
    8       -6.546026
    9        0.985589
   10        1.058143
   11        1.862991
   12        2.259170
 
  0.2916667E+00  0.2777778E-01  0.0000000E+00  0.4629630E-02
    1      -21.631868
    2      -19.207823
    3      -12.785961
    4       -9.664960
    5       -8.918417
    6       -7.554244
    7       -6.907834
    8       -6.886464
    9        1.239997
   10        1.528099
   11        2.046582
   12        2.445469
 
  0.3333333E+00  0.2777778E-01  0.0000000E+00  0.4629630E-02
    1      -21.477969
    2      -19.535474
    3      -12.246294
    4       -9.483611
    5       -8.770583
    6       -8.008524
    7       -7.262197
    8       -7.115207
    9        1.449739
   10        2.084281
   11        2.258197
   12        2.660417
 
  0.3750000E+00  0.2777778E-01  0.0000000E+00  0.4629630E-02
    1      -21.303887
    2      -19.845196
    3      -11.701222
    4       -9.279135
    5       -8.605720
    6       -8.492910
    7       -7.604569
    8       -7.347140
    9        1.687310
   10        2.497658
   11        2.645924
   12        2.904001
 
  0.4166667E+00  0.2777778E-01  0.0000000E+00  0.4629630E-02
    1      -21.109755
    2      -20.136454
    3      -11.153400
    4       -9.052015
    5       -9.000452
    6       -8.425018
    7       -7.931800
    8       -7.577984
    9        1.952631
   10        2.764608
   11        3.176208
   12        3.202093
 
  0.4583333E+00  0.2777778E-01  0.0000000E+00  0.4629630E-02
    1      -20.895735
    2      -20.408838
    3      -10.605783
    4       -9.525128
    5       -8.802850
    6       -8.241631
    7       -8.229931
    8       -7.804049
    9        2.245588
   10        2.913601
   11        3.058106
   12        3.477088
 
  0.5000000E+00  0.2777778E-01  0.0000000E+00  0.2314815E-02
    1      -20.662021
    2      -20.662021
    3      -10.061734
    4      -10.061734
    5       -8.532399
    6       -8.532399
    7       -8.022227
    8       -8.022227
    9        2.566011
   10        2.566011
   11        3.374022
   12        3.374022
 
  0.0000000E+00  0.5555556E-01  0.0000000E+00  0.2314815E-02
    1      -22.096678
    2      -16.783310
    3      -15.862948
    4      -10.215580
    5       -9.589249
    6       -6.131691
    7       -5.879344
    8       -4.921421
    9       -1.134609
   10        0.608176
   11        1.408508
   12        1.798559
 
  0.4166667E-01  0.5555556E-01  0.0000000E+00  0.4629630E-02
    1      -22.086357
    2      -16.965672
    3      -15.665702
    4      -10.203311
    5       -9.578819
    6       -6.165733
    7       -5.907004
    8       -4.990746
    9       -1.050508
   10        0.622177
   11        1.422659
   12        1.812891
 
  0.8333333E-01  0.5555556E-01  0.0000000E+00  0.4629630E-02
    1      -22.055400
    2      -17.319667
    3      -15.267150
    4      -10.166524
    5       -9.547573
    6       -6.266264
    7       -5.989173
    8       -5.181977
    9       -0.815128
   10        0.664182
   11        1.465108
   12        1.855887
 
  0.1250000E+00  0.5555556E-01  0.0000000E+00  0.4629630E-02
    1      -22.003827
    2      -17.705469
    3      -14.807420
    4      -10.105275
    5       -9.495641
    6       -6.429879
    7       -6.122330
    8       -5.458723
    9       -0.465392
   10        0.734188
   11        1.535844
   12        1.927547
 
  0.1666667E+00  0.5555556E-01  0.0000000E+00  0.4629630E-02
    1      -21.931675
    2      -18.090425
    3      -14.319678
    4      -10.019663
    5       -9.423248
    6       -6.653628
    7       -6.298782
    8       -5.786182
    9       -0.036995
   10        0.832192
   11        1.634847
   12        2.027871
 
  0.2083333E+00  0.5555556E-01  0.0000000E+00  0.4629630E-02
    1      -21.838992
    2      -18.465043
    3      -13.814155
    4       -9.909827
    5       -9.330716
    6       -6.935363
    7       -6.507493
    8       -6.139337
    9        0.443793
   10        0.958182
   11        1.762086
   12        2.156860
 
  0.2500000E+00  0.5555556E-01  0.0000000E+00  0.4629630E-02
    1      -21.725842
    2      -18.825539
    3      -13.295618
    4       -9.775955
    5       -9.218475
    6       -7.271987
    7       -6.737088
    8       -6.501965
    9        0.959116
   10        1.112138
   11        1.917516
   12        2.314510
 
  0.2916667E+00  0.5555556E-01  0.0000000E+00  0.4629630E-02
    1      -21.592309
    2      -19.170015
    3      -12.767218
    4       -9.618292
    5       -9.087076
    6       -7.658098
    7       -6.978344
    8       -6.863729
    9        1.294027
   10        1.496607
   11        2.101073
   12        2.500819
 
  0.3333333E+00  0.5555556E-01  0.0000000E+00  0.4629630E-02
    1      -21.438488
    2      -19.497351
    3      -12.231646
    4       -9.437145
    5       -8.937209
    6       -8.086480
    7       -7.224530
    8       -7.217920
    9        1.503807
   10        2.047052
   11        2.312657
   12        2.715779
 
  0.3750000E+00  0.5555556E-01  0.0000000E+00  0.4629630E-02
    1      -21.264497
    2      -19.806802
    3      -11.691569
    4       -9.232897
    5       -8.769722
    6       -8.549378
    7       -7.560045
    8       -7.470659
    9        1.741421
   10        2.552102
   11        2.602670
   12        2.959380
 
  0.4166667E+00  0.5555556E-01  0.0000000E+00  0.4629630E-02
    1      -21.070474
    2      -20.097826
    3      -11.149867
    4       -9.039394
    5       -9.006029
    6       -8.585649
    7       -7.886987
    8       -7.712818
    9        2.006792
   10        2.819073
   11        3.154337
   12        3.231605
 
  0.4583333E+00  0.5555556E-01  0.0000000E+00  0.4629630E-02
    1      -20.856582
    2      -20.370007
    3      -10.609774
    4       -9.549875
    5       -8.757138
    6       -8.386247
    7       -8.196515
    8       -7.947822
    9        2.299818
   10        2.968139
   11        3.112680
   12        3.532435
 
  0.5000000E+00  0.5555556E-01  0.0000000E+00  0.2314815E-02
    1      -20.623017
    2      -20.623017
    3      -10.075007
    4      -10.075007
    5       -8.486980
    6       -8.486980
    7       -8.173029
    8       -8.173029
    9        2.620348
   10        2.620348
   11        3.428633
   12        3.428633
 
  0.0000000E+00  0.8333333E-01  0.0000000E+00  0.2314815E-02
    1      -22.030401
    2      -16.726217
    3      -15.809567
    4      -10.136815
    5       -9.863907
    6       -6.385399
    7       -6.032135
    8       -4.841049
    9       -1.165145
   10        0.698028
   11        1.499543
   12        1.890760
 
  0.4166667E-01  0.8333333E-01  0.0000000E+00  0.4629630E-02
    1      -22.020087
    2      -16.907980
    3      -15.613233
    4      -10.124569
    5       -9.853321
    6       -6.425228
    7       -6.050740
    8       -4.911275
    9       -1.080806
   10        0.712031
   11        1.513688
   12        1.905092
 
  0.8333333E-01  0.8333333E-01  0.0000000E+00  0.4629630E-02
    1      -21.989152
    2      -17.260891
    3      -15.216719
    4      -10.087850
    5       -9.821598
    6       -6.538179
    7       -6.111214
    8       -5.104516
    9       -0.845405
   10        0.754040
   11        1.556120
   12        1.948089
 
  0.1250000E+00  0.8333333E-01  0.0000000E+00  0.4629630E-02
    1      -21.937617
    2      -17.645631
    3      -14.759688
    4      -10.026716
    5       -9.768838
    6       -6.711502
    7       -6.220776
    8       -5.383245
    9       -0.497006
   10        0.824058
   11        1.626826
   12        2.019752
 
  0.1666667E+00  0.8333333E-01  0.0000000E+00  0.4629630E-02
    1      -21.865518
    2      -18.029638
    3      -14.275285
    4       -9.941264
    5       -9.695210
    6       -6.934587
    7       -6.381226
    8       -5.712095
    9       -0.071871
   10        0.922080
   11        1.725788
   12        2.120081
 
  0.2083333E+00  0.8333333E-01  0.0000000E+00  0.4629630E-02
    1      -21.772905
    2      -18.403429
    3      -13.773839
    4       -9.831634
    5       -9.600955
    6       -7.200998
    7       -6.587603
    8       -6.066002
    9        0.403686
   10        1.048097
   11        1.852975
   12        2.249076
 
  0.2500000E+00  0.8333333E-01  0.0000000E+00  0.4629630E-02
    1      -21.659844
    2      -18.763211
    3      -13.260276
    4       -9.698017
    5       -9.486388
    6       -7.507937
    7       -6.829644
    8       -6.428881
    9        0.911978
   10        1.202088
   11        2.008344
   12        2.406736
 
  0.2916667E+00  0.8333333E-01  0.0000000E+00  0.4629630E-02
    1      -21.526419
    2      -19.107071
    3      -12.737967
    4       -9.540654
    5       -9.351907
    6       -7.854857
    7       -7.094175
    8       -6.790551
    9        1.384018
   10        1.440867
   11        2.191834
   12        2.593057
 
  0.3333333E+00  0.8333333E-01  0.0000000E+00  0.4629630E-02
    1      -21.372729
    2      -19.433876
    3      -12.209883
    4       -9.359853
    5       -9.197992
    6       -8.241299
    7       -7.368160
    8       -7.144431
    9        1.593845
   10        1.981439
   11        2.403355
   12        2.808033
 
  0.3750000E+00  0.8333333E-01  0.0000000E+00  0.4629630E-02
    1      -21.198892
    2      -19.742869
    3      -11.679063
    4       -9.155998
    5       -9.025218
    6       -8.664932
    7       -7.641294
    8       -7.486117
    9        1.831509
   10        2.526461
   11        2.642758
   12        3.051655
 
  0.4166667E+00  0.8333333E-01  0.0000000E+00  0.4629630E-02
    1      -21.005051
    2      -20.033500
    3      -11.148862
    4       -9.121091
    5       -8.929564
    6       -8.834257
    7       -7.906842
    8       -7.812555
    9        2.096937
   10        2.909757
   11        3.068800
   12        3.323911
 
  0.4583333E+00  0.8333333E-01  0.0000000E+00  0.4629630E-02
    1      -20.791375
    2      -20.305343
    3      -10.623126
    4       -9.603679
    5       -8.681147
    6       -8.625895
    7       -8.160866
    8       -8.121554
    9        2.390034
   10        3.058653
   11        3.203562
   12        3.587395
 
  0.5000000E+00  0.8333333E-01  0.0000000E+00  0.2314815E-02
    1      -20.558060
    2      -20.558060
    3      -10.106330
    4      -10.106330
    5       -8.411494
    6       -8.411494
    7       -8.401055
    8       -8.401055
    9        2.710670
   10        2.710670
   11        3.519579
   12        3.519579
 
  0.0000000E+00  0.1111111E+00  0.0000000E+00  0.2314815E-02
    1      -21.937700
    2      -16.646316
    3      -15.736345
    4      -10.221052
    5      -10.026777
    6       -6.716841
    7       -6.240076
    8       -4.728669
    9       -1.213437
   10        0.823857
   11        1.626941
   12        2.019849
 
  0.4166667E-01  0.1111111E+00  0.0000000E+00  0.4629630E-02
    1      -21.927397
    2      -16.827360
    3      -15.541217
    4      -10.210199
    5      -10.014564
    6       -6.761190
    7       -6.249941
    8       -4.800282
    9       -1.128674
   10        0.837858
   11        1.641076
   12        2.034181
 
  0.8333333E-01  0.1111111E+00  0.0000000E+00  0.4629630E-02
    1      -21.896493
    2      -17.178823
    3      -15.147634
    4      -10.177655
    5       -9.977945
    6       -6.883770
    7       -6.288727
    8       -4.996583
    9       -0.893105
   10        0.879864
   11        1.683479
   12        2.077178
 
  0.1250000E+00  0.1111111E+00  0.0000000E+00  0.4629630E-02
    1      -21.845010
    2      -17.562079
    3      -14.694643
    4      -10.123460
    5       -9.916978
    6       -7.065317
    7       -6.371803
    8       -5.278275
    9       -0.546564
   10        0.949879
   11        1.754137
   12        2.148840
 
  0.1666667E+00  0.1111111E+00  0.0000000E+00  0.4629630E-02
    1      -21.772986
    2      -17.944742
    3      -14.215339
    4      -10.047682
    5       -9.831760
    6       -7.290640
    7       -6.507786
    8       -5.609162
    9       -0.126141
   10        1.047905
   11        1.853031
   12        2.249171
 
  0.2083333E+00  0.1111111E+00  0.0000000E+00  0.4629630E-02
    1      -21.680472
    2      -18.317356
    3      -13.720223
    4       -9.950402
    5       -9.722433
    6       -7.550094
    7       -6.697208
    8       -5.964137
    9        0.341827
   10        1.173935
   11        1.980130
   12        2.378171
 
  0.2500000E+00  0.1111111E+00  0.0000000E+00  0.4629630E-02
    1      -21.567537
    2      -18.676118
    3      -13.214511
    4       -9.831709
    5       -9.589186
    6       -7.838319
    7       -6.934280
    8       -6.327338
    9        0.839925
   10        1.327948
   11        2.135394
   12        2.535840
 
  0.2916667E+00  0.1111111E+00  0.0000000E+00  0.4629630E-02
    1      -21.434265
    2      -19.019100
    3      -12.701981
    4       -9.691682
    5       -9.432263
    6       -8.153420
    7       -7.208498
    8       -6.688830
    9        1.356364
   10        1.509910
   11        2.318763
   12        2.722172
 
  0.3333333E+00  0.1111111E+00  0.0000000E+00  0.4629630E-02
    1      -21.280758
    2      -19.345149
    3      -12.186154
    4       -9.530366
    5       -9.251971
    6       -8.496288
    7       -7.506194
    8       -7.042218
    9        1.719773
   10        1.882618
   11        2.530160
   12        2.937163
 
  0.3750000E+00  0.1111111E+00  0.0000000E+00  0.4629630E-02
    1      -21.107140
    2      -19.653490
    3      -11.670797
    4       -9.347741
    5       -9.048691
    6       -8.869329
    7       -7.812583
    8       -7.383232
    9        1.957476
   10        2.412010
   11        2.769462
   12        3.180806
 
  0.4166667E+00  0.1111111E+00  0.0000000E+00  0.4629630E-02
    1      -20.913557
    2      -19.943561
    3      -11.160212
    4       -9.274344
    5       -9.143703
    6       -8.822898
    7       -8.114402
    8       -7.708909
    9        2.222944
   10        2.938769
   11        3.036457
   12        3.453089
 
  0.4583333E+00  0.1111111E+00  0.0000000E+00  0.4629630E-02
    1      -20.700184
    2      -20.214922
    3      -10.659411
    4       -9.710547
    5       -8.918073
    6       -8.575180
    7       -8.402180
    8       -8.017117
    9        2.516083
   10        3.184863
   11        3.330564
   12        3.455896
 
  0.5000000E+00  0.1111111E+00  0.0000000E+00  0.2314815E-02
    1      -20.467225
    2      -20.467225
    3      -10.174135
    4      -10.174135
    5       -8.670749
    6       -8.670749
    7       -8.306275
    8       -8.306275
    9        2.836777
   10        2.836777
   11        3.646515
   12        3.646517
 
  0.0000000E+00  0.1388889E+00  0.0000000E+00  0.2314815E-02
    1      -21.818665
    2      -16.543637
    3      -15.645191
    4      -10.640138
    5       -9.885706
    6       -7.108963
    7       -6.497809
    8       -4.584421
    9       -1.284780
   10        0.985679
   11        1.790645
   12        2.185831
 
  0.4166667E-01  0.1388889E+00  0.0000000E+00  0.4629630E-02
    1      -21.808375
    2      -16.723989
    3      -15.451483
    4      -10.628836
    5       -9.873539
    6       -7.157092
    7       -6.499002
    8       -4.658073
    9       -1.199272
   10        0.999674
   11        1.804765
   12        2.200162
 
  0.8333333E-01  0.1388889E+00  0.0000000E+00  0.4629630E-02
    1      -21.777511
    2      -17.073720
    3      -15.061865
    4      -10.594908
    5       -9.837056
    6       -7.287960
    7       -6.515418
    8       -4.858792
    9       -0.963163
   10        1.041661
   11        1.847122
   12        2.243155
 
  0.1250000E+00  0.1388889E+00  0.0000000E+00  0.4629630E-02
    1      -21.726097
    2      -17.455069
    3      -14.614650
    4      -10.538282
    5       -9.776315
    6       -7.477318
    7       -6.569079
    8       -5.144648
    9       -0.618910
   10        1.111651
   11        1.917703
   12        2.314814
 
  0.1666667E+00  0.1388889E+00  0.0000000E+00  0.4629630E-02
    1      -21.654172
    2      -17.835971
    3      -14.142854
    4      -10.458819
    5       -9.691416
    6       -7.706672
    7       -6.674274
    8       -5.478306
    9       -0.204720
   10        1.209653
   11        2.016487
   12        2.415143
 
  0.2083333E+00  0.1388889E+00  0.0000000E+00  0.4629630E-02
    1      -21.561787
    2      -18.207031
    3      -13.657288
    4      -10.356284
    5       -9.582501
    6       -7.964301
    7       -6.836195
    8       -5.834665
    9        0.253128
   10        1.335665
   11        2.143440
   12        2.544142
 
  0.2500000E+00  0.1388889E+00  0.0000000E+00  0.4629630E-02
    1      -21.449014
    2      -18.564446
    3      -13.163713
    4      -10.230296
    5       -9.449760
    6       -8.243013
    7       -7.053205
    8       -6.198219
    9        0.737669
   10        1.489672
   11        2.298521
   12        2.701813
 
  0.2916667E+00  0.1388889E+00  0.0000000E+00  0.4629630E-02
    1      -21.315940
    2      -18.906266
    3      -12.666696
    4      -10.080266
    5       -9.293438
    6       -8.538865
    7       -7.318585
    8       -6.559381
    9        1.237621
   10        1.671639
   11        2.481670
   12        2.888154
 
  0.3333333E+00  0.1388889E+00  0.0000000E+00  0.4629630E-02
    1      -21.162672
    2      -19.231317
    3      -12.170833
    4       -9.905314
    5       -9.113842
    6       -8.850702
    7       -7.621783
    8       -6.912026
    9        1.744972
   10        1.881514
   11        2.692813
   12        3.103157
 
  0.3750000E+00  0.1388889E+00  0.0000000E+00  0.4629630E-02
    1      -20.989339
    2      -19.538800
    3      -11.681288
    4       -9.704211
    5       -9.179990
    6       -8.911352
    7       -7.949423
    8       -7.252066
    9        2.119229
   10        2.253610
   11        2.931850
   12        3.346816
 
  0.4166667E+00  0.1388889E+00  0.0000000E+00  0.4629630E-02
    1      -20.796094
    2      -19.828134
    3      -11.203995
    4       -9.530407
    5       -9.475445
    6       -8.686440
    7       -8.286409
    8       -7.576659
    9        2.384704
   10        2.758566
   11        3.198648
   12        3.619120
 
  0.4583333E+00  0.1388889E+00  0.0000000E+00  0.4629630E-02
    1      -20.583117
    2      -20.098864
    3      -10.745428
    4       -9.906551
    5       -9.217644
    6       -8.617677
    7       -8.439688
    8       -7.883754
    9        2.677842
   10        3.255556
   11        3.346601
   12        3.492989
 
  0.5000000E+00  0.1388889E+00  0.0000000E+00  0.2314815E-02
    1      -20.350624
    2      -20.350624
    3      -10.311640
    4      -10.311640
    5       -8.930707
    6       -8.930707
    7       -8.171821
    8       -8.171821
    9        2.998524
   10        2.998524
   11        3.739094
   12        3.739109
 
  0.0000000E+00  0.1666667E+00  0.0000000E+00  0.2314815E-02
    1      -21.673417
    2      -16.418219
    3      -15.539319
    4      -11.100496
    5       -9.713926
    6       -7.545820
    7       -6.799180
    8       -4.408494
    9       -1.385477
   10        1.183494
   11        1.990575
   12        2.388709
 
  0.4166667E-01  0.1666667E+00  0.0000000E+00  0.4629630E-02
    1      -21.663144
    2      -16.598151
    3      -15.347142
    4      -11.088428
    5       -9.701818
    6       -7.597369
    7       -6.791670
    8       -4.485125
    9       -1.298637
   10        1.197476
   11        2.004672
   12        2.403038
 
  0.8333333E-01  0.1666667E+00  0.0000000E+00  0.4629630E-02
    1      -21.632331
    2      -16.945985
    3      -14.962836
    4      -11.052126
    5       -9.665513
    6       -7.735930
    7       -6.785074
    8       -4.692127
    9       -1.061170
   10        1.239429
   11        2.046956
   12        2.446025
 
  0.1250000E+00  0.1666667E+00  0.0000000E+00  0.4629630E-02
    1      -21.581002
    2      -17.324997
    3      -14.523940
    4      -10.991283
    5       -9.605070
    6       -7.933069
    7       -6.807117
    8       -4.983677
    9       -0.719394
   10        1.309366
   11        2.117411
   12        2.517675
 
  0.1666667E+00  0.1666667E+00  0.0000000E+00  0.4629630E-02
    1      -21.509196
    2      -17.703679
    3      -14.063392
    4      -10.905332
    5       -9.520589
    6       -8.167648
    7       -6.877006
    8       -5.320949
    9       -0.312936
   10        1.407306
   11        2.216011
   12        2.617993
 
  0.2083333E+00  0.1666667E+00  0.0000000E+00  0.4629630E-02
    1      -21.416970
    2      -18.072765
    3      -13.592617
    4      -10.793363
    5       -9.412215
    6       -8.426530
    7       -7.004002
    8       -5.678984
    9        0.132187
   10        1.533257
   11        2.342713
   12        2.746983
 
  0.2500000E+00  0.1666667E+00  0.0000000E+00  0.4629630E-02
    1      -21.304398
    2      -18.428465
    3      -13.118467
    4      -10.653992
    5       -9.280141
    6       -8.701483
    7       -7.190085
    8       -6.042831
    9        0.599745
   10        1.687213
   11        2.497459
   12        2.904648
 
  0.2916667E+00  0.1666667E+00  0.0000000E+00  0.4629630E-02
    1      -21.171570
    2      -18.768809
    3      -12.647053
    4      -10.485233
    5       -9.124612
    6       -8.987368
    7       -7.431856
    8       -6.403403
    9        1.079218
   10        1.869142
   11        2.680170
   12        3.090989
 
  0.3333333E+00  0.1666667E+00  0.0000000E+00  0.4629630E-02
    1      -21.018599
    2      -19.092593
    3      -12.184927
    4      -10.284449
    5       -9.281357
    6       -8.945937
    7       -7.721882
    8       -6.754938
    9        1.563308
   10        2.078989
   11        2.890728
   12        3.305999
 
  0.3750000E+00  0.1666667E+00  0.0000000E+00  0.4629630E-02
    1      -20.845622
    2      -19.398991
    3      -11.739248
    4      -10.048653
    5       -9.582731
    6       -8.744496
    7       -8.049746
    8       -7.093590
    9        2.046583
   10        2.316680
   11        3.128950
   12        3.549669
 
  0.4166667E+00  0.1666667E+00  0.0000000E+00  0.4629630E-02
    1      -20.652798
    2      -19.687394
    3      -11.316935
    4       -9.892958
    5       -9.775637
    6       -8.520758
    7       -8.402797
    8       -7.416676
    9        2.524733
   10        2.582123
   11        3.394409
   12        3.821991
 
  0.4583333E+00  0.1666667E+00  0.0000000E+00  0.4629630E-02
    1      -20.440319
    2      -19.957329
    3      -10.922702
    4      -10.215803
    5       -9.466124
    6       -8.766672
    7       -8.275298
    8       -7.722245
    9        2.875208
   10        2.994069
   11        3.543773
   12        3.682934
 
  0.5000000E+00  0.1666667E+00  0.0000000E+00  0.2314815E-02
    1      -20.208409
    2      -20.208409
    3      -10.556988
    4      -10.556988
    5       -9.126014
    6       -9.126014
    7       -8.008830
    8       -8.008830
    9        3.195810
   10        3.195810
   11        3.450568
   12        3.450568
 