gr                                      
           1
     4.262016    0.000000    0.000000
     0.000000    2.504434    0.000000
     0.000000    0.000000   19.752588
   C 
   4
Direct configuration=     1
   0.00039382  0.00000000  0.00000000
   0.16627284  0.50000000  0.00000000
   0.50039382  0.50000000  0.00000000
   0.66627284  0.00000000  0.00000000
Direct configuration=     2
   0.00039399 -0.00000000  0.00000000
   0.16627268  0.50000000 -0.00000000
   0.50039399  0.50000000  0.00000000
   0.66627268 -0.00000000 -0.00000000
Direct configuration=     3
   0.00039386 -0.00000000  0.00000000
   0.16627281  0.50000000 -0.00000000
   0.50039386  0.50000000  0.00000000
   0.66627281 -0.00000000 -0.00000000
Direct configuration=     4
   0.00039386  0.00000000  0.00000000
   0.16627281  0.50000000 -0.00000000
   0.50039386  0.50000000  0.00000000
   0.66627281 -0.00000000 -0.00000000
