    4    4  400    1
  0.5270948E+02  0.4258618E-09  0.2516524E-09  0.1967337E-08  0.5000000E-15
  1.000000000000000E-004
  CAR 
 gr                                      
     16    247     12
 
  0.0000000E+00  0.0000000E+00  0.0000000E+00  0.1157407E-02
    1      -22.116099
    2      -16.767712
    3      -15.885386
    4      -10.252727
    5       -9.415272
    6       -5.954751
    7       -5.747440
    8       -4.946001
    9       -1.126838
   10        0.540421
   11        1.339165
   12        1.730374
 
  0.4166667E-01  0.0000000E+00  0.0000000E+00  0.2314815E-02
    1      -22.105750
    2      -16.956972
    3      -15.681059
    4      -10.240429
    5       -9.404905
    6       -5.978248
    7       -5.788149
    8       -5.015378
    9       -1.042410
   10        0.554448
   11        1.353341
   12        1.744728
 
  0.8333333E-01  0.0000000E+00  0.0000000E+00  0.2314815E-02
    1      -22.074706
    2      -17.317596
    3      -15.275326
    4      -10.203554
    5       -9.373851
    6       -6.047391
    7       -5.908762
    8       -5.206822
    9       -0.805990
   10        0.596526
   11        1.395866
   12        1.787790
 
  0.1250000E+00  0.0000000E+00  0.0000000E+00  0.2314815E-02
    1      -22.022988
    2      -17.707367
    3      -14.810679
    4      -10.142158
    5       -9.322263
    6       -6.158384
    7       -6.104967
    8       -5.484014
    9       -0.454426
   10        0.666652
   11        1.466727
   12        1.859560
 
  0.1666667E+00  0.0000000E+00  0.0000000E+00  0.2314815E-02
    1      -21.950629
    2      -18.095052
    3      -14.318824
    4      -10.056338
    5       -9.250398
    6       -6.370254
    7       -6.305601
    8       -5.812135
    9       -0.023429
   10        0.764818
   11        1.565906
   12        1.960038
 
  0.2083333E+00  0.0000000E+00  0.0000000E+00  0.2314815E-02
    1      -21.857681
    2      -18.471765
    3      -13.809327
    4       -9.946235
    5       -9.158629
    6       -6.696725
    7       -6.482376
    8       -6.166106
    9        0.460661
   10        0.891012
   11        1.693371
   12        2.089222
 
  0.2500000E+00  0.0000000E+00  0.0000000E+00  0.2314815E-02
    1      -21.744205
    2      -18.833977
    3      -13.286615
    4       -9.812037
    5       -9.047455
    6       -7.075870
    7       -6.681737
    8       -6.529632
    9        0.979908
   10        1.045211
   11        1.849078
   12        2.247110
 
  0.2916667E+00  0.0000000E+00  0.0000000E+00  0.2314815E-02
    1      -21.610283
    2      -19.179915
    3      -12.753603
    4       -9.653987
    5       -8.917518
    6       -7.499199
    7       -6.896959
    8       -6.892326
    9        1.227384
   10        1.521851
   11        2.032961
   12        2.433696
 
  0.3333333E+00  0.0000000E+00  0.0000000E+00  0.2314815E-02
    1      -21.456012
    2      -19.508526
    3      -12.212759
    4       -9.472391
    5       -8.769627
    6       -7.958671
    7       -7.247444
    8       -7.121908
    9        1.437487
   10        2.077137
   11        2.244920
   12        2.648972
 
  0.3750000E+00  0.0000000E+00  0.0000000E+00  0.2314815E-02
    1      -21.281505
    2      -19.819105
    3      -11.666517
    4       -9.267635
    5       -8.604782
    6       -8.446938
    7       -7.590468
    8       -7.351186
    9        1.675458
   10        2.484784
   11        2.637664
   12        2.892923
 
  0.4166667E+00  0.0000000E+00  0.0000000E+00  0.2314815E-02
    1      -21.086897
    2      -20.111139
    3      -11.117470
    4       -9.040196
    5       -8.957447
    6       -8.424216
    7       -7.918269
    8       -7.580166
    9        1.941213
   10        2.752214
   11        3.165519
   12        3.192708
 
  0.4583333E+00  0.0000000E+00  0.0000000E+00  0.2314815E-02
    1      -20.872349
    2      -20.384226
    3      -10.568509
    4       -9.484442
    5       -8.790673
    6       -8.229433
    7       -8.228604
    8       -7.804944
    9        2.234626
   10        2.903431
   11        3.046325
   12        3.466689
 
  0.5000000E+00  0.0000000E+00  0.0000000E+00  0.1157407E-02
    1      -20.638051
    2      -20.638051
    3      -10.022911
    4      -10.022911
    5       -8.519822
    6       -8.519822
    7       -8.022267
    8       -8.022267
    9        2.555495
   10        2.555495
   11        3.363236
   12        3.363236
 
  0.0000000E+00  0.2777778E-01  0.0000000E+00  0.2314815E-02
    1      -22.102959
    2      -16.756383
    3      -15.874758
    4      -10.237112
    5       -9.474127
    6       -6.008935
    7       -5.779261
    8       -4.930077
    9       -1.132567
   10        0.558204
   11        1.357201
   12        1.748633
 
  0.4166667E-01  0.2777778E-01  0.0000000E+00  0.4629630E-02
    1      -22.092610
    2      -16.945525
    3      -15.670610
    4      -10.224818
    5       -9.463731
    6       -6.035753
    7       -5.815927
    8       -4.999624
    9       -1.048097
   10        0.572232
   11        1.371376
   12        1.762987
 
  0.8333333E-01  0.2777778E-01  0.0000000E+00  0.4629630E-02
    1      -22.061570
    2      -17.305935
    3      -15.265270
    4      -10.187956
    5       -9.432593
    6       -6.116666
    7       -5.922738
    8       -5.191452
    9       -0.811682
   10        0.614313
   11        1.413897
   12        1.806050
 
  0.1250000E+00  0.2777778E-01  0.0000000E+00  0.4629630E-02
    1      -22.009859
    2      -17.695496
    3      -14.801140
    4      -10.126582
    5       -9.380858
    6       -6.256255
    7       -6.087345
    8       -5.469025
    9       -0.460386
   10        0.684445
   11        1.484753
   12        1.877822
 
  0.1666667E+00  0.2777778E-01  0.0000000E+00  0.4629630E-02
    1      -21.937511
    2      -18.082995
    3      -14.309919
    4      -10.040793
    5       -9.308775
    6       -6.469627
    7       -6.282934
    8       -5.797416
    9       -0.030029
   10        0.782621
   11        1.583925
   12        1.978302
 
  0.2083333E+00  0.2777778E-01  0.0000000E+00  0.4629630E-02
    1      -21.844577
    2      -18.459545
    3      -13.801191
    4       -9.930731
    5       -9.216703
    6       -6.764169
    7       -6.487948
    8       -6.151534
    9        0.453038
   10        0.908826
   11        1.711381
   12        2.107488
 
  0.2500000E+00  0.2777778E-01  0.0000000E+00  0.4629630E-02
    1      -21.731118
    2      -18.821616
    3      -13.279408
    4       -9.796582
    5       -9.105123
    6       -7.124481
    7       -6.702595
    8       -6.515111
    9        0.970910
   10        1.063037
   11        1.867077
   12        2.265379
 
  0.2916667E+00  0.2777778E-01  0.0000000E+00  0.4629630E-02
    1      -21.597218
    2      -19.167432
    3      -12.747521
    4       -9.638590
    5       -8.974655
    6       -7.535045
    7       -6.927358
    8       -6.877789
    9        1.245224
   10        1.511172
   11        2.050949
   12        2.451969
 
  0.3333333E+00  0.2777778E-01  0.0000000E+00  0.4629630E-02
    1      -21.442972
    2      -19.495939
    3      -12.208043
    4       -9.457062
    5       -8.826075
    6       -7.985010
    7       -7.232849
    8       -7.158983
    9        1.455342
   10        2.064539
   11        2.262897
   12        2.667250
 
  0.3750000E+00  0.2777778E-01  0.0000000E+00  0.4629630E-02
    1      -21.268496
    2      -19.806428
    3      -11.663464
    4       -9.252382
    5       -8.660346
    6       -8.465875
    7       -7.575789
    8       -7.393231
    9        1.693331
   10        2.502754
   11        2.623056
   12        2.911209
 
  0.4166667E+00  0.2777778E-01  0.0000000E+00  0.4629630E-02
    1      -21.073925
    2      -20.098384
    3      -11.116452
    4       -9.025027
    5       -8.970506
    6       -8.478650
    7       -7.903493
    8       -7.626025
    9        1.959108
   10        2.770191
   11        3.176709
   12        3.183817
 
  0.4583333E+00  0.2777778E-01  0.0000000E+00  0.4629630E-02
    1      -20.859419
    2      -20.371404
    3      -10.569986
    4       -9.492790
    5       -8.775596
    6       -8.282426
    7       -8.213727
    8       -7.853776
    9        2.252552
   10        2.921519
   11        3.064338
   12        3.485013
 
  0.5000000E+00  0.2777778E-01  0.0000000E+00  0.2314815E-02
    1      -20.625171
    2      -20.625171
    3      -10.027461
    4      -10.027461
    5       -8.504843
    6       -8.504843
    7       -8.073428
    8       -8.073428
    9        2.573473
   10        2.573473
   11        3.381273
   12        3.381273
 
  0.0000000E+00  0.5555556E-01  0.0000000E+00  0.2314815E-02
    1      -22.063547
    2      -16.722403
    3      -15.843069
    4      -10.190297
    5       -9.645873
    6       -6.167254
    7       -5.873751
    8       -4.882322
    9       -1.150549
   10        0.611559
   11        1.411301
   12        1.803414
 
  0.4166667E-01  0.5555556E-01  0.0000000E+00  0.4629630E-02
    1      -22.053203
    2      -16.911203
    3      -15.639445
    4      -10.178017
    5       -9.635388
    6       -6.200600
    7       -5.901789
    8       -4.952399
    9       -1.065944
   10        0.625590
   11        1.425473
   12        1.817768
 
  0.8333333E-01  0.5555556E-01  0.0000000E+00  0.4629630E-02
    1      -22.022175
    2      -17.270981
    3      -15.235295
    4      -10.141195
    5       -9.603975
    6       -6.298861
    7       -5.985317
    8       -5.145408
    9       -0.829529
   10        0.667680
   11        1.467984
   12        1.860833
 
  0.1250000E+00  0.5555556E-01  0.0000000E+00  0.4629630E-02
    1      -21.970486
    2      -17.659916
    3      -14.772748
    4      -10.079889
    5       -9.551764
    6       -6.458116
    7       -6.121447
    8       -5.424148
    9       -0.479038
   10        0.737828
   11        1.538823
   12        1.932608
 
  0.1666667E+00  0.5555556E-01  0.0000000E+00  0.4629630E-02
    1      -21.898170
    2      -18.046853
    3      -14.283481
    4       -9.994195
    5       -9.478974
    6       -6.674946
    7       -6.303117
    8       -5.753361
    9       -0.050627
   10        0.836025
   11        1.637971
   12        2.033092
 
  0.2083333E+00  0.5555556E-01  0.0000000E+00  0.4629630E-02
    1      -21.805278
    2      -18.422912
    3      -13.777131
    4       -9.884255
    5       -9.385920
    6       -6.947593
    7       -6.519072
    8       -6.107925
    9        0.429327
   10        0.962257
   11        1.765398
   12        2.162285
 
  0.2500000E+00  0.5555556E-01  0.0000000E+00  0.4629630E-02
    1      -21.691872
    2      -18.784558
    3      -13.258235
    4       -9.750257
    5       -9.273023
    6       -7.274427
    7       -6.756623
    8       -6.471652
    9        0.943013
   10        1.116501
   11        1.921059
   12        2.320183
 
  0.2916667E+00  0.5555556E-01  0.0000000E+00  0.4629630E-02
    1      -21.558037
    2      -19.130007
    3      -12.729860
    4       -9.592443
    5       -9.140821
    6       -7.651556
    7       -7.005153
    8       -6.834277
    9        1.298724
   10        1.478156
   11        2.104894
   12        2.506784
 
  0.3333333E+00  0.5555556E-01  0.0000000E+00  0.4629630E-02
    1      -21.403869
    2      -19.458197
    3      -12.194672
    4       -9.411120
    5       -8.989987
    6       -8.072453
    7       -7.257325
    8       -7.189153
    9        1.508881
   10        2.025664
   11        2.316807
   12        2.722078
 
  0.3750000E+00  0.5555556E-01  0.0000000E+00  0.4629630E-02
    1      -21.229485
    2      -19.768413
    3      -11.655351
    4       -9.206671
    5       -8.821344
    6       -8.529375
    7       -7.531836
    8       -7.508182
    9        1.746915
   10        2.556643
   11        2.577969
   12        2.966056
 
  0.4166667E+00  0.5555556E-01  0.0000000E+00  0.4629630E-02
    1      -21.035022
    2      -20.060134
    3      -11.114813
    4       -9.014691
    5       -8.979574
    6       -8.635894
    7       -7.859242
    8       -7.754065
    9        2.012746
   10        2.824097
   11        3.126708
   12        3.238694
 
  0.4583333E+00  0.5555556E-01  0.0000000E+00  0.4629630E-02
    1      -20.820644
    2      -20.332952
    3      -10.576355
    4       -9.521497
    5       -8.730423
    6       -8.434847
    7       -8.169164
    8       -7.992037
    9        2.306265
   10        2.975601
   11        3.118353
   12        3.539953
 
  0.5000000E+00  0.5555556E-01  0.0000000E+00  0.2314815E-02
    1      -20.586545
    2      -20.586545
    3      -10.043775
    4      -10.043775
    5       -8.459969
    6       -8.459969
    7       -8.219650
    8       -8.219650
    9        2.627309
   10        2.627309
   11        3.435369
   12        3.435369
 
  0.0000000E+00  0.8333333E-01  0.0000000E+00  0.2314815E-02
    1      -21.997901
    2      -16.665782
    3      -15.790948
    4      -10.112380
    5       -9.917355
    6       -6.418264
    7       -6.028085
    8       -4.802797
    9       -1.183154
   10        0.700510
   11        1.501445
   12        1.894719
 
  0.4166667E-01  0.8333333E-01  0.0000000E+00  0.4629630E-02
    1      -21.987563
    2      -16.854074
    3      -15.588160
    4      -10.100123
    5       -9.906698
    6       -6.457682
    7       -6.046746
    8       -4.873811
    9       -1.098285
   10        0.714543
   11        1.515610
   12        1.909075
 
  0.8333333E-01  0.8333333E-01  0.0000000E+00  0.4629630E-02
    1      -21.956558
    2      -17.212830
    3      -15.186026
    4      -10.063371
    5       -9.874760
    6       -6.569647
    7       -6.107182
    8       -5.068900
    9       -0.861813
   10        0.756640
   11        1.558102
   12        1.952141
 
  0.1250000E+00  0.8333333E-01  0.0000000E+00  0.4629630E-02
    1      -21.904906
    2      -17.600721
    3      -14.726230
    4      -10.002181
    5       -9.821633
    6       -6.741497
    7       -6.216663
    8       -5.349673
    9       -0.512666
   10        0.826802
   11        1.628911
   12        2.023918
 
  0.1666667E+00  0.8333333E-01  0.0000000E+00  0.4629630E-02
    1      -21.832644
    2      -17.986714
    3      -14.240405
    4       -9.916650
    5       -9.747479
    6       -6.962199
    7       -6.377600
    8       -5.680297
    9       -0.087576
   10        0.925021
   11        1.728015
   12        2.124408
 
  0.2083333E+00  0.8333333E-01  0.0000000E+00  0.4629630E-02
    1      -21.739821
    2      -18.361945
    3      -13.738285
    4       -9.806920
    5       -9.652522
    6       -7.224716
    7       -6.585826
    8       -6.035611
    9        0.387048
   10        1.051284
   11        1.855386
   12        2.253608
 
  0.2500000E+00  0.8333333E-01  0.0000000E+00  0.4629630E-02
    1      -21.626504
    2      -18.722873
    3      -13.224579
    4       -9.673179
    5       -9.537056
    6       -7.525827
    7       -6.831678
    8       -6.399576
    9        0.893575
   10        1.205566
   11        2.010982
   12        2.411517
 
  0.2916667E+00  0.8333333E-01  0.0000000E+00  0.4629630E-02
    1      -21.492778
    2      -19.067703
    3      -12.702586
    4       -9.515671
    5       -9.401446
    6       -7.865091
    7       -7.102011
    8       -6.762090
    9        1.387833
   10        1.419968
   11        2.194743
   12        2.598130
 
  0.3333333E+00  0.8333333E-01  0.0000000E+00  0.4629630E-02
    1      -21.338739
    2      -19.395359
    3      -12.175285
    4       -9.334700
    5       -9.246130
    6       -8.242867
    7       -7.383054
    8       -7.116637
    9        1.598040
   10        1.957426
   11        2.406584
   12        2.813442
 
  0.3750000E+00  0.8333333E-01  0.0000000E+00  0.4629630E-02
    1      -21.164510
    2      -19.705116
    3      -11.645762
    4       -9.130651
    5       -9.071619
    6       -8.657998
    7       -7.663373
    8       -7.458862
    9        1.836126
   10        2.498885
   11        2.646369
   12        3.057442
 
  0.4166667E+00  0.8333333E-01  0.0000000E+00  0.4629630E-02
    1      -20.970229
    2      -19.996441
    3      -11.117468
    4       -9.106706
    5       -8.903997
    6       -8.878500
    7       -7.935361
    8       -7.785747
    9        2.102018
   10        2.913838
   11        3.037644
   12        3.330116
 
  0.4583333E+00  0.8333333E-01  0.0000000E+00  0.4629630E-02
    1      -20.756067
    2      -20.268920
    3      -10.594384
    4       -9.583233
    5       -8.667440
    6       -8.655330
    7       -8.194732
    8       -8.095125
    9        2.395616
   10        3.065308
   11        3.208289
   12        3.557713
 
  0.5000000E+00  0.8333333E-01  0.0000000E+00  0.2314815E-02
    1      -20.522219
    2      -20.522219
    3      -10.081166
    4      -10.081166
    5       -8.439204
    6       -8.439204
    7       -8.385392
    8       -8.385392
    9        2.716783
   10        2.716783
   11        3.525468
   12        3.525468
 
  0.0000000E+00  0.1111111E+00  0.0000000E+00  0.2314815E-02
    1      -21.906083
    2      -16.586542
    3      -15.719588
    4      -10.270158
    5      -10.003528
    6       -6.746257
    7       -6.237859
    8       -4.691599
    9       -1.234248
   10        0.825083
   11        1.627594
   12        2.022556
 
  0.4166667E-01  0.1111111E+00  0.0000000E+00  0.4629630E-02
    1      -21.895756
    2      -16.774261
    3      -15.517882
    4      -10.259207
    5       -9.991305
    6       -6.790633
    7       -6.247302
    8       -4.764059
    9       -1.148912
   10        0.839114
   11        1.641749
   12        2.036911
 
  0.8333333E-01  0.1111111E+00  0.0000000E+00  0.4629630E-02
    1      -21.864781
    2      -17.131658
    3      -15.118661
    4      -10.226365
    5       -9.954654
    6       -6.913409
    7       -6.284761
    8       -4.962316
    9       -0.912208
   10        0.881210
   11        1.684211
   12        2.079977
 
  0.1250000E+00  0.1111111E+00  0.0000000E+00  0.4629630E-02
    1      -21.813183
    2      -17.518088
    3      -14.663005
    4      -10.171662
    5       -9.893633
    6       -7.095227
    7       -6.365843
    8       -5.246128
    9       -0.564917
   10        0.951372
   11        1.754968
   12        2.151755
 
  0.1666667E+00  0.1111111E+00  0.0000000E+00  0.4629630E-02
    1      -21.740995
    2      -17.902739
    3      -14.182466
    4      -10.095143
    5       -9.808340
    6       -7.320503
    7       -6.499764
    8       -5.578816
    9       -0.144609
   10        1.049599
   11        1.854001
   12        2.252247
 
  0.2083333E+00  0.1111111E+00  0.0000000E+00  0.4629630E-02
    1      -21.648271
    2      -18.276788
    3      -13.686954
    4       -9.996857
    5       -9.698917
    6       -7.579136
    7       -6.687737
    8       -5.935191
    9        0.322303
   10        1.175879
   11        1.981278
   12        2.381453
 
  0.2500000E+00  0.1111111E+00  0.0000000E+00  0.4629630E-02
    1      -21.535080
    2      -18.636691
    3      -13.181487
    4       -9.876843
    5       -9.565552
    6       -7.865302
    7       -6.924636
    8       -6.299458
    9        0.818483
   10        1.330189
   11        2.136760
   12        2.539371
 
  0.2916667E+00  0.1111111E+00  0.0000000E+00  0.4629630E-02
    1      -21.401506
    2      -18.980635
    3      -12.669813
    4       -9.735111
    5       -9.408491
    6       -8.176656
    7       -7.200560
    8       -6.661765
    9        1.332254
   10        1.512492
   11        2.320390
   12        2.725997
 
  0.3333333E+00  0.1111111E+00  0.0000000E+00  0.4629630E-02
    1      -21.247652
    2      -19.307530
    3      -12.155512
    4       -9.571607
    5       -9.228038
    6       -8.513799
    7       -7.502233
    8       -7.015791
    9        1.722739
   10        1.855205
   11        2.532091
   12        2.941326
 
  0.3750000E+00  0.1111111E+00  0.0000000E+00  0.4629630E-02
    1      -21.073640
    2      -19.616631
    3      -11.642480
    4       -9.386176
    5       -9.024575
    6       -8.879285
    7       -7.814762
    8       -7.357318
    9        1.960868
   10        2.380795
   11        2.771752
   12        3.185348
 
  0.4166667E+00  0.1111111E+00  0.0000000E+00  0.4629630E-02
    1      -20.879619
    2      -19.907393
    3      -11.135208
    4       -9.275709
    5       -9.178532
    6       -8.798573
    7       -8.124104
    8       -7.683417
    9        2.226802
   10        2.903464
   11        3.039186
   12        3.458052
 
  0.4583333E+00  0.1111111E+00  0.0000000E+00  0.4629630E-02
    1      -20.665762
    2      -20.179387
    3      -10.638939
    4       -9.703444
    5       -8.948290
    6       -8.550619
    7       -8.419616
    8       -7.991981
    9        2.520449
   10        3.190343
   11        3.333915
   12        3.417216
 
  0.5000000E+00  0.1111111E+00  0.0000000E+00  0.2314815E-02
    1      -20.432271
    2      -20.432271
    3      -10.159621
    4      -10.159621
    5       -8.695166
    6       -8.695166
    7       -8.281446
    8       -8.281446
    9        2.841686
   10        2.841686
   11        3.651251
   12        3.651251
 
  0.0000000E+00  0.1388889E+00  0.0000000E+00  0.2314815E-02
    1      -21.788185
    2      -16.484714
    3      -15.631019
    4      -10.683759
    5       -9.863979
    6       -7.134388
    7       -6.497468
    8       -4.548870
    9       -1.309007
   10        0.985297
   11        1.789692
   12        2.186928
 
  0.4166667E-01  0.1388889E+00  0.0000000E+00  0.4629630E-02
    1      -21.777871
    2      -16.671963
    3      -15.430549
    4      -10.672317
    5       -9.851801
    6       -7.182930
    7       -6.497825
    8       -4.623458
    9       -1.222853
   10        0.999322
   11        1.803831
   12        2.201282
 
  0.8333333E-01  0.1388889E+00  0.0000000E+00  0.4629630E-02
    1      -21.746937
    2      -17.027749
    3      -15.035292
    4      -10.637960
    5       -9.815288
    6       -7.314885
    7       -6.511942
    8       -4.826293
    9       -0.985497
   10        1.041401
   11        1.846246
   12        2.244345
 
  0.1250000E+00  0.1388889E+00  0.0000000E+00  0.4629630E-02
    1      -21.695406
    2      -17.412295
    3      -14.585601
    4      -10.580592
    5       -9.754497
    6       -7.505612
    7       -6.562377
    8       -5.114373
    9       -0.640468
   10        1.111541
   11        1.916922
   12        2.316120
 
  0.1666667E+00  0.1388889E+00  0.0000000E+00  0.4629630E-02
    1      -21.623317
    2      -17.795180
    3      -14.112905
    4      -10.500030
    5       -9.669527
    6       -7.736218
    7       -6.664031
    8       -5.449863
    9       -0.226462
   10        1.209748
   11        2.015837
   12        2.416610
 
  0.2083333E+00  0.1388889E+00  0.0000000E+00  0.4629630E-02
    1      -21.530723
    2      -18.167663
    3      -13.627436
    4      -10.395971
    5       -9.560522
    6       -7.994676
    7       -6.822643
    8       -5.807609
    9        0.230201
   10        1.336016
   11        2.142960
   12        2.545816
 
  0.2500000E+00  0.1388889E+00  0.0000000E+00  0.4629630E-02
    1      -21.417693
    2      -18.526206
    3      -13.134810
    4      -10.267931
    5       -9.427671
    6       -8.273527
    7       -7.037066
    8       -6.172193
    9        0.712669
   10        1.490325
   11        2.298244
   12        2.703739
 
  0.2916667E+00  0.1388889E+00  0.0000000E+00  0.4629630E-02
    1      -21.284318
    2      -18.868978
    3      -12.639634
    4      -10.115177
    5       -9.271220
    6       -8.568538
    7       -7.301050
    8       -6.534130
    9        1.209795
   10        1.672639
   11        2.481632
   12        2.890374
 
  0.3333333E+00  0.1388889E+00  0.0000000E+00  0.4629630E-02
    1      -21.130703
    2      -19.194864
    3      -12.146663
    4       -9.936634
    5       -9.091475
    6       -8.878197
    7       -7.604512
    8       -6.887371
    9        1.713696
   10        1.882903
   11        2.693047
   12        3.105716
 
  0.3750000E+00  0.1388889E+00  0.0000000E+00  0.4629630E-02
    1      -20.956978
    2      -19.503100
    3      -11.661291
    4       -9.730837
    5       -9.203581
    6       -8.888815
    7       -7.934520
    8       -7.227884
    9        2.121048
   10        2.218385
   11        2.932391
   12        3.349756
 
  0.4166667E+00  0.1388889E+00  0.0000000E+00  0.4629630E-02
    1      -20.763295
    2      -19.793119
    3      -11.189678
    4       -9.548110
    5       -9.496060
    6       -8.663711
    7       -8.276250
    8       -7.552864
    9        2.386995
   10        2.719017
   11        3.199534
   12        3.622484
 
  0.4583333E+00  0.1388889E+00  0.0000000E+00  0.4629630E-02
    1      -20.549836
    2      -20.064477
    3      -10.738355
    4       -9.916565
    5       -9.230906
    6       -8.614434
    7       -8.416743
    8       -7.860285
    9        2.680645
   10        3.211460
   11        3.350544
   12        3.494307
 
  0.5000000E+00  0.1388889E+00  0.0000000E+00  0.2314815E-02
    1      -20.316814
    2      -20.316814
    3      -10.312995
    4      -10.312995
    5       -8.935685
    6       -8.935685
    7       -8.148631
    8       -8.148631
    9        3.001879
   10        3.001879
   11        3.691952
   12        3.691952
 
  0.0000000E+00  0.1666667E+00  0.0000000E+00  0.2314815E-02
    1      -21.644327
    2      -16.360338
    3      -15.528657
    4      -11.137432
    5       -9.694050
    6       -7.566894
    7       -6.800536
    8       -4.374797
    9       -1.413543
   10        1.181153
   11        1.987660
   12        2.387840
 
  0.4166667E-01  0.1666667E+00  0.0000000E+00  0.4629630E-02
    1      -21.634030
    2      -16.547510
    3      -15.329442
    4      -11.125153
    5       -9.681933
    6       -7.619156
    7       -6.791879
    8       -4.452500
    9       -1.325935
   10        1.195167
   11        2.001775
   12        2.402192
 
  0.8333333E-01  0.1666667E+00  0.0000000E+00  0.4629630E-02
    1      -21.603147
    2      -16.901552
    3      -14.939551
    4      -11.088201
    5       -9.645600
    6       -7.759447
    7       -6.782305
    8       -4.661854
    9       -1.087030
   10        1.237212
   11        2.044112
   12        2.445249
 
  0.1250000E+00  0.1666667E+00  0.0000000E+00  0.4629630E-02
    1      -21.551702
    2      -17.283776
    3      -14.498541
    4      -11.026220
    5       -9.585110
    6       -7.958661
    7       -6.800340
    8       -4.955764
    9       -0.744409
   10        1.307302
   11        2.114655
   12        2.517015
 
  0.1666667E+00  0.1666667E+00  0.0000000E+00  0.4629630E-02
    1      -21.479733
    2      -17.664420
    3      -14.037699
    4      -10.938555
    5       -9.500565
    6       -8.195242
    7       -6.865820
    8       -5.294898
    9       -0.338186
   10        1.405450
   11        2.213376
   12        2.617495
 
  0.2083333E+00  0.1666667E+00  0.0000000E+00  0.4629630E-02
    1      -21.387297
    2      -18.034905
    3      -13.567919
    4      -10.824153
    5       -9.392109
    6       -8.455833
    7       -6.988467
    8       -5.654291
    9        0.105638
   10        1.531663
   11        2.340230
   12        2.746692
 
  0.2500000E+00  0.1666667E+00  0.0000000E+00  0.4629630E-02
    1      -21.274470
    2      -18.391708
    3      -13.095993
    4      -10.681437
    5       -9.259935
    6       -8.732067
    7       -7.170638
    8       -6.019114
    9        0.570998
   10        1.685927
   11        2.495154
   12        2.904610
 
  0.2916667E+00  0.1666667E+00  0.0000000E+00  0.4629630E-02
    1      -21.141341
    2      -18.732984
    3      -12.628184
    4      -10.508167
    5       -9.104289
    6       -9.018668
    7       -7.409268
    8       -6.380399
    9        1.047544
   10        1.868210
   11        2.678060
   12        3.091247
 
  0.3333333E+00  0.1666667E+00  0.0000000E+00  0.4629630E-02
    1      -20.988025
    2      -19.057586
    3      -12.171259
    4      -10.301453
    5       -9.312640
    6       -8.925480
    7       -7.697230
    8       -6.732469
    9        1.528130
   10        2.078453
   11        2.888816
   12        3.306596
 
  0.3750000E+00  0.1666667E+00  0.0000000E+00  0.4629630E-02
    1      -20.814657
    2      -19.364723
    3      -11.732467
    4      -10.058217
    5       -9.613015
    6       -8.723887
    7       -8.024426
    8       -7.071540
    9        2.007463
   10        2.316580
   11        3.127189
   12        3.550649
 
  0.4166667E+00  0.1666667E+00  0.0000000E+00  0.4629630E-02
    1      -20.621399
    2      -19.653801
    3      -11.318395
    4       -9.920917
    5       -9.776602
    6       -8.499979
    7       -8.378565
    8       -7.394965
    9        2.481347
   10        2.582500
   11        3.392557
   12        3.823394
 
  0.4583333E+00  0.1666667E+00  0.0000000E+00  0.4629630E-02
    1      -20.408441
    2      -19.924355
    3      -10.932810
    4      -10.239721
    5       -9.458313
    6       -8.745653
    7       -8.254328
    8       -7.700817
    9        2.876104
   10        2.946171
   11        3.545826
   12        3.676124
 
  0.5000000E+00  0.1666667E+00  0.0000000E+00  0.2314815E-02
    1      -20.176006
    2      -20.176006
    3      -10.574884
    4      -10.574884
    5       -9.110556
    6       -9.110556
    7       -7.987646
    8       -7.987646
    9        3.197264
   10        3.197264
   11        3.397800
   12        3.397800
 