<?xml version="1.0" encoding="ISO-8859-1"?>
<modeling>
 <generator>
  <i name="program" type="string">vasp </i>
  <i name="version" type="string">5.3.5  </i>
  <i name="subversion" type="string">31Mar14 (build Mar 02 2015 18:14:16) complex                          parallel </i>
  <i name="platform" type="string">LinuxIFC </i>
  <i name="date" type="string">2018 08 09 </i>
  <i name="time" type="string">20:46:28 </i>
 </generator>
 <incar>
  <i type="string" name="SYSTEM">  gr</i>
  <i type="string" name="PREC">accurate : accuracy</i>
  <i type="string" name="ALGO"> FAST.</i>
  <i type="int" name="NELM">   100</i>
  <i type="int" name="NELMDL">    -3</i>
  <i type="int" name="NELMIN">     5</i>
  <i type="int" name="IBRION">     1</i>
  <i name="EDIFF">      0.00000000</i>
  <i name="EDIFFG">     -0.00000100</i>
  <i type="int" name="NSW">   400</i>
  <i type="int" name="ISIF">     2</i>
  <i name="ENCUT">   2000.00000000</i>
  <i type="int" name="ISMEAR">     0</i>
  <i name="SIGMA">      0.05000000</i>
  <i type="int" name="NWRITE">     2</i>
  <i type="logical" name="LWAVE"> F  </i>
  <i type="logical" name="LCHARG"> F  </i>
  <i type="int" name="NELM">   100</i>
 </incar>
 <kpoints>
  <generation param="Gamma">
   <v type="int" name="divisions">      24       36        1 </v>
   <v name="usershift">      0.00000000       0.00000000       0.00000000 </v>
   <v name="genvec1">      0.04166667       0.00000000       0.00000000 </v>
   <v name="genvec2">      0.00000000       0.02777778       0.00000000 </v>
   <v name="genvec3">      0.00000000       0.00000000       1.00000000 </v>
   <v name="shift">      0.00000000       0.00000000       0.00000000 </v>
  </generation>
  <varray name="kpointlist" >
   <v>       0.00000000       0.00000000       0.00000000 </v>
   <v>       0.04166667       0.00000000       0.00000000 </v>
   <v>       0.08333333       0.00000000       0.00000000 </v>
   <v>       0.12500000       0.00000000       0.00000000 </v>
   <v>       0.16666667       0.00000000       0.00000000 </v>
   <v>       0.20833333       0.00000000       0.00000000 </v>
   <v>       0.25000000       0.00000000       0.00000000 </v>
   <v>       0.29166667       0.00000000       0.00000000 </v>
   <v>       0.33333333       0.00000000       0.00000000 </v>
   <v>       0.37500000       0.00000000       0.00000000 </v>
   <v>       0.41666667       0.00000000       0.00000000 </v>
   <v>       0.45833333       0.00000000       0.00000000 </v>
   <v>       0.50000000       0.00000000       0.00000000 </v>
   <v>       0.00000000       0.02777778       0.00000000 </v>
   <v>       0.04166667       0.02777778       0.00000000 </v>
   <v>       0.08333333       0.02777778       0.00000000 </v>
   <v>       0.12500000       0.02777778       0.00000000 </v>
   <v>       0.16666667       0.02777778       0.00000000 </v>
   <v>       0.20833333       0.02777778       0.00000000 </v>
   <v>       0.25000000       0.02777778       0.00000000 </v>
   <v>       0.29166667       0.02777778       0.00000000 </v>
   <v>       0.33333333       0.02777778       0.00000000 </v>
   <v>       0.37500000       0.02777778       0.00000000 </v>
   <v>       0.41666667       0.02777778       0.00000000 </v>
   <v>       0.45833333       0.02777778       0.00000000 </v>
   <v>       0.50000000       0.02777778       0.00000000 </v>
   <v>       0.00000000       0.05555556       0.00000000 </v>
   <v>       0.04166667       0.05555556       0.00000000 </v>
   <v>       0.08333333       0.05555556       0.00000000 </v>
   <v>       0.12500000       0.05555556       0.00000000 </v>
   <v>       0.16666667       0.05555556       0.00000000 </v>
   <v>       0.20833333       0.05555556       0.00000000 </v>
   <v>       0.25000000       0.05555556       0.00000000 </v>
   <v>       0.29166667       0.05555556       0.00000000 </v>
   <v>       0.33333333       0.05555556       0.00000000 </v>
   <v>       0.37500000       0.05555556       0.00000000 </v>
   <v>       0.41666667       0.05555556       0.00000000 </v>
   <v>       0.45833333       0.05555556       0.00000000 </v>
   <v>       0.50000000       0.05555556       0.00000000 </v>
   <v>       0.00000000       0.08333333       0.00000000 </v>
   <v>       0.04166667       0.08333333       0.00000000 </v>
   <v>       0.08333333       0.08333333       0.00000000 </v>
   <v>       0.12500000       0.08333333       0.00000000 </v>
   <v>       0.16666667       0.08333333       0.00000000 </v>
   <v>       0.20833333       0.08333333       0.00000000 </v>
   <v>       0.25000000       0.08333333       0.00000000 </v>
   <v>       0.29166667       0.08333333       0.00000000 </v>
   <v>       0.33333333       0.08333333       0.00000000 </v>
   <v>       0.37500000       0.08333333       0.00000000 </v>
   <v>       0.41666667       0.08333333       0.00000000 </v>
   <v>       0.45833333       0.08333333       0.00000000 </v>
   <v>       0.50000000       0.08333333       0.00000000 </v>
   <v>       0.00000000       0.11111111       0.00000000 </v>
   <v>       0.04166667       0.11111111       0.00000000 </v>
   <v>       0.08333333       0.11111111       0.00000000 </v>
   <v>       0.12500000       0.11111111       0.00000000 </v>
   <v>       0.16666667       0.11111111       0.00000000 </v>
   <v>       0.20833333       0.11111111       0.00000000 </v>
   <v>       0.25000000       0.11111111       0.00000000 </v>
   <v>       0.29166667       0.11111111       0.00000000 </v>
   <v>       0.33333333       0.11111111       0.00000000 </v>
   <v>       0.37500000       0.11111111       0.00000000 </v>
   <v>       0.41666667       0.11111111       0.00000000 </v>
   <v>       0.45833333       0.11111111       0.00000000 </v>
   <v>       0.50000000       0.11111111       0.00000000 </v>
   <v>       0.00000000       0.13888889       0.00000000 </v>
   <v>       0.04166667       0.13888889       0.00000000 </v>
   <v>       0.08333333       0.13888889       0.00000000 </v>
   <v>       0.12500000       0.13888889       0.00000000 </v>
   <v>       0.16666667       0.13888889       0.00000000 </v>
   <v>       0.20833333       0.13888889       0.00000000 </v>
   <v>       0.25000000       0.13888889       0.00000000 </v>
   <v>       0.29166667       0.13888889       0.00000000 </v>
   <v>       0.33333333       0.13888889       0.00000000 </v>
   <v>       0.37500000       0.13888889       0.00000000 </v>
   <v>       0.41666667       0.13888889       0.00000000 </v>
   <v>       0.45833333       0.13888889       0.00000000 </v>
   <v>       0.50000000       0.13888889       0.00000000 </v>
   <v>       0.00000000       0.16666667       0.00000000 </v>
   <v>       0.04166667       0.16666667       0.00000000 </v>
   <v>       0.08333333       0.16666667       0.00000000 </v>
   <v>       0.12500000       0.16666667       0.00000000 </v>
   <v>       0.16666667       0.16666667       0.00000000 </v>
   <v>       0.20833333       0.16666667       0.00000000 </v>
   <v>       0.25000000       0.16666667       0.00000000 </v>
   <v>       0.29166667       0.16666667       0.00000000 </v>
   <v>       0.33333333       0.16666667       0.00000000 </v>
   <v>       0.37500000       0.16666667       0.00000000 </v>
   <v>       0.41666667       0.16666667       0.00000000 </v>
   <v>       0.45833333       0.16666667       0.00000000 </v>
   <v>       0.50000000       0.16666667       0.00000000 </v>
   <v>       0.00000000       0.19444444       0.00000000 </v>
   <v>       0.04166667       0.19444444       0.00000000 </v>
   <v>       0.08333333       0.19444444       0.00000000 </v>
   <v>       0.12500000       0.19444444       0.00000000 </v>
   <v>       0.16666667       0.19444444       0.00000000 </v>
   <v>       0.20833333       0.19444444       0.00000000 </v>
   <v>       0.25000000       0.19444444       0.00000000 </v>
   <v>       0.29166667       0.19444444       0.00000000 </v>
   <v>       0.33333333       0.19444444       0.00000000 </v>
   <v>       0.37500000       0.19444444       0.00000000 </v>
   <v>       0.41666667       0.19444444       0.00000000 </v>
   <v>       0.45833333       0.19444444       0.00000000 </v>
   <v>       0.50000000       0.19444444       0.00000000 </v>
   <v>       0.00000000       0.22222222       0.00000000 </v>
   <v>       0.04166667       0.22222222       0.00000000 </v>
   <v>       0.08333333       0.22222222       0.00000000 </v>
   <v>       0.12500000       0.22222222       0.00000000 </v>
   <v>       0.16666667       0.22222222       0.00000000 </v>
   <v>       0.20833333       0.22222222       0.00000000 </v>
   <v>       0.25000000       0.22222222       0.00000000 </v>
   <v>       0.29166667       0.22222222       0.00000000 </v>
   <v>       0.33333333       0.22222222       0.00000000 </v>
   <v>       0.37500000       0.22222222       0.00000000 </v>
   <v>       0.41666667       0.22222222       0.00000000 </v>
   <v>       0.45833333       0.22222222       0.00000000 </v>
   <v>       0.50000000       0.22222222       0.00000000 </v>
   <v>       0.00000000       0.25000000       0.00000000 </v>
   <v>       0.04166667       0.25000000       0.00000000 </v>
   <v>       0.08333333       0.25000000       0.00000000 </v>
   <v>       0.12500000       0.25000000       0.00000000 </v>
   <v>       0.16666667       0.25000000       0.00000000 </v>
   <v>       0.20833333       0.25000000       0.00000000 </v>
   <v>       0.25000000       0.25000000       0.00000000 </v>
   <v>       0.29166667       0.25000000       0.00000000 </v>
   <v>       0.33333333       0.25000000       0.00000000 </v>
   <v>       0.37500000       0.25000000       0.00000000 </v>
   <v>       0.41666667       0.25000000       0.00000000 </v>
   <v>       0.45833333       0.25000000       0.00000000 </v>
   <v>       0.50000000       0.25000000       0.00000000 </v>
   <v>       0.00000000       0.27777778       0.00000000 </v>
   <v>       0.04166667       0.27777778       0.00000000 </v>
   <v>       0.08333333       0.27777778       0.00000000 </v>
   <v>       0.12500000       0.27777778       0.00000000 </v>
   <v>       0.16666667       0.27777778       0.00000000 </v>
   <v>       0.20833333       0.27777778       0.00000000 </v>
   <v>       0.25000000       0.27777778       0.00000000 </v>
   <v>       0.29166667       0.27777778       0.00000000 </v>
   <v>       0.33333333       0.27777778       0.00000000 </v>
   <v>       0.37500000       0.27777778       0.00000000 </v>
   <v>       0.41666667       0.27777778       0.00000000 </v>
   <v>       0.45833333       0.27777778       0.00000000 </v>
   <v>       0.50000000       0.27777778       0.00000000 </v>
   <v>       0.00000000       0.30555556       0.00000000 </v>
   <v>       0.04166667       0.30555556       0.00000000 </v>
   <v>       0.08333333       0.30555556       0.00000000 </v>
   <v>       0.12500000       0.30555556       0.00000000 </v>
   <v>       0.16666667       0.30555556       0.00000000 </v>
   <v>       0.20833333       0.30555556       0.00000000 </v>
   <v>       0.25000000       0.30555556       0.00000000 </v>
   <v>       0.29166667       0.30555556       0.00000000 </v>
   <v>       0.33333333       0.30555556       0.00000000 </v>
   <v>       0.37500000       0.30555556       0.00000000 </v>
   <v>       0.41666667       0.30555556       0.00000000 </v>
   <v>       0.45833333       0.30555556       0.00000000 </v>
   <v>       0.50000000       0.30555556       0.00000000 </v>
   <v>       0.00000000       0.33333333       0.00000000 </v>
   <v>       0.04166667       0.33333333       0.00000000 </v>
   <v>       0.08333333       0.33333333       0.00000000 </v>
   <v>       0.12500000       0.33333333       0.00000000 </v>
   <v>       0.16666667       0.33333333       0.00000000 </v>
   <v>       0.20833333       0.33333333       0.00000000 </v>
   <v>       0.25000000       0.33333333       0.00000000 </v>
   <v>       0.29166667       0.33333333       0.00000000 </v>
   <v>       0.33333333       0.33333333       0.00000000 </v>
   <v>       0.37500000       0.33333333       0.00000000 </v>
   <v>       0.41666667       0.33333333       0.00000000 </v>
   <v>       0.45833333       0.33333333       0.00000000 </v>
   <v>       0.50000000       0.33333333       0.00000000 </v>
   <v>       0.00000000       0.36111111       0.00000000 </v>
   <v>       0.04166667       0.36111111       0.00000000 </v>
   <v>       0.08333333       0.36111111       0.00000000 </v>
   <v>       0.12500000       0.36111111       0.00000000 </v>
   <v>       0.16666667       0.36111111       0.00000000 </v>
   <v>       0.20833333       0.36111111       0.00000000 </v>
   <v>       0.25000000       0.36111111       0.00000000 </v>
   <v>       0.29166667       0.36111111       0.00000000 </v>
   <v>       0.33333333       0.36111111       0.00000000 </v>
   <v>       0.37500000       0.36111111       0.00000000 </v>
   <v>       0.41666667       0.36111111       0.00000000 </v>
   <v>       0.45833333       0.36111111       0.00000000 </v>
   <v>       0.50000000       0.36111111       0.00000000 </v>
   <v>       0.00000000       0.38888889       0.00000000 </v>
   <v>       0.04166667       0.38888889       0.00000000 </v>
   <v>       0.08333333       0.38888889       0.00000000 </v>
   <v>       0.12500000       0.38888889       0.00000000 </v>
   <v>       0.16666667       0.38888889       0.00000000 </v>
   <v>       0.20833333       0.38888889       0.00000000 </v>
   <v>       0.25000000       0.38888889       0.00000000 </v>
   <v>       0.29166667       0.38888889       0.00000000 </v>
   <v>       0.33333333       0.38888889       0.00000000 </v>
   <v>       0.37500000       0.38888889       0.00000000 </v>
   <v>       0.41666667       0.38888889       0.00000000 </v>
   <v>       0.45833333       0.38888889       0.00000000 </v>
   <v>       0.50000000       0.38888889       0.00000000 </v>
   <v>       0.00000000       0.41666667       0.00000000 </v>
   <v>       0.04166667       0.41666667       0.00000000 </v>
   <v>       0.08333333       0.41666667       0.00000000 </v>
   <v>       0.12500000       0.41666667       0.00000000 </v>
   <v>       0.16666667       0.41666667       0.00000000 </v>
   <v>       0.20833333       0.41666667       0.00000000 </v>
   <v>       0.25000000       0.41666667       0.00000000 </v>
   <v>       0.29166667       0.41666667       0.00000000 </v>
   <v>       0.33333333       0.41666667       0.00000000 </v>
   <v>       0.37500000       0.41666667       0.00000000 </v>
   <v>       0.41666667       0.41666667       0.00000000 </v>
   <v>       0.45833333       0.41666667       0.00000000 </v>
   <v>       0.50000000       0.41666667       0.00000000 </v>
   <v>       0.00000000       0.44444444       0.00000000 </v>
   <v>       0.04166667       0.44444444       0.00000000 </v>
   <v>       0.08333333       0.44444444       0.00000000 </v>
   <v>       0.12500000       0.44444444       0.00000000 </v>
   <v>       0.16666667       0.44444444       0.00000000 </v>
   <v>       0.20833333       0.44444444       0.00000000 </v>
   <v>       0.25000000       0.44444444       0.00000000 </v>
   <v>       0.29166667       0.44444444       0.00000000 </v>
   <v>       0.33333333       0.44444444       0.00000000 </v>
   <v>       0.37500000       0.44444444       0.00000000 </v>
   <v>       0.41666667       0.44444444       0.00000000 </v>
   <v>       0.45833333       0.44444444       0.00000000 </v>
   <v>       0.50000000       0.44444444       0.00000000 </v>
   <v>       0.00000000       0.47222222       0.00000000 </v>
   <v>       0.04166667       0.47222222       0.00000000 </v>
   <v>       0.08333333       0.47222222       0.00000000 </v>
   <v>       0.12500000       0.47222222       0.00000000 </v>
   <v>       0.16666667       0.47222222       0.00000000 </v>
   <v>       0.20833333       0.47222222       0.00000000 </v>
   <v>       0.25000000       0.47222222       0.00000000 </v>
   <v>       0.29166667       0.47222222       0.00000000 </v>
   <v>       0.33333333       0.47222222       0.00000000 </v>
   <v>       0.37500000       0.47222222       0.00000000 </v>
   <v>       0.41666667       0.47222222       0.00000000 </v>
   <v>       0.45833333       0.47222222       0.00000000 </v>
   <v>       0.50000000       0.47222222       0.00000000 </v>
   <v>       0.00000000       0.50000000       0.00000000 </v>
   <v>       0.04166667       0.50000000       0.00000000 </v>
   <v>       0.08333333       0.50000000       0.00000000 </v>
   <v>       0.12500000       0.50000000       0.00000000 </v>
   <v>       0.16666667       0.50000000       0.00000000 </v>
   <v>       0.20833333       0.50000000       0.00000000 </v>
   <v>       0.25000000       0.50000000       0.00000000 </v>
   <v>       0.29166667       0.50000000       0.00000000 </v>
   <v>       0.33333333       0.50000000       0.00000000 </v>
   <v>       0.37500000       0.50000000       0.00000000 </v>
   <v>       0.41666667       0.50000000       0.00000000 </v>
   <v>       0.45833333       0.50000000       0.00000000 </v>
   <v>       0.50000000       0.50000000       0.00000000 </v>
  </varray>
  <varray name="weights" >
   <v>       0.00115741 </v>
   <v>       0.00231481 </v>
   <v>       0.00231481 </v>
   <v>       0.00231481 </v>
   <v>       0.00231481 </v>
   <v>       0.00231481 </v>
   <v>       0.00231481 </v>
   <v>       0.00231481 </v>
   <v>       0.00231481 </v>
   <v>       0.00231481 </v>
   <v>       0.00231481 </v>
   <v>       0.00231481 </v>
   <v>       0.00115741 </v>
   <v>       0.00231481 </v>
   <v>       0.00462963 </v>
   <v>       0.00462963 </v>
   <v>       0.00462963 </v>
   <v>       0.00462963 </v>
   <v>       0.00462963 </v>
   <v>       0.00462963 </v>
   <v>       0.00462963 </v>
   <v>       0.00462963 </v>
   <v>       0.00462963 </v>
   <v>       0.00462963 </v>
   <v>       0.00462963 </v>
   <v>       0.00231481 </v>
   <v>       0.00231481 </v>
   <v>       0.00462963 </v>
   <v>       0.00462963 </v>
   <v>       0.00462963 </v>
   <v>       0.00462963 </v>
   <v>       0.00462963 </v>
   <v>       0.00462963 </v>
   <v>       0.00462963 </v>
   <v>       0.00462963 </v>
   <v>       0.00462963 </v>
   <v>       0.00462963 </v>
   <v>       0.00462963 </v>
   <v>       0.00231481 </v>
   <v>       0.00231481 </v>
   <v>       0.00462963 </v>
   <v>       0.00462963 </v>
   <v>       0.00462963 </v>
   <v>       0.00462963 </v>
   <v>       0.00462963 </v>
   <v>       0.00462963 </v>
   <v>       0.00462963 </v>
   <v>       0.00462963 </v>
   <v>       0.00462963 </v>
   <v>       0.00462963 </v>
   <v>       0.00462963 </v>
   <v>       0.00231481 </v>
   <v>       0.00231481 </v>
   <v>       0.00462963 </v>
   <v>       0.00462963 </v>
   <v>       0.00462963 </v>
   <v>       0.00462963 </v>
   <v>       0.00462963 </v>
   <v>       0.00462963 </v>
   <v>       0.00462963 </v>
   <v>       0.00462963 </v>
   <v>       0.00462963 </v>
   <v>       0.00462963 </v>
   <v>       0.00462963 </v>
   <v>       0.00231481 </v>
   <v>       0.00231481 </v>
   <v>       0.00462963 </v>
   <v>       0.00462963 </v>
   <v>       0.00462963 </v>
   <v>       0.00462963 </v>
   <v>       0.00462963 </v>
   <v>       0.00462963 </v>
   <v>       0.00462963 </v>
   <v>       0.00462963 </v>
   <v>       0.00462963 </v>
   <v>       0.00462963 </v>
   <v>       0.00462963 </v>
   <v>       0.00231481 </v>
   <v>       0.00231481 </v>
   <v>       0.00462963 </v>
   <v>       0.00462963 </v>
   <v>       0.00462963 </v>
   <v>       0.00462963 </v>
   <v>       0.00462963 </v>
   <v>       0.00462963 </v>
   <v>       0.00462963 </v>
   <v>       0.00462963 </v>
   <v>       0.00462963 </v>
   <v>       0.00462963 </v>
   <v>       0.00462963 </v>
   <v>       0.00231481 </v>
   <v>       0.00231481 </v>
   <v>       0.00462963 </v>
   <v>       0.00462963 </v>
   <v>       0.00462963 </v>
   <v>       0.00462963 </v>
   <v>       0.00462963 </v>
   <v>       0.00462963 </v>
   <v>       0.00462963 </v>
   <v>       0.00462963 </v>
   <v>       0.00462963 </v>
   <v>       0.00462963 </v>
   <v>       0.00462963 </v>
   <v>       0.00231481 </v>
   <v>       0.00231481 </v>
   <v>       0.00462963 </v>
   <v>       0.00462963 </v>
   <v>       0.00462963 </v>
   <v>       0.00462963 </v>
   <v>       0.00462963 </v>
   <v>       0.00462963 </v>
   <v>       0.00462963 </v>
   <v>       0.00462963 </v>
   <v>       0.00462963 </v>
   <v>       0.00462963 </v>
   <v>       0.00462963 </v>
   <v>       0.00231481 </v>
   <v>       0.00231481 </v>
   <v>       0.00462963 </v>
   <v>       0.00462963 </v>
   <v>       0.00462963 </v>
   <v>       0.00462963 </v>
   <v>       0.00462963 </v>
   <v>       0.00462963 </v>
   <v>       0.00462963 </v>
   <v>       0.00462963 </v>
   <v>       0.00462963 </v>
   <v>       0.00462963 </v>
   <v>       0.00462963 </v>
   <v>       0.00231481 </v>
   <v>       0.00231481 </v>
   <v>       0.00462963 </v>
   <v>       0.00462963 </v>
   <v>       0.00462963 </v>
   <v>       0.00462963 </v>
   <v>       0.00462963 </v>
   <v>       0.00462963 </v>
   <v>       0.00462963 </v>
   <v>       0.00462963 </v>
   <v>       0.00462963 </v>
   <v>       0.00462963 </v>
   <v>       0.00462963 </v>
   <v>       0.00231481 </v>
   <v>       0.00231481 </v>
   <v>       0.00462963 </v>
   <v>       0.00462963 </v>
   <v>       0.00462963 </v>
   <v>       0.00462963 </v>
   <v>       0.00462963 </v>
   <v>       0.00462963 </v>
   <v>       0.00462963 </v>
   <v>       0.00462963 </v>
   <v>       0.00462963 </v>
   <v>       0.00462963 </v>
   <v>       0.00462963 </v>
   <v>       0.00231481 </v>
   <v>       0.00231481 </v>
   <v>       0.00462963 </v>
   <v>       0.00462963 </v>
   <v>       0.00462963 </v>
   <v>       0.00462963 </v>
   <v>       0.00462963 </v>
   <v>       0.00462963 </v>
   <v>       0.00462963 </v>
   <v>       0.00462963 </v>
   <v>       0.00462963 </v>
   <v>       0.00462963 </v>
   <v>       0.00462963 </v>
   <v>       0.00231481 </v>
   <v>       0.00231481 </v>
   <v>       0.00462963 </v>
   <v>       0.00462963 </v>
   <v>       0.00462963 </v>
   <v>       0.00462963 </v>
   <v>       0.00462963 </v>
   <v>       0.00462963 </v>
   <v>       0.00462963 </v>
   <v>       0.00462963 </v>
   <v>       0.00462963 </v>
   <v>       0.00462963 </v>
   <v>       0.00462963 </v>
   <v>       0.00231481 </v>
   <v>       0.00231481 </v>
   <v>       0.00462963 </v>
   <v>       0.00462963 </v>
   <v>       0.00462963 </v>
   <v>       0.00462963 </v>
   <v>       0.00462963 </v>
   <v>       0.00462963 </v>
   <v>       0.00462963 </v>
   <v>       0.00462963 </v>
   <v>       0.00462963 </v>
   <v>       0.00462963 </v>
   <v>       0.00462963 </v>
   <v>       0.00231481 </v>
   <v>       0.00231481 </v>
   <v>       0.00462963 </v>
   <v>       0.00462963 </v>
   <v>       0.00462963 </v>
   <v>       0.00462963 </v>
   <v>       0.00462963 </v>
   <v>       0.00462963 </v>
   <v>       0.00462963 </v>
   <v>       0.00462963 </v>
   <v>       0.00462963 </v>
   <v>       0.00462963 </v>
   <v>       0.00462963 </v>
   <v>       0.00231481 </v>
   <v>       0.00231481 </v>
   <v>       0.00462963 </v>
   <v>       0.00462963 </v>
   <v>       0.00462963 </v>
   <v>       0.00462963 </v>
   <v>       0.00462963 </v>
   <v>       0.00462963 </v>
   <v>       0.00462963 </v>
   <v>       0.00462963 </v>
   <v>       0.00462963 </v>
   <v>       0.00462963 </v>
   <v>       0.00462963 </v>
   <v>       0.00231481 </v>
   <v>       0.00231481 </v>
   <v>       0.00462963 </v>
   <v>       0.00462963 </v>
   <v>       0.00462963 </v>
   <v>       0.00462963 </v>
   <v>       0.00462963 </v>
   <v>       0.00462963 </v>
   <v>       0.00462963 </v>
   <v>       0.00462963 </v>
   <v>       0.00462963 </v>
   <v>       0.00462963 </v>
   <v>       0.00462963 </v>
   <v>       0.00231481 </v>
   <v>       0.00115741 </v>
   <v>       0.00231481 </v>
   <v>       0.00231481 </v>
   <v>       0.00231481 </v>
   <v>       0.00231481 </v>
   <v>       0.00231481 </v>
   <v>       0.00231481 </v>
   <v>       0.00231481 </v>
   <v>       0.00231481 </v>
   <v>       0.00231481 </v>
   <v>       0.00231481 </v>
   <v>       0.00231481 </v>
   <v>       0.00115741 </v>
  </varray>
 </kpoints>
 <parameters>
  <separator name="general" >
   <i type="string" name="SYSTEM">gr</i>
   <i type="logical" name="LCOMPAT"> F  </i>
  </separator>
  <separator name="electronic" >
   <i type="string" name="PREC">accura</i>
   <i name="ENMAX">   2000.00000000</i>
   <i name="ENAUG">    644.87300000</i>
   <i name="EDIFF">      0.00000000</i>
   <i type="int" name="IALGO">    68</i>
   <i type="int" name="IWAVPR">    11</i>
   <i type="int" name="NBANDS">    12</i>
   <i name="NELECT">     16.00000000</i>
   <i type="int" name="TURBO">     0</i>
   <i type="int" name="IRESTART">     0</i>
   <i type="int" name="NREBOOT">     0</i>
   <i type="int" name="NMIN">     0</i>
   <i name="EREF">      0.00000000</i>
   <separator name="electronic smearing" >
    <i type="int" name="ISMEAR">     0</i>
    <i name="SIGMA">      0.05000000</i>
    <i name="KSPACING">      0.50000000</i>
    <i type="logical" name="KGAMMA"> T  </i>
   </separator>
   <separator name="electronic projectors" >
    <i type="logical" name="LREAL"> F  </i>
    <v name="ROPT">      0.00000000</v>
    <i type="int" name="LMAXPAW">  -100</i>
    <i type="int" name="LMAXMIX">     2</i>
    <i type="logical" name="NLSPLINE"> F  </i>
   </separator>
   <separator name="electronic startup" >
    <i type="int" name="ISTART">     0</i>
    <i type="int" name="ICHARG">     2</i>
    <i type="int" name="INIWAV">     1</i>
   </separator>
   <separator name="electronic spin" >
    <i type="int" name="ISPIN">     1</i>
    <i type="logical" name="LNONCOLLINEAR"> F  </i>
    <v name="MAGMOM">      1.00000000      1.00000000      1.00000000      1.00000000</v>
    <i name="NUPDOWN">     -1.00000000</i>
    <i type="logical" name="LSORBIT"> F  </i>
    <v name="SAXIS">      0.00000000      0.00000000      1.00000000</v>
    <i type="logical" name="LSPIRAL"> F  </i>
    <v name="QSPIRAL">      0.00000000      0.00000000      0.00000000</v>
    <i type="logical" name="LZEROZ"> F  </i>
   </separator>
   <separator name="electronic exchange-correlation" >
    <i type="logical" name="LASPH"> F  </i>
    <i type="logical" name="LMETAGGA"> F  </i>
   </separator>
   <separator name="electronic convergence" >
    <i type="int" name="NELM">   100</i>
    <i type="int" name="NELMDL">    -3</i>
    <i type="int" name="NELMIN">     5</i>
    <i name="ENINI">   2000.00000000</i>
    <separator name="electronic convergence detail" >
     <i type="logical" name="LDIAG"> T  </i>
     <i type="logical" name="LSUBROT"> F  </i>
     <i name="WEIMIN">      0.00100000</i>
     <i name="EBREAK">      0.00000000</i>
     <i name="DEPER">      0.30000000</i>
     <i type="int" name="NRMM">     4</i>
     <i name="TIME">      0.40000000</i>
    </separator>
   </separator>
   <separator name="electronic mixer" >
    <i name="AMIX">      0.40000000</i>
    <i name="BMIX">      1.00000000</i>
    <i name="AMIN">      0.10000000</i>
    <i name="AMIX_MAG">      1.60000000</i>
    <i name="BMIX_MAG">      1.00000000</i>
    <separator name="electronic mixer details" >
     <i type="int" name="IMIX">     4</i>
     <i type="int" name="MAXMIX">   -45</i>
     <i name="WC">    100.00000000</i>
     <i type="int" name="INIMIX">     1</i>
     <i type="int" name="MIXPRE">     1</i>
     <i type="int" name="MREMOVE">     5</i>
    </separator>
   </separator>
   <separator name="electronic dipolcorrection" >
    <i type="logical" name="LDIPOL"> F  </i>
    <i type="logical" name="LMONO"> F  </i>
    <i type="int" name="IDIPOL">     0</i>
    <i name="EPSILON">      1.00000000</i>
    <v name="DIPOL">   -100.00000000   -100.00000000   -100.00000000</v>
    <i name="EFIELD">      0.00000000</i>
   </separator>
  </separator>
  <separator name="grids" >
   <i type="int" name="NGX">    64</i>
   <i type="int" name="NGY">    40</i>
   <i type="int" name="NGZ">   288</i>
   <i type="int" name="NGXF">   128</i>
   <i type="int" name="NGYF">    80</i>
   <i type="int" name="NGZF">   576</i>
   <i type="logical" name="ADDGRID"> F  </i>
  </separator>
  <separator name="ionic" >
   <i type="int" name="NSW">   400</i>
   <i type="int" name="IBRION">     1</i>
   <i type="int" name="ISIF">     2</i>
   <i name="PSTRESS">      0.00000000</i>
   <i name="EDIFFG">     -0.00000100</i>
   <i type="int" name="NFREE">     0</i>
   <i name="POTIM">      0.50000000</i>
   <i name="SMASS">     -3.00000000</i>
   <i name="SCALEE">      1.00000000</i>
  </separator>
  <separator name="ionic md" >
   <i name="TEBEG">      0.00010000</i>
   <i name="TEEND">      0.00010000</i>
   <i type="int" name="NBLOCK">     1</i>
   <i type="int" name="KBLOCK">   400</i>
   <i type="int" name="NPACO">   256</i>
   <i name="APACO">     16.00000000</i>
  </separator>
  <separator name="symmetry" >
   <i type="int" name="ISYM">     2</i>
   <i name="SYMPREC">      0.00001000</i>
  </separator>
  <separator name="dos" >
   <i type="logical" name="LORBIT"> F  </i>
   <v name="RWIGS">     -1.00000000</v>
   <i type="int" name="NEDOS">   301</i>
   <i name="EMIN">     10.00000000</i>
   <i name="EMAX">    -10.00000000</i>
   <i name="EFERMI">      0.00000000</i>
  </separator>
  <separator name="writing" >
   <i type="int" name="NWRITE">     2</i>
   <i type="logical" name="LWAVE"> F  </i>
   <i type="logical" name="LCHARG"> F  </i>
   <i type="logical" name="LPARD"> F  </i>
   <i type="logical" name="LVTOT"> F  </i>
   <i type="logical" name="LVHAR"> F  </i>
   <i type="logical" name="LELF"> F  </i>
   <i type="logical" name="LOPTICS"> F  </i>
   <v name="STM">      0.00000000      0.00000000      0.00000000      0.00000000      0.00000000      0.00000000      0.00000000</v>
  </separator>
  <separator name="performance" >
   <i type="int" name="NPAR">     4</i>
   <i type="int" name="NSIM">     4</i>
   <i type="int" name="NBLK">    -1</i>
   <i type="logical" name="LPLANE"> T  </i>
   <i type="logical" name="LSCALAPACK"> F  </i>
   <i type="logical" name="LSCAAWARE"> F  </i>
   <i type="logical" name="LSCALU"> F  </i>
   <i type="logical" name="LASYNC"> F  </i>
   <i type="logical" name="LORBITALREAL"> F  </i>
  </separator>
  <separator name="miscellaneous" >
   <i type="int" name="IDIOT">     3</i>
   <i type="logical" name="LMUSIC"> F  </i>
   <v name="POMASS">     12.01100000</v>
   <v name="DARWINR">      0.00000000</v>
   <v name="DARWINV">      1.00000000</v>
   <i type="logical" name="LCORR"> T  </i>
  </separator>
  <i type="logical" name="GGA_COMPAT"> T  </i>
  <i type="logical" name="LBERRY"> F  </i>
  <i type="int" name="ICORELEVEL">     0</i>
  <i type="logical" name="LDAU"> F  </i>
  <i type="int" name="I_CONSTRAINED_M">     0</i>
  <separator name="electronic exchange-correlation" >
   <i type="string" name="GGA">--</i>
   <i type="int" name="VOSKOWN">     0</i>
   <i type="logical" name="LHFCALC"> F  </i>
   <i type="string" name="PRECFOCK"></i>
   <i type="logical" name="LSYMGRAD"> F  </i>
   <i type="logical" name="LHFONE"> F  </i>
   <i type="logical" name="LRHFCALC"> F  </i>
   <i type="logical" name="LTHOMAS"> F  </i>
   <i type="logical" name="LMODELHF"> F  </i>
   <i name="ENCUT4O">     -1.00000000</i>
   <i type="int" name="EXXOEP">     0</i>
   <i type="int" name="FOURORBIT">     0</i>
   <i name="AEXX">      0.00000000</i>
   <i name="HFALPHA">      0.00000000</i>
   <i name="MCALPHA">      0.00000000</i>
   <i name="ALDAX">      1.00000000</i>
   <i name="AGGAX">      1.00000000</i>
   <i name="ALDAC">      1.00000000</i>
   <i name="AGGAC">      1.00000000</i>
   <i type="int" name="NKREDX">     1</i>
   <i type="int" name="NKREDY">     1</i>
   <i type="int" name="NKREDZ">     1</i>
   <i type="logical" name="SHIFTRED"> F  </i>
   <i type="logical" name="ODDONLY"> F  </i>
   <i type="logical" name="EVENONLY"> F  </i>
   <i type="int" name="LMAXFOCK">     0</i>
   <i type="int" name="NMAXFOCKAE">     0</i>
   <i type="logical" name="LFOCKAEDFT"> F  </i>
   <i name="HFSCREEN">      0.00000000</i>
   <i name="HFSCREENC">      0.00000000</i>
   <i type="int" name="NBANDSGWLOW">     0</i>
  </separator>
  <separator name="vdW DFT" >
   <i type="logical" name="LUSE_VDW"> F  </i>
   <i name="Zab_VDW">     -0.84910000</i>
   <i name="PARAM1">      0.12340000</i>
   <i name="PARAM2">      1.00000000</i>
   <i name="PARAM3">      0.00000000</i>
  </separator>
  <separator name="model GW" >
   <i type="int" name="MODEL_GW">     0</i>
   <i name="MODEL_EPS0">     31.62568521</i>
   <i name="MODEL_ALPHA">      1.00000000</i>
  </separator>
  <separator name="linear response parameters" >
   <i type="logical" name="LEPSILON"> F  </i>
   <i type="logical" name="LRPA"> F  </i>
   <i type="logical" name="LNABLA"> F  </i>
   <i type="logical" name="LVEL"> F  </i>
   <i type="int" name="KINTER">     0</i>
   <i name="CSHIFT">      0.10000000</i>
   <i name="OMEGAMAX">     -1.00000000</i>
   <i name="DEG_THRESHOLD">      0.00200000</i>
  </separator>
  <separator name="orbital magnetization" >
   <i type="logical" name="NUCIND"> F  </i>
   <v name="MAGPOS">      0.00000000      0.00000000      0.00000000</v>
   <i type="logical" name="LNICSALL"> T  </i>
   <i type="logical" name="ORBITALMAG"> F  </i>
   <i type="logical" name="LMAGBLOCH"> F  </i>
   <i type="logical" name="LCHIMAG"> F  </i>
   <i type="logical" name="LGAUGE"> T  </i>
   <i type="int" name="MAGATOM">     0</i>
   <v name="MAGDIPOL">      0.00000000      0.00000000      0.00000000</v>
   <v name="AVECCONST">      0.00000000      0.00000000      0.00000000</v>
  </separator>
  <separator name="response functions" >
   <i type="logical" name="LADDER"> F  </i>
   <i type="logical" name="LFXC"> F  </i>
   <i type="logical" name="LHARTREE"> T  </i>
   <i type="int" name="IBSE">     0</i>
   <i type="logical" name="LTCTE"> F  </i>
   <i type="logical" name="LTETE"> F  </i>
   <i type="logical" name="LTRIPLET"> F  </i>
   <i type="logical" name="LFXCEPS"> F  </i>
   <i type="logical" name="LFXHEG"> F  </i>
   <i type="logical" name="L2ORDER"> F  </i>
   <i type="logical" name="LUSEW"> F  </i>
   <i name="ENCUTGW">     -2.00000000</i>
   <i name="ENCUTGWSOFT">     -2.00000000</i>
   <i name="ENCUTLF">     -1.00000000</i>
   <i type="int" name="LMAXMP2">    -1</i>
   <i name="SCISSOR">      0.00000000</i>
   <i type="int" name="NOMEGA">     0</i>
   <i type="int" name="NOMEGAR">     0</i>
   <i type="int" name="NBANDSGW">    -1</i>
   <i type="int" name="NBANDSO">    -1</i>
   <i type="int" name="NBANDSV">    -1</i>
   <i type="int" name="NELM">   100</i>
   <i type="int" name="DIM">     3</i>
   <i type="int" name="ANTIRES">     0</i>
   <i name="OMEGAMAX">    -30.00000000</i>
   <i name="OMEGAMIN">    -30.00000000</i>
   <i name="OMEGATL">   -200.00000000</i>
   <i type="int" name="OMEGAGRID">     0</i>
   <i name="CSHIFT">     -0.10000000</i>
   <i type="logical" name="SELFENERGY"> F  </i>
   <i type="logical" name="LSPECTRAL"> F  </i>
   <i type="logical" name="ODDONLYGW"> F  </i>
   <i type="logical" name="EVENONLYGW"> F  </i>
   <i type="int" name="NKREDLFX">     1</i>
   <i type="int" name="NKREDLFY">     1</i>
   <i type="int" name="NKREDLFZ">     1</i>
   <i type="int" name="MAXMEM">  1800</i>
   <i type="int" name="TELESCOPE">     0</i>
   <i type="int" name="TAUPAR">     1</i>
  </separator>
  <separator name="External order field" >
   <i name="OFIELD_KAPPA">      0.00000000</i>
   <v name="OFIELD_K">      0.00000000      0.00000000      0.00000000</v>
   <i name="OFIELD_Q6_NEAR">      0.00000000</i>
   <i name="OFIELD_Q6_FAR">      0.00000000</i>
   <i name="OFIELD_A">      0.00000000</i>
  </separator>
 </parameters>
 <atominfo>
  <atoms>       4 </atoms>
  <types>       1 </types>
  <array name="atoms" >
   <dimension dim="1">ion</dimension>
   <field type="string">element</field>
   <field type="int">atomtype</field>
   <set>
    <rc><c>C </c><c>   1</c></rc>
    <rc><c>C </c><c>   1</c></rc>
    <rc><c>C </c><c>   1</c></rc>
    <rc><c>C </c><c>   1</c></rc>
   </set>
  </array>
  <array name="atomtypes" >
   <dimension dim="1">type</dimension>
   <field type="int">atomspertype</field>
   <field type="string">element</field>
   <field>mass</field>
   <field>valence</field>
   <field type="string">pseudopotential</field>
   <set>
    <rc><c>   4</c><c>C </c><c>     12.01100000</c><c>      4.00000000</c><c> PAW_PBE C 08Apr2002                    </c></rc>
   </set>
  </array>
 </atominfo>
 <structure name="initialpos" >
  <crystal>
   <varray name="basis" >
    <v>       4.25861795       0.00000000       0.00000000 </v>
    <v>       0.00000000       2.51652435       0.00000000 </v>
    <v>       0.00000000       0.00000000      19.67337489 </v>
   </varray>
   <i name="volume">    210.83790140 </i>
   <varray name="rec_basis" >
    <v>       0.23481796       0.00000000       0.00000000 </v>
    <v>       0.00000000       0.39737347       0.00000000 </v>
    <v>       0.00000000       0.00000000       0.05083012 </v>
   </varray>
  </crystal>
  <varray name="positions" >
   <v>       0.00051919       0.00000000       0.00000000 </v>
   <v>       0.16614747       0.50000000       0.00000000 </v>
   <v>       0.50051919       0.50000000       0.00000000 </v>
   <v>       0.66614747       0.00000000       0.00000000 </v>
  </varray>
 </structure>
 <calculation>
  <scstep>
   <time name="dav">  314.72  315.58</time>
   <time name="total">  317.50  318.42</time>
   <energy>
    <i name="alphaZ">      6.18334092 </i>
    <i name="ewald">   2477.04477527 </i>
    <i name="hartreedc">  -2905.71385413 </i>
    <i name="XCdc">     54.87405693 </i>
    <i name="pawpsdc">    151.32577238 </i>
    <i name="pawaedc">   -155.92769107 </i>
    <i name="eentropy">     -0.00153283 </i>
    <i name="bandstr">    -28.15155432 </i>
    <i name="atom">    588.62352690 </i>
    <i name="e_fr_energy">    188.25684006 </i>
    <i name="e_wo_entrp">    188.25837289 </i>
    <i name="e_0_energy">    188.25760647 </i>
   </energy>
  </scstep>
  <scstep>
   <time name="dav">  474.05  477.23</time>
   <time name="total">  474.06  477.24</time>
   <energy>
    <i name="e_fr_energy">     -8.83757968 </i>
    <i name="e_wo_entrp">     -8.83727442 </i>
    <i name="e_0_energy">     -8.83742705 </i>
   </energy>
  </scstep>
  <scstep>
   <time name="dav">  365.09  368.28</time>
   <time name="total">  398.59  402.07</time>
   <energy>
    <i name="e_fr_energy">    -38.11166609 </i>
    <i name="e_wo_entrp">    -38.11166607 </i>
    <i name="e_0_energy">    -38.11166608 </i>
   </energy>
  </scstep>
  <scstep>
   <time name="diag">   86.75   87.21</time>
   <time name="diis">  366.69  369.71</time>
   <time name="orth">    3.07    3.07</time>
   <time name="total">  492.79  496.38</time>
   <energy>
    <i name="e_fr_energy">    -37.61185871 </i>
    <i name="e_wo_entrp">    -37.61185847 </i>
    <i name="e_0_energy">    -37.61185859 </i>
   </energy>
  </scstep>
  <scstep>
   <time name="diag">   87.06   87.30</time>
   <time name="diis">  363.80  366.22</time>
   <time name="orth">    3.06    3.09</time>
   <time name="total">  490.01  493.06</time>
   <energy>
    <i name="e_fr_energy">    -36.89176579 </i>
    <i name="e_wo_entrp">    -36.89176527 </i>
    <i name="e_0_energy">    -36.89176553 </i>
   </energy>
  </scstep>
  <scstep>
   <time name="diag">   86.33   87.21</time>
   <time name="diis">  402.89  405.67</time>
   <time name="orth">    3.07    3.07</time>
   <time name="total">  528.50  532.29</time>
   <energy>
    <i name="e_fr_energy">    -36.89364676 </i>
    <i name="e_wo_entrp">    -36.89364633 </i>
    <i name="e_0_energy">    -36.89364654 </i>
   </energy>
  </scstep>
  <scstep>
   <time name="diag">   86.67   87.21</time>
   <time name="diis">  363.61  365.42</time>
   <time name="orth">    3.08    3.10</time>
   <time name="total">  489.48  492.28</time>
   <energy>
    <i name="e_fr_energy">    -36.88462404 </i>
    <i name="e_wo_entrp">    -36.88462370 </i>
    <i name="e_0_energy">    -36.88462387 </i>
   </energy>
  </scstep>
  <scstep>
   <time name="diag">   86.23   87.25</time>
   <time name="diis">  359.82  362.55</time>
   <time name="orth">    3.06    3.09</time>
   <time name="total">  485.12  489.33</time>
   <energy>
    <i name="e_fr_energy">    -36.87949560 </i>
    <i name="e_wo_entrp">    -36.87949523 </i>
    <i name="e_0_energy">    -36.87949541 </i>
   </energy>
  </scstep>
  <scstep>
   <time name="diag">   86.26   87.17</time>
   <time name="diis">  348.29  351.35</time>
   <time name="orth">    3.07    3.07</time>
   <time name="total">  473.46  481.39</time>
   <energy>
    <i name="e_fr_energy">    -36.87934421 </i>
    <i name="e_wo_entrp">    -36.87934379 </i>
    <i name="e_0_energy">    -36.87934400 </i>
   </energy>
  </scstep>
  <scstep>
   <time name="diag">   86.34   87.13</time>
   <time name="diis">  349.52  352.28</time>
   <time name="orth">    3.09    3.09</time>
   <time name="total">  475.26  478.96</time>
   <energy>
    <i name="e_fr_energy">    -36.87926175 </i>
    <i name="e_wo_entrp">    -36.87926136 </i>
    <i name="e_0_energy">    -36.87926156 </i>
   </energy>
  </scstep>
  <scstep>
   <time name="diag">   87.01   87.19</time>
   <time name="diis">  353.24  353.89</time>
   <time name="orth">    3.09    3.09</time>
   <time name="total">  479.69  480.87</time>
   <energy>
    <i name="e_fr_energy">    -36.88160063 </i>
    <i name="e_wo_entrp">    -36.88160026 </i>
    <i name="e_0_energy">    -36.88160045 </i>
   </energy>
  </scstep>
  <scstep>
   <time name="diag">   86.38   87.23</time>
   <time name="diis">  350.06  353.67</time>
   <time name="orth">    3.08    3.09</time>
   <time name="total">  475.71  480.47</time>
   <energy>
    <i name="e_fr_energy">    -36.88209750 </i>
    <i name="e_wo_entrp">    -36.88209711 </i>
    <i name="e_0_energy">    -36.88209730 </i>
   </energy>
  </scstep>
  <scstep>
   <time name="diag">   86.30   87.17</time>
   <time name="diis">  356.75  360.58</time>
   <time name="orth">    3.07    3.07</time>
   <time name="total">  482.35  487.29</time>
   <energy>
    <i name="e_fr_energy">    -36.88233825 </i>
    <i name="e_wo_entrp">    -36.88233786 </i>
    <i name="e_0_energy">    -36.88233806 </i>
   </energy>
  </scstep>
  <scstep>
   <time name="diag">   86.42   87.01</time>
   <time name="diis">  352.51  355.87</time>
   <time name="orth">    3.08    3.09</time>
   <time name="total">  478.06  482.47</time>
   <energy>
    <i name="e_fr_energy">    -36.88241999 </i>
    <i name="e_wo_entrp">    -36.88241961 </i>
    <i name="e_0_energy">    -36.88241980 </i>
   </energy>
  </scstep>
  <scstep>
   <time name="diag">   86.96   87.02</time>
   <time name="diis">  353.83  355.71</time>
   <time name="orth">    3.07    3.07</time>
   <time name="total">  480.15  482.24</time>
   <energy>
    <i name="e_fr_energy">    -36.88243071 </i>
    <i name="e_wo_entrp">    -36.88243032 </i>
    <i name="e_0_energy">    -36.88243051 </i>
   </energy>
  </scstep>
  <scstep>
   <time name="diag">   86.30   86.98</time>
   <time name="diis">  348.90  352.06</time>
   <time name="orth">    3.07    3.09</time>
   <time name="total">  474.33  478.64</time>
   <energy>
    <i name="e_fr_energy">    -36.88244337 </i>
    <i name="e_wo_entrp">    -36.88244299 </i>
    <i name="e_0_energy">    -36.88244318 </i>
   </energy>
  </scstep>
  <scstep>
   <time name="diag">   86.51   87.04</time>
   <time name="diis">  364.61  364.77</time>
   <time name="orth">    3.07    3.07</time>
   <time name="total">  490.54  491.29</time>
   <energy>
    <i name="e_fr_energy">    -36.88244912 </i>
    <i name="e_wo_entrp">    -36.88244873 </i>
    <i name="e_0_energy">    -36.88244893 </i>
   </energy>
  </scstep>
  <scstep>
   <time name="diag">   86.73   87.02</time>
   <time name="diis">  348.37  350.83</time>
   <time name="orth">    3.07    3.09</time>
   <time name="total">  474.30  477.45</time>
   <energy>
    <i name="e_fr_energy">    -36.88245017 </i>
    <i name="e_wo_entrp">    -36.88244979 </i>
    <i name="e_0_energy">    -36.88244998 </i>
   </energy>
  </scstep>
  <scstep>
   <time name="diag">   86.24   87.06</time>
   <time name="diis">  350.30  353.04</time>
   <time name="orth">    3.08    3.09</time>
   <time name="total">  475.99  479.80</time>
   <energy>
    <i name="e_fr_energy">    -36.88245093 </i>
    <i name="e_wo_entrp">    -36.88245055 </i>
    <i name="e_0_energy">    -36.88245074 </i>
   </energy>
  </scstep>
  <scstep>
   <time name="diag">   86.42   87.02</time>
   <time name="diis">  273.23  275.93</time>
   <time name="orth">    3.07    3.07</time>
   <time name="total">  398.85  402.53</time>
   <energy>
    <i name="e_fr_energy">    -36.88245098 </i>
    <i name="e_wo_entrp">    -36.88245060 </i>
    <i name="e_0_energy">    -36.88245079 </i>
   </energy>
  </scstep>
  <scstep>
   <time name="diag">   86.75   87.03</time>
   <time name="diis">  269.11  269.33</time>
   <time name="orth">    3.07    3.07</time>
   <time name="total">  395.26  395.91</time>
   <energy>
    <i name="e_fr_energy">    -36.88245100 </i>
    <i name="e_wo_entrp">    -36.88245061 </i>
    <i name="e_0_energy">    -36.88245081 </i>
   </energy>
  </scstep>
  <scstep>
   <time name="diag">   86.40   87.05</time>
   <time name="diis">  240.59  242.91</time>
   <time name="orth">    3.07    3.07</time>
   <time name="total">  366.39  370.34</time>
   <energy>
    <i name="e_fr_energy">    -36.88245100 </i>
    <i name="e_wo_entrp">    -36.88245061 </i>
    <i name="e_0_energy">    -36.88245081 </i>
   </energy>
  </scstep>
  <scstep>
   <time name="diag">   86.67   86.99</time>
   <time name="diis">  231.85  232.52</time>
   <time name="orth">    3.07    3.07</time>
   <time name="total">  357.97  359.08</time>
   <energy>
    <i name="e_fr_energy">    -36.88245100 </i>
    <i name="e_wo_entrp">    -36.88245061 </i>
    <i name="e_0_energy">    -36.88245081 </i>
   </energy>
  </scstep>
  <scstep>
   <time name="diag">   86.80   87.00</time>
   <time name="diis">  222.43  223.09</time>
   <time name="orth">    3.07    3.07</time>
   <time name="total">  348.46  349.68</time>
   <energy>
    <i name="e_fr_energy">    -36.88245100 </i>
    <i name="e_wo_entrp">    -36.88245061 </i>
    <i name="e_0_energy">    -36.88245081 </i>
   </energy>
  </scstep>
  <scstep>
   <time name="diag">   86.61   87.06</time>
   <time name="diis">  211.05  211.51</time>
   <time name="orth">    3.08    3.09</time>
   <time name="total">  303.46  304.39</time>
   <energy>
    <i name="alphaZ">      6.18334092 </i>
    <i name="ewald">   2477.04477527 </i>
    <i name="hartreedc">  -2971.26247974 </i>
    <i name="XCdc">     57.21899939 </i>
    <i name="pawpsdc">    270.47303144 </i>
    <i name="pawaedc">   -275.59195812 </i>
    <i name="eentropy">     -0.00000039 </i>
    <i name="bandstr">   -189.57168669 </i>
    <i name="atom">    588.62352690 </i>
    <i name="e_fr_energy">    -36.88245100 </i>
    <i name="e_wo_entrp">    -36.88245061 </i>
    <i name="e_0_energy">    -36.88245081 </i>
   </energy>
  </scstep>
  <structure>
   <crystal>
    <varray name="basis" >
     <v>       4.25861795       0.00000000       0.00000000 </v>
     <v>       0.00000000       2.51652435       0.00000000 </v>
     <v>       0.00000000       0.00000000      19.67337489 </v>
    </varray>
    <i name="volume">    210.83790140 </i>
    <varray name="rec_basis" >
     <v>       0.23481796       0.00000000       0.00000000 </v>
     <v>       0.00000000       0.39737347       0.00000000 </v>
     <v>       0.00000000       0.00000000       0.05083012 </v>
    </varray>
   </crystal>
   <varray name="positions" >
    <v>       0.00051919       0.00000000       0.00000000 </v>
    <v>       0.16614747       0.50000000       0.00000000 </v>
    <v>       0.50051919       0.50000000       0.00000000 </v>
    <v>       0.66614747       0.00000000       0.00000000 </v>
   </varray>
  </structure>
  <varray name="forces" >
   <v>      -0.00109932       0.00000000      -0.00000000 </v>
   <v>       0.00109932       0.00000000       0.00000000 </v>
   <v>      -0.00109932       0.00000000      -0.00000000 </v>
   <v>       0.00109932      -0.00000000       0.00000000 </v>
  </varray>
  <varray name="stress" >
   <v>      -0.00813615       0.00000000       0.00000000 </v>
   <v>       0.00000000     -32.89608795       0.00000000 </v>
   <v>       0.00000000       0.00000000      -0.01023081 </v>
  </varray>
  <energy>
   <i name="e_fr_energy">    -36.88245100 </i>
   <i name="e_wo_entrp">    -36.88245081 </i>
   <i name="e_0_energy">     -0.00000039 </i>
  </energy>
  <time name="totalsc">11209.7311287.56</time>
 </calculation>
 <calculation>
  <scstep>
   <time name="dav">  328.91  329.92</time>
   <time name="total">  365.38  366.42</time>
   <energy>
    <i name="alphaZ">      6.18334092 </i>
    <i name="ewald">   2477.04567881 </i>
    <i name="hartreedc">  -2971.26287283 </i>
    <i name="XCdc">     57.21902525 </i>
    <i name="pawpsdc">    270.47303380 </i>
    <i name="pawaedc">   -275.59196047 </i>
    <i name="eentropy">     -0.00000036 </i>
    <i name="bandstr">   -189.57222267 </i>
    <i name="atom">    588.62352690 </i>
    <i name="e_fr_energy">    -36.88245064 </i>
    <i name="e_wo_entrp">    -36.88245028 </i>
    <i name="e_0_energy">    -36.88245046 </i>
   </energy>
  </scstep>
  <scstep>
   <time name="diag">   86.94   87.08</time>
   <time name="diis">  349.97  351.93</time>
   <time name="orth">    3.08    3.10</time>
   <time name="total">  476.23  478.58</time>
   <energy>
    <i name="e_fr_energy">    -36.88245066 </i>
    <i name="e_wo_entrp">    -36.88245030 </i>
    <i name="e_0_energy">    -36.88245048 </i>
   </energy>
  </scstep>
  <scstep>
   <time name="diag">   86.52   87.02</time>
   <time name="diis">  352.61  356.19</time>
   <time name="orth">    3.08    3.08</time>
   <time name="total">  478.23  482.80</time>
   <energy>
    <i name="e_fr_energy">    -36.88245066 </i>
    <i name="e_wo_entrp">    -36.88245030 </i>
    <i name="e_0_energy">    -36.88245048 </i>
   </energy>
  </scstep>
  <scstep>
   <time name="diag">   86.82   86.98</time>
   <time name="diis">  356.90  360.31</time>
   <time name="orth">    3.09    3.12</time>
   <time name="total">  482.96  486.90</time>
   <energy>
    <i name="e_fr_energy">    -36.88245065 </i>
    <i name="e_wo_entrp">    -36.88245029 </i>
    <i name="e_0_energy">    -36.88245047 </i>
   </energy>
  </scstep>
  <scstep>
   <time name="diag">   86.89   87.14</time>
   <time name="diis">  266.49  266.64</time>
   <time name="orth">    3.08    3.08</time>
   <time name="total">  392.81  393.35</time>
   <energy>
    <i name="e_fr_energy">    -36.88245065 </i>
    <i name="e_wo_entrp">    -36.88245029 </i>
    <i name="e_0_energy">    -36.88245047 </i>
   </energy>
  </scstep>
  <scstep>
   <time name="diag">   86.95   87.06</time>
   <time name="diis">  235.89  237.00</time>
   <time name="orth">    3.08    3.08</time>
   <time name="total">  362.07  363.62</time>
   <energy>
    <i name="e_fr_energy">    -36.88245065 </i>
    <i name="e_wo_entrp">    -36.88245029 </i>
    <i name="e_0_energy">    -36.88245047 </i>
   </energy>
  </scstep>
  <scstep>
   <time name="diag">   86.35   87.06</time>
   <time name="diis">  234.36  236.24</time>
   <time name="orth">    3.08    3.09</time>
   <time name="total">  359.96  362.87</time>
   <energy>
    <i name="e_fr_energy">    -36.88245065 </i>
    <i name="e_wo_entrp">    -36.88245029 </i>
    <i name="e_0_energy">    -36.88245047 </i>
   </energy>
  </scstep>
  <scstep>
   <time name="diag">   86.51   87.02</time>
   <time name="diis">  216.29  217.69</time>
   <time name="orth">    3.08    3.12</time>
   <time name="total">  308.53  310.54</time>
   <energy>
    <i name="alphaZ">      6.18334092 </i>
    <i name="ewald">   2477.04567881 </i>
    <i name="hartreedc">  -2971.26324011 </i>
    <i name="XCdc">     57.21904071 </i>
    <i name="pawpsdc">    270.47459892 </i>
    <i name="pawaedc">   -275.59353251 </i>
    <i name="eentropy">     -0.00000036 </i>
    <i name="bandstr">   -189.57186393 </i>
    <i name="atom">    588.62352690 </i>
    <i name="e_fr_energy">    -36.88245065 </i>
    <i name="e_wo_entrp">    -36.88245029 </i>
    <i name="e_0_energy">    -36.88245047 </i>
   </energy>
  </scstep>
  <structure>
   <crystal>
    <varray name="basis" >
     <v>       4.25861795       0.00000000       0.00000000 </v>
     <v>       0.00000000       2.51652435       0.00000000 </v>
     <v>       0.00000000       0.00000000      19.67337489 </v>
    </varray>
    <i name="volume">    210.83790140 </i>
    <varray name="rec_basis" >
     <v>       0.23481796       0.00000000       0.00000000 </v>
     <v>       0.00000000       0.39737347       0.00000000 </v>
     <v>       0.00000000       0.00000000       0.05083012 </v>
    </varray>
   </crystal>
   <varray name="positions" >
    <v>       0.00050674       0.00000000      -0.00000000 </v>
    <v>       0.16615993       0.50000000       0.00000000 </v>
    <v>       0.50050674       0.50000000      -0.00000000 </v>
    <v>       0.66615993      -0.00000000       0.00000000 </v>
   </varray>
  </structure>
  <varray name="forces" >
   <v>       0.00443875      -0.00000000       0.00000000 </v>
   <v>      -0.00443875      -0.00000000       0.00000000 </v>
   <v>       0.00443875       0.00000000       0.00000000 </v>
   <v>      -0.00443875      -0.00000000       0.00000000 </v>
  </varray>
  <varray name="stress" >
   <v>       0.01324233       0.00000000       0.00000000 </v>
   <v>       0.00000000     -32.91038341       0.00000000 </v>
   <v>       0.00000000       0.00000000      -0.01020783 </v>
  </varray>
  <energy>
   <i name="e_fr_energy">    -36.88245065 </i>
   <i name="e_wo_entrp">    -36.88245047 </i>
   <i name="e_0_energy">     -0.00000036 </i>
  </energy>
  <time name="totalsc"> 3330.02 3349.66</time>
 </calculation>
 <calculation>
  <scstep>
   <time name="dav">  340.28  342.36</time>
   <time name="total">  376.61  378.84</time>
   <energy>
    <i name="alphaZ">      6.18334092 </i>
    <i name="ewald">   2477.04495432 </i>
    <i name="hartreedc">  -2971.26292930 </i>
    <i name="XCdc">     57.21901999 </i>
    <i name="pawpsdc">    270.47459608 </i>
    <i name="pawaedc">   -275.59352964 </i>
    <i name="eentropy">     -0.00000038 </i>
    <i name="bandstr">   -189.57142991 </i>
    <i name="atom">    588.62352690 </i>
    <i name="e_fr_energy">    -36.88245103 </i>
    <i name="e_wo_entrp">    -36.88245065 </i>
    <i name="e_0_energy">    -36.88245084 </i>
   </energy>
  </scstep>
  <scstep>
   <time name="diag">   86.94   87.09</time>
   <time name="diis">  351.58  352.59</time>
   <time name="orth">    3.07    3.07</time>
   <time name="total">  477.97  479.23</time>
   <energy>
    <i name="e_fr_energy">    -36.88245104 </i>
    <i name="e_wo_entrp">    -36.88245066 </i>
    <i name="e_0_energy">    -36.88245085 </i>
   </energy>
  </scstep>
  <scstep>
   <time name="diag">   86.90   87.12</time>
   <time name="diis">  355.65  356.28</time>
   <time name="orth">    3.09    3.11</time>
   <time name="total">  482.16  483.06</time>
   <energy>
    <i name="e_fr_energy">    -36.88245103 </i>
    <i name="e_wo_entrp">    -36.88245064 </i>
    <i name="e_0_energy">    -36.88245083 </i>
   </energy>
  </scstep>
  <scstep>
   <time name="diag">   86.92   87.16</time>
   <time name="diis">  359.40  360.94</time>
   <time name="orth">    3.07    3.07</time>
   <time name="total">  485.67  487.79</time>
   <energy>
    <i name="e_fr_energy">    -36.88245103 </i>
    <i name="e_wo_entrp">    -36.88245064 </i>
    <i name="e_0_energy">    -36.88245083 </i>
   </energy>
  </scstep>
  <scstep>
   <time name="diag">   86.40   87.18</time>
   <time name="diis">  250.71  252.80</time>
   <time name="orth">    3.07    3.07</time>
   <time name="total">  376.45  379.65</time>
   <energy>
    <i name="e_fr_energy">    -36.88245102 </i>
    <i name="e_wo_entrp">    -36.88245064 </i>
    <i name="e_0_energy">    -36.88245083 </i>
   </energy>
  </scstep>
  <scstep>
   <time name="diag">   86.82   87.12</time>
   <time name="diis">  234.27  235.28</time>
   <time name="orth">    3.06    3.09</time>
   <time name="total">  326.87  328.26</time>
   <energy>
    <i name="alphaZ">      6.18334092 </i>
    <i name="ewald">   2477.04495432 </i>
    <i name="hartreedc">  -2971.26265699 </i>
    <i name="XCdc">     57.21900794 </i>
    <i name="pawpsdc">    270.47333808 </i>
    <i name="pawaedc">   -275.59226621 </i>
    <i name="eentropy">     -0.00000038 </i>
    <i name="bandstr">   -189.57169561 </i>
    <i name="atom">    588.62352690 </i>
    <i name="e_fr_energy">    -36.88245102 </i>
    <i name="e_wo_entrp">    -36.88245064 </i>
    <i name="e_0_energy">    -36.88245083 </i>
   </energy>
  </scstep>
  <structure>
   <crystal>
    <varray name="basis" >
     <v>       4.25861795       0.00000000       0.00000000 </v>
     <v>       0.00000000       2.51652435       0.00000000 </v>
     <v>       0.00000000       0.00000000      19.67337489 </v>
    </varray>
    <i name="volume">    210.83790140 </i>
    <varray name="rec_basis" >
     <v>       0.23481796       0.00000000       0.00000000 </v>
     <v>       0.00000000       0.39737347       0.00000000 </v>
     <v>       0.00000000       0.00000000       0.05083012 </v>
    </varray>
   </crystal>
   <varray name="positions" >
    <v>       0.00051672       0.00000000      -0.00000000 </v>
    <v>       0.16614995       0.50000000       0.00000000 </v>
    <v>       0.50051672       0.50000000      -0.00000000 </v>
    <v>       0.66614995      -0.00000000       0.00000000 </v>
   </varray>
  </structure>
  <varray name="forces" >
   <v>       0.00000772       0.00000000       0.00000000 </v>
   <v>      -0.00000772      -0.00000000      -0.00000000 </v>
   <v>       0.00000772      -0.00000000       0.00000000 </v>
   <v>      -0.00000772       0.00000000      -0.00000000 </v>
  </varray>
  <varray name="stress" >
   <v>      -0.00375896       0.00000000       0.00000000 </v>
   <v>       0.00000000     -32.89904322       0.00000000 </v>
   <v>       0.00000000       0.00000000      -0.01026288 </v>
  </varray>
  <energy>
   <i name="e_fr_energy">    -36.88245102 </i>
   <i name="e_wo_entrp">    -36.88245083 </i>
   <i name="e_0_energy">     -0.00000038 </i>
  </energy>
  <time name="totalsc"> 2629.76 2641.69</time>
 </calculation>
 <calculation>
  <scstep>
   <time name="dav">  275.50  277.09</time>
   <time name="total">  311.68  313.68</time>
   <energy>
    <i name="alphaZ">      6.18334092 </i>
    <i name="ewald">   2477.04495306 </i>
    <i name="hartreedc">  -2971.26264979 </i>
    <i name="XCdc">     57.21900770 </i>
    <i name="pawpsdc">    270.47333390 </i>
    <i name="pawaedc">   -275.59226196 </i>
    <i name="eentropy">     -0.00000038 </i>
    <i name="bandstr">   -189.57170137 </i>
    <i name="atom">    588.62352690 </i>
    <i name="e_fr_energy">    -36.88245102 </i>
    <i name="e_wo_entrp">    -36.88245064 </i>
    <i name="e_0_energy">    -36.88245083 </i>
   </energy>
  </scstep>
  <scstep>
   <time name="diag">   87.02   87.23</time>
   <time name="diis">  199.49  199.56</time>
   <time name="orth">    3.09    3.09</time>
   <time name="total">  324.51  324.80</time>
   <energy>
    <i name="e_fr_energy">    -36.88245102 </i>
    <i name="e_wo_entrp">    -36.88245064 </i>
    <i name="e_0_energy">    -36.88245083 </i>
   </energy>
  </scstep>
  <scstep>
   <time name="diag">   87.14   87.17</time>
   <time name="diis">  194.91  194.97</time>
   <time name="orth">    3.07    3.07</time>
   <time name="total">  320.33  320.43</time>
   <energy>
    <i name="e_fr_energy">    -36.88245102 </i>
    <i name="e_wo_entrp">    -36.88245064 </i>
    <i name="e_0_energy">    -36.88245083 </i>
   </energy>
  </scstep>
  <scstep>
   <time name="diag">   87.24   87.26</time>
   <time name="diis">  186.53  186.57</time>
   <time name="orth">    3.09    3.09</time>
   <time name="total">  312.18  312.26</time>
   <energy>
    <i name="e_fr_energy">    -36.88245102 </i>
    <i name="e_wo_entrp">    -36.88245064 </i>
    <i name="e_0_energy">    -36.88245083 </i>
   </energy>
  </scstep>
  <scstep>
   <time name="diag">   87.24   87.27</time>
   <time name="diis">  182.57  182.60</time>
   <time name="orth">    3.07    3.07</time>
   <time name="total">  308.26  308.42</time>
   <energy>
    <i name="e_fr_energy">    -36.88245102 </i>
    <i name="e_wo_entrp">    -36.88245064 </i>
    <i name="e_0_energy">    -36.88245083 </i>
   </energy>
  </scstep>
  <scstep>
   <time name="diag">   87.23   87.27</time>
   <time name="diis">  178.07  178.12</time>
   <time name="orth">    3.10    3.10</time>
   <time name="total">  304.25  304.34</time>
   <energy>
    <i name="e_fr_energy">    -36.88245102 </i>
    <i name="e_wo_entrp">    -36.88245064 </i>
    <i name="e_0_energy">    -36.88245083 </i>
   </energy>
  </scstep>
  <scstep>
   <time name="diag">   87.17   87.20</time>
   <time name="diis">  173.75  173.78</time>
   <time name="orth">    3.11    3.11</time>
   <time name="total">  266.72  267.02</time>
   <energy>
    <i name="alphaZ">      6.18334092 </i>
    <i name="ewald">   2477.04495306 </i>
    <i name="hartreedc">  -2971.26263160 </i>
    <i name="XCdc">     57.21900752 </i>
    <i name="pawpsdc">    270.47333971 </i>
    <i name="pawaedc">   -275.59226777 </i>
    <i name="eentropy">     -0.00000038 </i>
    <i name="bandstr">   -189.57171939 </i>
    <i name="atom">    588.62352690 </i>
    <i name="e_fr_energy">    -36.88245102 </i>
    <i name="e_wo_entrp">    -36.88245064 </i>
    <i name="e_0_energy">    -36.88245083 </i>
   </energy>
  </scstep>
  <structure>
   <crystal>
    <varray name="basis" >
     <v>       4.25861795       0.00000000       0.00000000 </v>
     <v>       0.00000000       2.51652435       0.00000000 </v>
     <v>       0.00000000       0.00000000      19.67337489 </v>
    </varray>
    <i name="volume">    210.83790140 </i>
    <varray name="rec_basis" >
     <v>       0.23481796       0.00000000       0.00000000 </v>
     <v>       0.00000000       0.39737347       0.00000000 </v>
     <v>       0.00000000       0.00000000       0.05083012 </v>
    </varray>
   </crystal>
   <varray name="positions" >
    <v>       0.00051674       0.00000000       0.00000000 </v>
    <v>       0.16614993       0.50000000      -0.00000000 </v>
    <v>       0.50051674       0.50000000       0.00000000 </v>
    <v>       0.66614993      -0.00000000      -0.00000000 </v>
   </varray>
  </structure>
  <varray name="forces" >
   <v>      -0.00001120      -0.00000000       0.00000000 </v>
   <v>       0.00001120       0.00000000       0.00000000 </v>
   <v>      -0.00001120       0.00000000       0.00000000 </v>
   <v>       0.00001120      -0.00000000       0.00000000 </v>
  </varray>
  <varray name="stress" >
   <v>      -0.00392856       0.00000000       0.00000000 </v>
   <v>       0.00000000     -32.89887917       0.00000000 </v>
   <v>       0.00000000       0.00000000      -0.01023675 </v>
  </varray>
  <energy>
   <i name="e_fr_energy">    -36.88245102 </i>
   <i name="e_wo_entrp">    -36.88245083 </i>
   <i name="e_0_energy">     -0.00000038 </i>
  </energy>
  <time name="totalsc"> 2252.01 2255.18</time>
 </calculation>
 <calculation>
  <scstep>
   <time name="dav">  263.78  263.88</time>
   <time name="total">  300.33  300.44</time>
   <energy>
    <i name="alphaZ">      6.18334092 </i>
    <i name="ewald">   2477.04495380 </i>
    <i name="hartreedc">  -2971.26263190 </i>
    <i name="XCdc">     57.21900754 </i>
    <i name="pawpsdc">    270.47333974 </i>
    <i name="pawaedc">   -275.59226779 </i>
    <i name="eentropy">     -0.00000038 </i>
    <i name="bandstr">   -189.57171986 </i>
    <i name="atom">    588.62352690 </i>
    <i name="e_fr_energy">    -36.88245102 </i>
    <i name="e_wo_entrp">    -36.88245064 </i>
    <i name="e_0_energy">    -36.88245083 </i>
   </energy>
  </scstep>
  <scstep>
   <time name="diag">   87.04   87.07</time>
   <time name="diis">  164.27  164.30</time>
   <time name="orth">    3.07    3.07</time>
   <time name="total">  290.92  290.99</time>
   <energy>
    <i name="e_fr_energy">    -36.88245102 </i>
    <i name="e_wo_entrp">    -36.88245064 </i>
    <i name="e_0_energy">    -36.88245083 </i>
   </energy>
  </scstep>
  <scstep>
   <time name="diag">   87.09   87.12</time>
   <time name="diis">  162.78  162.91</time>
   <time name="orth">    3.07    3.07</time>
   <time name="total">  289.39  289.65</time>
   <energy>
    <i name="e_fr_energy">    -36.88245102 </i>
    <i name="e_wo_entrp">    -36.88245064 </i>
    <i name="e_0_energy">    -36.88245083 </i>
   </energy>
  </scstep>
  <scstep>
   <time name="diag">   87.01   87.03</time>
   <time name="diis">  161.90  161.94</time>
   <time name="orth">    3.09    3.09</time>
   <time name="total">  288.38  288.59</time>
   <energy>
    <i name="e_fr_energy">    -36.88245102 </i>
    <i name="e_wo_entrp">    -36.88245064 </i>
    <i name="e_0_energy">    -36.88245083 </i>
   </energy>
  </scstep>
  <scstep>
   <time name="diag">   86.73   87.18</time>
   <time name="diis">  160.11  160.26</time>
   <time name="orth">    3.17    3.17</time>
   <time name="total">  286.55  287.16</time>
   <energy>
    <i name="e_fr_energy">    -36.88245102 </i>
    <i name="e_wo_entrp">    -36.88245064 </i>
    <i name="e_0_energy">    -36.88245083 </i>
   </energy>
  </scstep>
  <scstep>
   <time name="diag">   87.08   87.11</time>
   <time name="diis">  155.32  155.36</time>
   <time name="orth">    3.09    3.09</time>
   <time name="total">  248.27  248.33</time>
   <energy>
    <i name="alphaZ">      6.18334092 </i>
    <i name="ewald">   2477.04495380 </i>
    <i name="hartreedc">  -2971.26263417 </i>
    <i name="XCdc">     57.21900763 </i>
    <i name="pawpsdc">    270.47334266 </i>
    <i name="pawaedc">   -275.59227073 </i>
    <i name="eentropy">     -0.00000038 </i>
    <i name="bandstr">   -189.57171765 </i>
    <i name="atom">    588.62352690 </i>
    <i name="e_fr_energy">    -36.88245102 </i>
    <i name="e_wo_entrp">    -36.88245064 </i>
    <i name="e_0_energy">    -36.88245083 </i>
   </energy>
  </scstep>
  <structure>
   <crystal>
    <varray name="basis" >
     <v>       4.25861795       0.00000000       0.00000000 </v>
     <v>       0.00000000       2.51652435       0.00000000 </v>
     <v>       0.00000000       0.00000000      19.67337489 </v>
    </varray>
    <i name="volume">    210.83790140 </i>
    <varray name="rec_basis" >
     <v>       0.23481796       0.00000000       0.00000000 </v>
     <v>       0.00000000       0.39737347       0.00000000 </v>
     <v>       0.00000000       0.00000000       0.05083012 </v>
    </varray>
   </crystal>
   <varray name="positions" >
    <v>       0.00051673       0.00000000       0.00000000 </v>
    <v>       0.16614994       0.50000000      -0.00000000 </v>
    <v>       0.50051673       0.50000000       0.00000000 </v>
    <v>       0.66614994      -0.00000000      -0.00000000 </v>
   </varray>
  </structure>
  <varray name="forces" >
   <v>      -0.00000126       0.00000000      -0.00000000 </v>
   <v>       0.00000126      -0.00000000       0.00000000 </v>
   <v>      -0.00000126      -0.00000000      -0.00000000 </v>
   <v>       0.00000126       0.00000000       0.00000000 </v>
  </varray>
  <varray name="stress" >
   <v>      -0.00388208       0.00000000       0.00000000 </v>
   <v>       0.00000000     -32.89892375       0.00000000 </v>
   <v>       0.00000000       0.00000000      -0.01022329 </v>
  </varray>
  <energy>
   <i name="e_fr_energy">    -36.88245102 </i>
   <i name="e_wo_entrp">    -36.88245083 </i>
   <i name="e_0_energy">     -0.00000038 </i>
  </energy>
  <time name="totalsc"> 1810.58 1812.97</time>
 </calculation>
 <calculation>
  <scstep>
   <time name="dav">  278.80  278.91</time>
   <time name="total">  315.40  315.52</time>
   <energy>
    <i name="alphaZ">      6.18334092 </i>
    <i name="ewald">   2477.04495390 </i>
    <i name="hartreedc">  -2971.26263429 </i>
    <i name="XCdc">     57.21900763 </i>
    <i name="pawpsdc">    270.47334265 </i>
    <i name="pawaedc">   -275.59227073 </i>
    <i name="eentropy">     -0.00000038 </i>
    <i name="bandstr">   -189.57171763 </i>
    <i name="atom">    588.62352690 </i>
    <i name="e_fr_energy">    -36.88245102 </i>
    <i name="e_wo_entrp">    -36.88245064 </i>
    <i name="e_0_energy">    -36.88245083 </i>
   </energy>
  </scstep>
  <scstep>
   <time name="diag">   87.08   87.15</time>
   <time name="diis">  145.47  145.59</time>
   <time name="orth">    3.06    3.07</time>
   <time name="total">  272.14  272.37</time>
   <energy>
    <i name="e_fr_energy">    -36.88245102 </i>
    <i name="e_wo_entrp">    -36.88245064 </i>
    <i name="e_0_energy">    -36.88245083 </i>
   </energy>
  </scstep>
  <scstep>
   <time name="diag">   87.11   87.13</time>
   <time name="diis">  144.51  144.54</time>
   <time name="orth">    3.08    3.08</time>
   <time name="total">  271.15  271.47</time>
   <energy>
    <i name="e_fr_energy">    -36.88245102 </i>
    <i name="e_wo_entrp">    -36.88245064 </i>
    <i name="e_0_energy">    -36.88245083 </i>
   </energy>
  </scstep>
  <scstep>
   <time name="diag">   87.07   87.09</time>
   <time name="diis">  129.61  129.63</time>
   <time name="orth">    3.11    3.11</time>
   <time name="total">  256.29  256.37</time>
   <energy>
    <i name="e_fr_energy">    -36.88245102 </i>
    <i name="e_wo_entrp">    -36.88245064 </i>
    <i name="e_0_energy">    -36.88245083 </i>
   </energy>
  </scstep>
  <scstep>
   <time name="diag">   87.11   87.14</time>
   <time name="diis">  133.40  133.43</time>
   <time name="orth">    3.09    3.09</time>
   <time name="total">  226.34  226.41</time>
   <energy>
    <i name="alphaZ">      6.18334092 </i>
    <i name="ewald">   2477.04495390 </i>
    <i name="hartreedc">  -2971.26263390 </i>
    <i name="XCdc">     57.21900762 </i>
    <i name="pawpsdc">    270.47334246 </i>
    <i name="pawaedc">   -275.59227054 </i>
    <i name="eentropy">     -0.00000038 </i>
    <i name="bandstr">   -189.57171801 </i>
    <i name="atom">    588.62352690 </i>
    <i name="e_fr_energy">    -36.88245102 </i>
    <i name="e_wo_entrp">    -36.88245064 </i>
    <i name="e_0_energy">    -36.88245083 </i>
   </energy>
  </scstep>
  <structure>
   <crystal>
    <varray name="basis" >
     <v>       4.25861795       0.00000000       0.00000000 </v>
     <v>       0.00000000       2.51652435       0.00000000 </v>
     <v>       0.00000000       0.00000000      19.67337489 </v>
    </varray>
    <i name="volume">    210.83790140 </i>
    <varray name="rec_basis" >
     <v>       0.23481796       0.00000000       0.00000000 </v>
     <v>       0.00000000       0.39737347       0.00000000 </v>
     <v>       0.00000000       0.00000000       0.05083012 </v>
    </varray>
   </crystal>
   <varray name="positions" >
    <v>       0.00051673       0.00000000      -0.00000000 </v>
    <v>       0.16614994       0.50000000       0.00000000 </v>
    <v>       0.50051673       0.50000000      -0.00000000 </v>
    <v>       0.66614994       0.00000000       0.00000000 </v>
   </varray>
  </structure>
  <varray name="forces" >
   <v>      -0.00000143      -0.00000000       0.00000000 </v>
   <v>       0.00000143       0.00000000      -0.00000000 </v>
   <v>      -0.00000143       0.00000000       0.00000000 </v>
   <v>       0.00000143      -0.00000000      -0.00000000 </v>
  </varray>
  <varray name="stress" >
   <v>      -0.00388522       0.00000000       0.00000000 </v>
   <v>       0.00000000     -32.89891704       0.00000000 </v>
   <v>       0.00000000       0.00000000      -0.01022845 </v>
  </varray>
  <energy>
   <i name="e_fr_energy">    -36.88245102 </i>
   <i name="e_wo_entrp">    -36.88245083 </i>
   <i name="e_0_energy">     -0.00000038 </i>
  </energy>
  <time name="totalsc"> 1447.81 1448.81</time>
 </calculation>
 <calculation>
  <scstep>
   <time name="dav">  256.77  256.86</time>
   <time name="total">  293.36  293.45</time>
   <energy>
    <i name="alphaZ">      6.18334092 </i>
    <i name="ewald">   2477.04495310 </i>
    <i name="hartreedc">  -2971.26263354 </i>
    <i name="XCdc">     57.21900759 </i>
    <i name="pawpsdc">    270.47334246 </i>
    <i name="pawaedc">   -275.59227054 </i>
    <i name="eentropy">     -0.00000038 </i>
    <i name="bandstr">   -189.57171754 </i>
    <i name="atom">    588.62352690 </i>
    <i name="e_fr_energy">    -36.88245102 </i>
    <i name="e_wo_entrp">    -36.88245064 </i>
    <i name="e_0_energy">    -36.88245083 </i>
   </energy>
  </scstep>
  <scstep>
   <time name="diag">   87.13   87.16</time>
   <time name="diis">  126.17  126.19</time>
   <time name="orth">    3.10    3.10</time>
   <time name="total">  252.96  253.02</time>
   <energy>
    <i name="e_fr_energy">    -36.88245102 </i>
    <i name="e_wo_entrp">    -36.88245064 </i>
    <i name="e_0_energy">    -36.88245083 </i>
   </energy>
  </scstep>
  <scstep>
   <time name="diag">   87.27   87.32</time>
   <time name="diis">  138.75  138.78</time>
   <time name="orth">    3.09    3.09</time>
   <time name="total">  265.72  265.82</time>
   <energy>
    <i name="e_fr_energy">    -36.88245102 </i>
    <i name="e_wo_entrp">    -36.88245064 </i>
    <i name="e_0_energy">    -36.88245083 </i>
   </energy>
  </scstep>
  <scstep>
   <time name="diag">   87.28   87.30</time>
   <time name="diis">  125.65  125.69</time>
   <time name="orth">    3.07    3.07</time>
   <time name="total">  252.60  252.67</time>
   <energy>
    <i name="e_fr_energy">    -36.88245102 </i>
    <i name="e_wo_entrp">    -36.88245064 </i>
    <i name="e_0_energy">    -36.88245083 </i>
   </energy>
  </scstep>
  <scstep>
   <time name="diag">   87.20   87.27</time>
   <time name="diis">  127.42  127.51</time>
   <time name="orth">    3.06    3.07</time>
   <time name="total">  254.27  254.47</time>
   <energy>
    <i name="e_fr_energy">    -36.88245102 </i>
    <i name="e_wo_entrp">    -36.88245064 </i>
    <i name="e_0_energy">    -36.88245083 </i>
   </energy>
  </scstep>
  <scstep>
   <time name="diag">   87.20   87.25</time>
   <time name="diis">  124.46  124.52</time>
   <time name="orth">    3.09    3.09</time>
   <time name="total">  251.34  251.45</time>
   <energy>
    <i name="e_fr_energy">    -36.88245102 </i>
    <i name="e_wo_entrp">    -36.88245064 </i>
    <i name="e_0_energy">    -36.88245083 </i>
   </energy>
  </scstep>
  <scstep>
   <time name="diag">   87.17   87.19</time>
   <time name="diis">  116.63  116.66</time>
   <time name="orth">    3.13    3.13</time>
   <time name="total">  209.67  209.73</time>
   <energy>
    <i name="alphaZ">      6.18334092 </i>
    <i name="ewald">   2477.04495310 </i>
    <i name="hartreedc">  -2971.26263335 </i>
    <i name="XCdc">     57.21900759 </i>
    <i name="pawpsdc">    270.47334017 </i>
    <i name="pawaedc">   -275.59226823 </i>
    <i name="eentropy">     -0.00000038 </i>
    <i name="bandstr">   -189.57171773 </i>
    <i name="atom">    588.62352690 </i>
    <i name="e_fr_energy">    -36.88245102 </i>
    <i name="e_wo_entrp">    -36.88245064 </i>
    <i name="e_0_energy">    -36.88245083 </i>
   </energy>
  </scstep>
  <structure>
   <crystal>
    <varray name="basis" >
     <v>       4.25861795       0.00000000       0.00000000 </v>
     <v>       0.00000000       2.51652435       0.00000000 </v>
     <v>       0.00000000       0.00000000      19.67337489 </v>
    </varray>
    <i name="volume">    210.83790140 </i>
    <varray name="rec_basis" >
     <v>       0.23481796       0.00000000       0.00000000 </v>
     <v>       0.00000000       0.39737347       0.00000000 </v>
     <v>       0.00000000       0.00000000       0.05083012 </v>
    </varray>
   </crystal>
   <varray name="positions" >
    <v>       0.00051674       0.00000000      -0.00000000 </v>
    <v>       0.16614993       0.50000000       0.00000000 </v>
    <v>       0.50051674       0.50000000      -0.00000000 </v>
    <v>       0.66614993       0.00000000       0.00000000 </v>
   </varray>
  </structure>
  <varray name="forces" >
   <v>      -0.00000743      -0.00000000      -0.00000000 </v>
   <v>       0.00000743       0.00000000       0.00000000 </v>
   <v>      -0.00000743       0.00000000      -0.00000000 </v>
   <v>       0.00000743      -0.00000000       0.00000000 </v>
  </varray>
  <varray name="stress" >
   <v>      -0.00390502       0.00000000       0.00000000 </v>
   <v>       0.00000000     -32.89890208       0.00000000 </v>
   <v>       0.00000000       0.00000000      -0.01022638 </v>
  </varray>
  <energy>
   <i name="e_fr_energy">    -36.88245102 </i>
   <i name="e_wo_entrp">    -36.88245083 </i>
   <i name="e_0_energy">     -0.00000038 </i>
  </energy>
  <time name="totalsc"> 1884.48 1885.31</time>
 </calculation>
 <calculation>
  <scstep>
   <time name="dav">  232.51  232.98</time>
   <time name="total">  268.88  269.55</time>
   <energy>
    <i name="alphaZ">      6.18334092 </i>
    <i name="ewald">   2477.04495409 </i>
    <i name="hartreedc">  -2971.26263378 </i>
    <i name="XCdc">     57.21900761 </i>
    <i name="pawpsdc">    270.47334016 </i>
    <i name="pawaedc">   -275.59226823 </i>
    <i name="eentropy">     -0.00000038 </i>
    <i name="bandstr">   -189.57171833 </i>
    <i name="atom">    588.62352690 </i>
    <i name="e_fr_energy">    -36.88245102 </i>
    <i name="e_wo_entrp">    -36.88245064 </i>
    <i name="e_0_energy">    -36.88245083 </i>
   </energy>
  </scstep>
  <scstep>
   <time name="diag">   86.79   87.25</time>
   <time name="diis">  122.65  122.73</time>
   <time name="orth">    3.07    3.07</time>
   <time name="total">  249.10  249.67</time>
   <energy>
    <i name="e_fr_energy">    -36.88245102 </i>
    <i name="e_wo_entrp">    -36.88245064 </i>
    <i name="e_0_energy">    -36.88245083 </i>
   </energy>
  </scstep>
  <scstep>
   <time name="diag">   87.24   87.26</time>
   <time name="diis">  118.84  118.87</time>
   <time name="orth">    3.09    3.09</time>
   <time name="total">  245.69  245.86</time>
   <energy>
    <i name="e_fr_energy">    -36.88245102 </i>
    <i name="e_wo_entrp">    -36.88245064 </i>
    <i name="e_0_energy">    -36.88245083 </i>
   </energy>
  </scstep>
  <scstep>
   <time name="diag">   87.27   87.30</time>
   <time name="diis">  112.86  112.88</time>
   <time name="orth">    3.09    3.09</time>
   <time name="total">  239.80  239.85</time>
   <energy>
    <i name="e_fr_energy">    -36.88245102 </i>
    <i name="e_wo_entrp">    -36.88245064 </i>
    <i name="e_0_energy">    -36.88245083 </i>
   </energy>
  </scstep>
  <scstep>
   <time name="diag">   87.27   87.32</time>
   <time name="diis">  112.55  112.98</time>
   <time name="orth">    3.07    3.09</time>
   <time name="total">  239.32  240.01</time>
   <energy>
    <i name="e_fr_energy">    -36.88245102 </i>
    <i name="e_wo_entrp">    -36.88245064 </i>
    <i name="e_0_energy">    -36.88245083 </i>
   </energy>
  </scstep>
  <scstep>
   <time name="diag">   87.17   87.23</time>
   <time name="diis">  108.90  109.12</time>
   <time name="orth">    3.10    3.10</time>
   <time name="total">  201.92  202.21</time>
   <energy>
    <i name="alphaZ">      6.18334092 </i>
[...]
       <r>   -9.0477    1.0000 </r>
       <r>   -5.6504    1.0000 </r>
       <r>   -5.6504    1.0000 </r>
       <r>   -0.5430    0.0000 </r>
       <r>   -0.5430    0.0000 </r>
       <r>    4.8169    0.0000 </r>
       <r>    4.8169    0.0000 </r>
      </set>
      <set comment="kpoint 209">
       <r>  -18.8395    1.0000 </r>
       <r>  -17.1316    1.0000 </r>
       <r>  -13.8985    1.0000 </r>
       <r>  -12.3339    1.0000 </r>
       <r>  -12.3285    1.0000 </r>
       <r>  -10.8569    1.0000 </r>
       <r>   -6.4830    1.0000 </r>
       <r>   -4.6650    1.0000 </r>
       <r>   -0.9947    0.0000 </r>
       <r>    1.0820    0.0000 </r>
       <r>    5.0754    0.0000 </r>
       <r>    5.8644    0.0000 </r>
      </set>
      <set comment="kpoint 210">
       <r>  -18.8297    1.0000 </r>
       <r>  -17.1241    1.0000 </r>
       <r>  -13.9898    1.0000 </r>
       <r>  -12.4144    1.0000 </r>
       <r>  -12.2343    1.0000 </r>
       <r>  -10.7727    1.0000 </r>
       <r>   -6.4742    1.0000 </r>
       <r>   -4.6672    1.0000 </r>
       <r>   -1.0056    0.0000 </r>
       <r>    1.0561    0.0000 </r>
       <r>    5.0891    0.0000 </r>
       <r>    5.8806    0.0000 </r>
      </set>
      <set comment="kpoint 211">
       <r>  -18.8005    1.0000 </r>
       <r>  -17.1019    1.0000 </r>
       <r>  -14.2132    1.0000 </r>
       <r>  -12.6283    1.0000 </r>
       <r>  -11.9859    1.0000 </r>
       <r>  -10.5646    1.0000 </r>
       <r>   -6.4478    1.0000 </r>
       <r>   -4.6743    1.0000 </r>
       <r>   -1.0364    0.0000 </r>
       <r>    0.9803    0.0000 </r>
       <r>    5.1301    0.0000 </r>
       <r>    5.9288    0.0000 </r>
      </set>
      <set comment="kpoint 212">
       <r>  -18.7519    1.0000 </r>
       <r>  -17.0664    1.0000 </r>
       <r>  -14.4947    1.0000 </r>
       <r>  -12.9049    1.0000 </r>
       <r>  -11.6629    1.0000 </r>
       <r>  -10.2998    1.0000 </r>
       <r>   -6.4042    1.0000 </r>
       <r>   -4.6879    1.0000 </r>
       <r>   -1.0818    0.0000 </r>
       <r>    0.8601    0.0000 </r>
       <r>    5.1982    0.0000 </r>
       <r>    6.0079    0.0000 </r>
      </set>
      <set comment="kpoint 213">
       <r>  -18.6841    1.0000 </r>
       <r>  -17.0203    1.0000 </r>
       <r>  -14.7913    1.0000 </r>
       <r>  -13.2066    1.0000 </r>
       <r>  -11.3079    1.0000 </r>
       <r>  -10.0195    1.0000 </r>
       <r>   -6.3439    1.0000 </r>
       <r>   -4.7103    1.0000 </r>
       <r>   -1.1338    0.0000 </r>
       <r>    0.7034    0.0000 </r>
       <r>    5.2925    0.0000 </r>
       <r>    6.1166    0.0000 </r>
      </set>
      <set comment="kpoint 214">
       <r>  -18.5973    1.0000 </r>
       <r>  -16.9687    1.0000 </r>
       <r>  -15.0794    1.0000 </r>
       <r>  -13.5153    1.0000 </r>
       <r>  -10.9427    1.0000 </r>
       <r>   -9.7463    1.0000 </r>
       <r>   -6.2676    1.0000 </r>
       <r>   -4.7444    1.0000 </r>
       <r>   -1.1831    0.0000 </r>
       <r>    0.5191    0.0000 </r>
       <r>    5.4095    0.0000 </r>
       <r>    6.1823    0.0000 </r>
      </set>
      <set comment="kpoint 215">
       <r>  -18.4920    1.0000 </r>
       <r>  -16.9212    1.0000 </r>
       <r>  -15.3406    1.0000 </r>
       <r>  -13.8215    1.0000 </r>
       <r>  -10.5808    1.0000 </r>
       <r>   -9.4957    1.0000 </r>
       <r>   -6.1765    1.0000 </r>
       <r>   -4.7931    1.0000 </r>
       <r>   -1.2201    0.0000 </r>
       <r>    0.3164    0.0000 </r>
       <r>    5.5131    0.0000 </r>
       <r>    5.7839    0.0000 </r>
      </set>
      <set comment="kpoint 216">
       <r>  -18.3686    1.0000 </r>
       <r>  -16.8951    1.0000 </r>
       <r>  -15.5525    1.0000 </r>
       <r>  -14.1197    1.0000 </r>
       <r>  -10.2327    1.0000 </r>
       <r>   -9.2797    1.0000 </r>
       <r>   -6.0718    1.0000 </r>
       <r>   -4.8585    1.0000 </r>
       <r>   -1.2362    0.0000 </r>
       <r>    0.1038    0.0000 </r>
       <r>    5.3031    0.0000 </r>
       <r>    5.7901    0.0000 </r>
      </set>
      <set comment="kpoint 217">
       <r>  -18.2278    1.0000 </r>
       <r>  -16.9160    1.0000 </r>
       <r>  -15.6869    1.0000 </r>
       <r>  -14.4060    1.0000 </r>
       <r>   -9.9078    1.0000 </r>
       <r>   -9.1090    1.0000 </r>
       <r>   -5.9552    1.0000 </r>
       <r>   -4.9418    1.0000 </r>
       <r>   -1.2251    0.0000 </r>
       <r>   -0.1111    0.0000 </r>
       <r>    5.0102    0.0000 </r>
       <r>    5.8308    0.0000 </r>
      </set>
      <set comment="kpoint 218">
       <r>  -18.0707    1.0000 </r>
       <r>  -17.0034    1.0000 </r>
       <r>  -15.7223    1.0000 </r>
       <r>  -14.6772    1.0000 </r>
       <r>   -9.6157    1.0000 </r>
       <r>   -8.9927    1.0000 </r>
       <r>   -5.8289    1.0000 </r>
       <r>   -5.0422    1.0000 </r>
       <r>   -1.1827    0.0000 </r>
       <r>   -0.3212    0.0000 </r>
       <r>    4.7915    0.0000 </r>
       <r>    5.4314    0.0000 </r>
      </set>
      <set comment="kpoint 219">
       <r>  -17.8990    1.0000 </r>
       <r>  -17.1499    1.0000 </r>
       <r>  -15.6651    1.0000 </r>
       <r>  -14.9304    1.0000 </r>
       <r>   -9.3655    1.0000 </r>
       <r>   -8.9377    1.0000 </r>
       <r>   -5.6954    1.0000 </r>
       <r>   -5.1577    1.0000 </r>
       <r>   -1.1077    0.0000 </r>
       <r>   -0.5204    0.0000 </r>
       <r>    4.6627    0.0000 </r>
       <r>    5.1025    0.0000 </r>
      </set>
      <set comment="kpoint 220">
       <r>  -17.7151    1.0000 </r>
       <r>  -17.3304    1.0000 </r>
       <r>  -15.5398    1.0000 </r>
       <r>  -15.1622    1.0000 </r>
       <r>   -9.1662    1.0000 </r>
       <r>   -8.9482    1.0000 </r>
       <r>   -5.5577    1.0000 </r>
       <r>   -5.2848    1.0000 </r>
       <r>   -1.0010    0.0000 </r>
       <r>   -0.7033    0.0000 </r>
       <r>    4.6300    0.0000 </r>
       <r>    4.8541    0.0000 </r>
      </set>
      <set comment="kpoint 221">
       <r>  -17.5231    1.0000 </r>
       <r>  -17.5231    1.0000 </r>
       <r>  -15.3679    1.0000 </r>
       <r>  -15.3679    1.0000 </r>
       <r>   -9.0253    1.0000 </r>
       <r>   -9.0253    1.0000 </r>
       <r>   -5.4196    1.0000 </r>
       <r>   -5.4196    1.0000 </r>
       <r>   -0.8650    0.0000 </r>
       <r>   -0.8650    0.0000 </r>
       <r>    4.6946    0.0000 </r>
       <r>    4.6946    0.0000 </r>
      </set>
      <set comment="kpoint 222">
       <r>  -18.4352    1.0000 </r>
       <r>  -17.5775    1.0000 </r>
       <r>  -13.5350    1.0000 </r>
       <r>  -12.7492    1.0000 </r>
       <r>  -11.9989    1.0000 </r>
       <r>  -11.2558    1.0000 </r>
       <r>   -6.0415    1.0000 </r>
       <r>   -5.1276    1.0000 </r>
       <r>   -0.5076    0.0000 </r>
       <r>    0.5327    0.0000 </r>
       <r>    5.6504    0.0000 </r>
       <r>    6.4071    0.0000 </r>
      </set>
      <set comment="kpoint 223">
       <r>  -18.4257    1.0000 </r>
       <r>  -17.5689    1.0000 </r>
       <r>  -13.6268    1.0000 </r>
       <r>  -12.8378    1.0000 </r>
       <r>  -11.9015    1.0000 </r>
       <r>  -11.1664    1.0000 </r>
       <r>   -6.0339    1.0000 </r>
       <r>   -5.1249    1.0000 </r>
       <r>   -0.5247    0.0000 </r>
       <r>    0.5088    0.0000 </r>
       <r>    5.6641    0.0000 </r>
       <r>    6.4241    0.0000 </r>
      </set>
      <set comment="kpoint 224">
       <r>  -18.3971    1.0000 </r>
       <r>  -17.5431    1.0000 </r>
       <r>  -13.8523    1.0000 </r>
       <r>  -13.0571    1.0000 </r>
       <r>  -11.6595    1.0000 </r>
       <r>  -10.9451    1.0000 </r>
       <r>   -6.0115    1.0000 </r>
       <r>   -5.1173    1.0000 </r>
       <r>   -0.5740    0.0000 </r>
       <r>    0.4390    0.0000 </r>
       <r>    5.7049    0.0000 </r>
       <r>    6.4747    0.0000 </r>
      </set>
      <set comment="kpoint 225">
       <r>  -18.3496    1.0000 </r>
       <r>  -17.5007    1.0000 </r>
       <r>  -14.1384    1.0000 </r>
       <r>  -13.3389    1.0000 </r>
       <r>  -11.3471    1.0000 </r>
       <r>  -10.6622    1.0000 </r>
       <r>   -5.9746    1.0000 </r>
       <r>   -5.1059    1.0000 </r>
       <r>   -0.6502    0.0000 </r>
       <r>    0.3287    0.0000 </r>
       <r>    5.7725    0.0000 </r>
       <r>    6.5573    0.0000 </r>
      </set>
      <set comment="kpoint 226">
       <r>  -18.2834    1.0000 </r>
       <r>  -17.4427    1.0000 </r>
       <r>  -14.4445    1.0000 </r>
       <r>  -13.6445    1.0000 </r>
       <r>  -11.0065    1.0000 </r>
       <r>  -10.3592    1.0000 </r>
       <r>   -5.9240    1.0000 </r>
       <r>   -5.0925    1.0000 </r>
       <r>   -0.7453    0.0000 </r>
       <r>    0.1857    0.0000 </r>
       <r>    5.8652    0.0000 </r>
       <r>    6.6701    0.0000 </r>
      </set>
      <set comment="kpoint 227">
       <r>  -18.1990    1.0000 </r>
       <r>  -17.3710    1.0000 </r>
       <r>  -14.7505    1.0000 </r>
       <r>  -13.9556    1.0000 </r>
       <r>  -10.6598    1.0000 </r>
       <r>  -10.0586    1.0000 </r>
       <r>   -5.8610    1.0000 </r>
       <r>   -5.0797    1.0000 </r>
       <r>   -0.8496    0.0000 </r>
       <r>    0.0191    0.0000 </r>
       <r>    5.9729    0.0000 </r>
       <r>    6.4529    0.0000 </r>
      </set>
      <set comment="kpoint 228">
       <r>  -18.0970    1.0000 </r>
       <r>  -17.2887    1.0000 </r>
       <r>  -15.0443    1.0000 </r>
       <r>  -14.2625    1.0000 </r>
       <r>  -10.3208    1.0000 </r>
       <r>   -9.7752    1.0000 </r>
       <r>   -5.7870    1.0000 </r>
       <r>   -5.0706    1.0000 </r>
       <r>   -0.9528    0.0000 </r>
       <r>   -0.1617    0.0000 </r>
       <r>    5.8924    0.0000 </r>
       <r>    6.2049    0.0000 </r>
      </set>
      <set comment="kpoint 229">
       <r>  -17.9784    1.0000 </r>
       <r>  -17.2015    1.0000 </r>
       <r>  -15.3153    1.0000 </r>
       <r>  -14.5593    1.0000 </r>
       <r>  -10.0004    1.0000 </r>
       <r>   -9.5210    1.0000 </r>
       <r>   -5.7042    1.0000 </r>
       <r>   -5.0688    1.0000 </r>
       <r>   -1.0447    0.0000 </r>
       <r>   -0.3475    0.0000 </r>
       <r>    5.5041    0.0000 </r>
       <r>    5.9960    0.0000 </r>
      </set>
      <set comment="kpoint 230">
       <r>  -17.8444    1.0000 </r>
       <r>  -17.1199    1.0000 </r>
       <r>  -15.5503    1.0000 </r>
       <r>  -14.8416    1.0000 </r>
       <r>   -9.7087    1.0000 </r>
       <r>   -9.3065    1.0000 </r>
       <r>   -5.6150    1.0000 </r>
       <r>   -5.0778    1.0000 </r>
       <r>   -1.1161    0.0000 </r>
       <r>   -0.5298    0.0000 </r>
       <r>    5.1571    0.0000 </r>
       <r>    5.5689    0.0000 </r>
      </set>
      <set comment="kpoint 231">
       <r>  -17.6976    1.0000 </r>
       <r>  -17.0626    1.0000 </r>
       <r>  -15.7287    1.0000 </r>
       <r>  -15.1052    1.0000 </r>
       <r>   -9.4552    1.0000 </r>
       <r>   -9.1413    1.0000 </r>
       <r>   -5.5224    1.0000 </r>
       <r>   -5.1005    1.0000 </r>
       <r>   -1.1593    0.0000 </r>
       <r>   -0.7008    0.0000 </r>
       <r>    4.8860    0.0000 </r>
       <r>    5.2077    0.0000 </r>
      </set>
      <set comment="kpoint 232">
       <r>  -17.5416    1.0000 </r>
       <r>  -17.0558    1.0000 </r>
       <r>  -15.8232    1.0000 </r>
       <r>  -15.3448    1.0000 </r>
       <r>   -9.2493    1.0000 </r>
       <r>   -9.0336    1.0000 </r>
       <r>   -5.4300    1.0000 </r>
       <r>   -5.1387    1.0000 </r>
       <r>   -1.1689    0.0000 </r>
       <r>   -0.8534    0.0000 </r>
       <r>    4.7022    0.0000 </r>
       <r>    4.9235    0.0000 </r>
      </set>
      <set comment="kpoint 233">
       <r>  -17.3832    1.0000 </r>
       <r>  -17.1168    1.0000 </r>
       <r>  -15.8157    1.0000 </r>
       <r>  -15.5530    1.0000 </r>
       <r>   -9.0992    1.0000 </r>
       <r>   -8.9892    1.0000 </r>
       <r>   -5.3417    1.0000 </r>
       <r>   -5.1928    1.0000 </r>
       <r>   -1.1421    0.0000 </r>
       <r>   -0.9812    0.0000 </r>
       <r>    4.6125    0.0000 </r>
       <r>    4.7253    0.0000 </r>
      </set>
      <set comment="kpoint 234">
       <r>  -17.2347    1.0000 </r>
       <r>  -17.2347    1.0000 </r>
       <r>  -15.7170    1.0000 </r>
       <r>  -15.7170    1.0000 </r>
       <r>   -9.0112    1.0000 </r>
       <r>   -9.0112    1.0000 </r>
       <r>   -5.2614    1.0000 </r>
       <r>   -5.2614    1.0000 </r>
       <r>   -1.0788    0.0000 </r>
       <r>   -1.0788    0.0000 </r>
       <r>    4.6203    0.0000 </r>
       <r>    4.6203    0.0000 </r>
      </set>
      <set comment="kpoint 235">
       <r>  -18.0136    1.0000 </r>
       <r>  -18.0136    1.0000 </r>
       <r>  -13.1517    1.0000 </r>
       <r>  -13.1517    1.0000 </r>
       <r>  -11.6378    1.0000 </r>
       <r>  -11.6378    1.0000 </r>
       <r>   -5.5882    1.0000 </r>
       <r>   -5.5882    1.0000 </r>
       <r>    0.0021    0.0000 </r>
       <r>    0.0021    0.0000 </r>
       <r>    6.2548    0.0000 </r>
       <r>    6.2548    0.0000 </r>
      </set>
      <set comment="kpoint 236">
       <r>  -18.0043    1.0000 </r>
       <r>  -18.0043    1.0000 </r>
       <r>  -13.2423    1.0000 </r>
       <r>  -13.2423    1.0000 </r>
       <r>  -11.5439    1.0000 </r>
       <r>  -11.5439    1.0000 </r>
       <r>   -5.5826    1.0000 </r>
       <r>   -5.5826    1.0000 </r>
       <r>   -0.0190    0.0000 </r>
       <r>   -0.0190    0.0000 </r>
       <r>    6.2683    0.0000 </r>
       <r>    6.2683    0.0000 </r>
      </set>
      <set comment="kpoint 237">
       <r>  -17.9767    1.0000 </r>
       <r>  -17.9767    1.0000 </r>
       <r>  -13.4658    1.0000 </r>
       <r>  -13.4658    1.0000 </r>
       <r>  -11.3113    1.0000 </r>
       <r>  -11.3113    1.0000 </r>
       <r>   -5.5659    1.0000 </r>
       <r>   -5.5659    1.0000 </r>
       <r>   -0.0804    0.0000 </r>
       <r>   -0.0804    0.0000 </r>
       <r>    6.3089    0.0000 </r>
       <r>    6.3089    0.0000 </r>
      </set>
      <set comment="kpoint 238">
       <r>  -17.9310    1.0000 </r>
       <r>  -17.9310    1.0000 </r>
       <r>  -13.7512    1.0000 </r>
       <r>  -13.7512    1.0000 </r>
       <r>  -11.0124    1.0000 </r>
       <r>  -11.0124    1.0000 </r>
       <r>   -5.5390    1.0000 </r>
       <r>   -5.5390    1.0000 </r>
       <r>   -0.1769    0.0000 </r>
       <r>   -0.1769    0.0000 </r>
       <r>    6.3756    0.0000 </r>
       <r>    6.3756    0.0000 </r>
      </set>
      <set comment="kpoint 239">
       <r>  -17.8677    1.0000 </r>
       <r>  -17.8677    1.0000 </r>
       <r>  -14.0588    1.0000 </r>
       <r>  -14.0588    1.0000 </r>
       <r>  -10.6892    1.0000 </r>
       <r>  -10.6892    1.0000 </r>
       <r>   -5.5031    1.0000 </r>
       <r>   -5.5031    1.0000 </r>
       <r>   -0.3004    0.0000 </r>
       <r>   -0.3004    0.0000 </r>
       <r>    6.4652    0.0000 </r>
       <r>    6.4652    0.0000 </r>
      </set>
      <set comment="kpoint 240">
       <r>  -17.7875    1.0000 </r>
       <r>  -17.7875    1.0000 </r>
       <r>  -14.3699    1.0000 </r>
       <r>  -14.3699    1.0000 </r>
       <r>  -10.3641    1.0000 </r>
       <r>  -10.3641    1.0000 </r>
       <r>   -5.4599    1.0000 </r>
       <r>   -5.4599    1.0000 </r>
       <r>   -0.4418    0.0000 </r>
       <r>   -0.4418    0.0000 </r>
       <r>    6.5328    0.0000 </r>
       <r>    6.5328    0.0000 </r>
      </set>
      <set comment="kpoint 241">
       <r>  -17.6917    1.0000 </r>
       <r>  -17.6917    1.0000 </r>
       <r>  -14.6741    1.0000 </r>
       <r>  -14.6741    1.0000 </r>
       <r>  -10.0513    1.0000 </r>
       <r>  -10.0513    1.0000 </r>
       <r>   -5.4117    1.0000 </r>
       <r>   -5.4117    1.0000 </r>
       <r>   -0.5910    0.0000 </r>
       <r>   -0.5910    0.0000 </r>
       <r>    6.1789    0.0000 </r>
       <r>    6.1789    0.0000 </r>
      </set>
      <set comment="kpoint 242">
       <r>  -17.5825    1.0000 </r>
       <r>  -17.5825    1.0000 </r>
       <r>  -14.9647    1.0000 </r>
       <r>  -14.9647    1.0000 </r>
       <r>   -9.7622    1.0000 </r>
       <r>   -9.7622    1.0000 </r>
       <r>   -5.3615    1.0000 </r>
       <r>   -5.3615    1.0000 </r>
       <r>   -0.7383    0.0000 </r>
       <r>   -0.7383    0.0000 </r>
       <r>    5.7338    0.0000 </r>
       <r>    5.7338    0.0000 </r>
      </set>
      <set comment="kpoint 243">
       <r>  -17.4632    1.0000 </r>
       <r>  -17.4632    1.0000 </r>
       <r>  -15.2350    1.0000 </r>
       <r>  -15.2350    1.0000 </r>
       <r>   -9.5073    1.0000 </r>
       <r>   -9.5073    1.0000 </r>
       <r>   -5.3128    1.0000 </r>
       <r>   -5.3128    1.0000 </r>
       <r>   -0.8743    0.0000 </r>
       <r>   -0.8743    0.0000 </r>
       <r>    5.3436    0.0000 </r>
       <r>    5.3436    0.0000 </r>
      </set>
      <set comment="kpoint 244">
       <r>  -17.3401    1.0000 </r>
       <r>  -17.3401    1.0000 </r>
       <r>  -15.4771    1.0000 </r>
       <r>  -15.4771    1.0000 </r>
       <r>   -9.2963    1.0000 </r>
       <r>   -9.2963    1.0000 </r>
       <r>   -5.2692    1.0000 </r>
       <r>   -5.2692    1.0000 </r>
       <r>   -0.9905    0.0000 </r>
       <r>   -0.9905    0.0000 </r>
       <r>    5.0253    0.0000 </r>
       <r>    5.0253    0.0000 </r>
      </set>
      <set comment="kpoint 245">
       <r>  -17.2247    1.0000 </r>
       <r>  -17.2247    1.0000 </r>
       <r>  -15.6783    1.0000 </r>
       <r>  -15.6783    1.0000 </r>
       <r>   -9.1380    1.0000 </r>
       <r>   -9.1380    1.0000 </r>
       <r>   -5.2346    1.0000 </r>
       <r>   -5.2346    1.0000 </r>
       <r>   -1.0794    0.0000 </r>
       <r>   -1.0794    0.0000 </r>
       <r>    4.7894    0.0000 </r>
       <r>    4.7894    0.0000 </r>
      </set>
      <set comment="kpoint 246">
       <r>  -17.1366    1.0000 </r>
       <r>  -17.1366    1.0000 </r>
       <r>  -15.8181    1.0000 </r>
       <r>  -15.8181    1.0000 </r>
       <r>   -9.0398    1.0000 </r>
       <r>   -9.0398    1.0000 </r>
       <r>   -5.2122    1.0000 </r>
       <r>   -5.2122    1.0000 </r>
       <r>   -1.1354    0.0000 </r>
       <r>   -1.1354    0.0000 </r>
       <r>    4.6444    0.0000 </r>
       <r>    4.6444    0.0000 </r>
      </set>
      <set comment="kpoint 247">
       <r>  -17.1025    1.0000 </r>
       <r>  -17.1025    1.0000 </r>
       <r>  -15.8695    1.0000 </r>
       <r>  -15.8695    1.0000 </r>
       <r>   -9.0065    1.0000 </r>
       <r>   -9.0065    1.0000 </r>
       <r>   -5.2045    1.0000 </r>
       <r>   -5.2045    1.0000 </r>
       <r>   -1.1545    0.0000 </r>
       <r>   -1.1545    0.0000 </r>
       <r>    4.5954    0.0000 </r>
       <r>    4.5954    0.0000 </r>
      </set>
     </set>
    </set>
   </array>
  </eigenvalues>
  <separator name="orbital magnetization" >
   <v name="MAGDIPOLOUT">      0.00000000      0.00000000      0.00000000</v>
  </separator>
 </calculation>
 <structure name="finalpos" >
  <crystal>
   <varray name="basis" >
    <v>       4.25861795       0.00000000       0.00000000 </v>
    <v>       0.00000000       2.51652435       0.00000000 </v>
    <v>       0.00000000       0.00000000      19.67337489 </v>
   </varray>
   <i name="volume">    210.83790140 </i>
   <varray name="rec_basis" >
    <v>       0.23481796       0.00000000       0.00000000 </v>
    <v>       0.00000000       0.39737347       0.00000000 </v>
    <v>       0.00000000       0.00000000       0.05083012 </v>
   </varray>
  </crystal>
  <varray name="positions" >
   <v>       0.00051672       0.00000000       0.00000000 </v>
   <v>       0.16614994       0.50000000      -0.00000000 </v>
   <v>       0.50051672       0.50000000       0.00000000 </v>
   <v>       0.66614994       0.00000000      -0.00000000 </v>
  </varray>
 </structure>
</modeling>
