gr                                      
           1
     4.258618    0.000000    0.000000
     0.000000    2.516524    0.000000
     0.000000    0.000000   19.673375
   C 
   4
Direct configuration=     1
   0.00051919  0.00000000  0.00000000
   0.16614747  0.50000000  0.00000000
   0.50051919  0.50000000  0.00000000
   0.66614747  0.00000000  0.00000000
Direct configuration=     2
   0.00050674  0.00000000 -0.00000000
   0.16615993  0.50000000  0.00000000
   0.50050674  0.50000000 -0.00000000
   0.66615993 -0.00000000  0.00000000
Direct configuration=     3
   0.00051672  0.00000000 -0.00000000
   0.16614995  0.50000000  0.00000000
   0.50051672  0.50000000 -0.00000000
   0.66614995 -0.00000000  0.00000000
Direct configuration=     4
   0.00051674  0.00000000  0.00000000
   0.16614993  0.50000000 -0.00000000
   0.50051674  0.50000000  0.00000000
   0.66614993 -0.00000000 -0.00000000
Direct configuration=     5
   0.00051673  0.00000000  0.00000000
   0.16614994  0.50000000 -0.00000000
   0.50051673  0.50000000  0.00000000
   0.66614994 -0.00000000 -0.00000000
Direct configuration=     6
   0.00051673  0.00000000 -0.00000000
   0.16614994  0.50000000  0.00000000
   0.50051673  0.50000000 -0.00000000
   0.66614994  0.00000000  0.00000000
Direct configuration=     7
   0.00051674  0.00000000 -0.00000000
   0.16614993  0.50000000  0.00000000
   0.50051674  0.50000000 -0.00000000
   0.66614993  0.00000000  0.00000000
Direct configuration=     8
   0.00051672  0.00000000  0.00000000
   0.16614994  0.50000000 -0.00000000
   0.50051672  0.50000000  0.00000000
   0.66614994  0.00000000 -0.00000000
