    4    4  400    1
  0.5270948E+02  0.4265714E-09  0.2491727E-09  0.1983611E-08  0.5000000E-15
  1.000000000000000E-004
  CAR 
 gr                                      
     16    247     12
 
  0.0000000E+00  0.0000000E+00  0.0000000E+00  0.1157407E-02
    1      -22.185132
    2      -16.893751
    3      -15.928764
    4      -10.306022
    5       -9.291117
    6       -5.874278
    7       -5.763799
    8       -5.027747
    9       -1.099004
   10        0.532039
   11        1.332017
   12        1.719087
 
  0.4166667E-01  0.0000000E+00  0.0000000E+00  0.2314815E-02
    1      -22.174831
    2      -17.070299
    3      -15.737046
    4      -10.293749
    5       -9.280838
    6       -5.897314
    7       -5.805536
    8       -5.095663
    9       -1.015555
   10        0.546006
   11        1.346150
   12        1.733393
 
  0.8333333E-01  0.0000000E+00  0.0000000E+00  0.2314815E-02
    1      -22.143933
    2      -17.419157
    3      -15.342764
    4      -10.256948
    5       -9.250052
    6       -5.965125
    7       -5.929109
    8       -5.283618
    9       -0.781180
   10        0.587907
   11        1.388543
   12        1.776312
 
  0.1250000E+00  0.0000000E+00  0.0000000E+00  0.2314815E-02
    1      -22.092459
    2      -17.802441
    3      -14.884072
    4      -10.195676
    5       -9.198910
    6       -6.129876
    7       -6.074045
    8       -5.556837
    9       -0.431174
   10        0.657743
   11        1.459185
   12        1.847844
 
  0.1666667E+00  0.0000000E+00  0.0000000E+00  0.2314815E-02
    1      -22.020442
    2      -18.185988
    3      -14.395588
    4      -10.110032
    5       -9.127673
    6       -6.400869
    7       -6.218629
    8       -5.881409
    9       -0.000331
   10        0.755511
   11        1.558056
   12        1.947990
 
  0.2083333E+00  0.0000000E+00  0.0000000E+00  0.2314815E-02
    1      -21.927931
    2      -18.559678
    3      -13.888093
    4      -10.000154
    5       -9.036716
    6       -6.733698
    7       -6.392405
    8       -6.232490
    9        0.485249
   10        0.881204
   11        1.685123
   12        2.076750
 
  0.2500000E+00  0.0000000E+00  0.0000000E+00  0.2314815E-02
    1      -21.814990
    2      -18.919473
    3      -13.366494
    4       -9.866233
    5       -8.926542
    6       -7.119404
    7       -6.593732
    8       -6.588576
    9        1.007559
   10        1.034804
   11        1.840339
   12        2.234121
 
  0.2916667E+00  0.0000000E+00  0.0000000E+00  0.2314815E-02
    1      -21.681698
    2      -19.263365
    3      -12.833909
    4       -9.708510
    5       -8.797800
    6       -7.549138
    7       -6.954616
    8       -6.800560
    9        1.216283
   10        1.553960
   11        2.023631
   12        2.420099
 
  0.3333333E+00  0.0000000E+00  0.0000000E+00  0.2314815E-02
    1      -21.528153
    2      -19.590180
    3      -12.292888
    4       -9.527296
    5       -8.651302
    6       -8.014600
    7       -7.308278
    8       -7.022327
    9        1.425601
   10        2.114830
   11        2.234889
   12        2.634680
 
  0.3750000E+00  0.0000000E+00  0.0000000E+00  0.2314815E-02
    1      -21.354470
    2      -19.899149
    3      -11.745885
    4       -9.322977
    5       -8.508275
    6       -8.488055
    7       -7.650109
    8       -7.248551
    9        1.662700
   10        2.473917
   11        2.681491
   12        2.877850
 
  0.4166667E+00  0.0000000E+00  0.0000000E+00  0.2314815E-02
    1      -21.160782
    2      -20.189719
    3      -11.195485
    4       -9.096037
    5       -9.023520
    6       -8.309297
    7       -7.976910
    8       -7.474652
    9        1.927504
   10        2.740324
   11        3.149593
   12        3.243043
 
  0.4583333E+00  0.0000000E+00  0.0000000E+00  0.2314815E-02
    1      -20.947252
    2      -20.461470
    3      -10.644550
    4       -9.554540
    5       -8.847081
    6       -8.286394
    7       -8.116537
    8       -7.696753
    9        2.219903
   10        2.886724
   11        3.033086
   12        3.449860
 
  0.5000000E+00  0.0000000E+00  0.0000000E+00  0.1157407E-02
    1      -20.714072
    2      -20.714072
    3      -10.096324
    4      -10.096324
    5       -8.576874
    6       -8.576874
    7       -7.911613
    8       -7.911613
    9        2.539734
   10        2.539734
   11        3.347914
   12        3.347914
 
  0.0000000E+00  0.2777778E-01  0.0000000E+00  0.2314815E-02
    1      -22.171731
    2      -16.882227
    3      -15.917647
    4      -10.290055
    5       -9.351326
    6       -5.929722
    7       -5.794848
    8       -5.011472
    9       -1.103852
   10        0.550195
   11        1.350422
   12        1.737717
 
  0.4166667E-01  0.2777778E-01  0.0000000E+00  0.4629630E-02
    1      -22.161431
    2      -17.058626
    3      -15.726133
    4      -10.277786
    5       -9.341026
    6       -5.957881
    7       -5.830763
    8       -5.079547
    9       -1.020370
   10        0.564163
   11        1.364553
   12        1.752023
 
  0.8333333E-01  0.2777778E-01  0.0000000E+00  0.4629630E-02
    1      -22.130538
    2      -17.407246
    3      -15.332256
    4      -10.240998
    5       -9.310172
    6       -6.046767
    7       -5.931291
    8       -5.267859
    9       -0.786010
   10        0.606067
   11        1.406943
   12        1.794943
 
  0.1250000E+00  0.2777778E-01  0.0000000E+00  0.4629630E-02
    1      -22.079071
    2      -17.790312
    3      -14.874067
    4      -10.179748
    5       -9.258913
    6       -6.212332
    7       -6.072505
    8       -5.541440
    9       -0.436264
   10        0.675907
   11        1.477581
   12        1.866476
 
  0.1666667E+00  0.2777778E-01  0.0000000E+00  0.4629630E-02
    1      -22.007064
    2      -18.173669
    3      -14.386188
    4      -10.094134
    5       -9.187502
    6       -6.461514
    7       -6.235463
    8       -5.866274
    9       -0.006034
   10        0.773683
   11        1.576445
   12        1.966624
 
  0.2083333E+00  0.2777778E-01  0.0000000E+00  0.4629630E-02
    1      -21.914567
    2      -18.547196
    3      -13.879414
    4       -9.984295
    5       -9.096303
    6       -6.780408
    7       -6.419583
    8       -6.217502
    9        0.478568
   10        0.899385
   11        1.703504
   12        2.095385
 
  0.2500000E+00  0.2777778E-01  0.0000000E+00  0.4629630E-02
    1      -21.801643
    2      -18.906851
    3      -13.358679
    4       -9.850421
    5       -8.985805
    6       -7.155624
    7       -6.622786
    8       -6.578799
    9        0.999563
   10        1.052996
   11        1.858711
   12        2.252758
 
  0.2916667E+00  0.2777778E-01  0.0000000E+00  0.4629630E-02
    1      -21.668374
    2      -19.250621
    3      -12.827131
    4       -9.692756
    5       -8.856636
    6       -7.576851
    7       -6.939673
    8       -6.840119
    9        1.234488
   10        1.544355
   11        2.041994
   12        2.438740
 
  0.3333333E+00  0.2777778E-01  0.0000000E+00  0.4629630E-02
    1      -21.514855
    2      -19.577332
    3      -12.287360
    4       -9.511607
    5       -8.709584
    6       -8.035270
    7       -7.293284
    8       -7.066143
    9        1.443820
   10        2.103397
   11        2.253243
   12        2.653325
 
  0.3750000E+00  0.2777778E-01  0.0000000E+00  0.4629630E-02
    1      -21.341202
    2      -19.886212
    3      -11.741867
    4       -9.307361
    5       -8.545628
    6       -8.523101
    7       -7.635038
    8       -7.295807
    9        1.680936
   10        2.492268
   11        2.668193
   12        2.896501
 
  0.4166667E+00  0.2777778E-01  0.0000000E+00  0.4629630E-02
    1      -21.147550
    2      -20.176704
    3      -11.193296
    4       -9.080502
    5       -9.033512
    6       -8.365965
    7       -7.961749
    8       -7.524690
    9        1.945759
   10        2.758684
   11        3.168251
   12        3.226859
 
  0.4583333E+00  0.2777778E-01  0.0000000E+00  0.4629630E-02
    1      -20.934062
    2      -20.448388
    3      -10.644579
    4       -9.560547
    5       -8.831634
    6       -8.271136
    7       -8.172061
    8       -7.749036
    9        2.238184
   10        2.905118
   11        3.051479
   12        3.468551
 
  0.5000000E+00  0.2777778E-01  0.0000000E+00  0.2314815E-02
    1      -20.700933
    2      -20.700933
    3      -10.099051
    4      -10.099051
    5       -8.561520
    6       -8.561520
    7       -7.965698
    8       -7.965698
    9        2.558055
   10        2.558055
   11        3.366307
   12        3.366310
 
  0.0000000E+00  0.5555556E-01  0.0000000E+00  0.2314815E-02
    1      -22.131538
    2      -16.847660
    3      -15.884469
    4      -10.242187
    5       -9.527086
    6       -6.091684
    7       -5.887137
    8       -4.962669
    9       -1.119211
   10        0.604670
   11        1.405628
   12        1.793608
 
  0.4166667E-01  0.5555556E-01  0.0000000E+00  0.4629630E-02
    1      -22.121242
    2      -17.023623
    3      -15.693560
    4      -10.229931
    5       -9.516713
    6       -6.127103
    7       -5.913756
    8       -5.031231
    9       -1.035620
   10        0.618640
   11        1.419756
   12        1.807914
 
  0.8333333E-01  0.5555556E-01  0.0000000E+00  0.4629630E-02
    1      -22.090362
    2      -17.371537
    3      -15.300905
    4      -10.193183
    5       -9.485640
    6       -6.231721
    7       -5.992793
    8       -5.220646
    9       -0.801293
   10        0.660549
   11        1.462137
   12        1.850835
 
  0.1250000E+00  0.5555556E-01  0.0000000E+00  0.4629630E-02
    1      -22.038917
    2      -17.753951
    3      -14.844251
    4      -10.131998
    5       -9.434000
    6       -6.402114
    7       -6.120619
    8       -5.495336
    9       -0.452336
   10        0.730401
   11        1.532760
   12        1.922371
 
  0.1666667E+00  0.5555556E-01  0.0000000E+00  0.4629630E-02
    1      -21.966942
    2      -18.136739
    3      -14.358223
    4      -10.046476
    5       -9.362021
    6       -6.635027
    7       -6.289673
    8       -5.820967
    9       -0.023972
   10        0.828193
   11        1.631604
   12        2.022522
 
  0.2083333E+00  0.5555556E-01  0.0000000E+00  0.4629630E-02
    1      -21.874487
    2      -18.509773
    3      -13.853673
    4       -9.936756
    5       -9.270033
    6       -6.927168
    7       -6.489878
    8       -6.172641
    9        0.457648
   10        0.953919
   11        1.758637
   12        2.151288
 
  0.2500000E+00  0.5555556E-01  0.0000000E+00  0.4629630E-02
    1      -21.761616
    2      -18.869005
    3      -13.335613
    4       -9.803028
    5       -9.158474
    6       -7.273881
    7       -6.711257
    8       -6.534101
    9        0.974628
   10        1.107558
   11        1.913813
   12        2.308669
 
  0.2916667E+00  0.5555556E-01  0.0000000E+00  0.4629630E-02
    1      -21.628413
    2      -19.212410
    3      -12.807291
    4       -9.645534
    5       -9.027907
    6       -7.668744
    7       -6.945483
    8       -6.894941
    9        1.289083
   10        1.514511
   11        2.097065
   12        2.494660
 
  0.3333333E+00  0.5555556E-01  0.0000000E+00  0.4629630E-02
    1      -21.474972
    2      -19.538807
    3      -12.271425
    4       -9.464583
    5       -8.879039
    6       -8.104287
    7       -7.248390
    8       -7.186001
    9        1.498451
   10        2.067951
   11        2.308287
   12        2.709256
 
  0.3750000E+00  0.5555556E-01  0.0000000E+00  0.4629630E-02
    1      -21.301411
    2      -19.847415
    3      -11.730674
    4       -9.260561
    5       -8.712740
    6       -8.572901
    7       -7.589906
    8       -7.427632
    9        1.735609
   10        2.547301
   11        2.626930
   12        2.952448
 
  0.4166667E+00  0.5555556E-01  0.0000000E+00  0.4629630E-02
    1      -21.107868
    2      -20.137675
    3      -11.187883
    4       -9.067436
    5       -9.033949
    6       -8.530076
    7       -7.916339
    8       -7.666200
    9        2.000480
   10        2.813744
   11        3.181400
   12        3.224220
 
  0.4583333E+00  0.5555556E-01  0.0000000E+00  0.4629630E-02
    1      -20.894508
    2      -20.409157
    3      -10.646232
    4       -9.581466
    5       -8.785349
    6       -8.332342
    7       -8.225432
    8       -7.898295
    9        2.292967
   10        2.960158
   11        3.106644
   12        3.524739
 
  0.5000000E+00  0.5555556E-01  0.0000000E+00  0.2314815E-02
    1      -20.661528
    2      -20.661528
    3      -10.109357
    4      -10.109357
    5       -8.515521
    6       -8.515521
    7       -8.121113
    8       -8.121113
    9        2.612932
   10        2.612932
   11        3.421467
   12        3.421467
 
  0.0000000E+00  0.8333333E-01  0.0000000E+00  0.2314815E-02
    1      -22.064589
    2      -16.790061
    3      -15.829782
    4      -10.162517
    5       -9.805118
    6       -6.348371
    7       -6.038175
    8       -4.881397
    9       -1.147522
   10        0.695481
   11        1.497614
   12        1.886763
 
  0.4166667E-01  0.8333333E-01  0.0000000E+00  0.4629630E-02
    1      -22.054301
    2      -16.965345
    3      -15.639853
    4      -10.150284
    5       -9.794606
    6       -6.389019
    7       -6.056337
    8       -4.950823
    9       -1.063715
   10        0.709451
   11        1.511737
   12        1.901070
 
  0.8333333E-01  0.8333333E-01  0.0000000E+00  0.4629630E-02
    1      -22.023442
    2      -17.312112
    3      -15.249260
    4      -10.113603
    5       -9.763106
    6       -6.503834
    7       -6.116019
    8       -5.142177
    9       -0.829400
   10        0.751364
   11        1.554101
   12        1.943992
 
  0.1250000E+00  0.8333333E-01  0.0000000E+00  0.4629630E-02
    1      -21.972035
    2      -17.693440
    3      -14.795258
    4      -10.052531
    5       -9.710724
    6       -6.679648
    7       -6.224716
    8       -5.418797
    9       -0.481769
   10        0.821224
   11        1.624696
   12        2.015530
 
  0.1666667E+00  0.8333333E-01  0.0000000E+00  0.4629630E-02
    1      -21.900114
    2      -18.075273
    3      -14.312469
    4       -9.967167
    5       -9.637638
    6       -6.906265
    7       -6.383611
    8       -5.745799
    9       -0.056603
   10        0.919032
   11        1.723501
   12        2.115684
 
  0.2083333E+00  0.8333333E-01  0.0000000E+00  0.4629630E-02
    1      -21.807730
    2      -18.447481
    3      -13.811848
    4       -9.857651
    5       -9.544104
    6       -7.177865
    7       -6.586913
    8       -6.098226
    9        0.419893
   10        1.044780
   11        1.850485
   12        2.244457
 
  0.2500000E+00  0.8333333E-01  0.0000000E+00  0.4629630E-02
    1      -21.694948
    2      -18.805999
    3      -13.298554
    4       -9.724172
    5       -9.430459
    6       -7.491948
    7       -6.823878
    8       -6.459948
    9        0.929981
   10        1.198452
   11        2.005605
   12        2.401846
 
  0.2916667E+00  0.8333333E-01  0.0000000E+00  0.4629630E-02
    1      -21.561853
    2      -19.148790
    3      -12.776039
    4       -9.566973
    5       -9.297129
    6       -7.847582
    7       -7.081578
    8       -6.820712
    9        1.380015
   10        1.461426
   11        2.188796
   12        2.587849
 
  0.3333333E+00  0.8333333E-01  0.0000000E+00  0.4629630E-02
    1      -21.408543
    2      -19.474658
    3      -12.247277
    4       -9.386362
    5       -9.144637
    6       -8.243271
    7       -7.347925
    8       -7.173869
    9        1.589428
   10        2.005192
   11        2.399963
   12        2.802460
 
  0.3750000E+00  0.8333333E-01  0.0000000E+00  0.4629630E-02
    1      -21.235136
    2      -19.782810
    3      -11.715260
    4       -9.182725
    5       -8.973614
    6       -8.675551
    7       -7.613706
    8       -7.514966
    9        1.826633
   10        2.553862
   11        2.638946
   12        3.045672
 
  0.4166667E+00  0.8333333E-01  0.0000000E+00  0.4629630E-02
    1      -21.041776
    2      -20.072677
    3      -11.183257
    4       -9.139064
    5       -8.956539
    6       -8.784815
    7       -7.872865
    8       -7.840911
    9        2.091557
   10        2.905427
   11        3.099772
   12        3.317471
 
  0.4583333E+00  0.8333333E-01  0.0000000E+00  0.4629630E-02
    1      -20.828631
    2      -20.343822
    3      -10.654986
    4       -9.627545
    5       -8.708403
    6       -8.579133
    7       -8.149491
    8       -8.121648
    9        2.384109
   10        3.051548
   11        3.198523
   12        3.617045
 
  0.5000000E+00  0.8333333E-01  0.0000000E+00  0.2314815E-02
    1      -20.595900
    2      -20.595900
    3      -10.134752
    4      -10.134752
    5       -8.439068
    6       -8.439068
    7       -8.357639
    8       -8.357639
    9        2.704165
   10        2.704165
   11        3.513317
   12        3.513317
 
  0.0000000E+00  0.1111111E+00  0.0000000E+00  0.2314815E-02
    1      -21.970948
    2      -16.709450
    3      -15.754635
    4      -10.166871
    5      -10.051215
    6       -6.683612
    7       -6.244019
    8       -4.767757
    9       -1.192788
   10        0.822647
   11        1.626343
   12        2.017188
 
  0.4166667E-01  0.1111111E+00  0.0000000E+00  0.4629630E-02
    1      -21.960670
    2      -16.883887
    3      -15.566018
    4      -10.156118
    5      -10.039014
    6       -6.728148
    7       -6.254114
    8       -4.838513
    9       -1.108599
   10        0.836615
   11        1.640457
   12        2.031495
 
  0.8333333E-01  0.1111111E+00  0.0000000E+00  0.4629630E-02
    1      -21.929843
    2      -17.229115
    3      -15.178379
    4      -10.123877
    5      -10.002432
    6       -6.850960
    7       -6.293858
    8       -5.032817
    9       -0.874175
   10        0.878523
   11        1.682794
   12        2.074416
 
  0.1250000E+00  0.1111111E+00  0.0000000E+00  0.4629630E-02
    1      -21.878488
    2      -17.608929
    3      -14.728324
    4      -10.070202
    5       -9.941525
    6       -7.032684
    7       -6.378565
    8       -5.312324
    9       -0.528400
   10        0.948377
   11        1.753343
   12        2.145953
 
  0.1666667E+00  0.1111111E+00  0.0000000E+00  0.4629630E-02
    1      -21.806642
    2      -17.989413
    3      -14.250456
    4       -9.995178
    5       -9.856391
    6       -7.258543
    7       -6.516213
    8       -5.641333
    9       -0.107868
   10        1.046184
   11        1.852084
   12        2.246109
 
  0.2083333E+00  0.1111111E+00  0.0000000E+00  0.4629630E-02
    1      -21.714357
    2      -18.360445
    3      -13.755895
    4       -9.898919
    5       -9.747173
    6       -7.519436
    7       -6.706555
    8       -5.994831
    9        0.361173
   10        1.171941
   11        1.978987
   12        2.374886
 
  0.2500000E+00  0.1111111E+00  0.0000000E+00  0.4629630E-02
    1      -21.601702
    2      -18.717948
    3      -13.250075
    4       -9.781561
    5       -9.614058
    6       -7.810539
    7       -6.943049
    8       -6.356898
    9        0.861238
   10        1.325631
   11        2.134009
   12        2.532282
 
  0.2916667E+00  0.1111111E+00  0.0000000E+00  0.4629630E-02
    1      -21.468759
    2      -19.059865
    3      -12.736815
    4       -9.643249
    5       -9.457292
    6       -8.130424
    7       -7.214565
    8       -6.717511
    9        1.380427
   10        1.507222
   11        2.317091
   12        2.718295
 
  0.3333333E+00  0.1111111E+00  0.0000000E+00  0.4629630E-02
    1      -21.315633
    2      -19.384980
    3      -12.219586
    4       -9.484121
    5       -9.277181
    6       -8.480173
    7       -7.507146
    8       -7.070205
    9        1.716668
   10        1.910093
   11        2.528149
   12        2.932921
 
  0.3750000E+00  0.1111111E+00  0.0000000E+00  0.4629630E-02
    1      -21.142444
    2      -19.692484
    3      -11.702035
    4       -9.304290
    5       -9.074109
    6       -8.861795
    7       -7.806353
    8       -7.410657
    9        1.953908
   10        2.443416
   11        2.767051
   12        3.176150
 
  0.4166667E+00  0.1111111E+00  0.0000000E+00  0.4629630E-02
    1      -20.949342
    2      -19.981794
    3      -11.188280
    4       -9.276066
    5       -9.103822
    6       -8.848550
    7       -8.099945
    8       -7.735867
    9        2.218867
   10        2.974366
   11        3.033554
   12        3.447974
 
  0.4583333E+00  0.1111111E+00  0.0000000E+00  0.4629630E-02
    1      -20.736501
    2      -20.252459
    3      -10.683097
    4       -9.720998
    5       -8.882754
    6       -8.601098
    7       -8.379671
    8       -8.043679
    9        2.511456
   10        3.179019
   11        3.326965
   12        3.494483
 
  0.5000000E+00  0.1111111E+00  0.0000000E+00  0.2314815E-02
    1      -20.504125
    2      -20.504125
    3      -10.191988
    4      -10.191988
    5       -8.641194
    6       -8.641194
    7       -8.332494
    8       -8.332494
    9        2.831558
   10        2.831558
   11        3.641491
   12        3.641496
 
  0.0000000E+00  0.1388889E+00  0.0000000E+00  0.2314815E-02
    1      -21.850702
    2      -16.605858
    3      -15.660812
    4      -10.591759
    5       -9.908524
    6       -7.080114
    7       -6.499575
    8       -4.621892
    9       -1.260428
   10        0.986183
   11        1.791759
   12        2.184886
 
  0.4166667E-01  0.1388889E+00  0.0000000E+00  0.4629630E-02
    1      -21.840438
    2      -16.779407
    3      -15.473773
    4      -10.580599
    5       -9.896368
    6       -7.127937
    7       -6.501520
    8       -4.694598
    9       -1.175564
   10        1.000144
   11        1.805859
   12        2.199191
 
  0.8333333E-01  0.1388889E+00  0.0000000E+00  0.4629630E-02
    1      -21.809651
    2      -17.122777
    3      -15.090107
    4      -10.547105
    5       -9.859919
    6       -7.257917
    7       -6.520104
    8       -4.893159
    9       -0.940707
   10        1.042031
   11        1.848153
   12        2.242109
 
  0.1250000E+00  0.1388889E+00  0.0000000E+00  0.4629630E-02
    1      -21.758364
    2      -17.500654
    3      -14.645649
    4      -10.491228
    5       -9.799236
    6       -7.446085
    7       -6.576912
    8       -5.176724
    9       -0.597241
   10        1.111858
   11        1.918629
   12        2.313642
 
  0.1666667E+00  0.1388889E+00  0.0000000E+00  0.4629630E-02
    1      -21.686617
    2      -17.879375
    3      -14.174967
    4      -10.412872
    5       -9.714416
    6       -7.674356
    7       -6.685590
    8       -5.508470
    9       -0.182863
   10        1.209636
   11        2.017266
   12        2.413795
 
  0.2083333E+00  0.1388889E+00  0.0000000E+00  0.4629630E-02
    1      -21.594462
    2      -18.248861
    3      -13.689474
    4      -10.311868
    5       -9.605603
    6       -7.931370
    7       -6.850714
    8       -5.863364
    9        0.276203
   10        1.335371
   11        2.144032
   12        2.542571
 
  0.2500000E+00  0.1388889E+00  0.0000000E+00  0.4629630E-02
    1      -21.481968
    2      -18.605026
    3      -13.195104
    4      -10.187933
    5       -9.472987
    6       -8.210258
    7       -7.070083
    8       -6.225816
    9        0.762885
   10        1.489049
   11        2.298885
   12        2.699969
 
  0.2916667E+00  0.1388889E+00  0.0000000E+00  0.4629630E-02
    1      -21.349224
    2      -18.945791
    3      -12.696393
    4      -10.040619
    5       -9.316811
    6       -8.507435
    7       -7.336438
    8       -6.586141
    9        1.265769
   10        1.670639
   11        2.481767
   12        2.885989
 
  0.3333333E+00  0.1388889E+00  0.0000000E+00  0.4629630E-02
    1      -21.196336
    2      -19.269916
    3      -12.197785
    4       -9.869239
    5       -9.137385
    6       -8.822156
    7       -7.638697
    8       -6.938134
    9        1.776712
   10        1.880092
   11        2.692601
   12        3.100625
 
  0.3750000E+00  0.1388889E+00  0.0000000E+00  0.4629630E-02
    1      -21.023432
    2      -19.576568
    3      -11.704211
    4       -9.672806
    5       -9.156291
    6       -8.935088
    7       -7.963021
    8       -7.277652
    9        2.117339
   10        2.289472
   11        2.931286
   12        3.343870
 
  0.4166667E+00  0.1388889E+00  0.0000000E+00  0.4629630E-02
    1      -20.830667
    2      -19.865146
    3      -11.221340
    4       -9.513689
    5       -9.450054
    6       -8.710393
    7       -8.294143
    8       -7.601815
    9        2.382302
   10        2.798941
   11        3.197672
   12        3.615713
 
  0.4583333E+00  0.1388889E+00  0.0000000E+00  0.4629630E-02
    1      -20.618221
    2      -20.135183
    3      -10.755502
    4       -9.898540
    5       -9.199733
    6       -8.617427
    7       -8.463886
    8       -7.908545
    9        2.674882
   10        3.300610
   11        3.342402
   12        3.491448
 
  0.5000000E+00  0.1388889E+00  0.0000000E+00  0.2314815E-02
    1      -20.386308
    2      -20.386308
    3      -10.312984
    4      -10.312984
    5       -8.921469
    6       -8.921469
    7       -8.196297
    8       -8.196297
    9        2.994965
   10        2.994965
   11        3.777919
   12        3.778145
 
  0.0000000E+00  0.1666667E+00  0.0000000E+00  0.2314815E-02
    1      -21.703972
    2      -16.479324
    3      -15.551315
    4      -11.059165
    5       -9.734770
    6       -7.521730
    7       -6.798942
    8       -4.443992
    9       -1.356938
   10        1.186084
   11        1.993782
   12        2.389860
 
  0.4166667E-01  0.1666667E+00  0.0000000E+00  0.4629630E-02
    1      -21.693724
    2      -16.652151
    3      -15.366043
    4      -11.047309
    5       -9.722673
    6       -7.572616
    7       -6.792553
    8       -4.519541
    9       -1.270861
   10        1.200032
   11        2.007858
   12        2.404163
 
  0.8333333E-01  0.1666667E+00  0.0000000E+00  0.4629630E-02
    1      -21.662988
    2      -16.993461
    3      -14.987647
    4      -11.011660
    5       -9.686399
    6       -7.709525
    7       -6.788934
    8       -4.724151
    9       -1.034831
   10        1.241884
   11        2.050083
   12        2.447075
 
  0.1250000E+00  0.1666667E+00  0.0000000E+00  0.4629630E-02
    1      -21.611787
    2      -17.368973
    3      -14.551166
    4      -10.951958
    5       -9.626009
    6       -7.904626
    7       -6.815056
    8       -5.013267
    9       -0.693906
   10        1.311655
   11        2.120440
   12        2.518599
 
  0.1666667E+00  0.1666667E+00  0.0000000E+00  0.4629630E-02
    1      -21.540160
    2      -17.745484
    3      -14.091139
    4      -10.867724
    5       -9.541602
    6       -8.137214
    7       -6.889471
    8       -5.348592
    9       -0.287198
   10        1.409368
   11        2.218904
   12        2.618741
 
  0.2083333E+00  0.1666667E+00  0.0000000E+00  0.4629630E-02
    1      -21.448163
    2      -18.113016
    3      -13.619556
    4      -10.758183
    5       -9.433323
    6       -8.394401
    7       -7.020925
    8       -5.705189
    9        0.159271
   10        1.535036
   11        2.345436
   12        2.747506
 
  0.2500000E+00  0.1666667E+00  0.0000000E+00  0.4629630E-02
    1      -21.335870
    2      -18.467486
    3      -13.143347
    4      -10.622150
    5       -9.301362
    6       -8.668131
    7       -7.210972
    8       -6.067987
    9        0.629116
   10        1.688656
   11        2.499981
   12        2.904898
 
  0.2916667E+00  0.1666667E+00  0.0000000E+00  0.4629630E-02
    1      -21.203372
    2      -18.806793
    3      -12.668474
    4      -10.457900
    5       -9.145967
    6       -8.953428
    7       -7.455836
    8       -6.427784
    9        1.111647
   10        1.870202
   11        2.682465
   12        3.090917
 
  0.3333333E+00  0.1666667E+00  0.0000000E+00  0.4629630E-02
    1      -21.050780
    2      -19.129665
    3      -12.201243
    4      -10.263081
    5       -9.247681
    6       -8.967446
    7       -7.747728
    8       -6.778727
    9        1.599410
   10        2.079620
   11        2.892787
   12        3.305558
 
  0.3750000E+00  0.1666667E+00  0.0000000E+00  0.4629630E-02
    1      -20.878231
    2      -19.435244
    3      -11.748637
    4      -10.034885
    5       -9.550469
    6       -8.766179
    7       -8.075859
    8       -7.116913
    9        2.086836
   10        2.316837
   11        3.130794
   12        3.548813
 
  0.4166667E+00  0.1666667E+00  0.0000000E+00  0.4629630E-02
    1      -20.685885
    2      -19.722901
    3      -11.317768
    4       -9.863658
    5       -9.770890
    6       -8.542636
    7       -8.427169
    8       -7.439618
    9        2.569490
   10        2.581761
   11        3.396201
   12        3.820670
 
  0.4583333E+00  0.1666667E+00  0.0000000E+00  0.4629630E-02
    1      -20.473933
    2      -19.992149
    3      -10.914190
    4      -10.191430
    5       -9.470948
    6       -8.786903
    7       -8.297395
    8       -7.744865
    9        2.874284
   10        3.043602
   11        3.541591
   12        3.687168
 
  0.5000000E+00  0.1666667E+00  0.0000000E+00  0.2314815E-02
    1      -20.242600
    2      -20.242600
    3      -10.539688
    4      -10.539688
    5       -9.139567
    6       -9.139567
    7       -8.031172
    8       -8.031172
    9        3.194279
   10        3.194279
   11        3.505293
   12        3.505293
 