 running on    8 total cores
 distrk:  each k-point on    8 cores,    1 groups
 distr:  one band on    2 cores,    4 groups
 using from now: INCAR     
 vasp.5.3.5 31Mar14 (build Mar 02 2015 18:14:16) complex                        
  
 POSCAR found type information on POSCAR  C 
 POSCAR found :  1 types and       4 ions
 LDA part: xc-table for Pade appr. of Perdew
 POSCAR, INCAR and KPOINTS ok, starting setup
 WARNING: small aliasing (wrap around) errors must be expected
 FFT: planning ...
 WAVECAR not read
 entering main loop
       N       E                     dE             d eps       ncg     rms          rms(c)
DAV:   1     0.188662888411E+03    0.18866E+03   -0.10579E+04  5928   0.274E+03
DAV:   2    -0.971669344524E+01   -0.19838E+03   -0.17707E+03 10524   0.259E+02
DAV:   3    -0.383246875462E+02   -0.28608E+02   -0.28098E+02  7324   0.119E+02    0.726E+00
RMM:   4    -0.376686280005E+02    0.65606E+00   -0.91835E+00  5928   0.262E+01    0.419E+00
RMM:   5    -0.369248360606E+02    0.74379E+00   -0.27559E+00  5931   0.114E+01    0.713E-01
RMM:   6    -0.369265379598E+02   -0.17019E-02   -0.80149E-02  6370   0.202E+00    0.513E-01
RMM:   7    -0.369171365279E+02    0.94014E-02   -0.32043E-02  5945   0.156E+00    0.334E-01
RMM:   8    -0.369117763608E+02    0.53602E-02   -0.72479E-03  5928   0.564E-01    0.131E-01
RMM:   9    -0.369114972187E+02    0.27914E-03   -0.19872E-02  5928   0.832E-01    0.157E-01
RMM:  10    -0.369113940670E+02    0.10315E-03   -0.25497E-03  5928   0.364E-01    0.305E-02
RMM:  11    -0.369138855566E+02   -0.24915E-02   -0.69406E-04  5928   0.172E-01    0.456E-02
RMM:  12    -0.369143341934E+02   -0.44864E-03   -0.22977E-04  5937   0.100E-01    0.510E-03
RMM:  13    -0.369145982219E+02   -0.26403E-03   -0.54252E-05  6003   0.412E-02    0.459E-03
RMM:  14    -0.369146807923E+02   -0.82570E-04   -0.11715E-05  5942   0.196E-02    0.218E-03
RMM:  15    -0.369146893308E+02   -0.85385E-05   -0.14899E-06  6003   0.732E-03    0.962E-04
RMM:  16    -0.369147014512E+02   -0.12120E-04   -0.47407E-07  5975   0.414E-03    0.534E-04
RMM:  17    -0.369147059252E+02   -0.44740E-05   -0.34710E-08  6109   0.141E-03    0.734E-04
RMM:  18    -0.369147072227E+02   -0.12975E-05   -0.56783E-08  5928   0.174E-03    0.742E-05
WARNING in EDDRMM: call to ZHEGV failed, returncode =   6  3  1
WARNING in EDDRMM: call to ZHEGV failed, returncode =   6  3  1
WARNING in EDDRMM: call to ZHEGV failed, returncode =   6  3  1
WARNING in EDDRMM: call to ZHEGV failed, returncode =   6  3  1
RMM:  19    -0.369147079447E+02   -0.72194E-06   -0.10051E-08  5987   0.484E-04    0.177E-05
RMM:  20    -0.369147079963E+02   -0.51663E-07   -0.77990E-10  4464   0.139E-04    0.251E-05
RMM:  21    -0.369147080147E+02   -0.18374E-07   -0.27715E-10  4420   0.967E-05    0.416E-06
RMM:  22    -0.369147080147E+02    0.42746E-10   -0.55165E-12  3881   0.415E-05
   1 F= -.36914708E+02 E0= -.36914693E+02  d E =-.369147E+02
 BRION: g(F)=  0.630E-06 g(S)=  0.000E+00
 bond charge predicted
       N       E                     dE             d eps       ncg     rms          rms(c)
DAV:   1    -0.369147070351E+02    0.97961E-06   -0.84737E-05  6620   0.867E-02    0.181E-03
RMM:   2    -0.369147070898E+02   -0.54711E-07   -0.13945E-06  5944   0.104E-02    0.131E-03
RMM:   3    -0.369147070567E+02    0.33099E-07   -0.23623E-07  5979   0.392E-03    0.337E-04
RMM:   4    -0.369147070511E+02    0.56359E-08   -0.14620E-08  6054   0.955E-04    0.949E-05
RMM:   5    -0.369147070521E+02   -0.10433E-08   -0.11118E-09  5366   0.240E-04    0.431E-05
RMM:   6    -0.369147070521E+02   -0.10800E-10   -0.15180E-10  3877   0.102E-04
   2 F= -.36914707E+02 E0= -.36914693E+02  d E =0.962542E-06
 BRION: g(F)=  0.105E-04 g(S)=  0.000E+00 retain N=  1 mean eig= 0.20
 eig:   0.197
 bond charge predicted
       N       E                     dE             d eps       ncg     rms          rms(c)
DAV:   1    -0.369147080837E+02   -0.10316E-05   -0.54656E-05  6628   0.696E-02    0.147E-03
RMM:   2    -0.369147081132E+02   -0.29485E-07   -0.86661E-07  5940   0.835E-03    0.105E-03
RMM:   3    -0.369147080808E+02    0.32348E-07   -0.15002E-07  5973   0.313E-03    0.257E-04
RMM:   4    -0.369147080794E+02    0.14047E-08   -0.89344E-09  6039   0.754E-04    0.757E-05
WARNING in EDDRMM: call to ZHEGV failed, returncode =   6  3  1
RMM:   5    -0.369147080790E+02    0.43701E-09   -0.71400E-10  4911   0.195E-04    0.356E-05
RMM:   6    -0.369147080787E+02    0.31650E-09   -0.10091E-10  3789   0.882E-05    0.399E-06
RMM:   7    -0.369147080785E+02    0.12824E-09   -0.16767E-11  3728   0.510E-05    0.218E-06
RMM:   8    -0.369147080786E+02   -0.10573E-09   -0.12205E-11  3273   0.383E-05    0.111E-06
RMM:   9    -0.369147080789E+02   -0.23374E-09   -0.76754E-12  2907   0.301E-05    0.455E-07
RMM:  10    -0.369147080787E+02    0.17121E-09   -0.47959E-12  2622   0.258E-05    0.621E-07
RMM:  11    -0.369147080786E+02    0.45020E-10   -0.89509E-13  2385   0.230E-05
   3 F= -.36914708E+02 E0= -.36914693E+02  d E =-.102652E-05
 BRION: g(F)=  0.589E-12 g(S)=  0.000E+00 retain N=  1 mean eig= 0.20
 eig:   0.197
 bond charge predicted
       N       E                     dE             d eps       ncg     rms          rms(c)
DAV:   1    -0.369147080783E+02    0.39370E-09    0.57110E-09  4688   0.270E-05    0.687E-07
RMM:   2    -0.369147080787E+02   -0.40097E-09   -0.92146E-13  1513   0.103E-05    0.422E-07
RMM:   3    -0.369147080788E+02   -0.67303E-10   -0.14166E-13  1482   0.104E-05    0.105E-08
RMM:   4    -0.369147080788E+02   -0.51159E-10    0.39310E-14  1451   0.101E-05    0.868E-09
RMM:   5    -0.369147080788E+02    0.22851E-10   -0.11855E-13  1424   0.994E-06
   4 F= -.36914708E+02 E0= -.36914693E+02  d E =-.147907E-09
 BRION: g(F)=  0.874E-14 g(S)=  0.000E+00 retain N=  1 mean eig= 0.18
 eig:   0.176
 reached required accuracy - stopping structural energy minimisation
