<?xml version="1.0" encoding="ISO-8859-1"?>
<modeling>
 <generator>
  <i name="program" type="string">vasp </i>
  <i name="version" type="string">5.3.5  </i>
  <i name="subversion" type="string">31Mar14 (build Mar 02 2015 18:14:16) complex                          parallel </i>
  <i name="platform" type="string">LinuxIFC </i>
  <i name="date" type="string">2018 08 09 </i>
  <i name="time" type="string">19:18:02 </i>
 </generator>
 <incar>
  <i type="string" name="SYSTEM">  gr</i>
  <i type="string" name="PREC">accurate : accuracy</i>
  <i type="string" name="ALGO"> FAST.</i>
  <i type="int" name="NELM">   100</i>
  <i type="int" name="NELMDL">    -3</i>
  <i type="int" name="NELMIN">     5</i>
  <i type="int" name="IBRION">     1</i>
  <i name="EDIFF">      0.00000000</i>
  <i name="EDIFFG">     -0.00000100</i>
  <i type="int" name="NSW">   400</i>
  <i type="int" name="ISIF">     2</i>
  <i name="ENCUT">   2000.00000000</i>
  <i type="int" name="ISMEAR">     0</i>
  <i name="SIGMA">      0.05000000</i>
  <i type="int" name="NWRITE">     2</i>
  <i type="logical" name="LWAVE"> F  </i>
  <i type="logical" name="LCHARG"> F  </i>
  <i type="int" name="NELM">   100</i>
 </incar>
 <kpoints>
  <generation param="Gamma">
   <v type="int" name="divisions">      24       36        1 </v>
   <v name="usershift">      0.00000000       0.00000000       0.00000000 </v>
   <v name="genvec1">      0.04166667       0.00000000       0.00000000 </v>
   <v name="genvec2">      0.00000000       0.02777778       0.00000000 </v>
   <v name="genvec3">      0.00000000       0.00000000       1.00000000 </v>
   <v name="shift">      0.00000000       0.00000000       0.00000000 </v>
  </generation>
  <varray name="kpointlist" >
   <v>       0.00000000       0.00000000       0.00000000 </v>
   <v>       0.04166667       0.00000000       0.00000000 </v>
   <v>       0.08333333       0.00000000       0.00000000 </v>
   <v>       0.12500000       0.00000000       0.00000000 </v>
   <v>       0.16666667       0.00000000       0.00000000 </v>
   <v>       0.20833333       0.00000000       0.00000000 </v>
   <v>       0.25000000       0.00000000       0.00000000 </v>
   <v>       0.29166667       0.00000000       0.00000000 </v>
   <v>       0.33333333       0.00000000       0.00000000 </v>
   <v>       0.37500000       0.00000000       0.00000000 </v>
   <v>       0.41666667       0.00000000       0.00000000 </v>
   <v>       0.45833333       0.00000000       0.00000000 </v>
   <v>       0.50000000       0.00000000       0.00000000 </v>
   <v>       0.00000000       0.02777778       0.00000000 </v>
   <v>       0.04166667       0.02777778       0.00000000 </v>
   <v>       0.08333333       0.02777778       0.00000000 </v>
   <v>       0.12500000       0.02777778       0.00000000 </v>
   <v>       0.16666667       0.02777778       0.00000000 </v>
   <v>       0.20833333       0.02777778       0.00000000 </v>
   <v>       0.25000000       0.02777778       0.00000000 </v>
   <v>       0.29166667       0.02777778       0.00000000 </v>
   <v>       0.33333333       0.02777778       0.00000000 </v>
   <v>       0.37500000       0.02777778       0.00000000 </v>
   <v>       0.41666667       0.02777778       0.00000000 </v>
   <v>       0.45833333       0.02777778       0.00000000 </v>
   <v>       0.50000000       0.02777778       0.00000000 </v>
   <v>       0.00000000       0.05555556       0.00000000 </v>
   <v>       0.04166667       0.05555556       0.00000000 </v>
   <v>       0.08333333       0.05555556       0.00000000 </v>
   <v>       0.12500000       0.05555556       0.00000000 </v>
   <v>       0.16666667       0.05555556       0.00000000 </v>
   <v>       0.20833333       0.05555556       0.00000000 </v>
   <v>       0.25000000       0.05555556       0.00000000 </v>
   <v>       0.29166667       0.05555556       0.00000000 </v>
   <v>       0.33333333       0.05555556       0.00000000 </v>
   <v>       0.37500000       0.05555556       0.00000000 </v>
   <v>       0.41666667       0.05555556       0.00000000 </v>
   <v>       0.45833333       0.05555556       0.00000000 </v>
   <v>       0.50000000       0.05555556       0.00000000 </v>
   <v>       0.00000000       0.08333333       0.00000000 </v>
   <v>       0.04166667       0.08333333       0.00000000 </v>
   <v>       0.08333333       0.08333333       0.00000000 </v>
   <v>       0.12500000       0.08333333       0.00000000 </v>
   <v>       0.16666667       0.08333333       0.00000000 </v>
   <v>       0.20833333       0.08333333       0.00000000 </v>
   <v>       0.25000000       0.08333333       0.00000000 </v>
   <v>       0.29166667       0.08333333       0.00000000 </v>
   <v>       0.33333333       0.08333333       0.00000000 </v>
   <v>       0.37500000       0.08333333       0.00000000 </v>
   <v>       0.41666667       0.08333333       0.00000000 </v>
   <v>       0.45833333       0.08333333       0.00000000 </v>
   <v>       0.50000000       0.08333333       0.00000000 </v>
   <v>       0.00000000       0.11111111       0.00000000 </v>
   <v>       0.04166667       0.11111111       0.00000000 </v>
   <v>       0.08333333       0.11111111       0.00000000 </v>
   <v>       0.12500000       0.11111111       0.00000000 </v>
   <v>       0.16666667       0.11111111       0.00000000 </v>
   <v>       0.20833333       0.11111111       0.00000000 </v>
   <v>       0.25000000       0.11111111       0.00000000 </v>
   <v>       0.29166667       0.11111111       0.00000000 </v>
   <v>       0.33333333       0.11111111       0.00000000 </v>
   <v>       0.37500000       0.11111111       0.00000000 </v>
   <v>       0.41666667       0.11111111       0.00000000 </v>
   <v>       0.45833333       0.11111111       0.00000000 </v>
   <v>       0.50000000       0.11111111       0.00000000 </v>
   <v>       0.00000000       0.13888889       0.00000000 </v>
   <v>       0.04166667       0.13888889       0.00000000 </v>
   <v>       0.08333333       0.13888889       0.00000000 </v>
   <v>       0.12500000       0.13888889       0.00000000 </v>
   <v>       0.16666667       0.13888889       0.00000000 </v>
   <v>       0.20833333       0.13888889       0.00000000 </v>
   <v>       0.25000000       0.13888889       0.00000000 </v>
   <v>       0.29166667       0.13888889       0.00000000 </v>
   <v>       0.33333333       0.13888889       0.00000000 </v>
   <v>       0.37500000       0.13888889       0.00000000 </v>
   <v>       0.41666667       0.13888889       0.00000000 </v>
   <v>       0.45833333       0.13888889       0.00000000 </v>
   <v>       0.50000000       0.13888889       0.00000000 </v>
   <v>       0.00000000       0.16666667       0.00000000 </v>
   <v>       0.04166667       0.16666667       0.00000000 </v>
   <v>       0.08333333       0.16666667       0.00000000 </v>
   <v>       0.12500000       0.16666667       0.00000000 </v>
   <v>       0.16666667       0.16666667       0.00000000 </v>
   <v>       0.20833333       0.16666667       0.00000000 </v>
   <v>       0.25000000       0.16666667       0.00000000 </v>
   <v>       0.29166667       0.16666667       0.00000000 </v>
   <v>       0.33333333       0.16666667       0.00000000 </v>
   <v>       0.37500000       0.16666667       0.00000000 </v>
   <v>       0.41666667       0.16666667       0.00000000 </v>
   <v>       0.45833333       0.16666667       0.00000000 </v>
   <v>       0.50000000       0.16666667       0.00000000 </v>
   <v>       0.00000000       0.19444444       0.00000000 </v>
   <v>       0.04166667       0.19444444       0.00000000 </v>
   <v>       0.08333333       0.19444444       0.00000000 </v>
   <v>       0.12500000       0.19444444       0.00000000 </v>
   <v>       0.16666667       0.19444444       0.00000000 </v>
   <v>       0.20833333       0.19444444       0.00000000 </v>
   <v>       0.25000000       0.19444444       0.00000000 </v>
   <v>       0.29166667       0.19444444       0.00000000 </v>
   <v>       0.33333333       0.19444444       0.00000000 </v>
   <v>       0.37500000       0.19444444       0.00000000 </v>
   <v>       0.41666667       0.19444444       0.00000000 </v>
   <v>       0.45833333       0.19444444       0.00000000 </v>
   <v>       0.50000000       0.19444444       0.00000000 </v>
   <v>       0.00000000       0.22222222       0.00000000 </v>
   <v>       0.04166667       0.22222222       0.00000000 </v>
   <v>       0.08333333       0.22222222       0.00000000 </v>
   <v>       0.12500000       0.22222222       0.00000000 </v>
   <v>       0.16666667       0.22222222       0.00000000 </v>
   <v>       0.20833333       0.22222222       0.00000000 </v>
   <v>       0.25000000       0.22222222       0.00000000 </v>
   <v>       0.29166667       0.22222222       0.00000000 </v>
   <v>       0.33333333       0.22222222       0.00000000 </v>
   <v>       0.37500000       0.22222222       0.00000000 </v>
   <v>       0.41666667       0.22222222       0.00000000 </v>
   <v>       0.45833333       0.22222222       0.00000000 </v>
   <v>       0.50000000       0.22222222       0.00000000 </v>
   <v>       0.00000000       0.25000000       0.00000000 </v>
   <v>       0.04166667       0.25000000       0.00000000 </v>
   <v>       0.08333333       0.25000000       0.00000000 </v>
   <v>       0.12500000       0.25000000       0.00000000 </v>
   <v>       0.16666667       0.25000000       0.00000000 </v>
   <v>       0.20833333       0.25000000       0.00000000 </v>
   <v>       0.25000000       0.25000000       0.00000000 </v>
   <v>       0.29166667       0.25000000       0.00000000 </v>
   <v>       0.33333333       0.25000000       0.00000000 </v>
   <v>       0.37500000       0.25000000       0.00000000 </v>
   <v>       0.41666667       0.25000000       0.00000000 </v>
   <v>       0.45833333       0.25000000       0.00000000 </v>
   <v>       0.50000000       0.25000000       0.00000000 </v>
   <v>       0.00000000       0.27777778       0.00000000 </v>
   <v>       0.04166667       0.27777778       0.00000000 </v>
   <v>       0.08333333       0.27777778       0.00000000 </v>
   <v>       0.12500000       0.27777778       0.00000000 </v>
   <v>       0.16666667       0.27777778       0.00000000 </v>
   <v>       0.20833333       0.27777778       0.00000000 </v>
   <v>       0.25000000       0.27777778       0.00000000 </v>
   <v>       0.29166667       0.27777778       0.00000000 </v>
   <v>       0.33333333       0.27777778       0.00000000 </v>
   <v>       0.37500000       0.27777778       0.00000000 </v>
   <v>       0.41666667       0.27777778       0.00000000 </v>
   <v>       0.45833333       0.27777778       0.00000000 </v>
   <v>       0.50000000       0.27777778       0.00000000 </v>
   <v>       0.00000000       0.30555556       0.00000000 </v>
   <v>       0.04166667       0.30555556       0.00000000 </v>
   <v>       0.08333333       0.30555556       0.00000000 </v>
   <v>       0.12500000       0.30555556       0.00000000 </v>
   <v>       0.16666667       0.30555556       0.00000000 </v>
   <v>       0.20833333       0.30555556       0.00000000 </v>
   <v>       0.25000000       0.30555556       0.00000000 </v>
   <v>       0.29166667       0.30555556       0.00000000 </v>
   <v>       0.33333333       0.30555556       0.00000000 </v>
   <v>       0.37500000       0.30555556       0.00000000 </v>
   <v>       0.41666667       0.30555556       0.00000000 </v>
   <v>       0.45833333       0.30555556       0.00000000 </v>
   <v>       0.50000000       0.30555556       0.00000000 </v>
   <v>       0.00000000       0.33333333       0.00000000 </v>
   <v>       0.04166667       0.33333333       0.00000000 </v>
   <v>       0.08333333       0.33333333       0.00000000 </v>
   <v>       0.12500000       0.33333333       0.00000000 </v>
   <v>       0.16666667       0.33333333       0.00000000 </v>
   <v>       0.20833333       0.33333333       0.00000000 </v>
   <v>       0.25000000       0.33333333       0.00000000 </v>
   <v>       0.29166667       0.33333333       0.00000000 </v>
   <v>       0.33333333       0.33333333       0.00000000 </v>
   <v>       0.37500000       0.33333333       0.00000000 </v>
   <v>       0.41666667       0.33333333       0.00000000 </v>
   <v>       0.45833333       0.33333333       0.00000000 </v>
   <v>       0.50000000       0.33333333       0.00000000 </v>
   <v>       0.00000000       0.36111111       0.00000000 </v>
   <v>       0.04166667       0.36111111       0.00000000 </v>
   <v>       0.08333333       0.36111111       0.00000000 </v>
   <v>       0.12500000       0.36111111       0.00000000 </v>
   <v>       0.16666667       0.36111111       0.00000000 </v>
   <v>       0.20833333       0.36111111       0.00000000 </v>
   <v>       0.25000000       0.36111111       0.00000000 </v>
   <v>       0.29166667       0.36111111       0.00000000 </v>
   <v>       0.33333333       0.36111111       0.00000000 </v>
   <v>       0.37500000       0.36111111       0.00000000 </v>
   <v>       0.41666667       0.36111111       0.00000000 </v>
   <v>       0.45833333       0.36111111       0.00000000 </v>
   <v>       0.50000000       0.36111111       0.00000000 </v>
   <v>       0.00000000       0.38888889       0.00000000 </v>
   <v>       0.04166667       0.38888889       0.00000000 </v>
   <v>       0.08333333       0.38888889       0.00000000 </v>
   <v>       0.12500000       0.38888889       0.00000000 </v>
   <v>       0.16666667       0.38888889       0.00000000 </v>
   <v>       0.20833333       0.38888889       0.00000000 </v>
   <v>       0.25000000       0.38888889       0.00000000 </v>
   <v>       0.29166667       0.38888889       0.00000000 </v>
   <v>       0.33333333       0.38888889       0.00000000 </v>
   <v>       0.37500000       0.38888889       0.00000000 </v>
   <v>       0.41666667       0.38888889       0.00000000 </v>
   <v>       0.45833333       0.38888889       0.00000000 </v>
   <v>       0.50000000       0.38888889       0.00000000 </v>
   <v>       0.00000000       0.41666667       0.00000000 </v>
   <v>       0.04166667       0.41666667       0.00000000 </v>
   <v>       0.08333333       0.41666667       0.00000000 </v>
   <v>       0.12500000       0.41666667       0.00000000 </v>
   <v>       0.16666667       0.41666667       0.00000000 </v>
   <v>       0.20833333       0.41666667       0.00000000 </v>
   <v>       0.25000000       0.41666667       0.00000000 </v>
   <v>       0.29166667       0.41666667       0.00000000 </v>
   <v>       0.33333333       0.41666667       0.00000000 </v>
   <v>       0.37500000       0.41666667       0.00000000 </v>
   <v>       0.41666667       0.41666667       0.00000000 </v>
   <v>       0.45833333       0.41666667       0.00000000 </v>
   <v>       0.50000000       0.41666667       0.00000000 </v>
   <v>       0.00000000       0.44444444       0.00000000 </v>
   <v>       0.04166667       0.44444444       0.00000000 </v>
   <v>       0.08333333       0.44444444       0.00000000 </v>
   <v>       0.12500000       0.44444444       0.00000000 </v>
   <v>       0.16666667       0.44444444       0.00000000 </v>
   <v>       0.20833333       0.44444444       0.00000000 </v>
   <v>       0.25000000       0.44444444       0.00000000 </v>
   <v>       0.29166667       0.44444444       0.00000000 </v>
   <v>       0.33333333       0.44444444       0.00000000 </v>
   <v>       0.37500000       0.44444444       0.00000000 </v>
   <v>       0.41666667       0.44444444       0.00000000 </v>
   <v>       0.45833333       0.44444444       0.00000000 </v>
   <v>       0.50000000       0.44444444       0.00000000 </v>
   <v>       0.00000000       0.47222222       0.00000000 </v>
   <v>       0.04166667       0.47222222       0.00000000 </v>
   <v>       0.08333333       0.47222222       0.00000000 </v>
   <v>       0.12500000       0.47222222       0.00000000 </v>
   <v>       0.16666667       0.47222222       0.00000000 </v>
   <v>       0.20833333       0.47222222       0.00000000 </v>
   <v>       0.25000000       0.47222222       0.00000000 </v>
   <v>       0.29166667       0.47222222       0.00000000 </v>
   <v>       0.33333333       0.47222222       0.00000000 </v>
   <v>       0.37500000       0.47222222       0.00000000 </v>
   <v>       0.41666667       0.47222222       0.00000000 </v>
   <v>       0.45833333       0.47222222       0.00000000 </v>
   <v>       0.50000000       0.47222222       0.00000000 </v>
   <v>       0.00000000       0.50000000       0.00000000 </v>
   <v>       0.04166667       0.50000000       0.00000000 </v>
   <v>       0.08333333       0.50000000       0.00000000 </v>
   <v>       0.12500000       0.50000000       0.00000000 </v>
   <v>       0.16666667       0.50000000       0.00000000 </v>
   <v>       0.20833333       0.50000000       0.00000000 </v>
   <v>       0.25000000       0.50000000       0.00000000 </v>
   <v>       0.29166667       0.50000000       0.00000000 </v>
   <v>       0.33333333       0.50000000       0.00000000 </v>
   <v>       0.37500000       0.50000000       0.00000000 </v>
   <v>       0.41666667       0.50000000       0.00000000 </v>
   <v>       0.45833333       0.50000000       0.00000000 </v>
   <v>       0.50000000       0.50000000       0.00000000 </v>
  </varray>
  <varray name="weights" >
   <v>       0.00115741 </v>
   <v>       0.00231481 </v>
   <v>       0.00231481 </v>
   <v>       0.00231481 </v>
   <v>       0.00231481 </v>
   <v>       0.00231481 </v>
   <v>       0.00231481 </v>
   <v>       0.00231481 </v>
   <v>       0.00231481 </v>
   <v>       0.00231481 </v>
   <v>       0.00231481 </v>
   <v>       0.00231481 </v>
   <v>       0.00115741 </v>
   <v>       0.00231481 </v>
   <v>       0.00462963 </v>
   <v>       0.00462963 </v>
   <v>       0.00462963 </v>
   <v>       0.00462963 </v>
   <v>       0.00462963 </v>
   <v>       0.00462963 </v>
   <v>       0.00462963 </v>
   <v>       0.00462963 </v>
   <v>       0.00462963 </v>
   <v>       0.00462963 </v>
   <v>       0.00462963 </v>
   <v>       0.00231481 </v>
   <v>       0.00231481 </v>
   <v>       0.00462963 </v>
   <v>       0.00462963 </v>
   <v>       0.00462963 </v>
   <v>       0.00462963 </v>
   <v>       0.00462963 </v>
   <v>       0.00462963 </v>
   <v>       0.00462963 </v>
   <v>       0.00462963 </v>
   <v>       0.00462963 </v>
   <v>       0.00462963 </v>
   <v>       0.00462963 </v>
   <v>       0.00231481 </v>
   <v>       0.00231481 </v>
   <v>       0.00462963 </v>
   <v>       0.00462963 </v>
   <v>       0.00462963 </v>
   <v>       0.00462963 </v>
   <v>       0.00462963 </v>
   <v>       0.00462963 </v>
   <v>       0.00462963 </v>
   <v>       0.00462963 </v>
   <v>       0.00462963 </v>
   <v>       0.00462963 </v>
   <v>       0.00462963 </v>
   <v>       0.00231481 </v>
   <v>       0.00231481 </v>
   <v>       0.00462963 </v>
   <v>       0.00462963 </v>
   <v>       0.00462963 </v>
   <v>       0.00462963 </v>
   <v>       0.00462963 </v>
   <v>       0.00462963 </v>
   <v>       0.00462963 </v>
   <v>       0.00462963 </v>
   <v>       0.00462963 </v>
   <v>       0.00462963 </v>
   <v>       0.00462963 </v>
   <v>       0.00231481 </v>
   <v>       0.00231481 </v>
   <v>       0.00462963 </v>
   <v>       0.00462963 </v>
   <v>       0.00462963 </v>
   <v>       0.00462963 </v>
   <v>       0.00462963 </v>
   <v>       0.00462963 </v>
   <v>       0.00462963 </v>
   <v>       0.00462963 </v>
   <v>       0.00462963 </v>
   <v>       0.00462963 </v>
   <v>       0.00462963 </v>
   <v>       0.00231481 </v>
   <v>       0.00231481 </v>
   <v>       0.00462963 </v>
   <v>       0.00462963 </v>
   <v>       0.00462963 </v>
   <v>       0.00462963 </v>
   <v>       0.00462963 </v>
   <v>       0.00462963 </v>
   <v>       0.00462963 </v>
   <v>       0.00462963 </v>
   <v>       0.00462963 </v>
   <v>       0.00462963 </v>
   <v>       0.00462963 </v>
   <v>       0.00231481 </v>
   <v>       0.00231481 </v>
   <v>       0.00462963 </v>
   <v>       0.00462963 </v>
   <v>       0.00462963 </v>
   <v>       0.00462963 </v>
   <v>       0.00462963 </v>
   <v>       0.00462963 </v>
   <v>       0.00462963 </v>
   <v>       0.00462963 </v>
   <v>       0.00462963 </v>
   <v>       0.00462963 </v>
   <v>       0.00462963 </v>
   <v>       0.00231481 </v>
   <v>       0.00231481 </v>
   <v>       0.00462963 </v>
   <v>       0.00462963 </v>
   <v>       0.00462963 </v>
   <v>       0.00462963 </v>
   <v>       0.00462963 </v>
   <v>       0.00462963 </v>
   <v>       0.00462963 </v>
   <v>       0.00462963 </v>
   <v>       0.00462963 </v>
   <v>       0.00462963 </v>
   <v>       0.00462963 </v>
   <v>       0.00231481 </v>
   <v>       0.00231481 </v>
   <v>       0.00462963 </v>
   <v>       0.00462963 </v>
   <v>       0.00462963 </v>
   <v>       0.00462963 </v>
   <v>       0.00462963 </v>
   <v>       0.00462963 </v>
   <v>       0.00462963 </v>
   <v>       0.00462963 </v>
   <v>       0.00462963 </v>
   <v>       0.00462963 </v>
   <v>       0.00462963 </v>
   <v>       0.00231481 </v>
   <v>       0.00231481 </v>
   <v>       0.00462963 </v>
   <v>       0.00462963 </v>
   <v>       0.00462963 </v>
   <v>       0.00462963 </v>
   <v>       0.00462963 </v>
   <v>       0.00462963 </v>
   <v>       0.00462963 </v>
   <v>       0.00462963 </v>
   <v>       0.00462963 </v>
   <v>       0.00462963 </v>
   <v>       0.00462963 </v>
   <v>       0.00231481 </v>
   <v>       0.00231481 </v>
   <v>       0.00462963 </v>
   <v>       0.00462963 </v>
   <v>       0.00462963 </v>
   <v>       0.00462963 </v>
   <v>       0.00462963 </v>
   <v>       0.00462963 </v>
   <v>       0.00462963 </v>
   <v>       0.00462963 </v>
   <v>       0.00462963 </v>
   <v>       0.00462963 </v>
   <v>       0.00462963 </v>
   <v>       0.00231481 </v>
   <v>       0.00231481 </v>
   <v>       0.00462963 </v>
   <v>       0.00462963 </v>
   <v>       0.00462963 </v>
   <v>       0.00462963 </v>
   <v>       0.00462963 </v>
   <v>       0.00462963 </v>
   <v>       0.00462963 </v>
   <v>       0.00462963 </v>
   <v>       0.00462963 </v>
   <v>       0.00462963 </v>
   <v>       0.00462963 </v>
   <v>       0.00231481 </v>
   <v>       0.00231481 </v>
   <v>       0.00462963 </v>
   <v>       0.00462963 </v>
   <v>       0.00462963 </v>
   <v>       0.00462963 </v>
   <v>       0.00462963 </v>
   <v>       0.00462963 </v>
   <v>       0.00462963 </v>
   <v>       0.00462963 </v>
   <v>       0.00462963 </v>
   <v>       0.00462963 </v>
   <v>       0.00462963 </v>
   <v>       0.00231481 </v>
   <v>       0.00231481 </v>
   <v>       0.00462963 </v>
   <v>       0.00462963 </v>
   <v>       0.00462963 </v>
   <v>       0.00462963 </v>
   <v>       0.00462963 </v>
   <v>       0.00462963 </v>
   <v>       0.00462963 </v>
   <v>       0.00462963 </v>
   <v>       0.00462963 </v>
   <v>       0.00462963 </v>
   <v>       0.00462963 </v>
   <v>       0.00231481 </v>
   <v>       0.00231481 </v>
   <v>       0.00462963 </v>
   <v>       0.00462963 </v>
   <v>       0.00462963 </v>
   <v>       0.00462963 </v>
   <v>       0.00462963 </v>
   <v>       0.00462963 </v>
   <v>       0.00462963 </v>
   <v>       0.00462963 </v>
   <v>       0.00462963 </v>
   <v>       0.00462963 </v>
   <v>       0.00462963 </v>
   <v>       0.00231481 </v>
   <v>       0.00231481 </v>
   <v>       0.00462963 </v>
   <v>       0.00462963 </v>
   <v>       0.00462963 </v>
   <v>       0.00462963 </v>
   <v>       0.00462963 </v>
   <v>       0.00462963 </v>
   <v>       0.00462963 </v>
   <v>       0.00462963 </v>
   <v>       0.00462963 </v>
   <v>       0.00462963 </v>
   <v>       0.00462963 </v>
   <v>       0.00231481 </v>
   <v>       0.00231481 </v>
   <v>       0.00462963 </v>
   <v>       0.00462963 </v>
   <v>       0.00462963 </v>
   <v>       0.00462963 </v>
   <v>       0.00462963 </v>
   <v>       0.00462963 </v>
   <v>       0.00462963 </v>
   <v>       0.00462963 </v>
   <v>       0.00462963 </v>
   <v>       0.00462963 </v>
   <v>       0.00462963 </v>
   <v>       0.00231481 </v>
   <v>       0.00115741 </v>
   <v>       0.00231481 </v>
   <v>       0.00231481 </v>
   <v>       0.00231481 </v>
   <v>       0.00231481 </v>
   <v>       0.00231481 </v>
   <v>       0.00231481 </v>
   <v>       0.00231481 </v>
   <v>       0.00231481 </v>
   <v>       0.00231481 </v>
   <v>       0.00231481 </v>
   <v>       0.00231481 </v>
   <v>       0.00115741 </v>
  </varray>
 </kpoints>
 <parameters>
  <separator name="general" >
   <i type="string" name="SYSTEM">gr</i>
   <i type="logical" name="LCOMPAT"> F  </i>
  </separator>
  <separator name="electronic" >
   <i type="string" name="PREC">accura</i>
   <i name="ENMAX">   2000.00000000</i>
   <i name="ENAUG">    644.87300000</i>
   <i name="EDIFF">      0.00000000</i>
   <i type="int" name="IALGO">    68</i>
   <i type="int" name="IWAVPR">    11</i>
   <i type="int" name="NBANDS">    12</i>
   <i name="NELECT">     16.00000000</i>
   <i type="int" name="TURBO">     0</i>
   <i type="int" name="IRESTART">     0</i>
   <i type="int" name="NREBOOT">     0</i>
   <i type="int" name="NMIN">     0</i>
   <i name="EREF">      0.00000000</i>
   <separator name="electronic smearing" >
    <i type="int" name="ISMEAR">     0</i>
    <i name="SIGMA">      0.05000000</i>
    <i name="KSPACING">      0.50000000</i>
    <i type="logical" name="KGAMMA"> T  </i>
   </separator>
   <separator name="electronic projectors" >
    <i type="logical" name="LREAL"> F  </i>
    <v name="ROPT">      0.00000000</v>
    <i type="int" name="LMAXPAW">  -100</i>
    <i type="int" name="LMAXMIX">     2</i>
    <i type="logical" name="NLSPLINE"> F  </i>
   </separator>
   <separator name="electronic startup" >
    <i type="int" name="ISTART">     0</i>
    <i type="int" name="ICHARG">     2</i>
    <i type="int" name="INIWAV">     1</i>
   </separator>
   <separator name="electronic spin" >
    <i type="int" name="ISPIN">     1</i>
    <i type="logical" name="LNONCOLLINEAR"> F  </i>
    <v name="MAGMOM">      1.00000000      1.00000000      1.00000000      1.00000000</v>
    <i name="NUPDOWN">     -1.00000000</i>
    <i type="logical" name="LSORBIT"> F  </i>
    <v name="SAXIS">      0.00000000      0.00000000      1.00000000</v>
    <i type="logical" name="LSPIRAL"> F  </i>
    <v name="QSPIRAL">      0.00000000      0.00000000      0.00000000</v>
    <i type="logical" name="LZEROZ"> F  </i>
   </separator>
   <separator name="electronic exchange-correlation" >
    <i type="logical" name="LASPH"> F  </i>
    <i type="logical" name="LMETAGGA"> F  </i>
   </separator>
   <separator name="electronic convergence" >
    <i type="int" name="NELM">   100</i>
    <i type="int" name="NELMDL">    -3</i>
    <i type="int" name="NELMIN">     5</i>
    <i name="ENINI">   2000.00000000</i>
    <separator name="electronic convergence detail" >
     <i type="logical" name="LDIAG"> T  </i>
     <i type="logical" name="LSUBROT"> F  </i>
     <i name="WEIMIN">      0.00100000</i>
     <i name="EBREAK">      0.00000000</i>
     <i name="DEPER">      0.30000000</i>
     <i type="int" name="NRMM">     4</i>
     <i name="TIME">      0.40000000</i>
    </separator>
   </separator>
   <separator name="electronic mixer" >
    <i name="AMIX">      0.40000000</i>
    <i name="BMIX">      1.00000000</i>
    <i name="AMIN">      0.10000000</i>
    <i name="AMIX_MAG">      1.60000000</i>
    <i name="BMIX_MAG">      1.00000000</i>
    <separator name="electronic mixer details" >
     <i type="int" name="IMIX">     4</i>
     <i type="int" name="MAXMIX">   -45</i>
     <i name="WC">    100.00000000</i>
     <i type="int" name="INIMIX">     1</i>
     <i type="int" name="MIXPRE">     1</i>
     <i type="int" name="MREMOVE">     5</i>
    </separator>
   </separator>
   <separator name="electronic dipolcorrection" >
    <i type="logical" name="LDIPOL"> F  </i>
    <i type="logical" name="LMONO"> F  </i>
    <i type="int" name="IDIPOL">     0</i>
    <i name="EPSILON">      1.00000000</i>
    <v name="DIPOL">   -100.00000000   -100.00000000   -100.00000000</v>
    <i name="EFIELD">      0.00000000</i>
   </separator>
  </separator>
  <separator name="grids" >
   <i type="int" name="NGX">    64</i>
   <i type="int" name="NGY">    36</i>
   <i type="int" name="NGZ">   294</i>
   <i type="int" name="NGXF">   128</i>
   <i type="int" name="NGYF">    72</i>
   <i type="int" name="NGZF">   588</i>
   <i type="logical" name="ADDGRID"> F  </i>
  </separator>
  <separator name="ionic" >
   <i type="int" name="NSW">   400</i>
   <i type="int" name="IBRION">     1</i>
   <i type="int" name="ISIF">     2</i>
   <i name="PSTRESS">      0.00000000</i>
   <i name="EDIFFG">     -0.00000100</i>
   <i type="int" name="NFREE">     0</i>
   <i name="POTIM">      0.50000000</i>
   <i name="SMASS">     -3.00000000</i>
   <i name="SCALEE">      1.00000000</i>
  </separator>
  <separator name="ionic md" >
   <i name="TEBEG">      0.00010000</i>
   <i name="TEEND">      0.00010000</i>
   <i type="int" name="NBLOCK">     1</i>
   <i type="int" name="KBLOCK">   400</i>
   <i type="int" name="NPACO">   256</i>
   <i name="APACO">     16.00000000</i>
  </separator>
  <separator name="symmetry" >
   <i type="int" name="ISYM">     2</i>
   <i name="SYMPREC">      0.00001000</i>
  </separator>
  <separator name="dos" >
   <i type="logical" name="LORBIT"> F  </i>
   <v name="RWIGS">     -1.00000000</v>
   <i type="int" name="NEDOS">   301</i>
   <i name="EMIN">     10.00000000</i>
   <i name="EMAX">    -10.00000000</i>
   <i name="EFERMI">      0.00000000</i>
  </separator>
  <separator name="writing" >
   <i type="int" name="NWRITE">     2</i>
   <i type="logical" name="LWAVE"> F  </i>
   <i type="logical" name="LCHARG"> F  </i>
   <i type="logical" name="LPARD"> F  </i>
   <i type="logical" name="LVTOT"> F  </i>
   <i type="logical" name="LVHAR"> F  </i>
   <i type="logical" name="LELF"> F  </i>
   <i type="logical" name="LOPTICS"> F  </i>
   <v name="STM">      0.00000000      0.00000000      0.00000000      0.00000000      0.00000000      0.00000000      0.00000000</v>
  </separator>
  <separator name="performance" >
   <i type="int" name="NPAR">     4</i>
   <i type="int" name="NSIM">     4</i>
   <i type="int" name="NBLK">    -1</i>
   <i type="logical" name="LPLANE"> T  </i>
   <i type="logical" name="LSCALAPACK"> F  </i>
   <i type="logical" name="LSCAAWARE"> F  </i>
   <i type="logical" name="LSCALU"> F  </i>
   <i type="logical" name="LASYNC"> F  </i>
   <i type="logical" name="LORBITALREAL"> F  </i>
  </separator>
  <separator name="miscellaneous" >
   <i type="int" name="IDIOT">     3</i>
   <i type="logical" name="LMUSIC"> F  </i>
   <v name="POMASS">     12.01100000</v>
   <v name="DARWINR">      0.00000000</v>
   <v name="DARWINV">      1.00000000</v>
   <i type="logical" name="LCORR"> T  </i>
  </separator>
  <i type="logical" name="GGA_COMPAT"> T  </i>
  <i type="logical" name="LBERRY"> F  </i>
  <i type="int" name="ICORELEVEL">     0</i>
  <i type="logical" name="LDAU"> F  </i>
  <i type="int" name="I_CONSTRAINED_M">     0</i>
  <separator name="electronic exchange-correlation" >
   <i type="string" name="GGA">--</i>
   <i type="int" name="VOSKOWN">     0</i>
   <i type="logical" name="LHFCALC"> F  </i>
   <i type="string" name="PRECFOCK"></i>
   <i type="logical" name="LSYMGRAD"> F  </i>
   <i type="logical" name="LHFONE"> F  </i>
   <i type="logical" name="LRHFCALC"> F  </i>
   <i type="logical" name="LTHOMAS"> F  </i>
   <i type="logical" name="LMODELHF"> F  </i>
   <i name="ENCUT4O">     -1.00000000</i>
   <i type="int" name="EXXOEP">     0</i>
   <i type="int" name="FOURORBIT">     0</i>
   <i name="AEXX">      0.00000000</i>
   <i name="HFALPHA">      0.00000000</i>
   <i name="MCALPHA">      0.00000000</i>
   <i name="ALDAX">      1.00000000</i>
   <i name="AGGAX">      1.00000000</i>
   <i name="ALDAC">      1.00000000</i>
   <i name="AGGAC">      1.00000000</i>
   <i type="int" name="NKREDX">     1</i>
   <i type="int" name="NKREDY">     1</i>
   <i type="int" name="NKREDZ">     1</i>
   <i type="logical" name="SHIFTRED"> F  </i>
   <i type="logical" name="ODDONLY"> F  </i>
   <i type="logical" name="EVENONLY"> F  </i>
   <i type="int" name="LMAXFOCK">     0</i>
   <i type="int" name="NMAXFOCKAE">     0</i>
   <i type="logical" name="LFOCKAEDFT"> F  </i>
   <i name="HFSCREEN">      0.00000000</i>
   <i name="HFSCREENC">      0.00000000</i>
   <i type="int" name="NBANDSGWLOW">     0</i>
  </separator>
  <separator name="vdW DFT" >
   <i type="logical" name="LUSE_VDW"> F  </i>
   <i name="Zab_VDW">     -0.84910000</i>
   <i name="PARAM1">      0.12340000</i>
   <i name="PARAM2">      1.00000000</i>
   <i name="PARAM3">      0.00000000</i>
  </separator>
  <separator name="model GW" >
   <i type="int" name="MODEL_GW">     0</i>
   <i name="MODEL_EPS0">     31.62568521</i>
   <i name="MODEL_ALPHA">      1.00000000</i>
  </separator>
  <separator name="linear response parameters" >
   <i type="logical" name="LEPSILON"> F  </i>
   <i type="logical" name="LRPA"> F  </i>
   <i type="logical" name="LNABLA"> F  </i>
   <i type="logical" name="LVEL"> F  </i>
   <i type="int" name="KINTER">     0</i>
   <i name="CSHIFT">      0.10000000</i>
   <i name="OMEGAMAX">     -1.00000000</i>
   <i name="DEG_THRESHOLD">      0.00200000</i>
  </separator>
  <separator name="orbital magnetization" >
   <i type="logical" name="NUCIND"> F  </i>
   <v name="MAGPOS">      0.00000000      0.00000000      0.00000000</v>
   <i type="logical" name="LNICSALL"> T  </i>
   <i type="logical" name="ORBITALMAG"> F  </i>
   <i type="logical" name="LMAGBLOCH"> F  </i>
   <i type="logical" name="LCHIMAG"> F  </i>
   <i type="logical" name="LGAUGE"> T  </i>
   <i type="int" name="MAGATOM">     0</i>
   <v name="MAGDIPOL">      0.00000000      0.00000000      0.00000000</v>
   <v name="AVECCONST">      0.00000000      0.00000000      0.00000000</v>
  </separator>
  <separator name="response functions" >
   <i type="logical" name="LADDER"> F  </i>
   <i type="logical" name="LFXC"> F  </i>
   <i type="logical" name="LHARTREE"> T  </i>
   <i type="int" name="IBSE">     0</i>
   <i type="logical" name="LTCTE"> F  </i>
   <i type="logical" name="LTETE"> F  </i>
   <i type="logical" name="LTRIPLET"> F  </i>
   <i type="logical" name="LFXCEPS"> F  </i>
   <i type="logical" name="LFXHEG"> F  </i>
   <i type="logical" name="L2ORDER"> F  </i>
   <i type="logical" name="LUSEW"> F  </i>
   <i name="ENCUTGW">     -2.00000000</i>
   <i name="ENCUTGWSOFT">     -2.00000000</i>
   <i name="ENCUTLF">     -1.00000000</i>
   <i type="int" name="LMAXMP2">    -1</i>
   <i name="SCISSOR">      0.00000000</i>
   <i type="int" name="NOMEGA">     0</i>
   <i type="int" name="NOMEGAR">     0</i>
   <i type="int" name="NBANDSGW">    -1</i>
   <i type="int" name="NBANDSO">    -1</i>
   <i type="int" name="NBANDSV">    -1</i>
   <i type="int" name="NELM">   100</i>
   <i type="int" name="DIM">     3</i>
   <i type="int" name="ANTIRES">     0</i>
   <i name="OMEGAMAX">    -30.00000000</i>
   <i name="OMEGAMIN">    -30.00000000</i>
   <i name="OMEGATL">   -200.00000000</i>
   <i type="int" name="OMEGAGRID">     0</i>
   <i name="CSHIFT">     -0.10000000</i>
   <i type="logical" name="SELFENERGY"> F  </i>
   <i type="logical" name="LSPECTRAL"> F  </i>
   <i type="logical" name="ODDONLYGW"> F  </i>
   <i type="logical" name="EVENONLYGW"> F  </i>
   <i type="int" name="NKREDLFX">     1</i>
   <i type="int" name="NKREDLFY">     1</i>
   <i type="int" name="NKREDLFZ">     1</i>
   <i type="int" name="MAXMEM">  1800</i>
   <i type="int" name="TELESCOPE">     0</i>
   <i type="int" name="TAUPAR">     1</i>
  </separator>
  <separator name="External order field" >
   <i name="OFIELD_KAPPA">      0.00000000</i>
   <v name="OFIELD_K">      0.00000000      0.00000000      0.00000000</v>
   <i name="OFIELD_Q6_NEAR">      0.00000000</i>
   <i name="OFIELD_Q6_FAR">      0.00000000</i>
   <i name="OFIELD_A">      0.00000000</i>
  </separator>
 </parameters>
 <atominfo>
  <atoms>       4 </atoms>
  <types>       1 </types>
  <array name="atoms" >
   <dimension dim="1">ion</dimension>
   <field type="string">element</field>
   <field type="int">atomtype</field>
   <set>
    <rc><c>C </c><c>   1</c></rc>
    <rc><c>C </c><c>   1</c></rc>
    <rc><c>C </c><c>   1</c></rc>
    <rc><c>C </c><c>   1</c></rc>
   </set>
  </array>
  <array name="atomtypes" >
   <dimension dim="1">type</dimension>
   <field type="int">atomspertype</field>
   <field type="string">element</field>
   <field>mass</field>
   <field>valence</field>
   <field type="string">pseudopotential</field>
   <set>
    <rc><c>   4</c><c>C </c><c>     12.01100000</c><c>      4.00000000</c><c> PAW_PBE C 08Apr2002                    </c></rc>
   </set>
  </array>
 </atominfo>
 <structure name="initialpos" >
  <crystal>
   <varray name="basis" >
    <v>       4.26571439       0.00000000       0.00000000 </v>
    <v>       0.00000000       2.49172675       0.00000000 </v>
    <v>       0.00000000       0.00000000      19.83610946 </v>
   </varray>
   <i name="volume">    210.83790140 </i>
   <varray name="rec_basis" >
    <v>       0.23442732       0.00000000       0.00000000 </v>
    <v>       0.00000000       0.40132812       0.00000000 </v>
    <v>       0.00000000       0.00000000       0.05041311 </v>
   </varray>
  </crystal>
  <varray name="positions" >
   <v>       0.00026297       0.00000000       0.00000000 </v>
   <v>       0.16640370       0.50000000       0.00000000 </v>
   <v>       0.50026297       0.50000000       0.00000000 </v>
   <v>       0.66640370       0.00000000       0.00000000 </v>
  </varray>
 </structure>
 <calculation>
  <scstep>
   <time name="dav">  297.60  298.96</time>
   <time name="total">  300.03  303.68</time>
   <energy>
    <i name="alphaZ">      6.18334092 </i>
    <i name="ewald">   2531.50835708 </i>
    <i name="hartreedc">  -2958.54460175 </i>
    <i name="XCdc">     54.98568044 </i>
    <i name="pawpsdc">    151.32577238 </i>
    <i name="pawaedc">   -155.92769107 </i>
    <i name="eentropy">     -0.00233211 </i>
    <i name="bandstr">    -29.48916439 </i>
    <i name="atom">    588.62352690 </i>
    <i name="e_fr_energy">    188.66288841 </i>
    <i name="e_wo_entrp">    188.66522052 </i>
    <i name="e_0_energy">    188.66405447 </i>
   </energy>
  </scstep>
  <scstep>
   <time name="dav">  453.91  455.48</time>
   <time name="total">  453.92  455.50</time>
   <energy>
    <i name="e_fr_energy">     -9.71669345 </i>
    <i name="e_wo_entrp">     -9.71644824 </i>
    <i name="e_0_energy">     -9.71657084 </i>
   </energy>
  </scstep>
  <scstep>
   <time name="dav">  344.50  346.78</time>
   <time name="total">  373.66  376.29</time>
   <energy>
    <i name="e_fr_energy">    -38.32468755 </i>
    <i name="e_wo_entrp">    -38.32467084 </i>
    <i name="e_0_energy">    -38.32467919 </i>
   </energy>
  </scstep>
  <scstep>
   <time name="diag">   79.35   79.97</time>
   <time name="diis">  334.16  335.25</time>
   <time name="orth">    3.09    3.10</time>
   <time name="total">  448.68  450.58</time>
   <energy>
    <i name="e_fr_energy">    -37.66862800 </i>
    <i name="e_wo_entrp">    -37.66859626 </i>
    <i name="e_0_energy">    -37.66861213 </i>
   </energy>
  </scstep>
  <scstep>
   <time name="diag">   79.90   79.97</time>
   <time name="diis">  332.78  333.37</time>
   <time name="orth">    3.10    3.10</time>
   <time name="total">  447.70  448.58</time>
   <energy>
    <i name="e_fr_energy">    -36.92483606 </i>
    <i name="e_wo_entrp">    -36.92480424 </i>
    <i name="e_0_energy">    -36.92482015 </i>
   </energy>
  </scstep>
  <scstep>
   <time name="diag">   79.55   79.96</time>
   <time name="diis">  358.75  360.84</time>
   <time name="orth">    3.08    3.09</time>
   <time name="total">  473.25  476.37</time>
   <energy>
    <i name="e_fr_energy">    -36.92653796 </i>
    <i name="e_wo_entrp">    -36.92650695 </i>
    <i name="e_0_energy">    -36.92652245 </i>
   </energy>
  </scstep>
  <scstep>
   <time name="diag">   79.34   79.92</time>
   <time name="diis">  327.14  329.38</time>
   <time name="orth">    3.08    3.10</time>
   <time name="total">  441.51  444.62</time>
   <energy>
    <i name="e_fr_energy">    -36.91713653 </i>
    <i name="e_wo_entrp">    -36.91710730 </i>
    <i name="e_0_energy">    -36.91712191 </i>
   </energy>
  </scstep>
  <scstep>
   <time name="diag">   79.67   79.95</time>
   <time name="diis">  331.70  334.05</time>
   <time name="orth">    3.08    3.10</time>
   <time name="total">  446.22  449.07</time>
   <energy>
    <i name="e_fr_energy">    -36.91177636 </i>
    <i name="e_wo_entrp">    -36.91174662 </i>
    <i name="e_0_energy">    -36.91176149 </i>
   </energy>
  </scstep>
  <scstep>
   <time name="diag">   79.26   79.86</time>
   <time name="diis">  321.55  322.35</time>
   <time name="orth">    3.09    3.10</time>
   <time name="total">  435.55  437.18</time>
   <energy>
    <i name="e_fr_energy">    -36.91149722 </i>
    <i name="e_wo_entrp">    -36.91146656 </i>
    <i name="e_0_energy">    -36.91148189 </i>
   </energy>
  </scstep>
  <scstep>
   <time name="diag">   79.76   79.86</time>
   <time name="diis">  322.09  322.67</time>
   <time name="orth">    3.10    3.10</time>
   <time name="total">  436.26  436.98</time>
   <energy>
    <i name="e_fr_energy">    -36.91139407 </i>
    <i name="e_wo_entrp">    -36.91136396 </i>
    <i name="e_0_energy">    -36.91137901 </i>
   </energy>
  </scstep>
  <scstep>
   <time name="diag">   79.84   79.86</time>
   <time name="diis">  324.86  324.91</time>
   <time name="orth">    3.13    3.13</time>
   <time name="total">  439.08  439.21</time>
   <energy>
    <i name="e_fr_energy">    -36.91388556 </i>
    <i name="e_wo_entrp">    -36.91385569 </i>
    <i name="e_0_energy">    -36.91387062 </i>
   </energy>
  </scstep>
  <scstep>
   <time name="diag">   79.88   79.89</time>
   <time name="diis">  323.21  323.26</time>
   <time name="orth">    3.09    3.09</time>
   <time name="total">  437.92  438.08</time>
   <energy>
    <i name="e_fr_energy">    -36.91433419 </i>
    <i name="e_wo_entrp">    -36.91430410 </i>
    <i name="e_0_energy">    -36.91431915 </i>
   </energy>
  </scstep>
  <scstep>
   <time name="diag">   79.92   79.93</time>
   <time name="diis">  328.51  328.56</time>
   <time name="orth">    3.09    3.09</time>
   <time name="total">  442.99  443.11</time>
   <energy>
    <i name="e_fr_energy">    -36.91459822 </i>
    <i name="e_wo_entrp">    -36.91456809 </i>
    <i name="e_0_energy">    -36.91458315 </i>
   </energy>
  </scstep>
  <scstep>
   <time name="diag">   79.07   79.84</time>
   <time name="diis">  323.02  326.63</time>
   <time name="orth">    3.09    3.13</time>
   <time name="total">  437.49  442.27</time>
   <energy>
    <i name="e_fr_energy">    -36.91468079 </i>
    <i name="e_wo_entrp">    -36.91465072 </i>
    <i name="e_0_energy">    -36.91466576 </i>
   </energy>
  </scstep>
  <scstep>
   <time name="diag">   79.05   79.81</time>
   <time name="diis">  327.42  330.32</time>
   <time name="orth">    3.10    3.10</time>
   <time name="total">  442.26  446.00</time>
   <energy>
    <i name="e_fr_energy">    -36.91468933 </i>
    <i name="e_wo_entrp">    -36.91465924 </i>
    <i name="e_0_energy">    -36.91467429 </i>
   </energy>
  </scstep>
  <scstep>
   <time name="diag">   79.72   79.81</time>
   <time name="diis">  327.97  328.89</time>
   <time name="orth">    3.10    3.10</time>
   <time name="total">  443.25  444.38</time>
   <energy>
    <i name="e_fr_energy">    -36.91470145 </i>
    <i name="e_wo_entrp">    -36.91467134 </i>
    <i name="e_0_energy">    -36.91468640 </i>
   </energy>
  </scstep>
  <scstep>
   <time name="diag">   79.71   79.82</time>
   <time name="diis">  336.63  338.58</time>
   <time name="orth">    3.09    3.10</time>
   <time name="total">  451.78  453.91</time>
   <energy>
    <i name="e_fr_energy">    -36.91470593 </i>
    <i name="e_wo_entrp">    -36.91467583 </i>
    <i name="e_0_energy">    -36.91469088 </i>
   </energy>
  </scstep>
  <scstep>
   <time name="diag">   79.07   79.87</time>
   <time name="diis">  320.15  323.72</time>
   <time name="orth">    3.07    3.10</time>
   <time name="total">  434.69  439.46</time>
   <energy>
    <i name="e_fr_energy">    -36.91470722 </i>
    <i name="e_wo_entrp">    -36.91467713 </i>
    <i name="e_0_energy">    -36.91469218 </i>
   </energy>
  </scstep>
  <scstep>
   <time name="diag">   79.36   80.03</time>
   <time name="diis">  337.38  338.24</time>
   <time name="orth">    3.08    3.08</time>
   <time name="total">  452.46  454.05</time>
   <energy>
    <i name="e_fr_energy">    -36.91470794 </i>
    <i name="e_wo_entrp">    -36.91467785 </i>
    <i name="e_0_energy">    -36.91469290 </i>
   </energy>
  </scstep>
  <scstep>
   <time name="diag">   79.85   80.02</time>
   <time name="diis">  255.66  257.01</time>
   <time name="orth">    3.10    3.12</time>
   <time name="total">  371.09  372.92</time>
   <energy>
    <i name="e_fr_energy">    -36.91470800 </i>
    <i name="e_wo_entrp">    -36.91467790 </i>
    <i name="e_0_energy">    -36.91469295 </i>
   </energy>
  </scstep>
  <scstep>
   <time name="diag">   79.55   79.99</time>
   <time name="diis">  253.53  255.06</time>
   <time name="orth">    3.09    3.11</time>
   <time name="total">  368.39  370.72</time>
   <energy>
    <i name="e_fr_energy">    -36.91470801 </i>
    <i name="e_wo_entrp">    -36.91467792 </i>
    <i name="e_0_energy">    -36.91469297 </i>
   </energy>
  </scstep>
  <scstep>
   <time name="diag">   79.24   79.99</time>
   <time name="diis">  225.55  227.55</time>
   <time name="orth">    3.08    3.10</time>
   <time name="total">  310.24  313.06</time>
   <energy>
    <i name="alphaZ">      6.18334092 </i>
    <i name="ewald">   2531.50835708 </i>
    <i name="hartreedc">  -3025.59119573 </i>
    <i name="XCdc">     57.37062021 </i>
    <i name="pawpsdc">    273.75022100 </i>
    <i name="pawaedc">   -278.88394963 </i>
    <i name="eentropy">     -0.00003010 </i>
    <i name="bandstr">   -189.87559867 </i>
    <i name="atom">    588.62352690 </i>
    <i name="e_fr_energy">    -36.91470801 </i>
    <i name="e_wo_entrp">    -36.91467792 </i>
    <i name="e_0_energy">    -36.91469297 </i>
   </energy>
  </scstep>
  <structure>
   <crystal>
    <varray name="basis" >
     <v>       4.26571439       0.00000000       0.00000000 </v>
     <v>       0.00000000       2.49172675       0.00000000 </v>
     <v>       0.00000000       0.00000000      19.83610946 </v>
    </varray>
    <i name="volume">    210.83790140 </i>
    <varray name="rec_basis" >
     <v>       0.23442732       0.00000000       0.00000000 </v>
     <v>       0.00000000       0.40132812       0.00000000 </v>
     <v>       0.00000000       0.00000000       0.05041311 </v>
    </varray>
   </crystal>
   <varray name="positions" >
    <v>       0.00026297       0.00000000       0.00000000 </v>
    <v>       0.16640370       0.50000000       0.00000000 </v>
    <v>       0.50026297       0.50000000       0.00000000 </v>
    <v>       0.66640370       0.00000000       0.00000000 </v>
   </varray>
  </structure>
  <varray name="forces" >
   <v>      -0.00180708      -0.00000000      -0.00000000 </v>
   <v>       0.00180708       0.00000000       0.00000000 </v>
   <v>      -0.00180708       0.00000000      -0.00000000 </v>
   <v>       0.00180708      -0.00000000       0.00000000 </v>
  </varray>
  <varray name="stress" >
   <v>      -0.01142534       0.00000000       0.00000000 </v>
   <v>       0.00000000     -16.54487416       0.00000000 </v>
   <v>       0.00000000       0.00000000      -0.01016679 </v>
  </varray>
  <energy>
   <i name="e_fr_energy">    -36.91470801 </i>
   <i name="e_wo_entrp">    -36.91469297 </i>
   <i name="e_0_energy">     -0.00003010 </i>
  </energy>
  <time name="totalsc"> 9389.23 9437.85</time>
 </calculation>
 <calculation>
  <scstep>
   <time name="dav">  316.28  318.07</time>
   <time name="total">  348.56  350.61</time>
   <energy>
    <i name="alphaZ">      6.18334092 </i>
    <i name="ewald">   2531.50911058 </i>
    <i name="hartreedc">  -3025.59152993 </i>
    <i name="XCdc">     57.37064210 </i>
    <i name="pawpsdc">    273.75025744 </i>
    <i name="pawaedc">   -278.88398636 </i>
    <i name="eentropy">     -0.00002831 </i>
    <i name="bandstr">   -189.87604037 </i>
    <i name="atom">    588.62352690 </i>
    <i name="e_fr_energy">    -36.91470704 </i>
    <i name="e_wo_entrp">    -36.91467873 </i>
    <i name="e_0_energy">    -36.91469288 </i>
   </energy>
  </scstep>
  <scstep>
   <time name="diag">   79.35   79.97</time>
   <time name="diis">  321.40  324.29</time>
   <time name="orth">    3.08    3.08</time>
   <time name="total">  435.93  439.83</time>
   <energy>
    <i name="e_fr_energy">    -36.91470709 </i>
    <i name="e_wo_entrp">    -36.91467873 </i>
    <i name="e_0_energy">    -36.91469291 </i>
   </energy>
  </scstep>
  <scstep>
   <time name="diag">   79.12   79.93</time>
   <time name="diis">  324.68  328.39</time>
   <time name="orth">    3.08    3.10</time>
   <time name="total">  439.11  443.99</time>
   <energy>
    <i name="e_fr_energy">    -36.91470706 </i>
    <i name="e_wo_entrp">    -36.91467859 </i>
    <i name="e_0_energy">    -36.91469282 </i>
   </energy>
  </scstep>
  <scstep>
   <time name="diag">   79.73   79.95</time>
   <time name="diis">  333.85  334.28</time>
   <time name="orth">    3.10    3.11</time>
   <time name="total">  449.24  449.94</time>
   <energy>
    <i name="e_fr_energy">    -36.91470705 </i>
    <i name="e_wo_entrp">    -36.91467861 </i>
    <i name="e_0_energy">    -36.91469283 </i>
   </energy>
  </scstep>
  <scstep>
   <time name="diag">   79.75   79.90</time>
   <time name="diis">  298.97  299.42</time>
   <time name="orth">    3.09    3.10</time>
   <time name="total">  414.05  414.98</time>
   <energy>
    <i name="e_fr_energy">    -36.91470705 </i>
    <i name="e_wo_entrp">    -36.91467861 </i>
    <i name="e_0_energy">    -36.91469283 </i>
   </energy>
  </scstep>
  <scstep>
   <time name="diag">   79.65   80.00</time>
   <time name="diis">  223.02  223.47</time>
   <time name="orth">    3.10    3.11</time>
   <time name="total">  308.13  308.98</time>
   <energy>
    <i name="alphaZ">      6.18334092 </i>
    <i name="ewald">   2531.50911058 </i>
    <i name="hartreedc">  -3025.59183820 </i>
    <i name="XCdc">     57.37065526 </i>
    <i name="pawpsdc">    273.75159831 </i>
    <i name="pawaedc">   -278.88533310 </i>
    <i name="eentropy">     -0.00002844 </i>
    <i name="bandstr">   -189.87573929 </i>
    <i name="atom">    588.62352690 </i>
    <i name="e_fr_energy">    -36.91470705 </i>
    <i name="e_wo_entrp">    -36.91467861 </i>
    <i name="e_0_energy">    -36.91469283 </i>
   </energy>
  </scstep>
  <structure>
   <crystal>
    <varray name="basis" >
     <v>       4.26571439       0.00000000       0.00000000 </v>
     <v>       0.00000000       2.49172675       0.00000000 </v>
     <v>       0.00000000       0.00000000      19.83610946 </v>
    </varray>
    <i name="volume">    210.83790140 </i>
    <varray name="rec_basis" >
     <v>       0.23442732       0.00000000       0.00000000 </v>
     <v>       0.00000000       0.40132812       0.00000000 </v>
     <v>       0.00000000       0.00000000       0.05041311 </v>
    </varray>
   </crystal>
   <varray name="positions" >
    <v>       0.00024253      -0.00000000      -0.00000000 </v>
    <v>       0.16642414       0.50000000       0.00000000 </v>
    <v>       0.50024253       0.50000000      -0.00000000 </v>
    <v>       0.66642414      -0.00000000       0.00000000 </v>
   </varray>
  </structure>
  <varray name="forces" >
   <v>       0.00737009      -0.00000000      -0.00000000 </v>
   <v>      -0.00737009       0.00000000       0.00000000 </v>
   <v>       0.00737009       0.00000000      -0.00000000 </v>
   <v>      -0.00737009      -0.00000000       0.00000000 </v>
  </varray>
  <varray name="stress" >
   <v>       0.02062050       0.00000000       0.00000000 </v>
   <v>       0.00000000     -16.57099184       0.00000000 </v>
   <v>       0.00000000       0.00000000      -0.01008631 </v>
  </varray>
  <energy>
   <i name="e_fr_energy">    -36.91470705 </i>
   <i name="e_wo_entrp">    -36.91469283 </i>
   <i name="e_0_energy">     -0.00002844 </i>
  </energy>
  <time name="totalsc"> 2496.68 2510.78</time>
 </calculation>
 <calculation>
  <scstep>
   <time name="dav">  314.99  317.21</time>
   <time name="total">  347.22  349.80</time>
   <energy>
    <i name="alphaZ">      6.18334092 </i>
    <i name="ewald">   2531.50850461 </i>
    <i name="hartreedc">  -3025.59158477 </i>
    <i name="XCdc">     57.37063826 </i>
    <i name="pawpsdc">    273.75159687 </i>
    <i name="pawaedc">   -278.88533174 </i>
    <i name="eentropy">     -0.00002988 </i>
    <i name="bandstr">   -189.87536925 </i>
    <i name="atom">    588.62352690 </i>
    <i name="e_fr_energy">    -36.91470808 </i>
    <i name="e_wo_entrp">    -36.91467820 </i>
    <i name="e_0_energy">    -36.91469314 </i>
   </energy>
  </scstep>
  <scstep>
   <time name="diag">   79.37   79.91</time>
   <time name="diis">  328.02  328.09</time>
   <time name="orth">    3.10    3.10</time>
   <time name="total">  442.77  443.42</time>
   <energy>
    <i name="e_fr_energy">    -36.91470811 </i>
    <i name="e_wo_entrp">    -36.91467828 </i>
    <i name="e_0_energy">    -36.91469320 </i>
   </energy>
  </scstep>
  <scstep>
   <time name="diag">   79.99   80.01</time>
   <time name="diis">  331.13  331.19</time>
   <time name="orth">    3.08    3.08</time>
   <time name="total">  446.78  446.98</time>
   <energy>
    <i name="e_fr_energy">    -36.91470808 </i>
    <i name="e_wo_entrp">    -36.91467834 </i>
    <i name="e_0_energy">    -36.91469321 </i>
   </energy>
  </scstep>
  <scstep>
   <time name="diag">   79.82   79.94</time>
   <time name="diis">  336.84  336.91</time>
   <time name="orth">    3.10    3.10</time>
   <time name="total">  452.27  452.48</time>
   <energy>
    <i name="e_fr_energy">    -36.91470808 </i>
    <i name="e_wo_entrp">    -36.91467831 </i>
    <i name="e_0_energy">    -36.91469320 </i>
   </energy>
  </scstep>
  <scstep>
   <time name="diag">   79.41   79.92</time>
   <time name="diis">  276.70  277.69</time>
   <time name="orth">    3.09    3.09</time>
   <time name="total">  391.88  393.87</time>
   <energy>
    <i name="e_fr_energy">    -36.91470808 </i>
    <i name="e_wo_entrp">    -36.91467831 </i>
    <i name="e_0_energy">    -36.91469319 </i>
   </energy>
  </scstep>
  <scstep>
   <time name="diag">   79.81   79.94</time>
   <time name="diis">  221.55  221.97</time>
   <time name="orth">    3.09    3.10</time>
   <time name="total">  337.20  337.85</time>
   <energy>
    <i name="e_fr_energy">    -36.91470808 </i>
    <i name="e_wo_entrp">    -36.91467831 </i>
    <i name="e_0_energy">    -36.91469320 </i>
   </energy>
  </scstep>
  <scstep>
   <time name="diag">   79.79   79.95</time>
   <time name="diis">  217.95  218.64</time>
   <time name="orth">    3.08    3.10</time>
   <time name="total">  333.31  334.24</time>
   <energy>
    <i name="e_fr_energy">    -36.91470808 </i>
    <i name="e_wo_entrp">    -36.91467831 </i>
    <i name="e_0_energy">    -36.91469320 </i>
   </energy>
  </scstep>
  <scstep>
   <time name="diag">   79.41   79.91</time>
   <time name="diis">  203.15  204.87</time>
   <time name="orth">    3.08    3.10</time>
   <time name="total">  317.97  320.45</time>
   <energy>
    <i name="e_fr_energy">    -36.91470808 </i>
    <i name="e_wo_entrp">    -36.91467831 </i>
    <i name="e_0_energy">    -36.91469320 </i>
   </energy>
  </scstep>
  <scstep>
   <time name="diag">   79.21   79.94</time>
   <time name="diis">  192.07  194.01</time>
   <time name="orth">    3.08    3.10</time>
   <time name="total">  306.52  309.59</time>
   <energy>
    <i name="e_fr_energy">    -36.91470808 </i>
    <i name="e_wo_entrp">    -36.91467831 </i>
    <i name="e_0_energy">    -36.91469320 </i>
   </energy>
  </scstep>
  <scstep>
   <time name="diag">   79.57   79.92</time>
   <time name="diis">  185.95  186.26</time>
   <time name="orth">    3.08    3.08</time>
   <time name="total">  300.92  301.80</time>
   <energy>
    <i name="e_fr_energy">    -36.91470808 </i>
    <i name="e_wo_entrp">    -36.91467831 </i>
    <i name="e_0_energy">    -36.91469320 </i>
   </energy>
  </scstep>
  <scstep>
   <time name="diag">   79.19   79.96</time>
   <time name="diis">  178.66  179.96</time>
   <time name="orth">    3.08    3.08</time>
   <time name="total">  263.34  265.44</time>
   <energy>
    <i name="alphaZ">      6.18334092 </i>
    <i name="ewald">   2531.50850461 </i>
    <i name="hartreedc">  -3025.59134406 </i>
    <i name="XCdc">     57.37062795 </i>
    <i name="pawpsdc">    273.75052773 </i>
    <i name="pawaedc">   -278.88425798 </i>
    <i name="eentropy">     -0.00002977 </i>
    <i name="bandstr">   -189.87560439 </i>
    <i name="atom">    588.62352690 </i>
    <i name="e_fr_energy">    -36.91470808 </i>
    <i name="e_wo_entrp">    -36.91467831 </i>
    <i name="e_0_energy">    -36.91469320 </i>
   </energy>
  </scstep>
  <structure>
   <crystal>
    <varray name="basis" >
     <v>       4.26571439       0.00000000       0.00000000 </v>
     <v>       0.00000000       2.49172675       0.00000000 </v>
     <v>       0.00000000       0.00000000      19.83610946 </v>
    </varray>
    <i name="volume">    210.83790140 </i>
    <varray name="rec_basis" >
     <v>       0.23442732       0.00000000       0.00000000 </v>
     <v>       0.00000000       0.40132812       0.00000000 </v>
     <v>       0.00000000       0.00000000       0.05041311 </v>
    </varray>
   </crystal>
   <varray name="positions" >
    <v>       0.00025894      -0.00000000      -0.00000000 </v>
    <v>       0.16640772       0.50000000       0.00000000 </v>
    <v>       0.50025894       0.50000000      -0.00000000 </v>
    <v>       0.66640772      -0.00000000       0.00000000 </v>
   </varray>
  </structure>
  <varray name="forces" >
   <v>       0.00000175       0.00000000       0.00000000 </v>
   <v>      -0.00000175       0.00000000      -0.00000000 </v>
   <v>       0.00000175       0.00000000       0.00000000 </v>
   <v>      -0.00000175      -0.00000000      -0.00000000 </v>
  </varray>
  <varray name="stress" >
   <v>      -0.00505996       0.00000000       0.00000000 </v>
   <v>       0.00000000     -16.55005414       0.00000000 </v>
   <v>       0.00000000       0.00000000      -0.01012339 </v>
  </varray>
  <energy>
   <i name="e_fr_energy">    -36.91470808 </i>
   <i name="e_wo_entrp">    -36.91469320 </i>
   <i name="e_0_energy">     -0.00002977 </i>
  </energy>
  <time name="totalsc"> 4041.36 4058.15</time>
 </calculation>
 <calculation>
  <scstep>
   <time name="dav">  253.20  255.02</time>
   <time name="total">  285.50  287.58</time>
   <energy>
    <i name="alphaZ">      6.18334092 </i>
    <i name="ewald">   2531.50850446 </i>
    <i name="hartreedc">  -3025.59134357 </i>
    <i name="XCdc">     57.37062794 </i>
    <i name="pawpsdc">    273.75052756 </i>
    <i name="pawaedc">   -278.88425781 </i>
    <i name="eentropy">     -0.00002977 </i>
    <i name="bandstr">   -189.87560472 </i>
    <i name="atom">    588.62352690 </i>
    <i name="e_fr_energy">    -36.91470808 </i>
    <i name="e_wo_entrp">    -36.91467831 </i>
    <i name="e_0_energy">    -36.91469320 </i>
   </energy>
  </scstep>
  <scstep>
   <time name="diag">   79.69   79.84</time>
   <time name="diis">  154.99  155.40</time>
   <time name="orth">    3.10    3.10</time>
   <time name="total">  270.35  270.98</time>
   <energy>
    <i name="e_fr_energy">    -36.91470808 </i>
    <i name="e_wo_entrp">    -36.91467831 </i>
    <i name="e_0_energy">    -36.91469320 </i>
   </energy>
  </scstep>
  <scstep>
   <time name="diag">   79.58   79.88</time>
   <time name="diis">  153.02  154.30</time>
   <time name="orth">    3.07    3.10</time>
   <time name="total">  268.16  270.03</time>
   <energy>
    <i name="e_fr_energy">    -36.91470808 </i>
    <i name="e_wo_entrp">    -36.91467831 </i>
    <i name="e_0_energy">    -36.91469320 </i>
   </energy>
  </scstep>
  <scstep>
   <time name="diag">   79.46   79.84</time>
   <time name="diis">  152.46  153.32</time>
   <time name="orth">    3.08    3.08</time>
   <time name="total">  267.45  268.91</time>
   <energy>
    <i name="e_fr_energy">    -36.91470808 </i>
    <i name="e_wo_entrp">    -36.91467831 </i>
    <i name="e_0_energy">    -36.91469320 </i>
   </energy>
  </scstep>
  <scstep>
   <time name="diag">   79.65   79.84</time>
   <time name="diis">  152.44  152.83</time>
   <time name="orth">    3.10    3.11</time>
   <time name="total">  237.57  238.22</time>
   <energy>
    <i name="alphaZ">      6.18334092 </i>
    <i name="ewald">   2531.50850446 </i>
    <i name="hartreedc">  -3025.59134310 </i>
    <i name="XCdc">     57.37062794 </i>
    <i name="pawpsdc">    273.75052770 </i>
    <i name="pawaedc">   -278.88425795 </i>
    <i name="eentropy">     -0.00002977 </i>
    <i name="bandstr">   -189.87560520 </i>
    <i name="atom">    588.62352690 </i>
    <i name="e_fr_energy">    -36.91470808 </i>
    <i name="e_wo_entrp">    -36.91467831 </i>
    <i name="e_0_energy">    -36.91469320 </i>
   </energy>
  </scstep>
  <structure>
   <crystal>
    <varray name="basis" >
     <v>       4.26571439       0.00000000       0.00000000 </v>
     <v>       0.00000000       2.49172675       0.00000000 </v>
     <v>       0.00000000       0.00000000      19.83610946 </v>
    </varray>
    <i name="volume">    210.83790140 </i>
    <varray name="rec_basis" >
     <v>       0.23442732       0.00000000       0.00000000 </v>
     <v>       0.00000000       0.40132812       0.00000000 </v>
     <v>       0.00000000       0.00000000       0.05041311 </v>
    </varray>
   </crystal>
   <varray name="positions" >
    <v>       0.00025895      -0.00000000      -0.00000000 </v>
    <v>       0.16640772       0.50000000       0.00000000 </v>
    <v>       0.50025895       0.50000000      -0.00000000 </v>
    <v>       0.66640772      -0.00000000       0.00000000 </v>
   </varray>
  </structure>
  <varray name="forces" >
   <v>      -0.00000021       0.00000000      -0.00000000 </v>
   <v>       0.00000021      -0.00000000       0.00000000 </v>
   <v>      -0.00000021      -0.00000000      -0.00000000 </v>
   <v>       0.00000021       0.00000000       0.00000000 </v>
  </varray>
  <varray name="stress" >
   <v>      -0.00507586       0.00000000       0.00000000 </v>
   <v>       0.00000000     -16.55003934       0.00000000 </v>
   <v>       0.00000000       0.00000000      -0.01011720 </v>
  </varray>
  <energy>
   <i name="e_fr_energy">    -36.91470808 </i>
   <i name="e_wo_entrp">    -36.91469320 </i>
   <i name="e_0_energy">     -0.00002977 </i>
  </energy>
  <time name="totalsc"> 1424.13 1431.37</time>
  <eigenvalues>
   <array>
    <dimension dim="1">band</dimension>
    <dimension dim="2">kpoint</dimension>
    <dimension dim="3">spin</dimension>
    <field>eigene</field>
    <field>occ</field>
    <set>
     <set comment="spin 1">
      <set comment="kpoint 1">
       <r>  -22.1851    1.0000 </r>
       <r>  -16.8938    1.0000 </r>
       <r>  -15.9288    1.0000 </r>
       <r>  -10.3060    1.0000 </r>
       <r>   -9.2911    1.0000 </r>
       <r>   -5.8743    1.0000 </r>
       <r>   -5.7638    1.0000 </r>
       <r>   -5.0277    1.0000 </r>
       <r>   -1.0990    0.0000 </r>
       <r>    0.5320    0.0000 </r>
       <r>    1.3320    0.0000 </r>
       <r>    1.7191    0.0000 </r>
      </set>
      <set comment="kpoint 2">
       <r>  -22.1748    1.0000 </r>
       <r>  -17.0703    1.0000 </r>
       <r>  -15.7370    1.0000 </r>
       <r>  -10.2937    1.0000 </r>
       <r>   -9.2808    1.0000 </r>
       <r>   -5.8973    1.0000 </r>
       <r>   -5.8055    1.0000 </r>
       <r>   -5.0957    1.0000 </r>
       <r>   -1.0156    0.0000 </r>
       <r>    0.5460    0.0000 </r>
       <r>    1.3461    0.0000 </r>
       <r>    1.7334    0.0000 </r>
      </set>
      <set comment="kpoint 3">
       <r>  -22.1439    1.0000 </r>
       <r>  -17.4192    1.0000 </r>
       <r>  -15.3428    1.0000 </r>
       <r>  -10.2569    1.0000 </r>
       <r>   -9.2501    1.0000 </r>
       <r>   -5.9651    1.0000 </r>
       <r>   -5.9291    1.0000 </r>
       <r>   -5.2836    1.0000 </r>
       <r>   -0.7812    0.0000 </r>
       <r>    0.5879    0.0000 </r>
       <r>    1.3885    0.0000 </r>
       <r>    1.7763    0.0000 </r>
      </set>
      <set comment="kpoint 4">
       <r>  -22.0925    1.0000 </r>
       <r>  -17.8024    1.0000 </r>
       <r>  -14.8841    1.0000 </r>
       <r>  -10.1957    1.0000 </r>
       <r>   -9.1989    1.0000 </r>
       <r>   -6.1299    1.0000 </r>
       <r>   -6.0740    1.0000 </r>
       <r>   -5.5568    1.0000 </r>
       <r>   -0.4312    0.0000 </r>
       <r>    0.6577    0.0000 </r>
       <r>    1.4592    0.0000 </r>
       <r>    1.8478    0.0000 </r>
      </set>
      <set comment="kpoint 5">
       <r>  -22.0204    1.0000 </r>
       <r>  -18.1860    1.0000 </r>
       <r>  -14.3956    1.0000 </r>
       <r>  -10.1100    1.0000 </r>
       <r>   -9.1277    1.0000 </r>
       <r>   -6.4009    1.0000 </r>
       <r>   -6.2186    1.0000 </r>
       <r>   -5.8814    1.0000 </r>
       <r>   -0.0003    0.0000 </r>
       <r>    0.7555    0.0000 </r>
       <r>    1.5581    0.0000 </r>
       <r>    1.9480    0.0000 </r>
      </set>
      <set comment="kpoint 6">
       <r>  -21.9279    1.0000 </r>
       <r>  -18.5597    1.0000 </r>
       <r>  -13.8881    1.0000 </r>
       <r>  -10.0002    1.0000 </r>
       <r>   -9.0367    1.0000 </r>
       <r>   -6.7337    1.0000 </r>
       <r>   -6.3924    1.0000 </r>
       <r>   -6.2325    1.0000 </r>
       <r>    0.4852    0.0000 </r>
       <r>    0.8812    0.0000 </r>
       <r>    1.6851    0.0000 </r>
       <r>    2.0767    0.0000 </r>
      </set>
      <set comment="kpoint 7">
       <r>  -21.8150    1.0000 </r>
       <r>  -18.9195    1.0000 </r>
       <r>  -13.3665    1.0000 </r>
       <r>   -9.8662    1.0000 </r>
       <r>   -8.9265    1.0000 </r>
       <r>   -7.1194    1.0000 </r>
       <r>   -6.5937    1.0000 </r>
       <r>   -6.5886    1.0000 </r>
       <r>    1.0076    0.0000 </r>
       <r>    1.0348    0.0000 </r>
       <r>    1.8403    0.0000 </r>
       <r>    2.2341    0.0000 </r>
      </set>
      <set comment="kpoint 8">
       <r>  -21.6817    1.0000 </r>
       <r>  -19.2634    1.0000 </r>
       <r>  -12.8339    1.0000 </r>
       <r>   -9.7085    1.0000 </r>
       <r>   -8.7978    1.0000 </r>
       <r>   -7.5491    1.0000 </r>
       <r>   -6.9546    1.0000 </r>
       <r>   -6.8006    1.0000 </r>
       <r>    1.2163    0.0000 </r>
       <r>    1.5540    0.0000 </r>
       <r>    2.0236    0.0000 </r>
       <r>    2.4201    0.0000 </r>
      </set>
      <set comment="kpoint 9">
       <r>  -21.5282    1.0000 </r>
       <r>  -19.5902    1.0000 </r>
       <r>  -12.2929    1.0000 </r>
       <r>   -9.5273    1.0000 </r>
       <r>   -8.6513    1.0000 </r>
       <r>   -8.0146    1.0000 </r>
       <r>   -7.3083    1.0000 </r>
       <r>   -7.0223    1.0000 </r>
       <r>    1.4256    0.0000 </r>
       <r>    2.1148    0.0000 </r>
       <r>    2.2349    0.0000 </r>
       <r>    2.6347    0.0000 </r>
      </set>
      <set comment="kpoint 10">
       <r>  -21.3545    1.0000 </r>
       <r>  -19.8991    1.0000 </r>
       <r>  -11.7459    1.0000 </r>
       <r>   -9.3230    1.0000 </r>
       <r>   -8.5083    1.0000 </r>
       <r>   -8.4881    1.0000 </r>
       <r>   -7.6501    1.0000 </r>
       <r>   -7.2486    1.0000 </r>
       <r>    1.6627    0.0000 </r>
       <r>    2.4739    0.0000 </r>
       <r>    2.6815    0.0000 </r>
       <r>    2.8778    0.0000 </r>
      </set>
      <set comment="kpoint 11">
       <r>  -21.1608    1.0000 </r>
       <r>  -20.1897    1.0000 </r>
       <r>  -11.1955    1.0000 </r>
       <r>   -9.0960    1.0000 </r>
       <r>   -9.0235    1.0000 </r>
       <r>   -8.3093    1.0000 </r>
       <r>   -7.9769    1.0000 </r>
       <r>   -7.4747    1.0000 </r>
       <r>    1.9275    0.0000 </r>
       <r>    2.7403    0.0000 </r>
       <r>    3.1496    0.0000 </r>
       <r>    3.2430    0.0000 </r>
      </set>
      <set comment="kpoint 12">
       <r>  -20.9473    1.0000 </r>
       <r>  -20.4615    1.0000 </r>
       <r>  -10.6445    1.0000 </r>
       <r>   -9.5545    1.0000 </r>
       <r>   -8.8471    1.0000 </r>
       <r>   -8.2864    1.0000 </r>
       <r>   -8.1165    1.0000 </r>
       <r>   -7.6968    1.0000 </r>
       <r>    2.2199    0.0000 </r>
       <r>    2.8867    0.0000 </r>
       <r>    3.0331    0.0000 </r>
       <r>    3.4499    0.0000 </r>
      </set>
      <set comment="kpoint 13">
       <r>  -20.7141    1.0000 </r>
       <r>  -20.7141    1.0000 </r>
       <r>  -10.0963    1.0000 </r>
       <r>  -10.0963    1.0000 </r>
       <r>   -8.5769    1.0000 </r>
       <r>   -8.5769    1.0000 </r>
       <r>   -7.9116    1.0000 </r>
       <r>   -7.9116    1.0000 </r>
       <r>    2.5397    0.0000 </r>
       <r>    2.5397    0.0000 </r>
       <r>    3.3479    0.0000 </r>
       <r>    3.3479    0.0000 </r>
      </set>
      <set comment="kpoint 14">
       <r>  -22.1717    1.0000 </r>
       <r>  -16.8822    1.0000 </r>
       <r>  -15.9176    1.0000 </r>
       <r>  -10.2901    1.0000 </r>
       <r>   -9.3513    1.0000 </r>
       <r>   -5.9297    1.0000 </r>
       <r>   -5.7948    1.0000 </r>
       <r>   -5.0115    1.0000 </r>
       <r>   -1.1039    0.0000 </r>
       <r>    0.5502    0.0000 </r>
       <r>    1.3504    0.0000 </r>
       <r>    1.7377    0.0000 </r>
      </set>
      <set comment="kpoint 15">
       <r>  -22.1614    1.0000 </r>
       <r>  -17.0586    1.0000 </r>
       <r>  -15.7261    1.0000 </r>
       <r>  -10.2778    1.0000 </r>
       <r>   -9.3410    1.0000 </r>
       <r>   -5.9579    1.0000 </r>
       <r>   -5.8308    1.0000 </r>
       <r>   -5.0795    1.0000 </r>
       <r>   -1.0204    0.0000 </r>
       <r>    0.5642    0.0000 </r>
       <r>    1.3646    0.0000 </r>
       <r>    1.7520    0.0000 </r>
      </set>
      <set comment="kpoint 16">
       <r>  -22.1305    1.0000 </r>
       <r>  -17.4072    1.0000 </r>
       <r>  -15.3323    1.0000 </r>
       <r>  -10.2410    1.0000 </r>
       <r>   -9.3102    1.0000 </r>
       <r>   -6.0468    1.0000 </r>
       <r>   -5.9313    1.0000 </r>
       <r>   -5.2679    1.0000 </r>
       <r>   -0.7860    0.0000 </r>
       <r>    0.6061    0.0000 </r>
       <r>    1.4069    0.0000 </r>
       <r>    1.7949    0.0000 </r>
      </set>
      <set comment="kpoint 17">
       <r>  -22.0791    1.0000 </r>
       <r>  -17.7903    1.0000 </r>
       <r>  -14.8741    1.0000 </r>
       <r>  -10.1797    1.0000 </r>
       <r>   -9.2589    1.0000 </r>
       <r>   -6.2123    1.0000 </r>
       <r>   -6.0725    1.0000 </r>
       <r>   -5.5414    1.0000 </r>
       <r>   -0.4363    0.0000 </r>
       <r>    0.6759    0.0000 </r>
       <r>    1.4776    0.0000 </r>
       <r>    1.8665    0.0000 </r>
      </set>
      <set comment="kpoint 18">
       <r>  -22.0071    1.0000 </r>
       <r>  -18.1737    1.0000 </r>
       <r>  -14.3862    1.0000 </r>
       <r>  -10.0941    1.0000 </r>
       <r>   -9.1875    1.0000 </r>
       <r>   -6.4615    1.0000 </r>
       <r>   -6.2355    1.0000 </r>
       <r>   -5.8663    1.0000 </r>
       <r>   -0.0060    0.0000 </r>
       <r>    0.7737    0.0000 </r>
       <r>    1.5764    0.0000 </r>
       <r>    1.9666    0.0000 </r>
      </set>
      <set comment="kpoint 19">
       <r>  -21.9146    1.0000 </r>
       <r>  -18.5472    1.0000 </r>
       <r>  -13.8794    1.0000 </r>
       <r>   -9.9843    1.0000 </r>
       <r>   -9.0963    1.0000 </r>
       <r>   -6.7804    1.0000 </r>
       <r>   -6.4196    1.0000 </r>
       <r>   -6.2175    1.0000 </r>
       <r>    0.4786    0.0000 </r>
       <r>    0.8994    0.0000 </r>
       <r>    1.7035    0.0000 </r>
       <r>    2.0954    0.0000 </r>
      </set>
      <set comment="kpoint 20">
       <r>  -21.8016    1.0000 </r>
       <r>  -18.9069    1.0000 </r>
       <r>  -13.3587    1.0000 </r>
       <r>   -9.8504    1.0000 </r>
       <r>   -8.9858    1.0000 </r>
       <r>   -7.1556    1.0000 </r>
       <r>   -6.6228    1.0000 </r>
       <r>   -6.5788    1.0000 </r>
       <r>    0.9996    0.0000 </r>
       <r>    1.0530    0.0000 </r>
       <r>    1.8587    0.0000 </r>
       <r>    2.2528    0.0000 </r>
      </set>
      <set comment="kpoint 21">
       <r>  -21.6684    1.0000 </r>
       <r>  -19.2506    1.0000 </r>
       <r>  -12.8271    1.0000 </r>
       <r>   -9.6928    1.0000 </r>
       <r>   -8.8566    1.0000 </r>
       <r>   -7.5769    1.0000 </r>
       <r>   -6.9397    1.0000 </r>
       <r>   -6.8401    1.0000 </r>
       <r>    1.2345    0.0000 </r>
       <r>    1.5444    0.0000 </r>
       <r>    2.0420    0.0000 </r>
       <r>    2.4387    0.0000 </r>
      </set>
      <set comment="kpoint 22">
       <r>  -21.5149    1.0000 </r>
       <r>  -19.5773    1.0000 </r>
       <r>  -12.2874    1.0000 </r>
       <r>   -9.5116    1.0000 </r>
       <r>   -8.7096    1.0000 </r>
       <r>   -8.0353    1.0000 </r>
       <r>   -7.2933    1.0000 </r>
       <r>   -7.0661    1.0000 </r>
       <r>    1.4438    0.0000 </r>
       <r>    2.1034    0.0000 </r>
       <r>    2.2532    0.0000 </r>
       <r>    2.6533    0.0000 </r>
      </set>
      <set comment="kpoint 23">
       <r>  -21.3412    1.0000 </r>
       <r>  -19.8862    1.0000 </r>
       <r>  -11.7419    1.0000 </r>
       <r>   -9.3074    1.0000 </r>
       <r>   -8.5456    1.0000 </r>
       <r>   -8.5231    1.0000 </r>
       <r>   -7.6350    1.0000 </r>
       <r>   -7.2958    1.0000 </r>
       <r>    1.6809    0.0000 </r>
       <r>    2.4923    0.0000 </r>
       <r>    2.6682    0.0000 </r>
       <r>    2.8965    0.0000 </r>
      </set>
      <set comment="kpoint 24">
       <r>  -21.1476    1.0000 </r>
       <r>  -20.1767    1.0000 </r>
       <r>  -11.1933    1.0000 </r>
       <r>   -9.0805    1.0000 </r>
       <r>   -9.0335    1.0000 </r>
       <r>   -8.3660    1.0000 </r>
       <r>   -7.9617    1.0000 </r>
       <r>   -7.5247    1.0000 </r>
       <r>    1.9458    0.0000 </r>
       <r>    2.7587    0.0000 </r>
       <r>    3.1683    0.0000 </r>
       <r>    3.2269    0.0000 </r>
      </set>
      <set comment="kpoint 25">
       <r>  -20.9341    1.0000 </r>
       <r>  -20.4484    1.0000 </r>
       <r>  -10.6446    1.0000 </r>
       <r>   -9.5605    1.0000 </r>
       <r>   -8.8316    1.0000 </r>
       <r>   -8.2711    1.0000 </r>
       <r>   -8.1721    1.0000 </r>
       <r>   -7.7490    1.0000 </r>
       <r>    2.2382    0.0000 </r>
       <r>    2.9051    0.0000 </r>
       <r>    3.0515    0.0000 </r>
       <r>    3.4686    0.0000 </r>
      </set>
      <set comment="kpoint 26">
       <r>  -20.7009    1.0000 </r>
       <r>  -20.7009    1.0000 </r>
       <r>  -10.0991    1.0000 </r>
       <r>  -10.0991    1.0000 </r>
       <r>   -8.5615    1.0000 </r>
       <r>   -8.5615    1.0000 </r>
       <r>   -7.9657    1.0000 </r>
       <r>   -7.9657    1.0000 </r>
       <r>    2.5581    0.0000 </r>
       <r>    2.5581    0.0000 </r>
       <r>    3.3663    0.0000 </r>
       <r>    3.3663    0.0000 </r>
      </set>
      <set comment="kpoint 27">
       <r>  -22.1315    1.0000 </r>
       <r>  -16.8477    1.0000 </r>
       <r>  -15.8845    1.0000 </r>
       <r>  -10.2422    1.0000 </r>
       <r>   -9.5271    1.0000 </r>
       <r>   -6.0917    1.0000 </r>
       <r>   -5.8871    1.0000 </r>
       <r>   -4.9627    1.0000 </r>
       <r>   -1.1192    0.0000 </r>
       <r>    0.6047    0.0000 </r>
       <r>    1.4056    0.0000 </r>
       <r>    1.7936    0.0000 </r>
      </set>
      <set comment="kpoint 28">
       <r>  -22.1212    1.0000 </r>
       <r>  -17.0236    1.0000 </r>
       <r>  -15.6936    1.0000 </r>
       <r>  -10.2299    1.0000 </r>
       <r>   -9.5167    1.0000 </r>
       <r>   -6.1271    1.0000 </r>
       <r>   -5.9138    1.0000 </r>
       <r>   -5.0312    1.0000 </r>
       <r>   -1.0356    0.0000 </r>
       <r>    0.6186    0.0000 </r>
       <r>    1.4198    0.0000 </r>
       <r>    1.8079    0.0000 </r>
      </set>
      <set comment="kpoint 29">
       <r>  -22.0904    1.0000 </r>
       <r>  -17.3715    1.0000 </r>
       <r>  -15.3009    1.0000 </r>
       <r>  -10.1932    1.0000 </r>
       <r>   -9.4856    1.0000 </r>
       <r>   -6.2317    1.0000 </r>
       <r>   -5.9928    1.0000 </r>
       <r>   -5.2206    1.0000 </r>
       <r>   -0.8013    0.0000 </r>
       <r>    0.6605    0.0000 </r>
       <r>    1.4621    0.0000 </r>
       <r>    1.8508    0.0000 </r>
      </set>
      <set comment="kpoint 30">
       <r>  -22.0389    1.0000 </r>
       <r>  -17.7540    1.0000 </r>
       <r>  -14.8443    1.0000 </r>
       <r>  -10.1320    1.0000 </r>
       <r>   -9.4340    1.0000 </r>
       <r>   -6.4021    1.0000 </r>
       <r>   -6.1206    1.0000 </r>
       <r>   -5.4953    1.0000 </r>
       <r>   -0.4523    0.0000 </r>
       <r>    0.7304    0.0000 </r>
       <r>    1.5328    0.0000 </r>
       <r>    1.9224    0.0000 </r>
      </set>
      <set comment="kpoint 31">
       <r>  -21.9669    1.0000 </r>
       <r>  -18.1367    1.0000 </r>
       <r>  -14.3582    1.0000 </r>
       <r>  -10.0465    1.0000 </r>
       <r>   -9.3620    1.0000 </r>
       <r>   -6.6350    1.0000 </r>
       <r>   -6.2897    1.0000 </r>
       <r>   -5.8210    1.0000 </r>
       <r>   -0.0240    0.0000 </r>
       <r>    0.8282    0.0000 </r>
       <r>    1.6316    0.0000 </r>
       <r>    2.0225    0.0000 </r>
      </set>
      <set comment="kpoint 32">
       <r>  -21.8745    1.0000 </r>
       <r>  -18.5098    1.0000 </r>
       <r>  -13.8537    1.0000 </r>
       <r>   -9.9368    1.0000 </r>
       <r>   -9.2700    1.0000 </r>
       <r>   -6.9272    1.0000 </r>
       <r>   -6.4899    1.0000 </r>
       <r>   -6.1726    1.0000 </r>
       <r>    0.4576    0.0000 </r>
       <r>    0.9539    0.0000 </r>
       <r>    1.7586    0.0000 </r>
       <r>    2.1513    0.0000 </r>
      </set>
      <set comment="kpoint 33">
       <r>  -21.7616    1.0000 </r>
       <r>  -18.8690    1.0000 </r>
       <r>  -13.3356    1.0000 </r>
       <r>   -9.8030    1.0000 </r>
       <r>   -9.1585    1.0000 </r>
       <r>   -7.2739    1.0000 </r>
       <r>   -6.7113    1.0000 </r>
       <r>   -6.5341    1.0000 </r>
       <r>    0.9746    0.0000 </r>
       <r>    1.1076    0.0000 </r>
       <r>    1.9138    0.0000 </r>
       <r>    2.3087    0.0000 </r>
      </set>
      <set comment="kpoint 34">
       <r>  -21.6284    1.0000 </r>
       <r>  -19.2124    1.0000 </r>
       <r>  -12.8073    1.0000 </r>
       <r>   -9.6455    1.0000 </r>
       <r>   -9.0279    1.0000 </r>
       <r>   -7.6687    1.0000 </r>
       <r>   -6.9455    1.0000 </r>
       <r>   -6.8949    1.0000 </r>
       <r>    1.2891    0.0000 </r>
       <r>    1.5145    0.0000 </r>
       <r>    2.0971    0.0000 </r>
       <r>    2.4947    0.0000 </r>
      </set>
      <set comment="kpoint 35">
       <r>  -21.4750    1.0000 </r>
       <r>  -19.5388    1.0000 </r>
       <r>  -12.2714    1.0000 </r>
       <r>   -9.4646    1.0000 </r>
       <r>   -8.8790    1.0000 </r>
       <r>   -8.1043    1.0000 </r>
       <r>   -7.2484    1.0000 </r>
       <r>   -7.1860    1.0000 </r>
       <r>    1.4985    0.0000 </r>
[...]
       <r>   -9.1261    1.0000 </r>
       <r>   -5.6236    1.0000 </r>
       <r>   -5.6236    1.0000 </r>
       <r>   -0.4833    0.0000 </r>
       <r>   -0.4833    0.0000 </r>
       <r>    4.8294    0.0000 </r>
       <r>    4.8294    0.0000 </r>
      </set>
      <set comment="kpoint 209">
       <r>  -18.8403    1.0000 </r>
       <r>  -17.0913    1.0000 </r>
       <r>  -13.9740    1.0000 </r>
       <r>  -12.3773    1.0000 </r>
       <r>  -12.3755    1.0000 </r>
       <r>  -10.8723    1.0000 </r>
       <r>   -6.4523    1.0000 </r>
       <r>   -4.5979    1.0000 </r>
       <r>   -0.9896    0.0000 </r>
       <r>    1.1324    0.0000 </r>
       <r>    5.1611    0.0000 </r>
       <r>    5.9500    0.0000 </r>
      </set>
      <set comment="kpoint 210">
       <r>  -18.8306    1.0000 </r>
       <r>  -17.0837    1.0000 </r>
       <r>  -14.0629    1.0000 </r>
       <r>  -12.4582    1.0000 </r>
       <r>  -12.2804    1.0000 </r>
       <r>  -10.7916    1.0000 </r>
       <r>   -6.4434    1.0000 </r>
       <r>   -4.6004    1.0000 </r>
       <r>   -0.9999    0.0000 </r>
       <r>    1.1066    0.0000 </r>
       <r>    5.1748    0.0000 </r>
       <r>    5.9661    0.0000 </r>
      </set>
      <set comment="kpoint 211">
       <r>  -18.8014    1.0000 </r>
       <r>  -17.0611    1.0000 </r>
       <r>  -14.2820    1.0000 </r>
       <r>  -12.6658    1.0000 </r>
       <r>  -12.0373    1.0000 </r>
       <r>  -10.5906    1.0000 </r>
       <r>   -6.4171    1.0000 </r>
       <r>   -4.6086    1.0000 </r>
       <r>   -1.0289    0.0000 </r>
       <r>    1.0313    0.0000 </r>
       <r>    5.2157    0.0000 </r>
       <r>    6.0141    0.0000 </r>
      </set>
      <set comment="kpoint 212">
       <r>  -18.7528    1.0000 </r>
       <r>  -17.0248    1.0000 </r>
       <r>  -14.5599    1.0000 </r>
       <r>  -12.9366    1.0000 </r>
       <r>  -11.7193    1.0000 </r>
       <r>  -10.3332    1.0000 </r>
       <r>   -6.3734    1.0000 </r>
       <r>   -4.6240    1.0000 </r>
       <r>   -1.0714    0.0000 </r>
       <r>    0.9117    0.0000 </r>
       <r>    5.2835    0.0000 </r>
       <r>    6.0929    0.0000 </r>
      </set>
      <set comment="kpoint 213">
       <r>  -18.6851    1.0000 </r>
       <r>  -16.9776    1.0000 </r>
       <r>  -14.8543    1.0000 </r>
       <r>  -13.2334    1.0000 </r>
       <r>  -11.3688    1.0000 </r>
       <r>  -10.0598    1.0000 </r>
       <r>   -6.3131    1.0000 </r>
       <r>   -4.6488    1.0000 </r>
       <r>   -1.1196    0.0000 </r>
       <r>    0.7557    0.0000 </r>
       <r>    5.3772    0.0000 </r>
       <r>    6.2011    0.0000 </r>
      </set>
      <set comment="kpoint 214">
       <r>  -18.5984    1.0000 </r>
       <r>  -16.9245    1.0000 </r>
       <r>  -15.1413    1.0000 </r>
       <r>  -13.5381    1.0000 </r>
       <r>  -11.0075    1.0000 </r>
       <r>   -9.7932    1.0000 </r>
       <r>   -6.2367    1.0000 </r>
       <r>   -4.6859    1.0000 </r>
       <r>   -1.1643    0.0000 </r>
       <r>    0.5722    0.0000 </r>
       <r>    5.4927    0.0000 </r>
       <r>    6.1784    0.0000 </r>
      </set>
      <set comment="kpoint 215">
       <r>  -18.4930    1.0000 </r>
       <r>  -16.8755    1.0000 </r>
       <r>  -15.4018    1.0000 </r>
       <r>  -13.8412    1.0000 </r>
       <r>  -10.6491    1.0000 </r>
       <r>   -9.5488    1.0000 </r>
       <r>   -6.1454    1.0000 </r>
       <r>   -4.7380    1.0000 </r>
       <r>   -1.1962    0.0000 </r>
       <r>    0.3700    0.0000 </r>
       <r>    5.5733    0.0000 </r>
       <r>    5.8037    0.0000 </r>
      </set>
      <set comment="kpoint 216">
       <r>  -18.3694    1.0000 </r>
       <r>  -16.8496    1.0000 </r>
       <r>  -15.6120    1.0000 </r>
       <r>  -14.1369    1.0000 </r>
       <r>  -10.3041    1.0000 </r>
       <r>   -9.3386    1.0000 </r>
       <r>   -6.0404    1.0000 </r>
       <r>   -4.8072    1.0000 </r>
       <r>   -1.2070    0.0000 </r>
       <r>    0.1577    0.0000 </r>
       <r>    5.3081    0.0000 </r>
       <r>    5.8666    0.0000 </r>
      </set>
      <set comment="kpoint 217">
       <r>  -18.2283    1.0000 </r>
       <r>  -16.8753    1.0000 </r>
       <r>  -15.7402    1.0000 </r>
       <r>  -14.4214    1.0000 </r>
       <r>   -9.9819    1.0000 </r>
       <r>   -9.1732    1.0000 </r>
       <r>   -5.9234    1.0000 </r>
       <r>   -4.8942    1.0000 </r>
       <r>   -1.1907    0.0000 </r>
       <r>   -0.0570    0.0000 </r>
       <r>    5.0138    0.0000 </r>
       <r>    5.8388    0.0000 </r>
      </set>
      <set comment="kpoint 218">
       <r>  -18.0706    1.0000 </r>
       <r>  -16.9729    1.0000 </r>
       <r>  -15.7646    1.0000 </r>
       <r>  -14.6916    1.0000 </r>
       <r>   -9.6918    1.0000 </r>
       <r>   -9.0615    1.0000 </r>
       <r>   -5.7964    1.0000 </r>
       <r>   -4.9981    1.0000 </r>
       <r>   -1.1435    0.0000 </r>
       <r>   -0.2674    0.0000 </r>
       <r>    4.7968    0.0000 </r>
       <r>    5.4403    0.0000 </r>
      </set>
      <set comment="kpoint 219">
       <r>  -17.8978    1.0000 </r>
       <r>  -17.1303    1.0000 </r>
       <r>  -15.6961    1.0000 </r>
       <r>  -14.9446    1.0000 </r>
       <r>   -9.4430    1.0000 </r>
       <r>   -9.0104    1.0000 </r>
       <r>   -5.6620    1.0000 </r>
       <r>   -5.1167    1.0000 </r>
       <r>   -1.0644    0.0000 </r>
       <r>   -0.4675    0.0000 </r>
       <r>    4.6700    0.0000 </r>
       <r>    5.1122    0.0000 </r>
      </set>
      <set comment="kpoint 220">
       <r>  -17.7119    1.0000 </r>
       <r>  -17.3188    1.0000 </r>
       <r>  -15.5626    1.0000 </r>
       <r>  -15.1774    1.0000 </r>
       <r>   -9.2441    1.0000 </r>
       <r>   -9.0238    1.0000 </r>
       <r>   -5.5232    1.0000 </r>
       <r>   -5.2465    1.0000 </r>
       <r>   -0.9542    0.0000 </r>
       <r>   -0.6518    0.0000 </r>
       <r>    4.6389    0.0000 </r>
       <r>    4.8642    0.0000 </r>
      </set>
      <set comment="kpoint 221">
       <r>  -17.5167    1.0000 </r>
       <r>  -17.5167    1.0000 </r>
       <r>  -15.3857    1.0000 </r>
       <r>  -15.3857    1.0000 </r>
       <r>   -9.1025    1.0000 </r>
       <r>   -9.1025    1.0000 </r>
       <r>   -5.3834    1.0000 </r>
       <r>   -5.3834    1.0000 </r>
       <r>   -0.8154    0.0000 </r>
       <r>   -0.8154    0.0000 </r>
       <r>    4.7045    0.0000 </r>
       <r>    4.7045    0.0000 </r>
      </set>
      <set comment="kpoint 222">
       <r>  -18.4269    1.0000 </r>
       <r>  -17.5487    1.0000 </r>
       <r>  -13.6040    1.0000 </r>
       <r>  -12.8039    1.0000 </r>
       <r>  -12.0346    1.0000 </r>
       <r>  -11.2774    1.0000 </r>
       <r>   -6.0013    1.0000 </r>
       <r>   -5.0690    1.0000 </r>
       <r>   -0.4918    0.0000 </r>
       <r>    0.5712    0.0000 </r>
       <r>    5.7486    0.0000 </r>
       <r>    6.5029    0.0000 </r>
      </set>
      <set comment="kpoint 223">
       <r>  -18.4174    1.0000 </r>
       <r>  -17.5399    1.0000 </r>
       <r>  -13.6930    1.0000 </r>
       <r>  -12.8893    1.0000 </r>
       <r>  -11.9402    1.0000 </r>
       <r>  -11.1915    1.0000 </r>
       <r>   -5.9938    1.0000 </r>
       <r>   -5.0665    1.0000 </r>
       <r>   -0.5085    0.0000 </r>
       <r>    0.5475    0.0000 </r>
       <r>    5.7622    0.0000 </r>
       <r>    6.5199    0.0000 </r>
      </set>
      <set comment="kpoint 224">
       <r>  -18.3887    1.0000 </r>
       <r>  -17.5139    1.0000 </r>
       <r>  -13.9134    1.0000 </r>
       <r>  -13.1027    1.0000 </r>
       <r>  -11.7042    1.0000 </r>
       <r>  -10.9770    1.0000 </r>
       <r>   -5.9714    1.0000 </r>
       <r>   -5.0593    1.0000 </r>
       <r>   -0.5568    0.0000 </r>
       <r>    0.4782    0.0000 </r>
       <r>    5.8029    0.0000 </r>
       <r>    6.5703    0.0000 </r>
      </set>
      <set comment="kpoint 225">
       <r>  -18.3412    1.0000 </r>
       <r>  -17.4710    1.0000 </r>
       <r>  -14.1953    1.0000 </r>
       <r>  -13.3790    1.0000 </r>
       <r>  -11.3975    1.0000 </r>
       <r>  -10.7009    1.0000 </r>
       <r>   -5.9345    1.0000 </r>
       <r>   -5.0486    1.0000 </r>
       <r>   -0.6314    0.0000 </r>
       <r>    0.3687    0.0000 </r>
       <r>    5.8702    0.0000 </r>
       <r>    6.6527    0.0000 </r>
      </set>
      <set comment="kpoint 226">
       <r>  -18.2749    1.0000 </r>
       <r>  -17.4123    1.0000 </r>
       <r>  -14.4983    1.0000 </r>
       <r>  -13.6802    1.0000 </r>
       <r>  -11.0619    1.0000 </r>
       <r>  -10.4042    1.0000 </r>
       <r>   -5.8840    1.0000 </r>
       <r>   -5.0362    1.0000 </r>
       <r>   -0.7243    0.0000 </r>
       <r>    0.2266    0.0000 </r>
       <r>    5.9623    0.0000 </r>
       <r>    6.7652    0.0000 </r>
      </set>
      <set comment="kpoint 227">
       <r>  -18.1903    1.0000 </r>
       <r>  -17.3394    1.0000 </r>
       <r>  -14.8024    1.0000 </r>
       <r>  -13.9879    1.0000 </r>
       <r>  -10.7198    1.0000 </r>
       <r>  -10.1094    1.0000 </r>
       <r>   -5.8210    1.0000 </r>
       <r>   -5.0246    1.0000 </r>
       <r>   -0.8260    0.0000 </r>
       <r>    0.0610    0.0000 </r>
       <r>    6.0652    0.0000 </r>
       <r>    6.4528    0.0000 </r>
      </set>
      <set comment="kpoint 228">
       <r>  -18.0879    1.0000 </r>
       <r>  -17.2554    1.0000 </r>
       <r>  -15.0956    1.0000 </r>
       <r>  -14.2922    1.0000 </r>
       <r>  -10.3849    1.0000 </r>
       <r>   -9.8316    1.0000 </r>
       <r>   -5.7470    1.0000 </r>
       <r>   -5.0170    1.0000 </r>
       <r>   -0.9264    0.0000 </r>
       <r>   -0.1188    0.0000 </r>
       <r>    5.9055    0.0000 </r>
       <r>    6.2846    0.0000 </r>
      </set>
      <set comment="kpoint 229">
       <r>  -17.9686    1.0000 </r>
       <r>  -17.1657    1.0000 </r>
       <r>  -15.3672    1.0000 </r>
       <r>  -14.5873    1.0000 </r>
       <r>  -10.0682    1.0000 </r>
       <r>   -9.5824    1.0000 </r>
       <r>   -5.6641    1.0000 </r>
       <r>   -5.0169    1.0000 </r>
       <r>   -1.0153    0.0000 </r>
       <r>   -0.3039    0.0000 </r>
       <r>    5.5061    0.0000 </r>
       <r>    6.0003    0.0000 </r>
      </set>
      <set comment="kpoint 230">
       <r>  -17.8336    1.0000 </r>
       <r>  -17.0812    1.0000 </r>
       <r>  -15.6037    1.0000 </r>
       <r>  -14.8687    1.0000 </r>
       <r>   -9.7797    1.0000 </r>
       <r>   -9.3725    1.0000 </r>
       <r>   -5.5746    1.0000 </r>
       <r>   -5.0277    1.0000 </r>
       <r>   -1.0837    0.0000 </r>
       <r>   -0.4858    0.0000 </r>
       <r>    5.1598    0.0000 </r>
       <r>    5.5741    0.0000 </r>
      </set>
      <set comment="kpoint 231">
       <r>  -17.6851    1.0000 </r>
       <r>  -17.0215    1.0000 </r>
       <r>  -15.7834    1.0000 </r>
       <r>  -15.1325    1.0000 </r>
       <r>   -9.5289    1.0000 </r>
       <r>   -9.2113    1.0000 </r>
       <r>   -5.4817    1.0000 </r>
       <r>   -5.0523    1.0000 </r>
       <r>   -1.1240    0.0000 </r>
       <r>   -0.6567    0.0000 </r>
       <r>    4.8905    0.0000 </r>
       <r>    5.2141    0.0000 </r>
      </set>
      <set comment="kpoint 232">
       <r>  -17.5264    1.0000 </r>
       <r>  -17.0159    1.0000 </r>
       <r>  -15.8760    1.0000 </r>
       <r>  -15.3737    1.0000 </r>
       <r>   -9.3249    1.0000 </r>
       <r>   -9.1067    1.0000 </r>
       <r>   -5.3887    1.0000 </r>
       <r>   -5.0924    1.0000 </r>
       <r>   -1.1310    0.0000 </r>
       <r>   -0.8096    0.0000 </r>
       <r>    4.7084    0.0000 </r>
       <r>    4.9309    0.0000 </r>
      </set>
      <set comment="kpoint 233">
       <r>  -17.3638    1.0000 </r>
       <r>  -17.0832    1.0000 </r>
       <r>  -15.8619    1.0000 </r>
       <r>  -15.5854    1.0000 </r>
       <r>   -9.1758    1.0000 </r>
       <r>   -9.0646    1.0000 </r>
       <r>   -5.2996    1.0000 </r>
       <r>   -5.1482    1.0000 </r>
       <r>   -1.1020    0.0000 </r>
       <r>   -0.9381    0.0000 </r>
       <r>    4.6200    0.0000 </r>
       <r>    4.7334    0.0000 </r>
      </set>
      <set comment="kpoint 234">
       <r>  -17.2090    1.0000 </r>
       <r>  -17.2090    1.0000 </r>
       <r>  -15.7553    1.0000 </r>
       <r>  -15.7553    1.0000 </r>
       <r>   -9.0878    1.0000 </r>
       <r>   -9.0878    1.0000 </r>
       <r>   -5.2182    1.0000 </r>
       <r>   -5.2182    1.0000 </r>
       <r>   -1.0370    0.0000 </r>
       <r>   -1.0370    0.0000 </r>
       <r>    4.6285    0.0000 </r>
       <r>    4.6285    0.0000 </r>
      </set>
      <set comment="kpoint 235">
       <r>  -17.9954    1.0000 </r>
       <r>  -17.9954    1.0000 </r>
       <r>  -13.2137    1.0000 </r>
       <r>  -13.2137    1.0000 </r>
       <r>  -11.6662    1.0000 </r>
       <r>  -11.6662    1.0000 </r>
       <r>   -5.5387    1.0000 </r>
       <r>   -5.5387    1.0000 </r>
       <r>    0.0291    0.0000 </r>
       <r>    0.0291    0.0000 </r>
       <r>    6.3666    0.0000 </r>
       <r>    6.3666    0.0000 </r>
      </set>
      <set comment="kpoint 236">
       <r>  -17.9861    1.0000 </r>
       <r>  -17.9861    1.0000 </r>
       <r>  -13.3014    1.0000 </r>
       <r>  -13.3014    1.0000 </r>
       <r>  -11.5756    1.0000 </r>
       <r>  -11.5756    1.0000 </r>
       <r>   -5.5331    1.0000 </r>
       <r>   -5.5331    1.0000 </r>
       <r>    0.0082    0.0000 </r>
       <r>    0.0082    0.0000 </r>
       <r>    6.3801    0.0000 </r>
       <r>    6.3801    0.0000 </r>
      </set>
      <set comment="kpoint 237">
       <r>  -17.9584    1.0000 </r>
       <r>  -17.9584    1.0000 </r>
       <r>  -13.5193    1.0000 </r>
       <r>  -13.5193    1.0000 </r>
       <r>  -11.3494    1.0000 </r>
       <r>  -11.3494    1.0000 </r>
       <r>   -5.5167    1.0000 </r>
       <r>   -5.5167    1.0000 </r>
       <r>   -0.0526    0.0000 </r>
       <r>   -0.0526    0.0000 </r>
       <r>    6.4205    0.0000 </r>
       <r>    6.4205    0.0000 </r>
      </set>
      <set comment="kpoint 238">
       <r>  -17.9125    1.0000 </r>
       <r>  -17.9125    1.0000 </r>
       <r>  -13.7996    1.0000 </r>
       <r>  -13.7996    1.0000 </r>
       <r>  -11.0568    1.0000 </r>
       <r>  -11.0568    1.0000 </r>
       <r>   -5.4900    1.0000 </r>
       <r>   -5.4900    1.0000 </r>
       <r>   -0.1479    0.0000 </r>
       <r>   -0.1479    0.0000 </r>
       <r>    6.4870    0.0000 </r>
       <r>    6.4870    0.0000 </r>
      </set>
      <set comment="kpoint 239">
       <r>  -17.8487    1.0000 </r>
       <r>  -17.8487    1.0000 </r>
       <r>  -14.1035    1.0000 </r>
       <r>  -14.1035    1.0000 </r>
       <r>  -10.7393    1.0000 </r>
       <r>  -10.7393    1.0000 </r>
       <r>   -5.4544    1.0000 </r>
       <r>   -5.4544    1.0000 </r>
       <r>   -0.2701    0.0000 </r>
       <r>   -0.2701    0.0000 </r>
       <r>    6.5755    0.0000 </r>
       <r>    6.5755    0.0000 </r>
      </set>
      <set comment="kpoint 240">
       <r>  -17.7679    1.0000 </r>
       <r>  -17.7679    1.0000 </r>
       <r>  -14.4118    1.0000 </r>
       <r>  -14.4118    1.0000 </r>
       <r>  -10.4193    1.0000 </r>
       <r>  -10.4193    1.0000 </r>
       <r>   -5.4115    1.0000 </r>
       <r>   -5.4115    1.0000 </r>
       <r>   -0.4100    0.0000 </r>
       <r>   -0.4100    0.0000 </r>
       <r>    6.6059    0.0000 </r>
       <r>    6.6059    0.0000 </r>
      </set>
      <set comment="kpoint 241">
       <r>  -17.6712    1.0000 </r>
       <r>  -17.6712    1.0000 </r>
       <r>  -14.7143    1.0000 </r>
       <r>  -14.7143    1.0000 </r>
       <r>  -10.1113    1.0000 </r>
       <r>  -10.1113    1.0000 </r>
       <r>   -5.3638    1.0000 </r>
       <r>   -5.3638    1.0000 </r>
       <r>   -0.5577    0.0000 </r>
       <r>   -0.5577    0.0000 </r>
       <r>    6.1836    0.0000 </r>
       <r>    6.1836    0.0000 </r>
      </set>
      <set comment="kpoint 242">
       <r>  -17.5605    1.0000 </r>
       <r>  -17.5605    1.0000 </r>
       <r>  -15.0041    1.0000 </r>
       <r>  -15.0041    1.0000 </r>
       <r>   -9.8266    1.0000 </r>
       <r>   -9.8266    1.0000 </r>
       <r>   -5.3141    1.0000 </r>
       <r>   -5.3141    1.0000 </r>
       <r>   -0.7035    0.0000 </r>
       <r>   -0.7035    0.0000 </r>
       <r>    5.7362    0.0000 </r>
       <r>    5.7362    0.0000 </r>
      </set>
      <set comment="kpoint 243">
       <r>  -17.4390    1.0000 </r>
       <r>  -17.4390    1.0000 </r>
       <r>  -15.2750    1.0000 </r>
       <r>  -15.2750    1.0000 </r>
       <r>   -9.5756    1.0000 </r>
       <r>   -9.5756    1.0000 </r>
       <r>   -5.2658    1.0000 </r>
       <r>   -5.2658    1.0000 </r>
       <r>   -0.8381    0.0000 </r>
       <r>   -0.8381    0.0000 </r>
       <r>    5.3470    0.0000 </r>
       <r>    5.3470    0.0000 </r>
      </set>
      <set comment="kpoint 244">
       <r>  -17.3126    1.0000 </r>
       <r>  -17.3126    1.0000 </r>
       <r>  -15.5191    1.0000 </r>
       <r>  -15.5191    1.0000 </r>
       <r>   -9.3679    1.0000 </r>
       <r>   -9.3679    1.0000 </r>
       <r>   -5.2226    1.0000 </r>
       <r>   -5.2226    1.0000 </r>
       <r>   -0.9531    0.0000 </r>
       <r>   -0.9531    0.0000 </r>
       <r>    5.0301    0.0000 </r>
       <r>    5.0301    0.0000 </r>
      </set>
      <set comment="kpoint 245">
       <r>  -17.1926    1.0000 </r>
       <r>  -17.1926    1.0000 </r>
       <r>  -15.7241    1.0000 </r>
       <r>  -15.7241    1.0000 </r>
       <r>   -9.2121    1.0000 </r>
       <r>   -9.2121    1.0000 </r>
       <r>   -5.1883    1.0000 </r>
       <r>   -5.1883    1.0000 </r>
       <r>   -1.0412    0.0000 </r>
       <r>   -1.0412    0.0000 </r>
       <r>    4.7957    0.0000 </r>
       <r>    4.7957    0.0000 </r>
      </set>
      <set comment="kpoint 246">
       <r>  -17.0994    1.0000 </r>
       <r>  -17.0994    1.0000 </r>
       <r>  -15.8684    1.0000 </r>
       <r>  -15.8684    1.0000 </r>
       <r>   -9.1155    1.0000 </r>
       <r>   -9.1155    1.0000 </r>
       <r>   -5.1662    1.0000 </r>
       <r>   -5.1662    1.0000 </r>
       <r>   -1.0966    0.0000 </r>
       <r>   -1.0966    0.0000 </r>
       <r>    4.6516    0.0000 </r>
       <r>    4.6516    0.0000 </r>
      </set>
      <set comment="kpoint 247">
       <r>  -17.0628    1.0000 </r>
       <r>  -17.0628    1.0000 </r>
       <r>  -15.9221    1.0000 </r>
       <r>  -15.9221    1.0000 </r>
       <r>   -9.0828    1.0000 </r>
       <r>   -9.0828    1.0000 </r>
       <r>   -5.1586    1.0000 </r>
       <r>   -5.1586    1.0000 </r>
       <r>   -1.1155    0.0000 </r>
       <r>   -1.1155    0.0000 </r>
       <r>    4.6030    0.0000 </r>
       <r>    4.6030    0.0000 </r>
      </set>
     </set>
    </set>
   </array>
  </eigenvalues>
  <separator name="orbital magnetization" >
   <v name="MAGDIPOLOUT">      0.00000000      0.00000000      0.00000000</v>
  </separator>
 </calculation>
 <structure name="finalpos" >
  <crystal>
   <varray name="basis" >
    <v>       4.26571439       0.00000000       0.00000000 </v>
    <v>       0.00000000       2.49172675       0.00000000 </v>
    <v>       0.00000000       0.00000000      19.83610946 </v>
   </varray>
   <i name="volume">    210.83790140 </i>
   <varray name="rec_basis" >
    <v>       0.23442732       0.00000000       0.00000000 </v>
    <v>       0.00000000       0.40132812       0.00000000 </v>
    <v>       0.00000000       0.00000000       0.05041311 </v>
   </varray>
  </crystal>
  <varray name="positions" >
   <v>       0.00025895      -0.00000000      -0.00000000 </v>
   <v>       0.16640772       0.50000000       0.00000000 </v>
   <v>       0.50025895       0.50000000      -0.00000000 </v>
   <v>       0.66640772      -0.00000000       0.00000000 </v>
  </varray>
 </structure>
</modeling>
