gr                                      
           1
     4.265714    0.000000    0.000000
     0.000000    2.491727    0.000000
     0.000000    0.000000   19.836109
   C 
   4
Direct configuration=     1
   0.00026297  0.00000000  0.00000000
   0.16640370  0.50000000  0.00000000
   0.50026297  0.50000000  0.00000000
   0.66640370  0.00000000  0.00000000
Direct configuration=     2
   0.00024253 -0.00000000 -0.00000000
   0.16642414  0.50000000  0.00000000
   0.50024253  0.50000000 -0.00000000
   0.66642414 -0.00000000  0.00000000
Direct configuration=     3
   0.00025894 -0.00000000 -0.00000000
   0.16640772  0.50000000  0.00000000
   0.50025894  0.50000000 -0.00000000
   0.66640772 -0.00000000  0.00000000
Direct configuration=     4
   0.00025895 -0.00000000 -0.00000000
   0.16640772  0.50000000  0.00000000
   0.50025895  0.50000000 -0.00000000
   0.66640772 -0.00000000  0.00000000
