    4    4  400    1
  0.5270948E+02  0.4261899E-09  0.2504804E-09  0.1975021E-08  0.5000000E-15
  1.000000000000000E-004
  CAR 
 gr                                      
     16    247     12
 
  0.0000000E+00  0.0000000E+00  0.0000000E+00  0.1157407E-02
    1      -22.148726
    2      -16.827095
    3      -15.905605
    4      -10.277912
    5       -9.357933
    6       -5.918064
    7       -5.754162
    8       -4.984537
    9       -1.112988
   10        0.536438
   11        1.335767
   12        1.724980
 
  0.4166667E-01  0.0000000E+00  0.0000000E+00  0.2314815E-02
    1      -22.138399
    2      -17.010180
    3      -15.707404
    4      -10.265625
    5       -9.347607
    6       -5.941341
    7       -5.795358
    8       -5.053213
    9       -1.029031
   10        0.550437
   11        1.349923
   12        1.739311
 
  0.8333333E-01  0.0000000E+00  0.0000000E+00  0.2314815E-02
    1      -22.107423
    2      -17.365252
    3      -15.307069
    4      -10.228783
    5       -9.316680
    6       -6.009851
    7       -5.917376
    8       -5.242985
    9       -0.793592
   10        0.592434
   11        1.392387
   12        1.782307
 
  0.1250000E+00  0.0000000E+00  0.0000000E+00  0.2314815E-02
    1      -22.055817
    2      -17.752007
    3      -14.845179
    4      -10.167444
    5       -9.265301
    6       -6.119858
    7       -6.115749
    8       -5.518284
    9       -0.442767
   10        0.662426
   11        1.463148
   12        1.853968
 
  0.1666667E+00  0.0000000E+00  0.0000000E+00  0.2314815E-02
    1      -21.983616
    2      -18.137780
    3      -14.354863
    4      -10.081703
    5       -9.193731
    6       -6.383752
    7       -6.265824
    8       -5.844722
    9       -0.011830
   10        0.760410
   11        1.562185
   12        1.954292
 
  0.2083333E+00  0.0000000E+00  0.0000000E+00  0.2314815E-02
    1      -21.890870
    2      -18.513099
    3      -13.846264
    4       -9.971703
    5       -9.102344
    6       -6.713255
    7       -6.441175
    8       -6.197330
    9        0.472990
   10        0.886373
   11        1.689467
   12        2.083280
 
  0.2500000E+00  0.0000000E+00  0.0000000E+00  0.2314815E-02
    1      -21.777642
    2      -18.874198
    3      -13.324031
    4       -9.837631
    5       -8.991640
    6       -7.095535
    7       -6.639023
    8       -6.559784
    9        0.993721
   10        1.040296
   11        1.844948
   12        2.240928
 
  0.2916667E+00  0.0000000E+00  0.0000000E+00  0.2314815E-02
    1      -21.644011
    2      -19.219194
    3      -12.791176
    4       -9.679729
    5       -8.862265
    6       -7.521932
    7       -6.921634
    8       -6.852712
    9        1.222149
   10        1.537813
   11        2.028559
   12        2.427234
 
  0.3333333E+00  0.0000000E+00  0.0000000E+00  0.2314815E-02
    1      -21.490076
    2      -19.546978
    3      -12.250203
    4       -9.498307
    5       -8.715029
    6       -7.984282
    7       -7.276076
    8       -7.076154
    9        1.431888
   10        2.095790
   11        2.240194
   12        2.642188
 
  0.3750000E+00  0.0000000E+00  0.0000000E+00  0.2314815E-02
    1      -21.315949
    2      -19.856816
    3      -11.703555
    4       -9.293749
    5       -8.550937
    6       -8.475154
    7       -7.618549
    8       -7.303988
    9        1.669457
   10        2.479673
   11        2.659285
   12        2.885779
 
  0.4166667E+00  0.0000000E+00  0.0000000E+00  0.2314815E-02
    1      -21.121767
    2      -20.148175
    3      -11.153822
    4       -9.066537
    5       -8.987953
    6       -8.371222
    7       -7.945890
    8       -7.531608
    9        1.934772
   10        2.746631
   11        3.157980
   12        3.216434
 
  0.4583333E+00  0.0000000E+00  0.0000000E+00  0.2314815E-02
    1      -20.907688
    2      -20.420646
    3      -10.603879
    4       -9.516902
    5       -8.817272
    6       -8.255835
    7       -8.177392
    8       -7.755122
    9        2.227717
   10        2.895629
   11        3.040118
   12        3.458798
 
  0.5000000E+00  0.0000000E+00  0.0000000E+00  0.1157407E-02
    1      -20.673907
    2      -20.673907
    3      -10.056989
    4      -10.056989
    5       -8.546715
    6       -8.546715
    7       -7.971283
    8       -7.971283
    9        2.548111
   10        2.548111
   11        3.356054
   12        3.356054
 
  0.0000000E+00  0.2777778E-01  0.0000000E+00  0.2314815E-02
    1      -22.135463
    2      -16.815676
    3      -15.894744
    4      -10.262131
    5       -9.417423
    6       -5.972826
    7       -5.785632
    8       -4.968449
    9       -1.118305
   10        0.554396
   11        1.353976
   12        1.743413
 
  0.4166667E-01  0.2777778E-01  0.0000000E+00  0.4629630E-02
    1      -22.125137
    2      -16.998625
    3      -15.696734
    4      -10.249849
    5       -9.407072
    6       -5.999983
    7       -5.822238
    8       -5.037288
    9       -1.034311
   10        0.568396
   11        1.368131
   12        1.757745
 
  0.8333333E-01  0.2777778E-01  0.0000000E+00  0.4629630E-02
    1      -22.094165
    2      -17.353472
    3      -15.296799
    4      -10.213020
    5       -9.376068
    6       -6.083073
    7       -5.927673
    8       -5.227432
    9       -0.798881
   10        0.610396
   11        1.410592
   12        1.800742
 
  0.1250000E+00  0.2777778E-01  0.0000000E+00  0.4629630E-02
    1      -22.042567
    2      -17.740014
    3      -14.835419
    4      -10.151703
    5       -9.324557
    6       -6.231487
    7       -6.084682
    8       -5.503102
    9       -0.448321
   10        0.680394
   11        1.481348
   12        1.872403
 
  0.1666667E+00  0.2777778E-01  0.0000000E+00  0.4629630E-02
    1      -21.970377
    2      -18.125599
    3      -14.345722
    4      -10.065993
    5       -9.252791
    6       -6.461789
    7       -6.264855
    8       -5.829807
    9       -0.018012
   10        0.778385
   11        1.580377
   12        1.972729
 
  0.2083333E+00  0.2777778E-01  0.0000000E+00  0.4629630E-02
    1      -21.877645
    2      -18.500755
    3      -13.837868
    4       -9.956032
    5       -9.161130
    6       -6.769476
    7       -6.458379
    8       -6.182562
    9        0.465807
   10        0.904359
   11        1.707651
   12        2.101719
 
  0.2500000E+00  0.2777778E-01  0.0000000E+00  0.4629630E-02
    1      -21.764433
    2      -18.861714
    3      -13.316533
    4       -9.822009
    5       -9.050061
    6       -7.137633
    7       -6.666845
    8       -6.545070
    9        0.985189
   10        1.058294
   11        1.863121
   12        2.259370
 
  0.2916667E+00  0.2777778E-01  0.0000000E+00  0.4629630E-02
    1      -21.630825
    2      -19.206588
    3      -12.784759
    4       -9.664165
    5       -8.920205
    6       -7.553597
    7       -6.906906
    8       -6.887774
    9        1.240160
   10        1.527635
   11        2.046722
   12        2.445679
 
  0.3333333E+00  0.2777778E-01  0.0000000E+00  0.4629630E-02
    1      -21.476915
    2      -19.534268
    3      -12.245095
    4       -9.482809
    5       -8.772347
    6       -8.007750
    7       -7.261294
    8       -7.116603
    9        1.449914
   10        2.083734
   11        2.258348
   12        2.660639
 
  0.3750000E+00  0.2777778E-01  0.0000000E+00  0.4629630E-02
    1      -21.302819
    2      -19.844016
    3      -11.700035
    4       -9.278326
    5       -8.607456
    6       -8.492032
    7       -7.603686
    8       -7.348607
    9        1.687499
   10        2.497823
   11        2.645285
   12        2.904236
 
  0.4166667E+00  0.2777778E-01  0.0000000E+00  0.4629630E-02
    1      -21.108673
    2      -20.135297
    3      -11.152234
    4       -9.051196
    5       -8.999488
    6       -8.426722
    7       -7.930933
    8       -7.579511
    9        1.952836
   10        2.764789
   11        3.176448
   12        3.201241
 
  0.4583333E+00  0.2777778E-01  0.0000000E+00  0.4629630E-02
    1      -20.894637
    2      -20.407702
    3      -10.604649
    4       -9.524094
    5       -8.802022
    6       -8.240779
    7       -8.231599
    8       -7.805629
    9        2.245809
   10        2.913856
   11        3.058309
   12        3.477229
 
  0.5000000E+00  0.2777778E-01  0.0000000E+00  0.2314815E-02
    1      -20.660905
    2      -20.660905
    3      -10.060644
    4      -10.060644
    5       -8.531560
    6       -8.531560
    7       -8.023854
    8       -8.023854
    9        2.566249
   10        2.566249
   11        3.374258
   12        3.374258
 
  0.0000000E+00  0.5555556E-01  0.0000000E+00  0.2314815E-02
    1      -22.095685
    2      -16.781421
    3      -15.862345
    4      -10.214822
    5       -9.591052
    6       -6.132820
    7       -5.879123
    8       -4.920202
    9       -1.135063
   10        0.608277
   11        1.408595
   12        1.798714
 
  0.4166667E-01  0.5555556E-01  0.0000000E+00  0.4629630E-02
    1      -22.085363
    2      -16.963981
    3      -15.664903
    4      -10.202553
    5       -9.580620
    6       -6.166833
    7       -5.906802
    8       -4.989551
    9       -1.050946
   10        0.622280
   11        1.422747
   12        1.813047
 
  0.8333333E-01  0.5555556E-01  0.0000000E+00  0.4629630E-02
    1      -22.054404
    2      -17.318159
    3      -15.266172
    4      -10.165764
    5       -9.549368
    6       -6.267273
    7       -5.989035
    8       -5.180837
    9       -0.815533
   10        0.664287
   11        1.465198
   12        1.856045
 
  0.1250000E+00  0.5555556E-01  0.0000000E+00  0.4629630E-02
    1      -22.002827
    2      -17.704063
    3      -14.806350
    4      -10.104514
    5       -9.497427
    6       -6.430724
    7       -6.122314
    8       -5.457647
    9       -0.465771
   10        0.734298
   11        1.535938
   12        1.927709
 
  0.1666667E+00  0.5555556E-01  0.0000000E+00  0.4629630E-02
    1      -21.930669
    2      -18.089083
    3      -14.318557
    4      -10.018898
    5       -9.425022
    6       -6.654229
    7       -6.298959
    8       -5.785162
    9       -0.037371
   10        0.832309
   11        1.634945
   12        2.028039
 
  0.2083333E+00  0.5555556E-01  0.0000000E+00  0.4629630E-02
    1      -21.837979
    2      -18.463749
    3      -13.813004
    4       -9.909058
    5       -9.332473
    6       -6.935665
    7       -6.507913
    8       -6.138363
    9        0.443395
   10        0.958307
   11        1.762191
   12        2.157035
 
  0.2500000E+00  0.5555556E-01  0.0000000E+00  0.4629630E-02
    1      -21.724821
    2      -18.824283
    3      -13.294452
    4       -9.775182
    5       -9.220211
    6       -7.271986
    7       -6.737758
    8       -6.501027
    9        0.958672
   10        1.112272
   11        1.917629
   12        2.314694
 
  0.2916667E+00  0.5555556E-01  0.0000000E+00  0.4629630E-02
    1      -21.591278
    2      -19.168792
    3      -12.766050
    4       -9.617513
    5       -9.088787
    6       -7.657826
    7       -6.979234
    8       -6.862820
    9        1.294172
   10        1.496095
   11        2.101196
   12        2.501012
 
  0.3333333E+00  0.5555556E-01  0.0000000E+00  0.4629630E-02
    1      -21.437445
    2      -19.496157
    3      -12.230485
    4       -9.436359
    5       -8.938889
    6       -8.085987
    7       -7.225600
    8       -7.217035
    9        1.503965
   10        2.046453
   11        2.312791
   12        2.715984
 
  0.3750000E+00  0.5555556E-01  0.0000000E+00  0.4629630E-02
    1      -21.263442
    2      -19.805633
    3      -11.690428
    4       -9.232104
    5       -8.771366
    6       -8.548708
    7       -7.559179
    8       -7.471870
    9        1.741594
   10        2.552249
   11        2.601973
   12        2.959598
 
  0.4166667E+00  0.5555556E-01  0.0000000E+00  0.4629630E-02
    1      -21.069403
    2      -20.096681
    3      -11.148758
    4       -9.038585
    5       -9.005227
    6       -8.587250
    7       -7.886138
    8       -7.714142
    9        2.006981
   10        2.819238
   11        3.153556
   12        3.231837
 
  0.4583333E+00  0.5555556E-01  0.0000000E+00  0.4629630E-02
    1      -20.855495
    2      -20.368883
    3      -10.608712
    4       -9.548959
    5       -8.756327
    6       -8.387796
    7       -8.195680
    8       -7.949236
    9        2.300023
   10        2.968379
   11        3.112866
   12        3.533364
 
  0.5000000E+00  0.5555556E-01  0.0000000E+00  0.2314815E-02
    1      -20.621912
    2      -20.621912
    3      -10.074008
    4      -10.074008
    5       -8.486158
    6       -8.486158
    7       -8.174518
    8       -8.174518
    9        2.620571
   10        2.620571
   11        3.428854
   12        3.428854
 
  0.0000000E+00  0.8333333E-01  0.0000000E+00  0.2314815E-02
    1      -22.029428
    2      -16.724343
    3      -15.809002
    4      -10.136083
    5       -9.865610
    6       -6.386442
    7       -6.031964
    8       -4.839857
    9       -1.165664
   10        0.698101
   11        1.499603
   12        1.890888
 
  0.4166667E-01  0.8333333E-01  0.0000000E+00  0.4629630E-02
    1      -22.019113
    2      -16.906306
    3      -15.612470
    4      -10.123837
    5       -9.855023
    6       -6.426254
    7       -6.050576
    8       -4.910107
    9       -1.081308
   10        0.712105
   11        1.513749
   12        1.905221
 
  0.8333333E-01  0.8333333E-01  0.0000000E+00  0.4629630E-02
    1      -21.988175
    2      -17.259403
    3      -15.215777
    4      -10.087117
    5       -9.823293
    6       -6.539163
    7       -6.111060
    8       -5.103406
    9       -0.845873
   10        0.754118
   11        1.556182
   12        1.948220
 
  0.1250000E+00  0.8333333E-01  0.0000000E+00  0.4629630E-02
    1      -21.936637
    2      -17.644244
    3      -14.758655
    4      -10.025980
    5       -9.770521
    6       -6.712427
    7       -6.220634
    8       -5.382199
    9       -0.497449
   10        0.824140
   11        1.626892
   12        2.019887
 
  0.1666667E+00  0.8333333E-01  0.0000000E+00  0.4629630E-02
    1      -21.864532
    2      -18.028317
    3      -14.274204
    4       -9.940525
    5       -9.696877
    6       -6.935425
    7       -6.381115
    8       -5.711106
    9       -0.072312
   10        0.922169
   11        1.725859
   12        2.120221
 
  0.2083333E+00  0.8333333E-01  0.0000000E+00  0.4629630E-02
    1      -21.771911
    2      -18.402156
    3      -13.772732
    4       -9.830892
    5       -9.602600
    6       -7.201699
    7       -6.587567
    8       -6.065059
    9        0.403220
   10        1.048195
   11        1.853052
   12        2.249223
 
  0.2500000E+00  0.8333333E-01  0.0000000E+00  0.4629630E-02
    1      -21.658843
    2      -18.761975
    3      -13.259161
    4       -9.697270
    5       -9.488005
    6       -7.508443
    7       -6.829744
    8       -6.427974
    9        0.911461
   10        1.202195
   11        2.008429
   12        2.406892
 
  0.2916667E+00  0.8333333E-01  0.0000000E+00  0.4629630E-02
    1      -21.525408
    2      -19.105868
    3      -12.736858
    4       -9.539901
    5       -9.353488
    6       -7.855115
    7       -7.094469
    8       -6.789673
    9        1.384137
   10        1.440277
   11        2.191929
   12        2.593223
 
  0.3333333E+00  0.8333333E-01  0.0000000E+00  0.4629630E-02
    1      -21.371706
    2      -19.432701
    3      -12.208795
    4       -9.359094
    5       -9.199530
    6       -8.241285
    7       -7.368680
    8       -7.143575
    9        1.593976
   10        1.980757
   11        2.403460
   12        2.808210
 
  0.3750000E+00  0.8333333E-01  0.0000000E+00  0.4629630E-02
    1      -21.197856
    2      -19.741720
    3      -11.678010
    4       -9.155231
    5       -9.026702
    6       -8.664658
    7       -7.642037
    8       -7.485281
    9        1.831655
   10        2.525673
   11        2.642877
   12        3.051846
 
  0.4166667E+00  0.8333333E-01  0.0000000E+00  0.4629630E-02
    1      -21.004000
    2      -20.032374
    3      -11.147863
    4       -9.120592
    5       -8.928790
    6       -8.835675
    7       -7.907782
    8       -7.811735
    9        2.097099
   10        2.909892
   11        3.067908
   12        3.324116
 
  0.4583333E+00  0.8333333E-01  0.0000000E+00  0.4629630E-02
    1      -20.790307
    2      -20.304238
    3      -10.622204
    4       -9.603000
    5       -8.680363
    6       -8.627231
    7       -8.161968
    8       -8.120748
    9        2.390213
   10        3.058869
   11        3.203718
   12        3.586377
 
  0.5000000E+00  0.8333333E-01  0.0000000E+00  0.2314815E-02
    1      -20.556975
    2      -20.556975
    3      -10.105513
    4      -10.105513
    5       -8.410700
    6       -8.410700
    7       -8.402287
    8       -8.402287
    9        2.710867
   10        2.710867
   11        3.519774
   12        3.519774
 
  0.0000000E+00  0.1111111E+00  0.0000000E+00  0.2314815E-02
    1      -21.936754
    2      -16.644462
    3      -15.735836
    4      -10.222622
    5      -10.026081
    6       -6.717775
    7       -6.239967
    8       -4.727512
    9       -1.214044
   10        0.823892
   11        1.626962
   12        2.019938
 
  0.4166667E-01  0.1111111E+00  0.0000000E+00  0.4629630E-02
    1      -21.926449
    2      -16.825710
    3      -15.540507
    4      -10.211766
    5      -10.013868
    6       -6.762122
    7       -6.249822
    8       -4.799152
    9       -1.129263
   10        0.837894
   11        1.641098
   12        2.034271
 
  0.8333333E-01  0.1111111E+00  0.0000000E+00  0.4629630E-02
    1      -21.895543
    2      -17.177362
    3      -15.146745
    4      -10.179212
    5       -9.977248
    6       -6.884702
    7       -6.288573
    8       -4.995514
    9       -0.893658
   10        0.879903
   11        1.683503
   12        2.077270
 
  0.1250000E+00  0.1111111E+00  0.0000000E+00  0.4629630E-02
    1      -21.844057
    2      -17.560720
    3      -14.693666
    4      -10.125002
    5       -9.916279
    6       -7.066252
    7       -6.371594
    8       -5.277273
    9       -0.547091
   10        0.949923
   11        1.754165
   12        2.148937
 
  0.1666667E+00  0.1111111E+00  0.0000000E+00  0.4629630E-02
    1      -21.772027
    2      -17.943449
    3      -14.214319
    4      -10.049201
    5       -9.831058
    6       -7.291566
    7       -6.507521
    8       -5.608218
    9       -0.126669
   10        1.047955
   11        1.853063
   12        2.249273
 
  0.2083333E+00  0.1111111E+00  0.0000000E+00  0.4629630E-02
    1      -21.679506
    2      -18.316110
    3      -13.719186
    4       -9.951890
    5       -9.721727
    6       -7.550987
    7       -6.696908
    8       -5.963238
    9        0.341269
   10        1.173994
   11        1.980169
   12        2.378280
 
  0.2500000E+00  0.1111111E+00  0.0000000E+00  0.4629630E-02
    1      -21.566563
    2      -18.674911
    3      -13.213477
    4       -9.833156
    5       -9.588476
    6       -7.839139
    7       -6.933987
    8       -6.326475
    9        0.839313
   10        1.328017
   11        2.135440
   12        2.535957
 
  0.2916667E+00  0.1111111E+00  0.0000000E+00  0.4629630E-02
    1      -21.433280
    2      -19.017924
    3      -12.700969
    4       -9.693077
    5       -9.431547
    6       -8.154112
    7       -7.208272
    8       -6.687994
    9        1.355673
   10        1.509990
   11        2.318819
   12        2.722300
 
  0.3333333E+00  0.1111111E+00  0.0000000E+00  0.4629630E-02
    1      -21.279762
    2      -19.344001
    3      -12.185184
    4       -9.531693
    5       -9.251249
    6       -8.496791
    7       -7.506108
    8       -7.041404
    9        1.719867
   10        1.881829
   11        2.530226
   12        2.937303
 
  0.3750000E+00  0.1111111E+00  0.0000000E+00  0.4629630E-02
    1      -21.106131
    2      -19.652369
    3      -11.669894
    4       -9.348983
    5       -9.047963
    6       -8.869588
    7       -7.812700
    8       -7.382437
    9        1.957584
   10        2.411107
   11        2.769541
   12        3.180958
 
  0.4166667E+00  0.1111111E+00  0.0000000E+00  0.4629630E-02
    1      -20.912533
    2      -19.942462
    3      -11.159405
    4       -9.274332
    5       -9.144835
    6       -8.822162
    7       -8.114760
    8       -7.708129
    9        2.223067
   10        2.937743
   11        3.036550
   12        3.453256
 
  0.4583333E+00  0.1111111E+00  0.0000000E+00  0.4629630E-02
    1      -20.699144
    2      -20.213845
    3      -10.658738
    4       -9.710275
    5       -8.919064
    6       -8.574435
    7       -8.402780
    8       -8.016350
    9        2.516225
   10        3.185042
   11        3.330678
   12        3.454775
 
  0.5000000E+00  0.1111111E+00  0.0000000E+00  0.2314815E-02
    1      -20.466167
    2      -20.466167
    3      -10.173640
    4      -10.173640
    5       -8.671564
    6       -8.671564
    7       -8.305520
    8       -8.305520
    9        2.836936
   10        2.836936
   11        3.646675
   12        3.646676
 
  0.0000000E+00  0.1388889E+00  0.0000000E+00  0.2314815E-02
    1      -21.817754
    2      -16.541809
    3      -15.644761
    4      -10.641539
    5       -9.885058
    6       -7.109771
    7       -6.497762
    8       -4.583312
    9       -1.285495
   10        0.985664
   11        1.790616
   12        2.185870
 
  0.4166667E-01  0.1388889E+00  0.0000000E+00  0.4629630E-02
    1      -21.807463
    2      -16.722372
    3      -15.450846
    4      -10.630232
    5       -9.872890
    6       -7.157911
    7       -6.498931
    8       -4.656993
    9       -1.199966
   10        0.999660
   11        1.804738
   12        2.200202
 
  0.8333333E-01  0.1388889E+00  0.0000000E+00  0.4629630E-02
    1      -21.776597
    2      -17.072295
    3      -15.061049
    4      -10.596291
    5       -9.836406
    6       -7.288809
    7       -6.515280
    8       -4.857777
    9       -0.963818
   10        1.041650
   11        1.847097
   12        2.243198
 
  0.1250000E+00  0.1388889E+00  0.0000000E+00  0.4629630E-02
    1      -21.725179
    2      -17.453748
    3      -14.613751
    4      -10.539643
    5       -9.775663
    6       -7.478207
    7       -6.568845
    8       -5.143704
    9       -0.619539
   10        1.111645
   11        1.917681
   12        2.314861
 
  0.1666667E+00  0.1388889E+00  0.0000000E+00  0.4629630E-02
    1      -21.653248
    2      -17.834715
    3      -14.141923
    4      -10.460146
    5       -9.690761
    6       -7.707597
    7       -6.673934
    8       -5.477420
    9       -0.205352
   10        1.209654
   11        2.016469
   12        2.415195
 
  0.2083333E+00  0.1388889E+00  0.0000000E+00  0.4629630E-02
    1      -21.560856
    2      -18.205822
    3      -13.656354
    4      -10.357564
    5       -9.581843
    6       -7.965249
    7       -6.835757
    8       -5.833825
    9        0.252463
   10        1.335675
   11        2.143429
   12        2.544201
 
  0.2500000E+00  0.1388889E+00  0.0000000E+00  0.4629630E-02
    1      -21.448074
    2      -18.563275
    3      -13.162804
    4      -10.231513
    5       -9.449097
    6       -8.243961
    7       -7.052694
    8       -6.197413
    9        0.736943
   10        1.489692
   11        2.298516
   12        2.701881
 
  0.2916667E+00  0.1388889E+00  0.0000000E+00  0.4629630E-02
    1      -21.314991
    2      -18.905127
    3      -12.665839
    4      -10.081400
    5       -9.292770
    6       -8.539781
    7       -7.318039
    8       -6.558602
    9        1.236812
   10        1.671671
   11        2.481674
   12        2.888232
 
  0.3333333E+00  0.1388889E+00  0.0000000E+00  0.4629630E-02
    1      -21.161711
    2      -19.230205
    3      -12.170059
    4       -9.906339
    5       -9.113168
    6       -8.851543
    7       -7.621256
    8       -6.911267
    9        1.744059
   10        1.881559
   11        2.692826
   12        3.103247
 
  0.3750000E+00  0.1388889E+00  0.0000000E+00  0.4629630E-02
    1      -20.988364
    2      -19.537714
    3      -11.680637
    4       -9.705093
    5       -9.180700
    6       -8.910672
    7       -7.948983
    8       -7.251324
    9        2.119289
   10        2.252578
   11        2.931874
   12        3.346919
 
  0.4166667E+00  0.1388889E+00  0.0000000E+00  0.4629630E-02
    1      -20.795105
    2      -19.827071
    3      -11.203513
    4       -9.530923
    5       -9.476143
    6       -8.685753
    7       -8.286131
    8       -7.575932
    9        2.384780
   10        2.757404
   11        3.198685
   12        3.619238
 
  0.4583333E+00  0.1388889E+00  0.0000000E+00  0.4629630E-02
    1      -20.582113
    2      -20.097822
    3      -10.745164
    4       -9.906820
    5       -9.218116
    6       -8.617627
    7       -8.438992
    8       -7.883039
    9        2.677935
   10        3.254256
   11        3.346733
   12        3.493043
 
  0.5000000E+00  0.1388889E+00  0.0000000E+00  0.2314815E-02
    1      -20.349601
    2      -20.349601
    3      -10.311636
    4      -10.311636
    5       -8.930920
    6       -8.930920
    7       -8.171116
    8       -8.171116
    9        2.998636
   10        2.998636
   11        3.737738
   12        3.737739
 
  0.0000000E+00  0.1666667E+00  0.0000000E+00  0.2314815E-02
    1      -21.672549
    2      -16.416424
    3      -15.538995
    4      -11.101691
    5       -9.713334
    6       -7.546491
    7       -6.799191
    8       -4.407442
    9       -1.386313
   10        1.183419
   11        1.990486
   12        2.388688
 
  0.4166667E-01  0.1666667E+00  0.0000000E+00  0.4629630E-02
    1      -21.662274
    2      -16.596576
    3      -15.346604
    4      -11.089616
    5       -9.701226
    6       -7.598061
    7       -6.791647
    8       -4.484105
    9       -1.299449
   10        1.197402
   11        2.004583
   12        2.403017
 
  0.8333333E-01  0.1666667E+00  0.0000000E+00  0.4629630E-02
    1      -21.631459
    2      -16.944608
    3      -14.962120
    4      -11.053294
    5       -9.664920
    6       -7.736674
    7       -6.784961
    8       -4.691181
    9       -1.061936
   10        1.239358
   11        2.046869
   12        2.446007
 
  0.1250000E+00  0.1666667E+00  0.0000000E+00  0.4629630E-02
    1      -21.580126
    2      -17.323724
    3      -14.523153
    4      -10.992417
    5       -9.604475
    6       -7.933876
    7       -6.806882
    8       -4.982805
    9       -0.720133
   10        1.309300
   11        2.117328
   12        2.517661
 
  0.1666667E+00  0.1666667E+00  0.0000000E+00  0.4629630E-02
    1      -21.508315
    2      -17.702470
    3      -14.062590
    4      -10.906414
    5       -9.519992
    6       -8.168516
    7       -6.876636
    8       -5.320136
    9       -0.313679
   10        1.407247
   11        2.215932
   12        2.617984
 
  0.2083333E+00  0.1666667E+00  0.0000000E+00  0.4629630E-02
    1      -21.416082
    2      -18.071603
    3      -13.591840
    4      -10.794370
    5       -9.411615
    6       -8.427449
    7       -7.003500
    8       -5.678216
    9        0.131406
   10        1.533207
   11        2.342639
   12        2.746981
 
  0.2500000E+00  0.1666667E+00  0.0000000E+00  0.4629630E-02
    1      -21.303501
    2      -18.427339
    3      -13.117753
    4      -10.654897
    5       -9.279536
    6       -8.702442
    7       -7.189464
    8       -6.042096
    9        0.598899
   10        1.687173
   11        2.497392
   12        2.904656
 
  0.2916667E+00  0.1666667E+00  0.0000000E+00  0.4629630E-02
    1      -21.170664
    2      -18.767715
    3      -12.646444
    4      -10.486002
    5       -9.124003
    6       -8.988347
    7       -7.431143
    8       -6.402693
    9        1.078285
   10        1.869114
   11        2.680110
   12        3.091007
 
  0.3333333E+00  0.1666667E+00  0.0000000E+00  0.4629630E-02
    1      -21.017681
    2      -19.091526
    3      -12.184473
    4      -10.285036
    5       -9.282333
    6       -8.945322
    7       -7.721111
    8       -6.754246
    9        1.562269
   10        2.078975
   11        2.890676
   12        3.306028
 
  0.3750000E+00  0.1666667E+00  0.0000000E+00  0.4629630E-02
    1      -20.844690
    2      -19.397949
    3      -11.739002
    4      -10.049011
    5       -9.583671
    6       -8.743875
    7       -8.048961
    8       -7.092913
    9        2.045425
   10        2.316680
   11        3.128904
   12        3.549712
 
  0.4166667E+00  0.1666667E+00  0.0000000E+00  0.4629630E-02
    1      -20.651853
    2      -19.686375
    3      -11.316943
    4       -9.893819
    5       -9.775726
    6       -8.520131
    7       -8.402057
    8       -7.416013
    9        2.523445
   10        2.582139
   11        3.394364
   12        3.822046
 
  0.4583333E+00  0.1666667E+00  0.0000000E+00  0.4629630E-02
    1      -20.439358
    2      -19.956330
    3      -10.922981
    4      -10.216530
    5       -9.465933
    6       -8.766044
    7       -8.274663
    8       -7.721592
    9        2.875242
   10        2.992643
   11        3.543847
   12        3.682780
 
  0.5000000E+00  0.1666667E+00  0.0000000E+00  0.2314815E-02
    1      -20.207429
    2      -20.207429
    3      -10.557517
    4      -10.557517
    5       -9.125573
    6       -9.125573
    7       -8.008186
    8       -8.008186
    9        3.195863
   10        3.195863
   11        3.448993
   12        3.448993
 