 running on    8 total cores
 distrk:  each k-point on    8 cores,    1 groups
 distr:  one band on    2 cores,    4 groups
 using from now: INCAR     
 vasp.5.3.5 31Mar14 (build Mar 02 2015 18:14:16) complex                        
  
 POSCAR found type information on POSCAR  C 
 POSCAR found :  1 types and       4 ions
 LDA part: xc-table for Pade appr. of Perdew
 POSCAR, INCAR and KPOINTS ok, starting setup
 WARNING: small aliasing (wrap around) errors must be expected
 FFT: planning ...
 WAVECAR not read
 entering main loop
       N       E                     dE             d eps       ncg     rms          rms(c)
DAV:   1     0.188713720154E+03    0.18871E+03   -0.10605E+04  5928   0.274E+03
DAV:   2    -0.889757778373E+01   -0.19761E+03   -0.17681E+03 10408   0.262E+02
DAV:   3    -0.382312611379E+02   -0.29334E+02   -0.28774E+02  7416   0.120E+02    0.719E+00
RMM:   4    -0.376423806919E+02    0.58888E+00   -0.94354E+00  5928   0.263E+01    0.417E+00
RMM:   5    -0.369102481618E+02    0.73213E+00   -0.27550E+00  5932   0.114E+01    0.721E-01
RMM:   6    -0.369118484328E+02   -0.16003E-02   -0.83629E-02  6393   0.203E+00    0.513E-01
RMM:   7    -0.369027808730E+02    0.90676E-02   -0.32632E-02  5934   0.157E+00    0.336E-01
RMM:   8    -0.368974803743E+02    0.53005E-02   -0.67916E-03  5929   0.547E-01    0.138E-01
RMM:   9    -0.368971943445E+02    0.28603E-03   -0.20698E-02  5928   0.852E-01    0.157E-01
RMM:  10    -0.368970616515E+02    0.13269E-03   -0.24167E-03  5928   0.354E-01    0.280E-02
RMM:  11    -0.368994857872E+02   -0.24241E-02   -0.74685E-04  5930   0.181E-01    0.460E-02
RMM:  12    -0.368999345014E+02   -0.44871E-03   -0.22011E-04  5936   0.984E-02    0.601E-03
RMM:  13    -0.369002000561E+02   -0.26555E-03   -0.56550E-05  6006   0.422E-02    0.408E-03
RMM:  14    -0.369002817232E+02   -0.81667E-04   -0.10698E-05  5954   0.177E-02    0.162E-03
RMM:  15    -0.369002920260E+02   -0.10303E-04   -0.17116E-06  5983   0.756E-03    0.144E-03
RMM:  16    -0.369003044161E+02   -0.12390E-04   -0.93128E-07  5928   0.616E-03    0.880E-04
RMM:  17    -0.369003096334E+02   -0.52173E-05   -0.54643E-08  6101   0.154E-03    0.811E-04
RMM:  18    -0.369003107490E+02   -0.11156E-05   -0.71966E-08  5928   0.198E-03    0.862E-05
RMM:  19    -0.369003115218E+02   -0.77282E-06   -0.10719E-08  6029   0.501E-04    0.261E-05
RMM:  20    -0.369003115843E+02   -0.62443E-07   -0.83926E-10  4463   0.132E-04    0.235E-05
RMM:  21    -0.369003116015E+02   -0.17282E-07   -0.25721E-10  4394   0.978E-05    0.380E-06
RMM:  22    -0.369003116017E+02   -0.12233E-09   -0.68043E-12  3884   0.414E-05    0.182E-06
RMM:  23    -0.369003116018E+02   -0.10527E-09   -0.12475E-11  3512   0.355E-05    0.915E-07
RMM:  24    -0.369003116022E+02   -0.42905E-09   -0.42032E-12  3114   0.281E-05    0.278E-07
RMM:  25    -0.369003116019E+02    0.28808E-09   -0.37595E-12  2770   0.242E-05    0.101E-07
RMM:  26    -0.369003116018E+02    0.14984E-09   -0.33694E-12  2551   0.218E-05    0.422E-08
RMM:  27    -0.369003116022E+02   -0.49056E-09   -0.16927E-12  2369   0.202E-05    0.561E-08
RMM:  28    -0.369003116022E+02    0.59686E-10   -0.89530E-13  2243   0.189E-05
   1 F= -.36900312E+02 E0= -.36900310E+02  d E =-.369003E+02
 BRION: g(F)=  0.611E-06 g(S)=  0.000E+00
 bond charge predicted
       N       E                     dE             d eps       ncg     rms          rms(c)
DAV:   1    -0.369003106482E+02    0.95405E-06   -0.81927E-05  6368   0.852E-02    0.176E-03
RMM:   2    -0.369003107032E+02   -0.54983E-07   -0.13672E-06  5939   0.103E-02    0.128E-03
RMM:   3    -0.369003106548E+02    0.48424E-07   -0.22388E-07  5971   0.383E-03    0.329E-04
RMM:   4    -0.369003106522E+02    0.25370E-08   -0.13942E-08  6062   0.931E-04    0.930E-05
RMM:   5    -0.369003106508E+02    0.14227E-08   -0.10645E-09  5349   0.236E-04    0.417E-05
WARNING in EDDRMM: call to ZHEGV failed, returncode =   6  3  1
RMM:   6    -0.369003106513E+02   -0.54524E-09   -0.14249E-10  3847   0.997E-05    0.475E-06
RMM:   7    -0.369003106509E+02    0.39881E-09   -0.11815E-11  3746   0.536E-05    0.268E-06
RMM:   8    -0.369003106510E+02   -0.60822E-10   -0.14877E-11  3367   0.406E-05
   2 F= -.36900311E+02 E0= -.36900308E+02  d E =0.951182E-06
 BRION: g(F)=  0.101E-04 g(S)=  0.000E+00 retain N=  1 mean eig= 0.20
 eig:   0.197
 bond charge predicted
       N       E                     dE             d eps       ncg     rms          rms(c)
DAV:   1    -0.369003116449E+02   -0.99396E-06   -0.52754E-05  6560   0.684E-02    0.142E-03
RMM:   2    -0.369003116794E+02   -0.34489E-07   -0.84056E-07  5945   0.820E-03    0.102E-03
RMM:   3    -0.369003116623E+02    0.17127E-07   -0.14075E-07  5976   0.304E-03    0.250E-04
RMM:   4    -0.369003116589E+02    0.33760E-08   -0.83872E-09  6053   0.727E-04    0.745E-05
RMM:   5    -0.369003116599E+02   -0.10301E-08   -0.64780E-10  4827   0.187E-04    0.336E-05
RMM:   6    -0.369003116594E+02    0.47828E-09   -0.90633E-11  3782   0.844E-05    0.407E-06
RMM:   7    -0.369003116596E+02   -0.14279E-09   -0.17759E-11  3726   0.522E-05    0.266E-06
RMM:   8    -0.369003116595E+02    0.30923E-10   -0.11261E-11  3246   0.373E-05
   3 F= -.36900312E+02 E0= -.36900310E+02  d E =-.100855E-05
 BRION: g(F)=  0.241E-11 g(S)=  0.000E+00 retain N=  1 mean eig= 0.20
 eig:   0.197
 bond charge predicted
       N       E                     dE             d eps       ncg     rms          rms(c)
DAV:   1    -0.369003116590E+02    0.56218E-09    0.61079E-09  5044   0.440E-05    0.439E-07
RMM:   2    -0.369003116598E+02   -0.81229E-09   -0.93616E-13  1852   0.164E-05    0.276E-07
RMM:   3    -0.369003116598E+02    0.59572E-10    0.66794E-13  1715   0.163E-05    0.553E-08
RMM:   4    -0.369003116598E+02   -0.21373E-10   -0.10787E-12  1658   0.160E-05    0.315E-08
RMM:   5    -0.369003116600E+02   -0.20702E-09   -0.20144E-12  1641   0.156E-05    0.144E-08
RMM:   6    -0.369003116600E+02   -0.34902E-10   -0.74597E-13  1589   0.151E-05
   4 F= -.36900312E+02 E0= -.36900310E+02  d E =-.484761E-09
 BRION: g(F)=  0.418E-11 g(S)=  0.000E+00 retain N=  1 mean eig= 0.09
 eig:   0.085
 bond charge predicted
       N       E                     dE             d eps       ncg     rms          rms(c)
DAV:   1    -0.369003116593E+02    0.74158E-09    0.61254E-09  4332   0.215E-05    0.261E-07
RMM:   2    -0.369003116600E+02   -0.72384E-09    0.67271E-14  1341   0.753E-06    0.161E-07
RMM:   3    -0.369003116597E+02    0.32526E-09    0.87708E-14  1331   0.747E-06    0.124E-08
RMM:   4    -0.369003116597E+02   -0.67075E-10    0.14293E-13  1319   0.744E-06    0.789E-09
RMM:   5    -0.369003116601E+02   -0.33151E-09    0.95027E-14  1327   0.741E-06    0.475E-09
RMM:   6    -0.369003116596E+02    0.45384E-09   -0.88736E-14  1039   0.740E-06    0.403E-09
RMM:   7    -0.369003116598E+02   -0.16519E-09    0.75331E-14  1144   0.735E-06    0.279E-09
RMM:   8    -0.369003116597E+02    0.11084E-09    0.20461E-13  1167   0.733E-06    0.151E-09
RMM:   9    -0.369003116597E+02   -0.57980E-10   -0.15580E-13   978   0.732E-06
   5 F= -.36900312E+02 E0= -.36900310E+02  d E =0.320824E-09
 BRION: g(F)=  0.192E-13 g(S)=  0.000E+00 retain N=  1 mean eig= 0.09
 eig:   0.091
 reached required accuracy - stopping structural energy minimisation
