<?xml version="1.0" encoding="ISO-8859-1"?>
<modeling>
 <generator>
  <i name="program" type="string">vasp </i>
  <i name="version" type="string">5.3.5  </i>
  <i name="subversion" type="string">31Mar14 (build Mar 02 2015 18:14:16) complex                          parallel </i>
  <i name="platform" type="string">LinuxIFC </i>
  <i name="date" type="string">2018 08 09 </i>
  <i name="time" type="string">20:03:22 </i>
 </generator>
 <incar>
  <i type="string" name="SYSTEM">  gr</i>
  <i type="string" name="PREC">accurate : accuracy</i>
  <i type="string" name="ALGO"> FAST.</i>
  <i type="int" name="NELM">   100</i>
  <i type="int" name="NELMDL">    -3</i>
  <i type="int" name="NELMIN">     5</i>
  <i type="int" name="IBRION">     1</i>
  <i name="EDIFF">      0.00000000</i>
  <i name="EDIFFG">     -0.00000100</i>
  <i type="int" name="NSW">   400</i>
  <i type="int" name="ISIF">     2</i>
  <i name="ENCUT">   2000.00000000</i>
  <i type="int" name="ISMEAR">     0</i>
  <i name="SIGMA">      0.05000000</i>
  <i type="int" name="NWRITE">     2</i>
  <i type="logical" name="LWAVE"> F  </i>
  <i type="logical" name="LCHARG"> F  </i>
  <i type="int" name="NELM">   100</i>
 </incar>
 <kpoints>
  <generation param="Gamma">
   <v type="int" name="divisions">      24       36        1 </v>
   <v name="usershift">      0.00000000       0.00000000       0.00000000 </v>
   <v name="genvec1">      0.04166667       0.00000000       0.00000000 </v>
   <v name="genvec2">      0.00000000       0.02777778       0.00000000 </v>
   <v name="genvec3">      0.00000000       0.00000000       1.00000000 </v>
   <v name="shift">      0.00000000       0.00000000       0.00000000 </v>
  </generation>
  <varray name="kpointlist" >
   <v>       0.00000000       0.00000000       0.00000000 </v>
   <v>       0.04166667       0.00000000       0.00000000 </v>
   <v>       0.08333333       0.00000000       0.00000000 </v>
   <v>       0.12500000       0.00000000       0.00000000 </v>
   <v>       0.16666667       0.00000000       0.00000000 </v>
   <v>       0.20833333       0.00000000       0.00000000 </v>
   <v>       0.25000000       0.00000000       0.00000000 </v>
   <v>       0.29166667       0.00000000       0.00000000 </v>
   <v>       0.33333333       0.00000000       0.00000000 </v>
   <v>       0.37500000       0.00000000       0.00000000 </v>
   <v>       0.41666667       0.00000000       0.00000000 </v>
   <v>       0.45833333       0.00000000       0.00000000 </v>
   <v>       0.50000000       0.00000000       0.00000000 </v>
   <v>       0.00000000       0.02777778       0.00000000 </v>
   <v>       0.04166667       0.02777778       0.00000000 </v>
   <v>       0.08333333       0.02777778       0.00000000 </v>
   <v>       0.12500000       0.02777778       0.00000000 </v>
   <v>       0.16666667       0.02777778       0.00000000 </v>
   <v>       0.20833333       0.02777778       0.00000000 </v>
   <v>       0.25000000       0.02777778       0.00000000 </v>
   <v>       0.29166667       0.02777778       0.00000000 </v>
   <v>       0.33333333       0.02777778       0.00000000 </v>
   <v>       0.37500000       0.02777778       0.00000000 </v>
   <v>       0.41666667       0.02777778       0.00000000 </v>
   <v>       0.45833333       0.02777778       0.00000000 </v>
   <v>       0.50000000       0.02777778       0.00000000 </v>
   <v>       0.00000000       0.05555556       0.00000000 </v>
   <v>       0.04166667       0.05555556       0.00000000 </v>
   <v>       0.08333333       0.05555556       0.00000000 </v>
   <v>       0.12500000       0.05555556       0.00000000 </v>
   <v>       0.16666667       0.05555556       0.00000000 </v>
   <v>       0.20833333       0.05555556       0.00000000 </v>
   <v>       0.25000000       0.05555556       0.00000000 </v>
   <v>       0.29166667       0.05555556       0.00000000 </v>
   <v>       0.33333333       0.05555556       0.00000000 </v>
   <v>       0.37500000       0.05555556       0.00000000 </v>
   <v>       0.41666667       0.05555556       0.00000000 </v>
   <v>       0.45833333       0.05555556       0.00000000 </v>
   <v>       0.50000000       0.05555556       0.00000000 </v>
   <v>       0.00000000       0.08333333       0.00000000 </v>
   <v>       0.04166667       0.08333333       0.00000000 </v>
   <v>       0.08333333       0.08333333       0.00000000 </v>
   <v>       0.12500000       0.08333333       0.00000000 </v>
   <v>       0.16666667       0.08333333       0.00000000 </v>
   <v>       0.20833333       0.08333333       0.00000000 </v>
   <v>       0.25000000       0.08333333       0.00000000 </v>
   <v>       0.29166667       0.08333333       0.00000000 </v>
   <v>       0.33333333       0.08333333       0.00000000 </v>
   <v>       0.37500000       0.08333333       0.00000000 </v>
   <v>       0.41666667       0.08333333       0.00000000 </v>
   <v>       0.45833333       0.08333333       0.00000000 </v>
   <v>       0.50000000       0.08333333       0.00000000 </v>
   <v>       0.00000000       0.11111111       0.00000000 </v>
   <v>       0.04166667       0.11111111       0.00000000 </v>
   <v>       0.08333333       0.11111111       0.00000000 </v>
   <v>       0.12500000       0.11111111       0.00000000 </v>
   <v>       0.16666667       0.11111111       0.00000000 </v>
   <v>       0.20833333       0.11111111       0.00000000 </v>
   <v>       0.25000000       0.11111111       0.00000000 </v>
   <v>       0.29166667       0.11111111       0.00000000 </v>
   <v>       0.33333333       0.11111111       0.00000000 </v>
   <v>       0.37500000       0.11111111       0.00000000 </v>
   <v>       0.41666667       0.11111111       0.00000000 </v>
   <v>       0.45833333       0.11111111       0.00000000 </v>
   <v>       0.50000000       0.11111111       0.00000000 </v>
   <v>       0.00000000       0.13888889       0.00000000 </v>
   <v>       0.04166667       0.13888889       0.00000000 </v>
   <v>       0.08333333       0.13888889       0.00000000 </v>
   <v>       0.12500000       0.13888889       0.00000000 </v>
   <v>       0.16666667       0.13888889       0.00000000 </v>
   <v>       0.20833333       0.13888889       0.00000000 </v>
   <v>       0.25000000       0.13888889       0.00000000 </v>
   <v>       0.29166667       0.13888889       0.00000000 </v>
   <v>       0.33333333       0.13888889       0.00000000 </v>
   <v>       0.37500000       0.13888889       0.00000000 </v>
   <v>       0.41666667       0.13888889       0.00000000 </v>
   <v>       0.45833333       0.13888889       0.00000000 </v>
   <v>       0.50000000       0.13888889       0.00000000 </v>
   <v>       0.00000000       0.16666667       0.00000000 </v>
   <v>       0.04166667       0.16666667       0.00000000 </v>
   <v>       0.08333333       0.16666667       0.00000000 </v>
   <v>       0.12500000       0.16666667       0.00000000 </v>
   <v>       0.16666667       0.16666667       0.00000000 </v>
   <v>       0.20833333       0.16666667       0.00000000 </v>
   <v>       0.25000000       0.16666667       0.00000000 </v>
   <v>       0.29166667       0.16666667       0.00000000 </v>
   <v>       0.33333333       0.16666667       0.00000000 </v>
   <v>       0.37500000       0.16666667       0.00000000 </v>
   <v>       0.41666667       0.16666667       0.00000000 </v>
   <v>       0.45833333       0.16666667       0.00000000 </v>
   <v>       0.50000000       0.16666667       0.00000000 </v>
   <v>       0.00000000       0.19444444       0.00000000 </v>
   <v>       0.04166667       0.19444444       0.00000000 </v>
   <v>       0.08333333       0.19444444       0.00000000 </v>
   <v>       0.12500000       0.19444444       0.00000000 </v>
   <v>       0.16666667       0.19444444       0.00000000 </v>
   <v>       0.20833333       0.19444444       0.00000000 </v>
   <v>       0.25000000       0.19444444       0.00000000 </v>
   <v>       0.29166667       0.19444444       0.00000000 </v>
   <v>       0.33333333       0.19444444       0.00000000 </v>
   <v>       0.37500000       0.19444444       0.00000000 </v>
   <v>       0.41666667       0.19444444       0.00000000 </v>
   <v>       0.45833333       0.19444444       0.00000000 </v>
   <v>       0.50000000       0.19444444       0.00000000 </v>
   <v>       0.00000000       0.22222222       0.00000000 </v>
   <v>       0.04166667       0.22222222       0.00000000 </v>
   <v>       0.08333333       0.22222222       0.00000000 </v>
   <v>       0.12500000       0.22222222       0.00000000 </v>
   <v>       0.16666667       0.22222222       0.00000000 </v>
   <v>       0.20833333       0.22222222       0.00000000 </v>
   <v>       0.25000000       0.22222222       0.00000000 </v>
   <v>       0.29166667       0.22222222       0.00000000 </v>
   <v>       0.33333333       0.22222222       0.00000000 </v>
   <v>       0.37500000       0.22222222       0.00000000 </v>
   <v>       0.41666667       0.22222222       0.00000000 </v>
   <v>       0.45833333       0.22222222       0.00000000 </v>
   <v>       0.50000000       0.22222222       0.00000000 </v>
   <v>       0.00000000       0.25000000       0.00000000 </v>
   <v>       0.04166667       0.25000000       0.00000000 </v>
   <v>       0.08333333       0.25000000       0.00000000 </v>
   <v>       0.12500000       0.25000000       0.00000000 </v>
   <v>       0.16666667       0.25000000       0.00000000 </v>
   <v>       0.20833333       0.25000000       0.00000000 </v>
   <v>       0.25000000       0.25000000       0.00000000 </v>
   <v>       0.29166667       0.25000000       0.00000000 </v>
   <v>       0.33333333       0.25000000       0.00000000 </v>
   <v>       0.37500000       0.25000000       0.00000000 </v>
   <v>       0.41666667       0.25000000       0.00000000 </v>
   <v>       0.45833333       0.25000000       0.00000000 </v>
   <v>       0.50000000       0.25000000       0.00000000 </v>
   <v>       0.00000000       0.27777778       0.00000000 </v>
   <v>       0.04166667       0.27777778       0.00000000 </v>
   <v>       0.08333333       0.27777778       0.00000000 </v>
   <v>       0.12500000       0.27777778       0.00000000 </v>
   <v>       0.16666667       0.27777778       0.00000000 </v>
   <v>       0.20833333       0.27777778       0.00000000 </v>
   <v>       0.25000000       0.27777778       0.00000000 </v>
   <v>       0.29166667       0.27777778       0.00000000 </v>
   <v>       0.33333333       0.27777778       0.00000000 </v>
   <v>       0.37500000       0.27777778       0.00000000 </v>
   <v>       0.41666667       0.27777778       0.00000000 </v>
   <v>       0.45833333       0.27777778       0.00000000 </v>
   <v>       0.50000000       0.27777778       0.00000000 </v>
   <v>       0.00000000       0.30555556       0.00000000 </v>
   <v>       0.04166667       0.30555556       0.00000000 </v>
   <v>       0.08333333       0.30555556       0.00000000 </v>
   <v>       0.12500000       0.30555556       0.00000000 </v>
   <v>       0.16666667       0.30555556       0.00000000 </v>
   <v>       0.20833333       0.30555556       0.00000000 </v>
   <v>       0.25000000       0.30555556       0.00000000 </v>
   <v>       0.29166667       0.30555556       0.00000000 </v>
   <v>       0.33333333       0.30555556       0.00000000 </v>
   <v>       0.37500000       0.30555556       0.00000000 </v>
   <v>       0.41666667       0.30555556       0.00000000 </v>
   <v>       0.45833333       0.30555556       0.00000000 </v>
   <v>       0.50000000       0.30555556       0.00000000 </v>
   <v>       0.00000000       0.33333333       0.00000000 </v>
   <v>       0.04166667       0.33333333       0.00000000 </v>
   <v>       0.08333333       0.33333333       0.00000000 </v>
   <v>       0.12500000       0.33333333       0.00000000 </v>
   <v>       0.16666667       0.33333333       0.00000000 </v>
   <v>       0.20833333       0.33333333       0.00000000 </v>
   <v>       0.25000000       0.33333333       0.00000000 </v>
   <v>       0.29166667       0.33333333       0.00000000 </v>
   <v>       0.33333333       0.33333333       0.00000000 </v>
   <v>       0.37500000       0.33333333       0.00000000 </v>
   <v>       0.41666667       0.33333333       0.00000000 </v>
   <v>       0.45833333       0.33333333       0.00000000 </v>
   <v>       0.50000000       0.33333333       0.00000000 </v>
   <v>       0.00000000       0.36111111       0.00000000 </v>
   <v>       0.04166667       0.36111111       0.00000000 </v>
   <v>       0.08333333       0.36111111       0.00000000 </v>
   <v>       0.12500000       0.36111111       0.00000000 </v>
   <v>       0.16666667       0.36111111       0.00000000 </v>
   <v>       0.20833333       0.36111111       0.00000000 </v>
   <v>       0.25000000       0.36111111       0.00000000 </v>
   <v>       0.29166667       0.36111111       0.00000000 </v>
   <v>       0.33333333       0.36111111       0.00000000 </v>
   <v>       0.37500000       0.36111111       0.00000000 </v>
   <v>       0.41666667       0.36111111       0.00000000 </v>
   <v>       0.45833333       0.36111111       0.00000000 </v>
   <v>       0.50000000       0.36111111       0.00000000 </v>
   <v>       0.00000000       0.38888889       0.00000000 </v>
   <v>       0.04166667       0.38888889       0.00000000 </v>
   <v>       0.08333333       0.38888889       0.00000000 </v>
   <v>       0.12500000       0.38888889       0.00000000 </v>
   <v>       0.16666667       0.38888889       0.00000000 </v>
   <v>       0.20833333       0.38888889       0.00000000 </v>
   <v>       0.25000000       0.38888889       0.00000000 </v>
   <v>       0.29166667       0.38888889       0.00000000 </v>
   <v>       0.33333333       0.38888889       0.00000000 </v>
   <v>       0.37500000       0.38888889       0.00000000 </v>
   <v>       0.41666667       0.38888889       0.00000000 </v>
   <v>       0.45833333       0.38888889       0.00000000 </v>
   <v>       0.50000000       0.38888889       0.00000000 </v>
   <v>       0.00000000       0.41666667       0.00000000 </v>
   <v>       0.04166667       0.41666667       0.00000000 </v>
   <v>       0.08333333       0.41666667       0.00000000 </v>
   <v>       0.12500000       0.41666667       0.00000000 </v>
   <v>       0.16666667       0.41666667       0.00000000 </v>
   <v>       0.20833333       0.41666667       0.00000000 </v>
   <v>       0.25000000       0.41666667       0.00000000 </v>
   <v>       0.29166667       0.41666667       0.00000000 </v>
   <v>       0.33333333       0.41666667       0.00000000 </v>
   <v>       0.37500000       0.41666667       0.00000000 </v>
   <v>       0.41666667       0.41666667       0.00000000 </v>
   <v>       0.45833333       0.41666667       0.00000000 </v>
   <v>       0.50000000       0.41666667       0.00000000 </v>
   <v>       0.00000000       0.44444444       0.00000000 </v>
   <v>       0.04166667       0.44444444       0.00000000 </v>
   <v>       0.08333333       0.44444444       0.00000000 </v>
   <v>       0.12500000       0.44444444       0.00000000 </v>
   <v>       0.16666667       0.44444444       0.00000000 </v>
   <v>       0.20833333       0.44444444       0.00000000 </v>
   <v>       0.25000000       0.44444444       0.00000000 </v>
   <v>       0.29166667       0.44444444       0.00000000 </v>
   <v>       0.33333333       0.44444444       0.00000000 </v>
   <v>       0.37500000       0.44444444       0.00000000 </v>
   <v>       0.41666667       0.44444444       0.00000000 </v>
   <v>       0.45833333       0.44444444       0.00000000 </v>
   <v>       0.50000000       0.44444444       0.00000000 </v>
   <v>       0.00000000       0.47222222       0.00000000 </v>
   <v>       0.04166667       0.47222222       0.00000000 </v>
   <v>       0.08333333       0.47222222       0.00000000 </v>
   <v>       0.12500000       0.47222222       0.00000000 </v>
   <v>       0.16666667       0.47222222       0.00000000 </v>
   <v>       0.20833333       0.47222222       0.00000000 </v>
   <v>       0.25000000       0.47222222       0.00000000 </v>
   <v>       0.29166667       0.47222222       0.00000000 </v>
   <v>       0.33333333       0.47222222       0.00000000 </v>
   <v>       0.37500000       0.47222222       0.00000000 </v>
   <v>       0.41666667       0.47222222       0.00000000 </v>
   <v>       0.45833333       0.47222222       0.00000000 </v>
   <v>       0.50000000       0.47222222       0.00000000 </v>
   <v>       0.00000000       0.50000000       0.00000000 </v>
   <v>       0.04166667       0.50000000       0.00000000 </v>
   <v>       0.08333333       0.50000000       0.00000000 </v>
   <v>       0.12500000       0.50000000       0.00000000 </v>
   <v>       0.16666667       0.50000000       0.00000000 </v>
   <v>       0.20833333       0.50000000       0.00000000 </v>
   <v>       0.25000000       0.50000000       0.00000000 </v>
   <v>       0.29166667       0.50000000       0.00000000 </v>
   <v>       0.33333333       0.50000000       0.00000000 </v>
   <v>       0.37500000       0.50000000       0.00000000 </v>
   <v>       0.41666667       0.50000000       0.00000000 </v>
   <v>       0.45833333       0.50000000       0.00000000 </v>
   <v>       0.50000000       0.50000000       0.00000000 </v>
  </varray>
  <varray name="weights" >
   <v>       0.00115741 </v>
   <v>       0.00231481 </v>
   <v>       0.00231481 </v>
   <v>       0.00231481 </v>
   <v>       0.00231481 </v>
   <v>       0.00231481 </v>
   <v>       0.00231481 </v>
   <v>       0.00231481 </v>
   <v>       0.00231481 </v>
   <v>       0.00231481 </v>
   <v>       0.00231481 </v>
   <v>       0.00231481 </v>
   <v>       0.00115741 </v>
   <v>       0.00231481 </v>
   <v>       0.00462963 </v>
   <v>       0.00462963 </v>
   <v>       0.00462963 </v>
   <v>       0.00462963 </v>
   <v>       0.00462963 </v>
   <v>       0.00462963 </v>
   <v>       0.00462963 </v>
   <v>       0.00462963 </v>
   <v>       0.00462963 </v>
   <v>       0.00462963 </v>
   <v>       0.00462963 </v>
   <v>       0.00231481 </v>
   <v>       0.00231481 </v>
   <v>       0.00462963 </v>
   <v>       0.00462963 </v>
   <v>       0.00462963 </v>
   <v>       0.00462963 </v>
   <v>       0.00462963 </v>
   <v>       0.00462963 </v>
   <v>       0.00462963 </v>
   <v>       0.00462963 </v>
   <v>       0.00462963 </v>
   <v>       0.00462963 </v>
   <v>       0.00462963 </v>
   <v>       0.00231481 </v>
   <v>       0.00231481 </v>
   <v>       0.00462963 </v>
   <v>       0.00462963 </v>
   <v>       0.00462963 </v>
   <v>       0.00462963 </v>
   <v>       0.00462963 </v>
   <v>       0.00462963 </v>
   <v>       0.00462963 </v>
   <v>       0.00462963 </v>
   <v>       0.00462963 </v>
   <v>       0.00462963 </v>
   <v>       0.00462963 </v>
   <v>       0.00231481 </v>
   <v>       0.00231481 </v>
   <v>       0.00462963 </v>
   <v>       0.00462963 </v>
   <v>       0.00462963 </v>
   <v>       0.00462963 </v>
   <v>       0.00462963 </v>
   <v>       0.00462963 </v>
   <v>       0.00462963 </v>
   <v>       0.00462963 </v>
   <v>       0.00462963 </v>
   <v>       0.00462963 </v>
   <v>       0.00462963 </v>
   <v>       0.00231481 </v>
   <v>       0.00231481 </v>
   <v>       0.00462963 </v>
   <v>       0.00462963 </v>
   <v>       0.00462963 </v>
   <v>       0.00462963 </v>
   <v>       0.00462963 </v>
   <v>       0.00462963 </v>
   <v>       0.00462963 </v>
   <v>       0.00462963 </v>
   <v>       0.00462963 </v>
   <v>       0.00462963 </v>
   <v>       0.00462963 </v>
   <v>       0.00231481 </v>
   <v>       0.00231481 </v>
   <v>       0.00462963 </v>
   <v>       0.00462963 </v>
   <v>       0.00462963 </v>
   <v>       0.00462963 </v>
   <v>       0.00462963 </v>
   <v>       0.00462963 </v>
   <v>       0.00462963 </v>
   <v>       0.00462963 </v>
   <v>       0.00462963 </v>
   <v>       0.00462963 </v>
   <v>       0.00462963 </v>
   <v>       0.00231481 </v>
   <v>       0.00231481 </v>
   <v>       0.00462963 </v>
   <v>       0.00462963 </v>
   <v>       0.00462963 </v>
   <v>       0.00462963 </v>
   <v>       0.00462963 </v>
   <v>       0.00462963 </v>
   <v>       0.00462963 </v>
   <v>       0.00462963 </v>
   <v>       0.00462963 </v>
   <v>       0.00462963 </v>
   <v>       0.00462963 </v>
   <v>       0.00231481 </v>
   <v>       0.00231481 </v>
   <v>       0.00462963 </v>
   <v>       0.00462963 </v>
   <v>       0.00462963 </v>
   <v>       0.00462963 </v>
   <v>       0.00462963 </v>
   <v>       0.00462963 </v>
   <v>       0.00462963 </v>
   <v>       0.00462963 </v>
   <v>       0.00462963 </v>
   <v>       0.00462963 </v>
   <v>       0.00462963 </v>
   <v>       0.00231481 </v>
   <v>       0.00231481 </v>
   <v>       0.00462963 </v>
   <v>       0.00462963 </v>
   <v>       0.00462963 </v>
   <v>       0.00462963 </v>
   <v>       0.00462963 </v>
   <v>       0.00462963 </v>
   <v>       0.00462963 </v>
   <v>       0.00462963 </v>
   <v>       0.00462963 </v>
   <v>       0.00462963 </v>
   <v>       0.00462963 </v>
   <v>       0.00231481 </v>
   <v>       0.00231481 </v>
   <v>       0.00462963 </v>
   <v>       0.00462963 </v>
   <v>       0.00462963 </v>
   <v>       0.00462963 </v>
   <v>       0.00462963 </v>
   <v>       0.00462963 </v>
   <v>       0.00462963 </v>
   <v>       0.00462963 </v>
   <v>       0.00462963 </v>
   <v>       0.00462963 </v>
   <v>       0.00462963 </v>
   <v>       0.00231481 </v>
   <v>       0.00231481 </v>
   <v>       0.00462963 </v>
   <v>       0.00462963 </v>
   <v>       0.00462963 </v>
   <v>       0.00462963 </v>
   <v>       0.00462963 </v>
   <v>       0.00462963 </v>
   <v>       0.00462963 </v>
   <v>       0.00462963 </v>
   <v>       0.00462963 </v>
   <v>       0.00462963 </v>
   <v>       0.00462963 </v>
   <v>       0.00231481 </v>
   <v>       0.00231481 </v>
   <v>       0.00462963 </v>
   <v>       0.00462963 </v>
   <v>       0.00462963 </v>
   <v>       0.00462963 </v>
   <v>       0.00462963 </v>
   <v>       0.00462963 </v>
   <v>       0.00462963 </v>
   <v>       0.00462963 </v>
   <v>       0.00462963 </v>
   <v>       0.00462963 </v>
   <v>       0.00462963 </v>
   <v>       0.00231481 </v>
   <v>       0.00231481 </v>
   <v>       0.00462963 </v>
   <v>       0.00462963 </v>
   <v>       0.00462963 </v>
   <v>       0.00462963 </v>
   <v>       0.00462963 </v>
   <v>       0.00462963 </v>
   <v>       0.00462963 </v>
   <v>       0.00462963 </v>
   <v>       0.00462963 </v>
   <v>       0.00462963 </v>
   <v>       0.00462963 </v>
   <v>       0.00231481 </v>
   <v>       0.00231481 </v>
   <v>       0.00462963 </v>
   <v>       0.00462963 </v>
   <v>       0.00462963 </v>
   <v>       0.00462963 </v>
   <v>       0.00462963 </v>
   <v>       0.00462963 </v>
   <v>       0.00462963 </v>
   <v>       0.00462963 </v>
   <v>       0.00462963 </v>
   <v>       0.00462963 </v>
   <v>       0.00462963 </v>
   <v>       0.00231481 </v>
   <v>       0.00231481 </v>
   <v>       0.00462963 </v>
   <v>       0.00462963 </v>
   <v>       0.00462963 </v>
   <v>       0.00462963 </v>
   <v>       0.00462963 </v>
   <v>       0.00462963 </v>
   <v>       0.00462963 </v>
   <v>       0.00462963 </v>
   <v>       0.00462963 </v>
   <v>       0.00462963 </v>
   <v>       0.00462963 </v>
   <v>       0.00231481 </v>
   <v>       0.00231481 </v>
   <v>       0.00462963 </v>
   <v>       0.00462963 </v>
   <v>       0.00462963 </v>
   <v>       0.00462963 </v>
   <v>       0.00462963 </v>
   <v>       0.00462963 </v>
   <v>       0.00462963 </v>
   <v>       0.00462963 </v>
   <v>       0.00462963 </v>
   <v>       0.00462963 </v>
   <v>       0.00462963 </v>
   <v>       0.00231481 </v>
   <v>       0.00231481 </v>
   <v>       0.00462963 </v>
   <v>       0.00462963 </v>
   <v>       0.00462963 </v>
   <v>       0.00462963 </v>
   <v>       0.00462963 </v>
   <v>       0.00462963 </v>
   <v>       0.00462963 </v>
   <v>       0.00462963 </v>
   <v>       0.00462963 </v>
   <v>       0.00462963 </v>
   <v>       0.00462963 </v>
   <v>       0.00231481 </v>
   <v>       0.00115741 </v>
   <v>       0.00231481 </v>
   <v>       0.00231481 </v>
   <v>       0.00231481 </v>
   <v>       0.00231481 </v>
   <v>       0.00231481 </v>
   <v>       0.00231481 </v>
   <v>       0.00231481 </v>
   <v>       0.00231481 </v>
   <v>       0.00231481 </v>
   <v>       0.00231481 </v>
   <v>       0.00231481 </v>
   <v>       0.00115741 </v>
  </varray>
 </kpoints>
 <parameters>
  <separator name="general" >
   <i type="string" name="SYSTEM">gr</i>
   <i type="logical" name="LCOMPAT"> F  </i>
  </separator>
  <separator name="electronic" >
   <i type="string" name="PREC">accura</i>
   <i name="ENMAX">   2000.00000000</i>
   <i name="ENAUG">    644.87300000</i>
   <i name="EDIFF">      0.00000000</i>
   <i type="int" name="IALGO">    68</i>
   <i type="int" name="IWAVPR">    11</i>
   <i type="int" name="NBANDS">    12</i>
   <i name="NELECT">     16.00000000</i>
   <i type="int" name="TURBO">     0</i>
   <i type="int" name="IRESTART">     0</i>
   <i type="int" name="NREBOOT">     0</i>
   <i type="int" name="NMIN">     0</i>
   <i name="EREF">      0.00000000</i>
   <separator name="electronic smearing" >
    <i type="int" name="ISMEAR">     0</i>
    <i name="SIGMA">      0.05000000</i>
    <i name="KSPACING">      0.50000000</i>
    <i type="logical" name="KGAMMA"> T  </i>
   </separator>
   <separator name="electronic projectors" >
    <i type="logical" name="LREAL"> F  </i>
    <v name="ROPT">      0.00000000</v>
    <i type="int" name="LMAXPAW">  -100</i>
    <i type="int" name="LMAXMIX">     2</i>
    <i type="logical" name="NLSPLINE"> F  </i>
   </separator>
   <separator name="electronic startup" >
    <i type="int" name="ISTART">     0</i>
    <i type="int" name="ICHARG">     2</i>
    <i type="int" name="INIWAV">     1</i>
   </separator>
   <separator name="electronic spin" >
    <i type="int" name="ISPIN">     1</i>
    <i type="logical" name="LNONCOLLINEAR"> F  </i>
    <v name="MAGMOM">      1.00000000      1.00000000      1.00000000      1.00000000</v>
    <i name="NUPDOWN">     -1.00000000</i>
    <i type="logical" name="LSORBIT"> F  </i>
    <v name="SAXIS">      0.00000000      0.00000000      1.00000000</v>
    <i type="logical" name="LSPIRAL"> F  </i>
    <v name="QSPIRAL">      0.00000000      0.00000000      0.00000000</v>
    <i type="logical" name="LZEROZ"> F  </i>
   </separator>
   <separator name="electronic exchange-correlation" >
    <i type="logical" name="LASPH"> F  </i>
    <i type="logical" name="LMETAGGA"> F  </i>
   </separator>
   <separator name="electronic convergence" >
    <i type="int" name="NELM">   100</i>
    <i type="int" name="NELMDL">    -3</i>
    <i type="int" name="NELMIN">     5</i>
    <i name="ENINI">   2000.00000000</i>
    <separator name="electronic convergence detail" >
     <i type="logical" name="LDIAG"> T  </i>
     <i type="logical" name="LSUBROT"> F  </i>
     <i name="WEIMIN">      0.00100000</i>
     <i name="EBREAK">      0.00000000</i>
     <i name="DEPER">      0.30000000</i>
     <i type="int" name="NRMM">     4</i>
     <i name="TIME">      0.40000000</i>
    </separator>
   </separator>
   <separator name="electronic mixer" >
    <i name="AMIX">      0.40000000</i>
    <i name="BMIX">      1.00000000</i>
    <i name="AMIN">      0.10000000</i>
    <i name="AMIX_MAG">      1.60000000</i>
    <i name="BMIX_MAG">      1.00000000</i>
    <separator name="electronic mixer details" >
     <i type="int" name="IMIX">     4</i>
     <i type="int" name="MAXMIX">   -45</i>
     <i name="WC">    100.00000000</i>
     <i type="int" name="INIMIX">     1</i>
     <i type="int" name="MIXPRE">     1</i>
     <i type="int" name="MREMOVE">     5</i>
    </separator>
   </separator>
   <separator name="electronic dipolcorrection" >
    <i type="logical" name="LDIPOL"> F  </i>
    <i type="logical" name="LMONO"> F  </i>
    <i type="int" name="IDIPOL">     0</i>
    <i name="EPSILON">      1.00000000</i>
    <v name="DIPOL">   -100.00000000   -100.00000000   -100.00000000</v>
    <i name="EFIELD">      0.00000000</i>
   </separator>
  </separator>
  <separator name="grids" >
   <i type="int" name="NGX">    64</i>
   <i type="int" name="NGY">    40</i>
   <i type="int" name="NGZ">   288</i>
   <i type="int" name="NGXF">   128</i>
   <i type="int" name="NGYF">    80</i>
   <i type="int" name="NGZF">   576</i>
   <i type="logical" name="ADDGRID"> F  </i>
  </separator>
  <separator name="ionic" >
   <i type="int" name="NSW">   400</i>
   <i type="int" name="IBRION">     1</i>
   <i type="int" name="ISIF">     2</i>
   <i name="PSTRESS">      0.00000000</i>
   <i name="EDIFFG">     -0.00000100</i>
   <i type="int" name="NFREE">     0</i>
   <i name="POTIM">      0.50000000</i>
   <i name="SMASS">     -3.00000000</i>
   <i name="SCALEE">      1.00000000</i>
  </separator>
  <separator name="ionic md" >
   <i name="TEBEG">      0.00010000</i>
   <i name="TEEND">      0.00010000</i>
   <i type="int" name="NBLOCK">     1</i>
   <i type="int" name="KBLOCK">   400</i>
   <i type="int" name="NPACO">   256</i>
   <i name="APACO">     16.00000000</i>
  </separator>
  <separator name="symmetry" >
   <i type="int" name="ISYM">     2</i>
   <i name="SYMPREC">      0.00001000</i>
  </separator>
  <separator name="dos" >
   <i type="logical" name="LORBIT"> F  </i>
   <v name="RWIGS">     -1.00000000</v>
   <i type="int" name="NEDOS">   301</i>
   <i name="EMIN">     10.00000000</i>
   <i name="EMAX">    -10.00000000</i>
   <i name="EFERMI">      0.00000000</i>
  </separator>
  <separator name="writing" >
   <i type="int" name="NWRITE">     2</i>
   <i type="logical" name="LWAVE"> F  </i>
   <i type="logical" name="LCHARG"> F  </i>
   <i type="logical" name="LPARD"> F  </i>
   <i type="logical" name="LVTOT"> F  </i>
   <i type="logical" name="LVHAR"> F  </i>
   <i type="logical" name="LELF"> F  </i>
   <i type="logical" name="LOPTICS"> F  </i>
   <v name="STM">      0.00000000      0.00000000      0.00000000      0.00000000      0.00000000      0.00000000      0.00000000</v>
  </separator>
  <separator name="performance" >
   <i type="int" name="NPAR">     4</i>
   <i type="int" name="NSIM">     4</i>
   <i type="int" name="NBLK">    -1</i>
   <i type="logical" name="LPLANE"> T  </i>
   <i type="logical" name="LSCALAPACK"> F  </i>
   <i type="logical" name="LSCAAWARE"> F  </i>
   <i type="logical" name="LSCALU"> F  </i>
   <i type="logical" name="LASYNC"> F  </i>
   <i type="logical" name="LORBITALREAL"> F  </i>
  </separator>
  <separator name="miscellaneous" >
   <i type="int" name="IDIOT">     3</i>
   <i type="logical" name="LMUSIC"> F  </i>
   <v name="POMASS">     12.01100000</v>
   <v name="DARWINR">      0.00000000</v>
   <v name="DARWINV">      1.00000000</v>
   <i type="logical" name="LCORR"> T  </i>
  </separator>
  <i type="logical" name="GGA_COMPAT"> T  </i>
  <i type="logical" name="LBERRY"> F  </i>
  <i type="int" name="ICORELEVEL">     0</i>
  <i type="logical" name="LDAU"> F  </i>
  <i type="int" name="I_CONSTRAINED_M">     0</i>
  <separator name="electronic exchange-correlation" >
   <i type="string" name="GGA">--</i>
   <i type="int" name="VOSKOWN">     0</i>
   <i type="logical" name="LHFCALC"> F  </i>
   <i type="string" name="PRECFOCK"></i>
   <i type="logical" name="LSYMGRAD"> F  </i>
   <i type="logical" name="LHFONE"> F  </i>
   <i type="logical" name="LRHFCALC"> F  </i>
   <i type="logical" name="LTHOMAS"> F  </i>
   <i type="logical" name="LMODELHF"> F  </i>
   <i name="ENCUT4O">     -1.00000000</i>
   <i type="int" name="EXXOEP">     0</i>
   <i type="int" name="FOURORBIT">     0</i>
   <i name="AEXX">      0.00000000</i>
   <i name="HFALPHA">      0.00000000</i>
   <i name="MCALPHA">      0.00000000</i>
   <i name="ALDAX">      1.00000000</i>
   <i name="AGGAX">      1.00000000</i>
   <i name="ALDAC">      1.00000000</i>
   <i name="AGGAC">      1.00000000</i>
   <i type="int" name="NKREDX">     1</i>
   <i type="int" name="NKREDY">     1</i>
   <i type="int" name="NKREDZ">     1</i>
   <i type="logical" name="SHIFTRED"> F  </i>
   <i type="logical" name="ODDONLY"> F  </i>
   <i type="logical" name="EVENONLY"> F  </i>
   <i type="int" name="LMAXFOCK">     0</i>
   <i type="int" name="NMAXFOCKAE">     0</i>
   <i type="logical" name="LFOCKAEDFT"> F  </i>
   <i name="HFSCREEN">      0.00000000</i>
   <i name="HFSCREENC">      0.00000000</i>
   <i type="int" name="NBANDSGWLOW">     0</i>
  </separator>
  <separator name="vdW DFT" >
   <i type="logical" name="LUSE_VDW"> F  </i>
   <i name="Zab_VDW">     -0.84910000</i>
   <i name="PARAM1">      0.12340000</i>
   <i name="PARAM2">      1.00000000</i>
   <i name="PARAM3">      0.00000000</i>
  </separator>
  <separator name="model GW" >
   <i type="int" name="MODEL_GW">     0</i>
   <i name="MODEL_EPS0">     31.62568521</i>
   <i name="MODEL_ALPHA">      1.00000000</i>
  </separator>
  <separator name="linear response parameters" >
   <i type="logical" name="LEPSILON"> F  </i>
   <i type="logical" name="LRPA"> F  </i>
   <i type="logical" name="LNABLA"> F  </i>
   <i type="logical" name="LVEL"> F  </i>
   <i type="int" name="KINTER">     0</i>
   <i name="CSHIFT">      0.10000000</i>
   <i name="OMEGAMAX">     -1.00000000</i>
   <i name="DEG_THRESHOLD">      0.00200000</i>
  </separator>
  <separator name="orbital magnetization" >
   <i type="logical" name="NUCIND"> F  </i>
   <v name="MAGPOS">      0.00000000      0.00000000      0.00000000</v>
   <i type="logical" name="LNICSALL"> T  </i>
   <i type="logical" name="ORBITALMAG"> F  </i>
   <i type="logical" name="LMAGBLOCH"> F  </i>
   <i type="logical" name="LCHIMAG"> F  </i>
   <i type="logical" name="LGAUGE"> T  </i>
   <i type="int" name="MAGATOM">     0</i>
   <v name="MAGDIPOL">      0.00000000      0.00000000      0.00000000</v>
   <v name="AVECCONST">      0.00000000      0.00000000      0.00000000</v>
  </separator>
  <separator name="response functions" >
   <i type="logical" name="LADDER"> F  </i>
   <i type="logical" name="LFXC"> F  </i>
   <i type="logical" name="LHARTREE"> T  </i>
   <i type="int" name="IBSE">     0</i>
   <i type="logical" name="LTCTE"> F  </i>
   <i type="logical" name="LTETE"> F  </i>
   <i type="logical" name="LTRIPLET"> F  </i>
   <i type="logical" name="LFXCEPS"> F  </i>
   <i type="logical" name="LFXHEG"> F  </i>
   <i type="logical" name="L2ORDER"> F  </i>
   <i type="logical" name="LUSEW"> F  </i>
   <i name="ENCUTGW">     -2.00000000</i>
   <i name="ENCUTGWSOFT">     -2.00000000</i>
   <i name="ENCUTLF">     -1.00000000</i>
   <i type="int" name="LMAXMP2">    -1</i>
   <i name="SCISSOR">      0.00000000</i>
   <i type="int" name="NOMEGA">     0</i>
   <i type="int" name="NOMEGAR">     0</i>
   <i type="int" name="NBANDSGW">    -1</i>
   <i type="int" name="NBANDSO">    -1</i>
   <i type="int" name="NBANDSV">    -1</i>
   <i type="int" name="NELM">   100</i>
   <i type="int" name="DIM">     3</i>
   <i type="int" name="ANTIRES">     0</i>
   <i name="OMEGAMAX">    -30.00000000</i>
   <i name="OMEGAMIN">    -30.00000000</i>
   <i name="OMEGATL">   -200.00000000</i>
   <i type="int" name="OMEGAGRID">     0</i>
   <i name="CSHIFT">     -0.10000000</i>
   <i type="logical" name="SELFENERGY"> F  </i>
   <i type="logical" name="LSPECTRAL"> F  </i>
   <i type="logical" name="ODDONLYGW"> F  </i>
   <i type="logical" name="EVENONLYGW"> F  </i>
   <i type="int" name="NKREDLFX">     1</i>
   <i type="int" name="NKREDLFY">     1</i>
   <i type="int" name="NKREDLFZ">     1</i>
   <i type="int" name="MAXMEM">  1800</i>
   <i type="int" name="TELESCOPE">     0</i>
   <i type="int" name="TAUPAR">     1</i>
  </separator>
  <separator name="External order field" >
   <i name="OFIELD_KAPPA">      0.00000000</i>
   <v name="OFIELD_K">      0.00000000      0.00000000      0.00000000</v>
   <i name="OFIELD_Q6_NEAR">      0.00000000</i>
   <i name="OFIELD_Q6_FAR">      0.00000000</i>
   <i name="OFIELD_A">      0.00000000</i>
  </separator>
 </parameters>
 <atominfo>
  <atoms>       4 </atoms>
  <types>       1 </types>
  <array name="atoms" >
   <dimension dim="1">ion</dimension>
   <field type="string">element</field>
   <field type="int">atomtype</field>
   <set>
    <rc><c>C </c><c>   1</c></rc>
    <rc><c>C </c><c>   1</c></rc>
    <rc><c>C </c><c>   1</c></rc>
    <rc><c>C </c><c>   1</c></rc>
   </set>
  </array>
  <array name="atomtypes" >
   <dimension dim="1">type</dimension>
   <field type="int">atomspertype</field>
   <field type="string">element</field>
   <field>mass</field>
   <field>valence</field>
   <field type="string">pseudopotential</field>
   <set>
    <rc><c>   4</c><c>C </c><c>     12.01100000</c><c>      4.00000000</c><c> PAW_PBE C 08Apr2002                    </c></rc>
   </set>
  </array>
 </atominfo>
 <structure name="initialpos" >
  <crystal>
   <varray name="basis" >
    <v>       4.26189945       0.00000000       0.00000000 </v>
    <v>       0.00000000       2.50480409       0.00000000 </v>
    <v>       0.00000000       0.00000000      19.75021020 </v>
   </varray>
   <i name="volume">    210.83790140 </i>
   <varray name="rec_basis" >
    <v>       0.23463716       0.00000000       0.00000000 </v>
    <v>       0.00000000       0.39923282       0.00000000 </v>
    <v>       0.00000000       0.00000000       0.05063237 </v>
   </varray>
  </crystal>
  <varray name="positions" >
   <v>       0.00039382       0.00000000       0.00000000 </v>
   <v>       0.16627284       0.50000000       0.00000000 </v>
   <v>       0.50039382       0.50000000       0.00000000 </v>
   <v>       0.66627284       0.00000000       0.00000000 </v>
  </varray>
 </structure>
 <calculation>
  <scstep>
   <time name="dav">  317.40  317.85</time>
   <time name="total">  320.13  320.65</time>
   <energy>
    <i name="alphaZ">      6.18334092 </i>
    <i name="ewald">   2502.69761653 </i>
    <i name="hartreedc">  -2930.59699273 </i>
    <i name="XCdc">     54.92681979 </i>
    <i name="pawpsdc">    151.32577238 </i>
    <i name="pawaedc">   -155.92769107 </i>
    <i name="eentropy">     -0.00173937 </i>
    <i name="bandstr">    -28.51693321 </i>
    <i name="atom">    588.62352690 </i>
    <i name="e_fr_energy">    188.71372015 </i>
    <i name="e_wo_entrp">    188.71545952 </i>
    <i name="e_0_energy">    188.71458984 </i>
   </energy>
  </scstep>
  <scstep>
   <time name="dav">  481.16  481.59</time>
   <time name="total">  481.17  481.60</time>
   <energy>
    <i name="e_fr_energy">     -8.89757778 </i>
    <i name="e_wo_entrp">     -8.89718684 </i>
    <i name="e_0_energy">     -8.89738231 </i>
   </energy>
  </scstep>
  <scstep>
   <time name="dav">  369.79  370.16</time>
   <time name="total">  402.79  403.25</time>
   <energy>
    <i name="e_fr_energy">    -38.23126114 </i>
    <i name="e_wo_entrp">    -38.23125863 </i>
    <i name="e_0_energy">    -38.23125989 </i>
   </energy>
  </scstep>
  <scstep>
   <time name="diag">   87.25   87.29</time>
   <time name="diis">  368.66  368.79</time>
   <time name="orth">    3.10    3.10</time>
   <time name="total">  495.33  495.58</time>
   <energy>
    <i name="e_fr_energy">    -37.64238069 </i>
    <i name="e_wo_entrp">    -37.64237756 </i>
    <i name="e_0_energy">    -37.64237913 </i>
   </energy>
  </scstep>
  <scstep>
   <time name="diag">   87.13   87.15</time>
   <time name="diis">  366.60  366.92</time>
   <time name="orth">    3.08    3.08</time>
   <time name="total">  492.94  493.51</time>
   <energy>
    <i name="e_fr_energy">    -36.91024816 </i>
    <i name="e_wo_entrp">    -36.91024339 </i>
    <i name="e_0_energy">    -36.91024578 </i>
   </energy>
  </scstep>
  <scstep>
   <time name="diag">   86.78   87.23</time>
   <time name="diis">  402.48  402.88</time>
   <time name="orth">    3.07    3.07</time>
   <time name="total">  528.69  529.60</time>
   <energy>
    <i name="e_fr_energy">    -36.91184843 </i>
    <i name="e_wo_entrp">    -36.91184392 </i>
    <i name="e_0_energy">    -36.91184618 </i>
   </energy>
  </scstep>
  <scstep>
   <time name="diag">   87.26   87.28</time>
   <time name="diis">  368.10  368.19</time>
   <time name="orth">    3.07    3.08</time>
   <time name="total">  494.75  494.91</time>
   <energy>
    <i name="e_fr_energy">    -36.90278087 </i>
    <i name="e_wo_entrp">    -36.90277697 </i>
    <i name="e_0_energy">    -36.90277892 </i>
   </energy>
  </scstep>
  <scstep>
   <time name="diag">   87.27   87.34</time>
   <time name="diis">  367.96  368.04</time>
   <time name="orth">    3.07    3.08</time>
   <time name="total">  494.60  494.80</time>
   <energy>
    <i name="e_fr_energy">    -36.89748037 </i>
    <i name="e_wo_entrp">    -36.89747631 </i>
    <i name="e_0_energy">    -36.89747834 </i>
   </energy>
  </scstep>
  <scstep>
   <time name="diag">   86.78   87.21</time>
   <time name="diis">  351.07  351.69</time>
   <time name="orth">    3.10    3.10</time>
   <time name="total">  477.25  478.34</time>
   <energy>
    <i name="e_fr_energy">    -36.89719434 </i>
    <i name="e_wo_entrp">    -36.89718996 </i>
    <i name="e_0_energy">    -36.89719215 </i>
   </energy>
  </scstep>
  <scstep>
   <time name="diag">   87.16   87.19</time>
   <time name="diis">  351.95  352.07</time>
   <time name="orth">    3.11    3.11</time>
   <time name="total">  478.56  478.71</time>
   <energy>
    <i name="e_fr_energy">    -36.89706165 </i>
    <i name="e_wo_entrp">    -36.89705745 </i>
    <i name="e_0_energy">    -36.89705955 </i>
   </energy>
  </scstep>
  <scstep>
   <time name="diag">   87.20   87.22</time>
   <time name="diis">  354.36  354.47</time>
   <time name="orth">    3.10    3.10</time>
   <time name="total">  480.94  481.15</time>
   <energy>
    <i name="e_fr_energy">    -36.89948579 </i>
    <i name="e_wo_entrp">    -36.89948167 </i>
    <i name="e_0_energy">    -36.89948373 </i>
   </energy>
  </scstep>
  <scstep>
   <time name="diag">   87.21   87.23</time>
   <time name="diis">  352.53  352.98</time>
   <time name="orth">    3.08    3.10</time>
   <time name="total">  478.98  479.66</time>
   <energy>
    <i name="e_fr_energy">    -36.89993450 </i>
    <i name="e_wo_entrp">    -36.89993031 </i>
    <i name="e_0_energy">    -36.89993241 </i>
   </energy>
  </scstep>
  <scstep>
   <time name="diag">   87.01   87.19</time>
   <time name="diis">  359.71  359.86</time>
   <time name="orth">    3.12    3.12</time>
   <time name="total">  486.18  486.54</time>
   <energy>
    <i name="e_fr_energy">    -36.90020006 </i>
    <i name="e_wo_entrp">    -36.90019585 </i>
    <i name="e_0_energy">    -36.90019796 </i>
   </energy>
  </scstep>
  <scstep>
   <time name="diag">   87.05   87.09</time>
   <time name="diis">  355.26  355.64</time>
   <time name="orth">    3.09    3.10</time>
   <time name="total">  481.70  482.18</time>
   <energy>
    <i name="e_fr_energy">    -36.90028172 </i>
    <i name="e_wo_entrp">    -36.90027754 </i>
    <i name="e_0_energy">    -36.90027963 </i>
   </energy>
  </scstep>
  <scstep>
   <time name="diag">   87.04   87.10</time>
   <time name="diis">  356.53  356.87</time>
   <time name="orth">    3.07    3.08</time>
   <time name="total">  482.90  483.46</time>
   <energy>
    <i name="e_fr_energy">    -36.90029203 </i>
    <i name="e_wo_entrp">    -36.90028784 </i>
    <i name="e_0_energy">    -36.90028993 </i>
   </energy>
  </scstep>
  <scstep>
   <time name="diag">   86.79   87.14</time>
   <time name="diis">  351.73  352.11</time>
   <time name="orth">    3.10    3.10</time>
   <time name="total">  477.84  479.14</time>
   <energy>
    <i name="e_fr_energy">    -36.90030442 </i>
    <i name="e_wo_entrp">    -36.90030022 </i>
    <i name="e_0_energy">    -36.90030232 </i>
   </energy>
  </scstep>
  <scstep>
   <time name="diag">   87.13   87.17</time>
   <time name="diis">  366.38  366.45</time>
   <time name="orth">    3.10    3.10</time>
   <time name="total">  492.91  493.08</time>
   <energy>
    <i name="e_fr_energy">    -36.90030963 </i>
    <i name="e_wo_entrp">    -36.90030545 </i>
    <i name="e_0_energy">    -36.90030754 </i>
   </energy>
  </scstep>
  <scstep>
   <time name="diag">   87.15   87.19</time>
   <time name="diis">  350.66  350.75</time>
   <time name="orth">    3.08    3.08</time>
   <time name="total">  477.23  477.39</time>
   <energy>
    <i name="e_fr_energy">    -36.90031075 </i>
    <i name="e_wo_entrp">    -36.90030656 </i>
    <i name="e_0_energy">    -36.90030865 </i>
   </energy>
  </scstep>
  <scstep>
   <time name="diag">   87.05   87.08</time>
   <time name="diis">  363.23  363.57</time>
   <time name="orth">    3.07    3.07</time>
   <time name="total">  489.70  490.33</time>
   <energy>
    <i name="e_fr_energy">    -36.90031152 </i>
    <i name="e_wo_entrp">    -36.90030733 </i>
    <i name="e_0_energy">    -36.90030943 </i>
   </energy>
  </scstep>
  <scstep>
   <time name="diag">   87.03   87.05</time>
   <time name="diis">  271.79  271.88</time>
   <time name="orth">    3.10    3.10</time>
   <time name="total">  398.28  398.98</time>
   <energy>
    <i name="e_fr_energy">    -36.90031158 </i>
    <i name="e_wo_entrp">    -36.90030739 </i>
    <i name="e_0_energy">    -36.90030949 </i>
   </energy>
  </scstep>
  <scstep>
   <time name="diag">   87.04   87.06</time>
   <time name="diis">  267.94  268.00</time>
   <time name="orth">    3.09    3.10</time>
   <time name="total">  394.38  394.79</time>
   <energy>
    <i name="e_fr_energy">    -36.90031160 </i>
    <i name="e_wo_entrp">    -36.90030741 </i>
    <i name="e_0_energy">    -36.90030951 </i>
   </energy>
  </scstep>
  <scstep>
   <time name="diag">   87.02   87.08</time>
   <time name="diis">  241.48  242.17</time>
   <time name="orth">    3.08    3.10</time>
   <time name="total">  367.78  368.72</time>
   <energy>
    <i name="e_fr_energy">    -36.90031160 </i>
    <i name="e_wo_entrp">    -36.90030741 </i>
    <i name="e_0_energy">    -36.90030951 </i>
   </energy>
  </scstep>
  <scstep>
   <time name="diag">   86.70   87.04</time>
   <time name="diis">  229.50  229.75</time>
   <time name="orth">    3.07    3.08</time>
   <time name="total">  355.61  357.04</time>
   <energy>
    <i name="e_fr_energy">    -36.90031160 </i>
    <i name="e_wo_entrp">    -36.90030741 </i>
    <i name="e_0_energy">    -36.90030951 </i>
   </energy>
  </scstep>
  <scstep>
   <time name="diag">   86.96   87.03</time>
   <time name="diis">  217.48  217.67</time>
   <time name="orth">    3.09    3.10</time>
   <time name="total">  344.00  344.27</time>
   <energy>
    <i name="e_fr_energy">    -36.90031160 </i>
    <i name="e_wo_entrp">    -36.90030741 </i>
    <i name="e_0_energy">    -36.90030951 </i>
   </energy>
  </scstep>
  <scstep>
   <time name="diag">   86.93   86.96</time>
   <time name="diis">  206.65  206.72</time>
   <time name="orth">    3.10    3.10</time>
   <time name="total">  333.04  333.16</time>
   <energy>
    <i name="e_fr_energy">    -36.90031160 </i>
    <i name="e_wo_entrp">    -36.90030741 </i>
    <i name="e_0_energy">    -36.90030951 </i>
   </energy>
  </scstep>
  <scstep>
   <time name="diag">   86.99   87.02</time>
   <time name="diis">  199.17  199.23</time>
   <time name="orth">    3.10    3.10</time>
   <time name="total">  325.69  325.80</time>
   <energy>
    <i name="e_fr_energy">    -36.90031160 </i>
    <i name="e_wo_entrp">    -36.90030741 </i>
    <i name="e_0_energy">    -36.90030951 </i>
   </energy>
  </scstep>
  <scstep>
   <time name="diag">   87.04   87.08</time>
   <time name="diis">  193.37  193.41</time>
   <time name="orth">    3.10    3.10</time>
   <time name="total">  319.88  320.16</time>
   <energy>
    <i name="e_fr_energy">    -36.90031160 </i>
    <i name="e_wo_entrp">    -36.90030741 </i>
    <i name="e_0_energy">    -36.90030951 </i>
   </energy>
  </scstep>
  <scstep>
   <time name="diag">   87.01   87.04</time>
   <time name="diis">  189.31  189.36</time>
   <time name="orth">    3.10    3.10</time>
   <time name="total">  282.09  282.17</time>
   <energy>
    <i name="alphaZ">      6.18334092 </i>
    <i name="ewald">   2502.69761653 </i>
    <i name="hartreedc">  -2996.85186885 </i>
    <i name="XCdc">     57.29068257 </i>
    <i name="pawpsdc">    272.01692793 </i>
    <i name="pawaedc">   -277.14281662 </i>
    <i name="eentropy">     -0.00000419 </i>
    <i name="bandstr">   -189.71771680 </i>
    <i name="atom">    588.62352690 </i>
    <i name="e_fr_energy">    -36.90031160 </i>
    <i name="e_wo_entrp">    -36.90030741 </i>
    <i name="e_0_energy">    -36.90030951 </i>
   </energy>
  </scstep>
  <structure>
   <crystal>
    <varray name="basis" >
     <v>       4.26189945       0.00000000       0.00000000 </v>
     <v>       0.00000000       2.50480409       0.00000000 </v>
     <v>       0.00000000       0.00000000      19.75021020 </v>
    </varray>
    <i name="volume">    210.83790140 </i>
    <varray name="rec_basis" >
     <v>       0.23463716       0.00000000       0.00000000 </v>
     <v>       0.00000000       0.39923282       0.00000000 </v>
     <v>       0.00000000       0.00000000       0.05063237 </v>
    </varray>
   </crystal>
   <varray name="positions" >
    <v>       0.00039382       0.00000000       0.00000000 </v>
    <v>       0.16627284       0.50000000       0.00000000 </v>
    <v>       0.50039382       0.50000000       0.00000000 </v>
    <v>       0.66627284       0.00000000       0.00000000 </v>
   </varray>
  </structure>
  <varray name="forces" >
   <v>       0.00177894       0.00000000      -0.00000000 </v>
   <v>      -0.00177894      -0.00000000       0.00000000 </v>
   <v>       0.00177894       0.00000000      -0.00000000 </v>
   <v>      -0.00177894       0.00000000       0.00000000 </v>
  </varray>
  <varray name="stress" >
   <v>       0.01063793       0.00000000       0.00000000 </v>
   <v>       0.00000000     -25.23988032       0.00000000 </v>
   <v>       0.00000000       0.00000000      -0.01029959 </v>
  </varray>
  <energy>
   <i name="e_fr_energy">    -36.90031160 </i>
   <i name="e_wo_entrp">    -36.90030951 </i>
   <i name="e_0_energy">     -0.00000419 </i>
  </energy>
  <time name="totalsc">12239.4612253.36</time>
 </calculation>
 <calculation>
  <scstep>
   <time name="dav">  334.37  336.46</time>
   <time name="total">  370.65  372.83</time>
   <energy>
    <i name="alphaZ">      6.18334092 </i>
    <i name="ewald">   2502.69649862 </i>
    <i name="hartreedc">  -2996.85138362 </i>
    <i name="XCdc">     57.29065064 </i>
    <i name="pawpsdc">    272.01692795 </i>
    <i name="pawaedc">   -277.14281664 </i>
    <i name="eentropy">     -0.00000459 </i>
    <i name="bandstr">   -189.71705085 </i>
    <i name="atom">    588.62352690 </i>
    <i name="e_fr_energy">    -36.90031065 </i>
    <i name="e_wo_entrp">    -36.90030606 </i>
    <i name="e_0_energy">    -36.90030836 </i>
   </energy>
  </scstep>
  <scstep>
   <time name="diag">   86.87   87.04</time>
   <time name="diis">  348.64  351.78</time>
   <time name="orth">    3.08    3.08</time>
   <time name="total">  474.66  478.29</time>
   <energy>
    <i name="e_fr_energy">    -36.90031070 </i>
    <i name="e_wo_entrp">    -36.90030613 </i>
    <i name="e_0_energy">    -36.90030842 </i>
   </energy>
  </scstep>
  <scstep>
   <time name="diag">   86.72   87.06</time>
   <time name="diis">  351.23  354.88</time>
   <time name="orth">    3.09    3.10</time>
   <time name="total">  477.01  481.44</time>
   <energy>
    <i name="e_fr_energy">    -36.90031065 </i>
    <i name="e_wo_entrp">    -36.90030611 </i>
    <i name="e_0_energy">    -36.90030838 </i>
   </energy>
  </scstep>
  <scstep>
   <time name="diag">   86.78   87.05</time>
   <time name="diis">  363.32  363.40</time>
   <time name="orth">    3.10    3.10</time>
   <time name="total">  489.59  490.03</time>
   <energy>
    <i name="e_fr_energy">    -36.90031065 </i>
    <i name="e_wo_entrp">    -36.90030610 </i>
    <i name="e_0_energy">    -36.90030838 </i>
   </energy>
  </scstep>
  <scstep>
   <time name="diag">   87.06   87.09</time>
   <time name="diis">  324.75  324.83</time>
   <time name="orth">    3.10    3.10</time>
   <time name="total">  451.22  451.35</time>
   <energy>
    <i name="e_fr_energy">    -36.90031065 </i>
    <i name="e_wo_entrp">    -36.90030610 </i>
    <i name="e_0_energy">    -36.90030837 </i>
   </energy>
  </scstep>
  <scstep>
   <time name="diag">   87.01   87.03</time>
   <time name="diis">  240.25  240.33</time>
   <time name="orth">    3.08    3.08</time>
   <time name="total">  366.67  366.80</time>
   <energy>
    <i name="e_fr_energy">    -36.90031065 </i>
    <i name="e_wo_entrp">    -36.90030610 </i>
    <i name="e_0_energy">    -36.90030837 </i>
   </energy>
  </scstep>
  <scstep>
   <time name="diag">   87.00   87.05</time>
   <time name="diis">  234.43  234.65</time>
   <time name="orth">    3.09    3.09</time>
   <time name="total">  360.85  361.17</time>
   <energy>
    <i name="e_fr_energy">    -36.90031065 </i>
    <i name="e_wo_entrp">    -36.90030610 </i>
    <i name="e_0_energy">    -36.90030837 </i>
   </energy>
  </scstep>
  <scstep>
   <time name="diag">   86.85   87.08</time>
   <time name="diis">  222.79  223.71</time>
   <time name="orth">    3.07    3.10</time>
   <time name="total">  315.33  316.59</time>
   <energy>
    <i name="alphaZ">      6.18334092 </i>
    <i name="ewald">   2502.69649862 </i>
    <i name="hartreedc">  -2996.85092953 </i>
    <i name="XCdc">     57.29063160 </i>
    <i name="pawpsdc">    272.01498280 </i>
    <i name="pawaedc">   -277.14086305 </i>
    <i name="eentropy">     -0.00000455 </i>
    <i name="bandstr">   -189.71749437 </i>
    <i name="atom">    588.62352690 </i>
    <i name="e_fr_energy">    -36.90031065 </i>
    <i name="e_wo_entrp">    -36.90030610 </i>
    <i name="e_0_energy">    -36.90030837 </i>
   </energy>
  </scstep>
  <structure>
   <crystal>
    <varray name="basis" >
     <v>       4.26189945       0.00000000       0.00000000 </v>
     <v>       0.00000000       2.50480409       0.00000000 </v>
     <v>       0.00000000       0.00000000      19.75021020 </v>
    </varray>
    <i name="volume">    210.83790140 </i>
    <varray name="rec_basis" >
     <v>       0.23463716       0.00000000       0.00000000 </v>
     <v>       0.00000000       0.39923282       0.00000000 </v>
     <v>       0.00000000       0.00000000       0.05063237 </v>
    </varray>
   </crystal>
   <varray name="positions" >
    <v>       0.00041396       0.00000000      -0.00000000 </v>
    <v>       0.16625271       0.50000000       0.00000000 </v>
    <v>       0.50041396       0.50000000      -0.00000000 </v>
    <v>       0.66625271       0.00000000       0.00000000 </v>
   </varray>
  </structure>
  <varray name="forces" >
   <v>      -0.00724424       0.00000000       0.00000000 </v>
   <v>       0.00724424      -0.00000000      -0.00000000 </v>
   <v>      -0.00724424       0.00000000       0.00000000 </v>
   <v>       0.00724424      -0.00000000      -0.00000000 </v>
  </varray>
  <varray name="stress" >
   <v>      -0.02291752       0.00000000       0.00000000 </v>
   <v>       0.00000000     -25.21501649       0.00000000 </v>
   <v>       0.00000000       0.00000000      -0.01032049 </v>
  </varray>
  <energy>
   <i name="e_fr_energy">    -36.90031065 </i>
   <i name="e_wo_entrp">    -36.90030837 </i>
   <i name="e_0_energy">     -0.00000455 </i>
  </energy>
  <time name="totalsc"> 3411.02 3424.21</time>
 </calculation>
 <calculation>
  <scstep>
   <time name="dav">  344.22  345.20</time>
   <time name="total">  380.55  381.54</time>
   <energy>
    <i name="alphaZ">      6.18334092 </i>
    <i name="ewald">   2502.69739532 </i>
    <i name="hartreedc">  -2996.85131311 </i>
    <i name="XCdc">     57.29065717 </i>
    <i name="pawpsdc">    272.01498572 </i>
    <i name="pawaedc">   -277.14086599 </i>
    <i name="eentropy">     -0.00000424 </i>
    <i name="bandstr">   -189.71803434 </i>
    <i name="atom">    588.62352690 </i>
    <i name="e_fr_energy">    -36.90031164 </i>
    <i name="e_wo_entrp">    -36.90030741 </i>
    <i name="e_0_energy">    -36.90030953 </i>
   </energy>
  </scstep>
  <scstep>
   <time name="diag">   87.06   87.09</time>
   <time name="diis">  352.70  352.82</time>
   <time name="orth">    3.08    3.08</time>
   <time name="total">  479.15  479.31</time>
   <energy>
    <i name="e_fr_energy">    -36.90031168 </i>
    <i name="e_wo_entrp">    -36.90030743 </i>
    <i name="e_0_energy">    -36.90030956 </i>
   </energy>
  </scstep>
  <scstep>
   <time name="diag">   87.08   87.10</time>
   <time name="diis">  355.49  355.57</time>
   <time name="orth">    3.10    3.10</time>
   <time name="total">  481.97  482.10</time>
   <energy>
    <i name="e_fr_energy">    -36.90031166 </i>
    <i name="e_wo_entrp">    -36.90030740 </i>
    <i name="e_0_energy">    -36.90030953 </i>
   </energy>
  </scstep>
  <scstep>
   <time name="diag">   87.04   87.08</time>
   <time name="diis">  362.35  362.44</time>
   <time name="orth">    3.08    3.08</time>
   <time name="total">  488.81  488.97</time>
   <energy>
    <i name="e_fr_energy">    -36.90031166 </i>
    <i name="e_wo_entrp">    -36.90030740 </i>
    <i name="e_0_energy">    -36.90030953 </i>
   </energy>
  </scstep>
  <scstep>
   <time name="diag">   87.01   87.04</time>
   <time name="diis">  296.03  296.26</time>
   <time name="orth">    3.10    3.10</time>
   <time name="total">  422.46  422.84</time>
   <energy>
    <i name="e_fr_energy">    -36.90031166 </i>
    <i name="e_wo_entrp">    -36.90030740 </i>
    <i name="e_0_energy">    -36.90030953 </i>
   </energy>
  </scstep>
  <scstep>
   <time name="diag">   87.07   87.12</time>
   <time name="diis">  235.77  236.28</time>
   <time name="orth">    3.09    3.09</time>
   <time name="total">  362.10  362.90</time>
   <energy>
    <i name="e_fr_energy">    -36.90031166 </i>
    <i name="e_wo_entrp">    -36.90030740 </i>
    <i name="e_0_energy">    -36.90030953 </i>
   </energy>
  </scstep>
  <scstep>
   <time name="diag">   86.94   87.12</time>
   <time name="diis">  234.22  234.28</time>
   <time name="orth">    3.11    3.11</time>
   <time name="total">  360.58  360.88</time>
   <energy>
    <i name="e_fr_energy">    -36.90031166 </i>
    <i name="e_wo_entrp">    -36.90030740 </i>
    <i name="e_0_energy">    -36.90030953 </i>
   </energy>
  </scstep>
  <scstep>
   <time name="diag">   87.03   87.07</time>
   <time name="diis">  219.88  219.95</time>
   <time name="orth">    3.10    3.10</time>
   <time name="total">  312.58  313.22</time>
   <energy>
    <i name="alphaZ">      6.18334092 </i>
    <i name="ewald">   2502.69739532 </i>
    <i name="hartreedc">  -2996.85166621 </i>
    <i name="XCdc">     57.29067245 </i>
    <i name="pawpsdc">    272.01654611 </i>
    <i name="pawaedc">   -277.14243322 </i>
    <i name="eentropy">     -0.00000426 </i>
    <i name="bandstr">   -189.71768967 </i>
    <i name="atom">    588.62352690 </i>
    <i name="e_fr_energy">    -36.90031166 </i>
    <i name="e_wo_entrp">    -36.90030740 </i>
    <i name="e_0_energy">    -36.90030953 </i>
   </energy>
  </scstep>
  <structure>
   <crystal>
    <varray name="basis" >
     <v>       4.26189945       0.00000000       0.00000000 </v>
     <v>       0.00000000       2.50480409       0.00000000 </v>
     <v>       0.00000000       0.00000000      19.75021020 </v>
    </varray>
    <i name="volume">    210.83790140 </i>
    <varray name="rec_basis" >
     <v>       0.23463716       0.00000000       0.00000000 </v>
     <v>       0.00000000       0.39923282       0.00000000 </v>
     <v>       0.00000000       0.00000000       0.05063237 </v>
    </varray>
   </crystal>
   <varray name="positions" >
    <v>       0.00039779       0.00000000      -0.00000000 </v>
    <v>       0.16626887       0.50000000       0.00000000 </v>
    <v>       0.50039779       0.50000000      -0.00000000 </v>
    <v>       0.66626887      -0.00000000       0.00000000 </v>
   </varray>
  </structure>
  <varray name="forces" >
   <v>      -0.00000353      -0.00000000       0.00000000 </v>
   <v>       0.00000353      -0.00000000       0.00000000 </v>
   <v>      -0.00000353       0.00000000       0.00000000 </v>
   <v>       0.00000353       0.00000000       0.00000000 </v>
  </varray>
  <varray name="stress" >
   <v>       0.00400059       0.00000000       0.00000000 </v>
   <v>       0.00000000     -25.23494979       0.00000000 </v>
   <v>       0.00000000       0.00000000      -0.01027975 </v>
  </varray>
  <energy>
   <i name="e_fr_energy">    -36.90031166 </i>
   <i name="e_wo_entrp">    -36.90030953 </i>
   <i name="e_0_energy">     -0.00000426 </i>
  </energy>
  <time name="totalsc"> 3393.54 3397.19</time>
 </calculation>
 <calculation>
  <scstep>
   <time name="dav">  289.37  289.70</time>
   <time name="total">  325.78  326.13</time>
   <energy>
    <i name="alphaZ">      6.18334092 </i>
    <i name="ewald">   2502.69739576 </i>
    <i name="hartreedc">  -2996.85166847 </i>
    <i name="XCdc">     57.29067246 </i>
    <i name="pawpsdc">    272.01654469 </i>
    <i name="pawaedc">   -277.14243178 </i>
    <i name="eentropy">     -0.00000426 </i>
    <i name="bandstr">   -189.71768788 </i>
    <i name="atom">    588.62352690 </i>
    <i name="e_fr_energy">    -36.90031166 </i>
    <i name="e_wo_entrp">    -36.90030740 </i>
    <i name="e_0_energy">    -36.90030953 </i>
   </energy>
  </scstep>
  <scstep>
   <time name="diag">   87.09   87.15</time>
   <time name="diis">  175.59  175.73</time>
   <time name="orth">    3.09    3.10</time>
   <time name="total">  302.16  302.39</time>
   <energy>
    <i name="e_fr_energy">    -36.90031166 </i>
    <i name="e_wo_entrp">    -36.90030740 </i>
    <i name="e_0_energy">    -36.90030953 </i>
   </energy>
  </scstep>
  <scstep>
   <time name="diag">   87.09   87.16</time>
   <time name="diis">  170.46  170.50</time>
   <time name="orth">    3.10    3.10</time>
   <time name="total">  296.99  297.14</time>
   <energy>
    <i name="e_fr_energy">    -36.90031166 </i>
    <i name="e_wo_entrp">    -36.90030740 </i>
    <i name="e_0_energy">    -36.90030953 </i>
   </energy>
  </scstep>
  <scstep>
   <time name="diag">   87.12   87.17</time>
   <time name="diis">  168.74  168.78</time>
   <time name="orth">    3.10    3.10</time>
   <time name="total">  295.32  295.41</time>
   <energy>
    <i name="e_fr_energy">    -36.90031166 </i>
    <i name="e_wo_entrp">    -36.90030740 </i>
    <i name="e_0_energy">    -36.90030953 </i>
   </energy>
  </scstep>
  <scstep>
   <time name="diag">   86.98   87.06</time>
   <time name="diis">  168.57  168.69</time>
   <time name="orth">    3.10    3.10</time>
   <time name="total">  294.95  295.19</time>
   <energy>
    <i name="e_fr_energy">    -36.90031166 </i>
    <i name="e_wo_entrp">    -36.90030740 </i>
    <i name="e_0_energy">    -36.90030953 </i>
   </energy>
  </scstep>
  <scstep>
   <time name="diag">   87.11   87.15</time>
   <time name="diis">  166.70  166.73</time>
   <time name="orth">    3.08    3.08</time>
   <time name="total">  259.58  259.65</time>
   <energy>
    <i name="alphaZ">      6.18334092 </i>
    <i name="ewald">   2502.69739576 </i>
    <i name="hartreedc">  -2996.85168114 </i>
    <i name="XCdc">     57.29067256 </i>
    <i name="pawpsdc">    272.01654527 </i>
    <i name="pawaedc">   -277.14243236 </i>
    <i name="eentropy">     -0.00000426 </i>
    <i name="bandstr">   -189.71767532 </i>
    <i name="atom">    588.62352690 </i>
    <i name="e_fr_energy">    -36.90031166 </i>
    <i name="e_wo_entrp">    -36.90030740 </i>
    <i name="e_0_energy">    -36.90030953 </i>
   </energy>
  </scstep>
  <structure>
   <crystal>
    <varray name="basis" >
     <v>       4.26189945       0.00000000       0.00000000 </v>
     <v>       0.00000000       2.50480409       0.00000000 </v>
     <v>       0.00000000       0.00000000      19.75021020 </v>
    </varray>
    <i name="volume">    210.83790140 </i>
    <varray name="rec_basis" >
     <v>       0.23463716       0.00000000       0.00000000 </v>
     <v>       0.00000000       0.39923282       0.00000000 </v>
     <v>       0.00000000       0.00000000       0.05063237 </v>
    </varray>
   </crystal>
   <varray name="positions" >
    <v>       0.00039779       0.00000000      -0.00000000 </v>
    <v>       0.16626888       0.50000000       0.00000000 </v>
    <v>       0.50039779       0.50000000      -0.00000000 </v>
    <v>       0.66626888       0.00000000       0.00000000 </v>
   </varray>
  </structure>
  <varray name="forces" >
   <v>       0.00000466       0.00000000       0.00000000 </v>
   <v>      -0.00000466      -0.00000000       0.00000000 </v>
   <v>       0.00000466       0.00000000       0.00000000 </v>
   <v>      -0.00000466      -0.00000000       0.00000000 </v>
  </varray>
  <varray name="stress" >
   <v>       0.00403844       0.00000000       0.00000000 </v>
   <v>       0.00000000     -25.23498706       0.00000000 </v>
   <v>       0.00000000       0.00000000      -0.01028606 </v>
  </varray>
  <energy>
   <i name="e_fr_energy">    -36.90031166 </i>
   <i name="e_wo_entrp">    -36.90030953 </i>
   <i name="e_0_energy">     -0.00000426 </i>
  </energy>
  <time name="totalsc"> 1880.12 1881.39</time>
 </calculation>
 <calculation>
  <scstep>
   <time name="dav">  264.79  265.10</time>
   <time name="total">  301.18  301.51</time>
   <energy>
    <i name="alphaZ">      6.18334092 </i>
    <i name="ewald">   2502.69739551 </i>
    <i name="hartreedc">  -2996.85168116 </i>
    <i name="XCdc">     57.29067256 </i>
    <i name="pawpsdc">    272.01654528 </i>
    <i name="pawaedc">   -277.14243236 </i>
    <i name="eentropy">     -0.00000426 </i>
    <i name="bandstr">   -189.71767505 </i>
    <i name="atom">    588.62352690 </i>
    <i name="e_fr_energy">    -36.90031166 </i>
    <i name="e_wo_entrp">    -36.90030740 </i>
    <i name="e_0_energy">    -36.90030953 </i>
   </energy>
  </scstep>
  <scstep>
   <time name="diag">   87.02   87.05</time>
   <time name="diis">  157.15  157.19</time>
   <time name="orth">    3.10    3.10</time>
   <time name="total">  283.61  283.71</time>
   <energy>
    <i name="e_fr_energy">    -36.90031166 </i>
    <i name="e_wo_entrp">    -36.90030740 </i>
    <i name="e_0_energy">    -36.90030953 </i>
   </energy>
  </scstep>
  <scstep>
   <time name="diag">   86.99   87.04</time>
   <time name="diis">  156.62  156.74</time>
   <time name="orth">    3.07    3.08</time>
   <time name="total">  282.95  283.20</time>
   <energy>
    <i name="e_fr_energy">    -36.90031166 </i>
    <i name="e_wo_entrp">    -36.90030740 </i>
    <i name="e_0_energy">    -36.90030953 </i>
   </energy>
  </scstep>
  <scstep>
   <time name="diag">   87.09   87.16</time>
   <time name="diis">  156.41  156.46</time>
   <time name="orth">    3.09    3.09</time>
   <time name="total">  282.99  283.12</time>
   <energy>
    <i name="e_fr_energy">    -36.90031166 </i>
    <i name="e_wo_entrp">    -36.90030740 </i>
    <i name="e_0_energy">    -36.90030953 </i>
   </energy>
  </scstep>
  <scstep>
   <time name="diag">   87.02   87.06</time>
   <time name="diis">  157.03  157.06</time>
   <time name="orth">    3.10    3.10</time>
   <time name="total">  283.47  283.58</time>
   <energy>
    <i name="e_fr_energy">    -36.90031166 </i>
    <i name="e_wo_entrp">    -36.90030740 </i>
    <i name="e_0_energy">    -36.90030953 </i>
   </energy>
  </scstep>
  <scstep>
   <time name="diag">   87.08   87.13</time>
   <time name="diis">  140.53  140.56</time>
   <time name="orth">    3.08    3.08</time>
   <time name="total">  267.09  267.17</time>
   <energy>
    <i name="e_fr_energy">    -36.90031166 </i>
    <i name="e_wo_entrp">    -36.90030740 </i>
    <i name="e_0_energy">    -36.90030953 </i>
   </energy>
  </scstep>
  <scstep>
   <time name="diag">   87.07   87.10</time>
   <time name="diis">  146.72  146.81</time>
   <time name="orth">    3.08    3.10</time>
   <time name="total">  273.11  273.43</time>
   <energy>
    <i name="e_fr_energy">    -36.90031166 </i>
    <i name="e_wo_entrp">    -36.90030740 </i>
    <i name="e_0_energy">    -36.90030953 </i>
   </energy>
  </scstep>
  <scstep>
   <time name="diag">   86.98   87.15</time>
   <time name="diis">  145.22  145.42</time>
   <time name="orth">    3.08    3.08</time>
   <time name="total">  271.52  271.99</time>
   <energy>
    <i name="e_fr_energy">    -36.90031166 </i>
    <i name="e_wo_entrp">    -36.90030740 </i>
    <i name="e_0_energy">    -36.90030953 </i>
   </energy>
  </scstep>
  <scstep>
   <time name="diag">   87.06   87.10</time>
   <time name="diis">  136.69  136.74</time>
   <time name="orth">    3.10    3.10</time>
   <time name="total">  229.52  229.62</time>
   <energy>
    <i name="alphaZ">      6.18334092 </i>
    <i name="ewald">   2502.69739551 </i>
    <i name="hartreedc">  -2996.85167906 </i>
    <i name="XCdc">     57.29067249 </i>
    <i name="pawpsdc">    272.01654373 </i>
    <i name="pawaedc">   -277.14243080 </i>
    <i name="eentropy">     -0.00000426 </i>
    <i name="bandstr">   -189.71767709 </i>
    <i name="atom">    588.62352690 </i>
    <i name="e_fr_energy">    -36.90031166 </i>
    <i name="e_wo_entrp">    -36.90030740 </i>
    <i name="e_0_energy">    -36.90030953 </i>
   </energy>
  </scstep>
  <structure>
   <crystal>
    <varray name="basis" >
     <v>       4.26189945       0.00000000       0.00000000 </v>
     <v>       0.00000000       2.50480409       0.00000000 </v>
     <v>       0.00000000       0.00000000      19.75021020 </v>
    </varray>
    <i name="volume">    210.83790140 </i>
    <varray name="rec_basis" >
     <v>       0.23463716       0.00000000       0.00000000 </v>
     <v>       0.00000000       0.39923282       0.00000000 </v>
     <v>       0.00000000       0.00000000       0.05063237 </v>
    </varray>
   </crystal>
   <varray name="positions" >
    <v>       0.00039779       0.00000000      -0.00000000 </v>
    <v>       0.16626888       0.50000000       0.00000000 </v>
    <v>       0.50039779       0.50000000      -0.00000000 </v>
    <v>       0.66626888       0.00000000       0.00000000 </v>
   </varray>
  </structure>
  <varray name="forces" >
   <v>       0.00000032      -0.00000000       0.00000000 </v>
   <v>      -0.00000032       0.00000000      -0.00000000 </v>
   <v>       0.00000032      -0.00000000       0.00000000 </v>
   <v>      -0.00000032       0.00000000      -0.00000000 </v>
  </varray>
  <varray name="stress" >
   <v>       0.00402430       0.00000000       0.00000000 </v>
   <v>       0.00000000     -25.23497220       0.00000000 </v>
   <v>       0.00000000       0.00000000      -0.01029804 </v>
  </varray>
  <energy>
   <i name="e_fr_energy">    -36.90031166 </i>
   <i name="e_wo_entrp">    -36.90030953 </i>
   <i name="e_0_energy">     -0.00000426 </i>
  </energy>
  <time name="totalsc"> 2574.23 2576.29</time>
  <eigenvalues>
   <array>
    <dimension dim="1">band</dimension>
    <dimension dim="2">kpoint</dimension>
    <dimension dim="3">spin</dimension>
    <field>eigene</field>
    <field>occ</field>
    <set>
     <set comment="spin 1">
      <set comment="kpoint 1">
       <r>  -22.1487    1.0000 </r>
       <r>  -16.8271    1.0000 </r>
       <r>  -15.9056    1.0000 </r>
       <r>  -10.2779    1.0000 </r>
       <r>   -9.3579    1.0000 </r>
       <r>   -5.9181    1.0000 </r>
       <r>   -5.7542    1.0000 </r>
       <r>   -4.9845    1.0000 </r>
       <r>   -1.1130    0.0000 </r>
       <r>    0.5364    0.0000 </r>
       <r>    1.3358    0.0000 </r>
       <r>    1.7250    0.0000 </r>
      </set>
      <set comment="kpoint 2">
       <r>  -22.1384    1.0000 </r>
       <r>  -17.0102    1.0000 </r>
       <r>  -15.7074    1.0000 </r>
       <r>  -10.2656    1.0000 </r>
       <r>   -9.3476    1.0000 </r>
       <r>   -5.9413    1.0000 </r>
       <r>   -5.7954    1.0000 </r>
       <r>   -5.0532    1.0000 </r>
       <r>   -1.0290    0.0000 </r>
       <r>    0.5504    0.0000 </r>
       <r>    1.3499    0.0000 </r>
       <r>    1.7393    0.0000 </r>
      </set>
      <set comment="kpoint 3">
       <r>  -22.1074    1.0000 </r>
       <r>  -17.3653    1.0000 </r>
       <r>  -15.3071    1.0000 </r>
       <r>  -10.2288    1.0000 </r>
       <r>   -9.3167    1.0000 </r>
       <r>   -6.0099    1.0000 </r>
       <r>   -5.9174    1.0000 </r>
       <r>   -5.2430    1.0000 </r>
       <r>   -0.7936    0.0000 </r>
       <r>    0.5924    0.0000 </r>
       <r>    1.3924    0.0000 </r>
       <r>    1.7823    0.0000 </r>
      </set>
      <set comment="kpoint 4">
       <r>  -22.0558    1.0000 </r>
       <r>  -17.7520    1.0000 </r>
       <r>  -14.8452    1.0000 </r>
       <r>  -10.1674    1.0000 </r>
       <r>   -9.2653    1.0000 </r>
       <r>   -6.1199    1.0000 </r>
       <r>   -6.1157    1.0000 </r>
       <r>   -5.5183    1.0000 </r>
       <r>   -0.4428    0.0000 </r>
       <r>    0.6624    0.0000 </r>
       <r>    1.4631    0.0000 </r>
       <r>    1.8540    0.0000 </r>
      </set>
      <set comment="kpoint 5">
       <r>  -21.9836    1.0000 </r>
       <r>  -18.1378    1.0000 </r>
       <r>  -14.3549    1.0000 </r>
       <r>  -10.0817    1.0000 </r>
       <r>   -9.1937    1.0000 </r>
       <r>   -6.3838    1.0000 </r>
       <r>   -6.2658    1.0000 </r>
       <r>   -5.8447    1.0000 </r>
       <r>   -0.0118    0.0000 </r>
       <r>    0.7604    0.0000 </r>
       <r>    1.5622    0.0000 </r>
       <r>    1.9543    0.0000 </r>
      </set>
      <set comment="kpoint 6">
       <r>  -21.8909    1.0000 </r>
       <r>  -18.5131    1.0000 </r>
       <r>  -13.8463    1.0000 </r>
       <r>   -9.9717    1.0000 </r>
       <r>   -9.1023    1.0000 </r>
       <r>   -6.7133    1.0000 </r>
       <r>   -6.4412    1.0000 </r>
       <r>   -6.1973    1.0000 </r>
       <r>    0.4730    0.0000 </r>
       <r>    0.8864    0.0000 </r>
       <r>    1.6895    0.0000 </r>
       <r>    2.0833    0.0000 </r>
      </set>
      <set comment="kpoint 7">
       <r>  -21.7776    1.0000 </r>
       <r>  -18.8742    1.0000 </r>
       <r>  -13.3240    1.0000 </r>
       <r>   -9.8376    1.0000 </r>
       <r>   -8.9916    1.0000 </r>
       <r>   -7.0955    1.0000 </r>
       <r>   -6.6390    1.0000 </r>
       <r>   -6.5598    1.0000 </r>
       <r>    0.9937    0.0000 </r>
       <r>    1.0403    0.0000 </r>
       <r>    1.8449    0.0000 </r>
       <r>    2.2409    0.0000 </r>
      </set>
      <set comment="kpoint 8">
       <r>  -21.6440    1.0000 </r>
       <r>  -19.2192    1.0000 </r>
       <r>  -12.7912    1.0000 </r>
       <r>   -9.6797    1.0000 </r>
       <r>   -8.8623    1.0000 </r>
       <r>   -7.5219    1.0000 </r>
       <r>   -6.9216    1.0000 </r>
       <r>   -6.8527    1.0000 </r>
       <r>    1.2221    0.0000 </r>
       <r>    1.5378    0.0000 </r>
       <r>    2.0286    0.0000 </r>
       <r>    2.4272    0.0000 </r>
      </set>
      <set comment="kpoint 9">
       <r>  -21.4901    1.0000 </r>
       <r>  -19.5470    1.0000 </r>
       <r>  -12.2502    1.0000 </r>
       <r>   -9.4983    1.0000 </r>
       <r>   -8.7150    1.0000 </r>
       <r>   -7.9843    1.0000 </r>
       <r>   -7.2761    1.0000 </r>
       <r>   -7.0762    1.0000 </r>
       <r>    1.4319    0.0000 </r>
       <r>    2.0958    0.0000 </r>
       <r>    2.2402    0.0000 </r>
       <r>    2.6422    0.0000 </r>
      </set>
      <set comment="kpoint 10">
       <r>  -21.3159    1.0000 </r>
       <r>  -19.8568    1.0000 </r>
       <r>  -11.7036    1.0000 </r>
       <r>   -9.2937    1.0000 </r>
       <r>   -8.5509    1.0000 </r>
       <r>   -8.4752    1.0000 </r>
       <r>   -7.6185    1.0000 </r>
       <r>   -7.3040    1.0000 </r>
       <r>    1.6695    0.0000 </r>
       <r>    2.4797    0.0000 </r>
       <r>    2.6593    0.0000 </r>
       <r>    2.8858    0.0000 </r>
      </set>
      <set comment="kpoint 11">
       <r>  -21.1218    1.0000 </r>
       <r>  -20.1482    1.0000 </r>
       <r>  -11.1538    1.0000 </r>
       <r>   -9.0665    1.0000 </r>
       <r>   -8.9880    1.0000 </r>
       <r>   -8.3712    1.0000 </r>
       <r>   -7.9459    1.0000 </r>
       <r>   -7.5316    1.0000 </r>
       <r>    1.9348    0.0000 </r>
       <r>    2.7466    0.0000 </r>
       <r>    3.1580    0.0000 </r>
       <r>    3.2164    0.0000 </r>
      </set>
      <set comment="kpoint 12">
       <r>  -20.9077    1.0000 </r>
       <r>  -20.4206    1.0000 </r>
       <r>  -10.6039    1.0000 </r>
       <r>   -9.5169    1.0000 </r>
       <r>   -8.8173    1.0000 </r>
       <r>   -8.2558    1.0000 </r>
       <r>   -8.1774    1.0000 </r>
       <r>   -7.7551    1.0000 </r>
       <r>    2.2277    0.0000 </r>
       <r>    2.8956    0.0000 </r>
       <r>    3.0401    0.0000 </r>
       <r>    3.4588    0.0000 </r>
      </set>
      <set comment="kpoint 13">
       <r>  -20.6739    1.0000 </r>
       <r>  -20.6739    1.0000 </r>
       <r>  -10.0570    1.0000 </r>
       <r>  -10.0570    1.0000 </r>
       <r>   -8.5467    1.0000 </r>
       <r>   -8.5467    1.0000 </r>
       <r>   -7.9713    1.0000 </r>
       <r>   -7.9713    1.0000 </r>
       <r>    2.5481    0.0000 </r>
       <r>    2.5481    0.0000 </r>
       <r>    3.3561    0.0000 </r>
       <r>    3.3561    0.0000 </r>
      </set>
      <set comment="kpoint 14">
       <r>  -22.1355    1.0000 </r>
       <r>  -16.8157    1.0000 </r>
       <r>  -15.8947    1.0000 </r>
       <r>  -10.2621    1.0000 </r>
       <r>   -9.4174    1.0000 </r>
       <r>   -5.9728    1.0000 </r>
       <r>   -5.7856    1.0000 </r>
       <r>   -4.9684    1.0000 </r>
       <r>   -1.1183    0.0000 </r>
       <r>    0.5544    0.0000 </r>
       <r>    1.3540    0.0000 </r>
       <r>    1.7434    0.0000 </r>
      </set>
      <set comment="kpoint 15">
       <r>  -22.1251    1.0000 </r>
       <r>  -16.9986    1.0000 </r>
       <r>  -15.6967    1.0000 </r>
       <r>  -10.2498    1.0000 </r>
       <r>   -9.4071    1.0000 </r>
       <r>   -6.0000    1.0000 </r>
       <r>   -5.8222    1.0000 </r>
       <r>   -5.0373    1.0000 </r>
       <r>   -1.0343    0.0000 </r>
       <r>    0.5684    0.0000 </r>
       <r>    1.3681    0.0000 </r>
       <r>    1.7577    0.0000 </r>
      </set>
      <set comment="kpoint 16">
       <r>  -22.0942    1.0000 </r>
       <r>  -17.3535    1.0000 </r>
       <r>  -15.2968    1.0000 </r>
       <r>  -10.2130    1.0000 </r>
       <r>   -9.3761    1.0000 </r>
       <r>   -6.0831    1.0000 </r>
       <r>   -5.9277    1.0000 </r>
       <r>   -5.2274    1.0000 </r>
       <r>   -0.7989    0.0000 </r>
       <r>    0.6104    0.0000 </r>
       <r>    1.4106    0.0000 </r>
       <r>    1.8007    0.0000 </r>
      </set>
      <set comment="kpoint 17">
       <r>  -22.0426    1.0000 </r>
       <r>  -17.7400    1.0000 </r>
       <r>  -14.8354    1.0000 </r>
       <r>  -10.1517    1.0000 </r>
       <r>   -9.3246    1.0000 </r>
       <r>   -6.2315    1.0000 </r>
       <r>   -6.0847    1.0000 </r>
       <r>   -5.5031    1.0000 </r>
       <r>   -0.4483    0.0000 </r>
       <r>    0.6804    0.0000 </r>
       <r>    1.4813    0.0000 </r>
       <r>    1.8724    0.0000 </r>
      </set>
      <set comment="kpoint 18">
       <r>  -21.9704    1.0000 </r>
       <r>  -18.1256    1.0000 </r>
       <r>  -14.3457    1.0000 </r>
       <r>  -10.0660    1.0000 </r>
       <r>   -9.2528    1.0000 </r>
       <r>   -6.4618    1.0000 </r>
       <r>   -6.2649    1.0000 </r>
       <r>   -5.8298    1.0000 </r>
       <r>   -0.0180    0.0000 </r>
       <r>    0.7784    0.0000 </r>
       <r>    1.5804    0.0000 </r>
       <r>    1.9727    0.0000 </r>
      </set>
      <set comment="kpoint 19">
       <r>  -21.8776    1.0000 </r>
       <r>  -18.5008    1.0000 </r>
[...]
       <r>   -9.0846    1.0000 </r>
       <r>   -5.6379    1.0000 </r>
       <r>   -5.6379    1.0000 </r>
       <r>   -0.5152    0.0000 </r>
       <r>   -0.5152    0.0000 </r>
       <r>    4.8232    0.0000 </r>
       <r>    4.8232    0.0000 </r>
      </set>
      <set comment="kpoint 209">
       <r>  -18.8401    1.0000 </r>
       <r>  -17.1129    1.0000 </r>
       <r>  -13.9343    1.0000 </r>
       <r>  -12.3546    1.0000 </r>
       <r>  -12.3510    1.0000 </r>
       <r>  -10.8643    1.0000 </r>
       <r>   -6.4687    1.0000 </r>
       <r>   -4.6336    1.0000 </r>
       <r>   -0.9925    0.0000 </r>
       <r>    1.1056    0.0000 </r>
       <r>    5.1156    0.0000 </r>
       <r>    5.9045    0.0000 </r>
      </set>
      <set comment="kpoint 210">
       <r>  -18.8303    1.0000 </r>
       <r>  -17.1054    1.0000 </r>
       <r>  -14.0244    1.0000 </r>
       <r>  -12.4353    1.0000 </r>
       <r>  -12.2562    1.0000 </r>
       <r>  -10.7818    1.0000 </r>
       <r>   -6.4599    1.0000 </r>
       <r>   -4.6359    1.0000 </r>
       <r>   -1.0031    0.0000 </r>
       <r>    1.0797    0.0000 </r>
       <r>    5.1292    0.0000 </r>
       <r>    5.9207    0.0000 </r>
      </set>
      <set comment="kpoint 211">
       <r>  -18.8011    1.0000 </r>
       <r>  -17.0830    1.0000 </r>
       <r>  -14.2458    1.0000 </r>
       <r>  -12.6463    1.0000 </r>
       <r>  -12.0102    1.0000 </r>
       <r>  -10.5770    1.0000 </r>
       <r>   -6.4335    1.0000 </r>
       <r>   -4.6436    1.0000 </r>
       <r>   -1.0330    0.0000 </r>
       <r>    1.0041    0.0000 </r>
       <r>    5.1702    0.0000 </r>
       <r>    5.9688    0.0000 </r>
      </set>
      <set comment="kpoint 212">
       <r>  -18.7526    1.0000 </r>
       <r>  -17.0472    1.0000 </r>
       <r>  -14.5256    1.0000 </r>
       <r>  -12.9201    1.0000 </r>
       <r>  -11.6896    1.0000 </r>
       <r>  -10.3157    1.0000 </r>
       <r>   -6.3899    1.0000 </r>
       <r>   -4.6580    1.0000 </r>
       <r>   -1.0771    0.0000 </r>
       <r>    0.8842    0.0000 </r>
       <r>    5.2382    0.0000 </r>
       <r>    6.0477    0.0000 </r>
      </set>
      <set comment="kpoint 213">
       <r>  -18.6848    1.0000 </r>
       <r>  -17.0005    1.0000 </r>
       <r>  -14.8212    1.0000 </r>
       <r>  -13.2195    1.0000 </r>
       <r>  -11.3367    1.0000 </r>
       <r>  -10.0386    1.0000 </r>
       <r>   -6.3296    1.0000 </r>
       <r>   -4.6815    1.0000 </r>
       <r>   -1.1273    0.0000 </r>
       <r>    0.7278    0.0000 </r>
       <r>    5.3322    0.0000 </r>
       <r>    6.1562    0.0000 </r>
      </set>
      <set comment="kpoint 214">
       <r>  -18.5980    1.0000 </r>
       <r>  -16.9482    1.0000 </r>
       <r>  -15.1088    1.0000 </r>
       <r>  -13.5264    1.0000 </r>
       <r>  -10.9733    1.0000 </r>
       <r>   -9.7685    1.0000 </r>
       <r>   -6.2533    1.0000 </r>
       <r>   -4.7170    1.0000 </r>
       <r>   -1.1745    0.0000 </r>
       <r>    0.5439    0.0000 </r>
       <r>    5.4485    0.0000 </r>
       <r>    6.1811    0.0000 </r>
      </set>
      <set comment="kpoint 215">
       <r>  -18.4926    1.0000 </r>
       <r>  -16.9000    1.0000 </r>
       <r>  -15.3697    1.0000 </r>
       <r>  -13.8312    1.0000 </r>
       <r>  -10.6131    1.0000 </r>
       <r>   -9.5208    1.0000 </r>
       <r>   -6.1620    1.0000 </r>
       <r>   -4.7673    1.0000 </r>
       <r>   -1.2091    0.0000 </r>
       <r>    0.3414    0.0000 </r>
       <r>    5.5430    0.0000 </r>
       <r>    5.7920    0.0000 </r>
      </set>
      <set comment="kpoint 216">
       <r>  -18.3691    1.0000 </r>
       <r>  -16.8740    1.0000 </r>
       <r>  -15.5808    1.0000 </r>
       <r>  -14.1282    1.0000 </r>
       <r>  -10.2664    1.0000 </r>
       <r>   -9.3075    1.0000 </r>
       <r>   -6.0572    1.0000 </r>
       <r>   -4.8345    1.0000 </r>
       <r>   -1.2227    0.0000 </r>
       <r>    0.1290    0.0000 </r>
       <r>    5.3062    0.0000 </r>
       <r>    5.8258    0.0000 </r>
      </set>
      <set comment="kpoint 217">
       <r>  -18.2282    1.0000 </r>
       <r>  -16.8970    1.0000 </r>
       <r>  -15.7124    1.0000 </r>
       <r>  -14.4137    1.0000 </r>
       <r>   -9.9428    1.0000 </r>
       <r>   -9.1393    1.0000 </r>
       <r>   -5.9404    1.0000 </r>
       <r>   -4.9195    1.0000 </r>
       <r>   -1.2092    0.0000 </r>
       <r>   -0.0858    0.0000 </r>
       <r>    5.0124    0.0000 </r>
       <r>    5.8351    0.0000 </r>
      </set>
      <set comment="kpoint 218">
       <r>  -18.0708    1.0000 </r>
       <r>  -16.9891    1.0000 </r>
       <r>  -15.7428    1.0000 </r>
       <r>  -14.6845    1.0000 </r>
       <r>   -9.6516    1.0000 </r>
       <r>   -9.0251    1.0000 </r>
       <r>   -5.8138    1.0000 </r>
       <r>   -5.0216    1.0000 </r>
       <r>   -1.1645    0.0000 </r>
       <r>   -0.2961    0.0000 </r>
       <r>    4.7944    0.0000 </r>
       <r>    5.4360    0.0000 </r>
      </set>
      <set comment="kpoint 219">
       <r>  -17.8985    1.0000 </r>
       <r>  -17.1406    1.0000 </r>
       <r>  -15.6804    1.0000 </r>
       <r>  -14.9376    1.0000 </r>
       <r>   -9.4020    1.0000 </r>
       <r>   -8.9719    1.0000 </r>
       <r>   -5.6798    1.0000 </r>
       <r>   -5.1385    1.0000 </r>
       <r>   -1.0876    0.0000 </r>
       <r>   -0.4958    0.0000 </r>
       <r>    4.6666    0.0000 </r>
       <r>    5.1075    0.0000 </r>
      </set>
      <set comment="kpoint 220">
       <r>  -17.7136    1.0000 </r>
       <r>  -17.3249    1.0000 </r>
       <r>  -15.5512    1.0000 </r>
       <r>  -15.1700    1.0000 </r>
       <r>   -9.2029    1.0000 </r>
       <r>   -8.9838    1.0000 </r>
       <r>   -5.5416    1.0000 </r>
       <r>   -5.2669    1.0000 </r>
       <r>   -0.9792    0.0000 </r>
       <r>   -0.6793    0.0000 </r>
       <r>    4.6346    0.0000 </r>
       <r>    4.8592    0.0000 </r>
      </set>
      <set comment="kpoint 221">
       <r>  -17.5201    1.0000 </r>
       <r>  -17.5201    1.0000 </r>
       <r>  -15.3769    1.0000 </r>
       <r>  -15.3769    1.0000 </r>
       <r>   -9.0617    1.0000 </r>
       <r>   -9.0617    1.0000 </r>
       <r>   -5.4027    1.0000 </r>
       <r>   -5.4027    1.0000 </r>
       <r>   -0.8419    0.0000 </r>
       <r>   -0.8419    0.0000 </r>
       <r>    4.6997    0.0000 </r>
       <r>    4.6997    0.0000 </r>
      </set>
      <set comment="kpoint 222">
       <r>  -18.4316    1.0000 </r>
       <r>  -17.5642    1.0000 </r>
       <r>  -13.5677    1.0000 </r>
       <r>  -12.7753    1.0000 </r>
       <r>  -12.0159    1.0000 </r>
       <r>  -11.2661    1.0000 </r>
       <r>   -6.0228    1.0000 </r>
       <r>   -5.1002    1.0000 </r>
       <r>   -0.5003    0.0000 </r>
       <r>    0.5507    0.0000 </r>
       <r>    5.6965    0.0000 </r>
       <r>    6.4520    0.0000 </r>
      </set>
      <set comment="kpoint 223">
       <r>  -18.4220    1.0000 </r>
       <r>  -17.5555    1.0000 </r>
       <r>  -13.6582    1.0000 </r>
       <r>  -12.8623    1.0000 </r>
       <r>  -11.9199    1.0000 </r>
       <r>  -11.1784    1.0000 </r>
       <r>   -6.0153    1.0000 </r>
       <r>   -5.0976    1.0000 </r>
       <r>   -0.5172    0.0000 </r>
       <r>    0.5268    0.0000 </r>
       <r>    5.7101    0.0000 </r>
       <r>    6.4690    0.0000 </r>
      </set>
      <set comment="kpoint 224">
       <r>  -18.3934    1.0000 </r>
       <r>  -17.5296    1.0000 </r>
       <r>  -13.8813    1.0000 </r>
       <r>  -13.0789    1.0000 </r>
       <r>  -11.6807    1.0000 </r>
       <r>  -10.9603    1.0000 </r>
       <r>   -5.9928    1.0000 </r>
       <r>   -5.0902    1.0000 </r>
       <r>   -0.5661    0.0000 </r>
       <r>    0.4573    0.0000 </r>
       <r>    5.7509    0.0000 </r>
       <r>    6.5195    0.0000 </r>
      </set>
      <set comment="kpoint 225">
       <r>  -18.3458    1.0000 </r>
       <r>  -17.4870    1.0000 </r>
       <r>  -14.1654    1.0000 </r>
       <r>  -13.3581    1.0000 </r>
       <r>  -11.3710    1.0000 </r>
       <r>  -10.6806    1.0000 </r>
       <r>   -5.9559    1.0000 </r>
       <r>   -5.0791    1.0000 </r>
       <r>   -0.6415    0.0000 </r>
       <r>    0.3473    0.0000 </r>
       <r>    5.8183    0.0000 </r>
       <r>    6.6020    0.0000 </r>
      </set>
      <set comment="kpoint 226">
       <r>  -18.2796    1.0000 </r>
       <r>  -17.4287    1.0000 </r>
       <r>  -14.4701    1.0000 </r>
       <r>  -13.6617    1.0000 </r>
       <r>  -11.0328    1.0000 </r>
       <r>  -10.3805    1.0000 </r>
       <r>   -5.9054    1.0000 </r>
       <r>   -5.0662    1.0000 </r>
       <r>   -0.7356    0.0000 </r>
       <r>    0.2048    0.0000 </r>
       <r>    5.9107    0.0000 </r>
       <r>    6.7147    0.0000 </r>
      </set>
      <set comment="kpoint 227">
       <r>  -18.1951    1.0000 </r>
       <r>  -17.3564    1.0000 </r>
       <r>  -14.7752    1.0000 </r>
       <r>  -13.9711    1.0000 </r>
       <r>  -10.6882    1.0000 </r>
       <r>  -10.0826    1.0000 </r>
       <r>   -5.8424    1.0000 </r>
       <r>   -5.0539    1.0000 </r>
       <r>   -0.8387    0.0000 </r>
       <r>    0.0386    0.0000 </r>
       <r>    6.0165    0.0000 </r>
       <r>    6.4532    0.0000 </r>
      </set>
      <set comment="kpoint 228">
       <r>  -18.0929    1.0000 </r>
       <r>  -17.2733    1.0000 </r>
       <r>  -15.0687    1.0000 </r>
       <r>  -14.2769    1.0000 </r>
       <r>  -10.3511    1.0000 </r>
       <r>   -9.8019    1.0000 </r>
       <r>   -5.7684    1.0000 </r>
       <r>   -5.0456    1.0000 </r>
       <r>   -0.9406    0.0000 </r>
       <r>   -0.1417    0.0000 </r>
       <r>    5.9001    0.0000 </r>
       <r>    6.2413    0.0000 </r>
      </set>
      <set comment="kpoint 229">
       <r>  -17.9739    1.0000 </r>
       <r>  -17.1849    1.0000 </r>
       <r>  -15.3401    1.0000 </r>
       <r>  -14.5729    1.0000 </r>
       <r>  -10.0324    1.0000 </r>
       <r>   -9.5500    1.0000 </r>
       <r>   -5.6855    1.0000 </r>
       <r>   -5.0445    1.0000 </r>
       <r>   -1.0311    0.0000 </r>
       <r>   -0.3272    0.0000 </r>
       <r>    5.5057    0.0000 </r>
       <r>    5.9986    0.0000 </r>
      </set>
      <set comment="kpoint 230">
       <r>  -17.8395    1.0000 </r>
       <r>  -17.1020    1.0000 </r>
       <r>  -15.5757    1.0000 </r>
       <r>  -14.8548    1.0000 </r>
       <r>   -9.7422    1.0000 </r>
       <r>   -9.3377    1.0000 </r>
       <r>   -5.5962    1.0000 </r>
       <r>   -5.0544    1.0000 </r>
       <r>   -1.1011    0.0000 </r>
       <r>   -0.5093    0.0000 </r>
       <r>    5.1589    0.0000 </r>
       <r>    5.5718    0.0000 </r>
      </set>
      <set comment="kpoint 231">
       <r>  -17.6918    1.0000 </r>
       <r>  -17.0436    1.0000 </r>
       <r>  -15.7548    1.0000 </r>
       <r>  -15.1185    1.0000 </r>
       <r>   -9.4900    1.0000 </r>
       <r>   -9.1743    1.0000 </r>
       <r>   -5.5034    1.0000 </r>
       <r>   -5.0780    1.0000 </r>
       <r>   -1.1429    0.0000 </r>
       <r>   -0.6803    0.0000 </r>
       <r>    4.8886    0.0000 </r>
       <r>    5.2112    0.0000 </r>
      </set>
      <set comment="kpoint 232">
       <r>  -17.5345    1.0000 </r>
       <r>  -17.0373    1.0000 </r>
       <r>  -15.8484    1.0000 </r>
       <r>  -15.3589    1.0000 </r>
       <r>   -9.2850    1.0000 </r>
       <r>   -9.0681    1.0000 </r>
       <r>   -5.4107    1.0000 </r>
       <r>   -5.1171    1.0000 </r>
       <r>   -1.1513    0.0000 </r>
       <r>   -0.8330    0.0000 </r>
       <r>    4.7055    0.0000 </r>
       <r>    4.9274    0.0000 </r>
      </set>
      <set comment="kpoint 233">
       <r>  -17.3742    1.0000 </r>
       <r>  -17.1012    1.0000 </r>
       <r>  -15.8379    1.0000 </r>
       <r>  -15.5688    1.0000 </r>
       <r>   -9.1353    1.0000 </r>
       <r>   -9.0248    1.0000 </r>
       <r>   -5.3220    1.0000 </r>
       <r>   -5.1720    1.0000 </r>
       <r>   -1.1235    0.0000 </r>
       <r>   -0.9612    0.0000 </r>
       <r>    4.6164    0.0000 </r>
       <r>    4.7296    0.0000 </r>
      </set>
      <set comment="kpoint 234">
       <r>  -17.2227    1.0000 </r>
       <r>  -17.2227    1.0000 </r>
       <r>  -15.7355    1.0000 </r>
       <r>  -15.7355    1.0000 </r>
       <r>   -9.0473    1.0000 </r>
       <r>   -9.0473    1.0000 </r>
       <r>   -5.2412    1.0000 </r>
       <r>   -5.2412    1.0000 </r>
       <r>   -1.0594    0.0000 </r>
       <r>   -1.0594    0.0000 </r>
       <r>    4.6246    0.0000 </r>
       <r>    4.6246    0.0000 </r>
      </set>
      <set comment="kpoint 235">
       <r>  -18.0053    1.0000 </r>
       <r>  -18.0053    1.0000 </r>
       <r>  -13.1811    1.0000 </r>
       <r>  -13.1811    1.0000 </r>
       <r>  -11.6513    1.0000 </r>
       <r>  -11.6513    1.0000 </r>
       <r>   -5.5651    1.0000 </r>
       <r>   -5.5651    1.0000 </r>
       <r>    0.0146    0.0000 </r>
       <r>    0.0146    0.0000 </r>
       <r>    6.3072    0.0000 </r>
       <r>    6.3072    0.0000 </r>
      </set>
      <set comment="kpoint 236">
       <r>  -17.9960    1.0000 </r>
       <r>  -17.9960    1.0000 </r>
       <r>  -13.2704    1.0000 </r>
       <r>  -13.2704    1.0000 </r>
       <r>  -11.5590    1.0000 </r>
       <r>  -11.5590    1.0000 </r>
       <r>   -5.5595    1.0000 </r>
       <r>   -5.5595    1.0000 </r>
       <r>   -0.0064    0.0000 </r>
       <r>   -0.0064    0.0000 </r>
       <r>    6.3208    0.0000 </r>
       <r>    6.3208    0.0000 </r>
      </set>
      <set comment="kpoint 237">
       <r>  -17.9684    1.0000 </r>
       <r>  -17.9684    1.0000 </r>
       <r>  -13.4912    1.0000 </r>
       <r>  -13.4912    1.0000 </r>
       <r>  -11.3294    1.0000 </r>
       <r>  -11.3294    1.0000 </r>
       <r>   -5.5430    1.0000 </r>
       <r>   -5.5430    1.0000 </r>
       <r>   -0.0675    0.0000 </r>
       <r>   -0.0675    0.0000 </r>
       <r>    6.3612    0.0000 </r>
       <r>    6.3612    0.0000 </r>
      </set>
      <set comment="kpoint 238">
       <r>  -17.9225    1.0000 </r>
       <r>  -17.9225    1.0000 </r>
       <r>  -13.7743    1.0000 </r>
       <r>  -13.7743    1.0000 </r>
       <r>  -11.0334    1.0000 </r>
       <r>  -11.0334    1.0000 </r>
       <r>   -5.5162    1.0000 </r>
       <r>   -5.5162    1.0000 </r>
       <r>   -0.1634    0.0000 </r>
       <r>   -0.1634    0.0000 </r>
       <r>    6.4279    0.0000 </r>
       <r>    6.4279    0.0000 </r>
      </set>
      <set comment="kpoint 239">
       <r>  -17.8590    1.0000 </r>
       <r>  -17.8590    1.0000 </r>
       <r>  -14.0802    1.0000 </r>
       <r>  -14.0802    1.0000 </r>
       <r>  -10.7129    1.0000 </r>
       <r>  -10.7129    1.0000 </r>
       <r>   -5.4804    1.0000 </r>
       <r>   -5.4804    1.0000 </r>
       <r>   -0.2864    0.0000 </r>
       <r>   -0.2864    0.0000 </r>
       <r>    6.5170    0.0000 </r>
       <r>    6.5170    0.0000 </r>
      </set>
      <set comment="kpoint 240">
       <r>  -17.7785    1.0000 </r>
       <r>  -17.7785    1.0000 </r>
       <r>  -14.3899    1.0000 </r>
       <r>  -14.3899    1.0000 </r>
       <r>  -10.3902    1.0000 </r>
       <r>  -10.3902    1.0000 </r>
       <r>   -5.4373    1.0000 </r>
       <r>   -5.4373    1.0000 </r>
       <r>   -0.4270    0.0000 </r>
       <r>   -0.4270    0.0000 </r>
       <r>    6.5705    0.0000 </r>
       <r>    6.5706    0.0000 </r>
      </set>
      <set comment="kpoint 241">
       <r>  -17.6823    1.0000 </r>
       <r>  -17.6823    1.0000 </r>
       <r>  -14.6934    1.0000 </r>
       <r>  -14.6934    1.0000 </r>
       <r>  -10.0796    1.0000 </r>
       <r>  -10.0796    1.0000 </r>
       <r>   -5.3894    1.0000 </r>
       <r>   -5.3894    1.0000 </r>
       <r>   -0.5755    0.0000 </r>
       <r>   -0.5755    0.0000 </r>
       <r>    6.1820    0.0000 </r>
       <r>    6.1820    0.0000 </r>
      </set>
      <set comment="kpoint 242">
       <r>  -17.5723    1.0000 </r>
       <r>  -17.5723    1.0000 </r>
       <r>  -14.9836    1.0000 </r>
       <r>  -14.9836    1.0000 </r>
       <r>   -9.7926    1.0000 </r>
       <r>   -9.7926    1.0000 </r>
       <r>   -5.3394    1.0000 </r>
       <r>   -5.3394    1.0000 </r>
       <r>   -0.7221    0.0000 </r>
       <r>   -0.7221    0.0000 </r>
       <r>    5.7355    0.0000 </r>
       <r>    5.7355    0.0000 </r>
      </set>
      <set comment="kpoint 243">
       <r>  -17.4520    1.0000 </r>
       <r>  -17.4520    1.0000 </r>
       <r>  -15.2542    1.0000 </r>
       <r>  -15.2542    1.0000 </r>
       <r>   -9.5395    1.0000 </r>
       <r>   -9.5395    1.0000 </r>
       <r>   -5.2908    1.0000 </r>
       <r>   -5.2908    1.0000 </r>
       <r>   -0.8575    0.0000 </r>
       <r>   -0.8575    0.0000 </r>
       <r>    5.3457    0.0000 </r>
       <r>    5.3457    0.0000 </r>
      </set>
      <set comment="kpoint 244">
       <r>  -17.3274    1.0000 </r>
       <r>  -17.3274    1.0000 </r>
       <r>  -15.4973    1.0000 </r>
       <r>  -15.4973    1.0000 </r>
       <r>   -9.3300    1.0000 </r>
       <r>   -9.3300    1.0000 </r>
       <r>   -5.2474    1.0000 </r>
       <r>   -5.2474    1.0000 </r>
       <r>   -0.9731    0.0000 </r>
       <r>   -0.9731    0.0000 </r>
       <r>    5.0280    0.0000 </r>
       <r>    5.0280    0.0000 </r>
      </set>
      <set comment="kpoint 245">
       <r>  -17.2098    1.0000 </r>
       <r>  -17.2098    1.0000 </r>
       <r>  -15.7002    1.0000 </r>
       <r>  -15.7002    1.0000 </r>
       <r>   -9.1730    1.0000 </r>
       <r>   -9.1730    1.0000 </r>
       <r>   -5.2130    1.0000 </r>
       <r>   -5.2130    1.0000 </r>
       <r>   -1.0617    0.0000 </r>
       <r>   -1.0617    0.0000 </r>
       <r>    4.7928    0.0000 </r>
       <r>    4.7928    0.0000 </r>
      </set>
      <set comment="kpoint 246">
       <r>  -17.1194    1.0000 </r>
       <r>  -17.1194    1.0000 </r>
       <r>  -15.8421    1.0000 </r>
       <r>  -15.8421    1.0000 </r>
       <r>   -9.0755    1.0000 </r>
       <r>   -9.0755    1.0000 </r>
       <r>   -5.1907    1.0000 </r>
       <r>   -5.1907    1.0000 </r>
       <r>   -1.1173    0.0000 </r>
       <r>   -1.1173    0.0000 </r>
       <r>    4.6482    0.0000 </r>
       <r>    4.6482    0.0000 </r>
      </set>
      <set comment="kpoint 247">
       <r>  -17.0841    1.0000 </r>
       <r>  -17.0841    1.0000 </r>
       <r>  -15.8946    1.0000 </r>
       <r>  -15.8946    1.0000 </r>
       <r>   -9.0424    1.0000 </r>
       <r>   -9.0424    1.0000 </r>
       <r>   -5.1831    1.0000 </r>
       <r>   -5.1831    1.0000 </r>
       <r>   -1.1363    0.0000 </r>
       <r>   -1.1363    0.0000 </r>
       <r>    4.5994    0.0000 </r>
       <r>    4.5994    0.0000 </r>
      </set>
     </set>
    </set>
   </array>
  </eigenvalues>
  <separator name="orbital magnetization" >
   <v name="MAGDIPOLOUT">      0.00000000      0.00000000      0.00000000</v>
  </separator>
 </calculation>
 <structure name="finalpos" >
  <crystal>
   <varray name="basis" >
    <v>       4.26189945       0.00000000       0.00000000 </v>
    <v>       0.00000000       2.50480409       0.00000000 </v>
    <v>       0.00000000       0.00000000      19.75021020 </v>
   </varray>
   <i name="volume">    210.83790140 </i>
   <varray name="rec_basis" >
    <v>       0.23463716       0.00000000       0.00000000 </v>
    <v>       0.00000000       0.39923282       0.00000000 </v>
    <v>       0.00000000       0.00000000       0.05063237 </v>
   </varray>
  </crystal>
  <varray name="positions" >
   <v>       0.00039779       0.00000000      -0.00000000 </v>
   <v>       0.16626888       0.50000000       0.00000000 </v>
   <v>       0.50039779       0.50000000      -0.00000000 </v>
   <v>       0.66626888       0.00000000       0.00000000 </v>
  </varray>
 </structure>
</modeling>
