gr                                      
           1
     4.261899    0.000000    0.000000
     0.000000    2.504804    0.000000
     0.000000    0.000000   19.750210
   C 
   4
Direct configuration=     1
   0.00039382  0.00000000  0.00000000
   0.16627284  0.50000000  0.00000000
   0.50039382  0.50000000  0.00000000
   0.66627284  0.00000000  0.00000000
Direct configuration=     2
   0.00041396  0.00000000 -0.00000000
   0.16625271  0.50000000  0.00000000
   0.50041396  0.50000000 -0.00000000
   0.66625271  0.00000000  0.00000000
Direct configuration=     3
   0.00039779  0.00000000 -0.00000000
   0.16626887  0.50000000  0.00000000
   0.50039779  0.50000000 -0.00000000
   0.66626887 -0.00000000  0.00000000
Direct configuration=     4
   0.00039779  0.00000000 -0.00000000
   0.16626888  0.50000000  0.00000000
   0.50039779  0.50000000 -0.00000000
   0.66626888  0.00000000  0.00000000
Direct configuration=     5
   0.00039779  0.00000000 -0.00000000
   0.16626888  0.50000000  0.00000000
   0.50039779  0.50000000 -0.00000000
   0.66626888  0.00000000  0.00000000
