    4    4  400    1
  0.5270948E+02  0.4254997E-09  0.2529602E-09  0.1958832E-08  0.5000000E-15
  1.000000000000000E-004
  CAR 
 gr                                      
     16    247     12
 
  0.0000000E+00  0.0000000E+00  0.0000000E+00  0.1157407E-02
    1      -22.079917
    2      -16.701588
    3      -15.863694
    4      -10.224808
    5       -9.476720
    6       -5.992709
    7       -5.742022
    8       -4.902889
    9       -1.143776
   10        0.544886
   11        1.342964
   12        1.736426
 
  0.4166667E-01  0.0000000E+00  0.0000000E+00  0.2314815E-02
    1      -22.069542
    2      -16.898220
    3      -15.652055
    4      -10.212498
    5       -9.466305
    6       -6.016457
    7       -5.782181
    8       -4.973089
    9       -1.058787
   10        0.558942
   11        1.357162
   12        1.750804
 
  0.8333333E-01  0.0000000E+00  0.0000000E+00  0.2314815E-02
    1      -22.038424
    2      -17.265090
    3      -15.240255
    4      -10.175585
    5       -9.435110
    6       -6.086329
    7       -5.901208
    8       -5.166483
    9       -0.821203
   10        0.601107
   11        1.399753
   12        1.793939
 
  0.1250000E+00  0.0000000E+00  0.0000000E+00  0.2314815E-02
    1      -21.986583
    2      -17.658161
    3      -14.772613
    4      -10.114126
    5       -9.383286
    6       -6.198454
    7       -6.094959
    8       -5.445867
    9       -0.468760
   10        0.671377
   11        1.470726
   12        1.865831
 
  0.1666667E+00  0.0000000E+00  0.0000000E+00  0.2314815E-02
    1      -21.914052
    2      -18.047921
    3      -14.279122
    4      -10.028219
    5       -9.311089
    6       -6.357167
    7       -6.347106
    8       -5.775922
    9       -0.037676
   10        0.769743
   11        1.570060
   12        1.966478
 
  0.2083333E+00  0.0000000E+00  0.0000000E+00  0.2314815E-02
    1      -21.820883
    2      -18.426139
    3      -13.768703
    4       -9.918004
    5       -9.218890
    6       -6.680189
    7       -6.525510
    8       -6.131446
    9        0.445591
   10        0.896188
   11        1.697726
   12        2.095879
 
  0.2500000E+00  0.0000000E+00  0.0000000E+00  0.2314815E-02
    1      -21.707138
    2      -18.789552
    3      -13.245533
    4       -9.783669
    5       -9.107185
    6       -7.055752
    7       -6.726598
    8       -6.496188
    9        0.963151
   10        1.050690
   11        1.853682
   12        2.254031
 
  0.2916667E+00  0.0000000E+00  0.0000000E+00  0.2314815E-02
    1      -21.572898
    2      -19.136506
    3      -12.712423
    4       -9.625455
    5       -8.976614
    6       -7.475561
    7       -6.943572
    8       -6.859834
    9        1.233214
   10        1.502646
   11        2.037863
   12        2.440927
 
  0.3333333E+00  0.0000000E+00  0.0000000E+00  0.2314815E-02
    1      -21.418260
    2      -19.466011
    3      -12.171804
    4       -9.443669
    5       -8.827982
    6       -7.931717
    7       -7.215710
    8       -7.170237
    9        1.443714
   10        2.054863
   11        2.250175
   12        2.656559
 
  0.3750000E+00  0.0000000E+00  0.0000000E+00  0.2314815E-02
    1      -21.243339
    2      -19.777394
    3      -11.626098
    4       -9.238693
    5       -8.662288
    6       -8.416968
    7       -7.559350
    8       -7.401158
    9        1.682129
   10        2.490460
   11        2.611970
   12        2.900907
 
  0.4166667E+00  0.0000000E+00  0.0000000E+00  0.2314815E-02
    1      -21.048269
    2      -20.070158
    3      -11.077906
    4       -9.011004
    5       -8.924813
    6       -8.480760
    7       -7.887662
    8       -7.631683
    9        1.948366
   10        2.758408
   11        3.164365
   12        3.173934
 
  0.4583333E+00  0.0000000E+00  0.0000000E+00  0.2314815E-02
    1      -20.833210
    2      -20.343913
    3      -10.530134
    4       -9.449519
    5       -8.761197
    6       -8.284898
    7       -8.198431
    8       -7.857896
    9        2.242291
   10        2.912017
   11        3.053208
   12        3.475688
 
  0.5000000E+00  0.0000000E+00  0.0000000E+00  0.1157407E-02
    1      -20.598351
    2      -20.598351
    3       -9.986077
    4       -9.986077
    5       -8.490021
    6       -8.490021
    7       -8.076535
    8       -8.076535
    9        2.563671
   10        2.563671
   11        3.371213
   12        3.371213
 
  0.0000000E+00  0.2777778E-01  0.0000000E+00  0.2314815E-02
    1      -22.066910
    2      -16.690360
    3      -15.853329
    4      -10.209374
    5       -9.534875
    6       -6.046281
    7       -5.774209
    8       -4.887145
    9       -1.149955
   10        0.562475
   11        1.360810
   12        1.754494
 
  0.4166667E-01  0.2777778E-01  0.0000000E+00  0.4629630E-02
    1      -22.056537
    2      -16.886894
    3      -15.641851
    4      -10.197068
    5       -9.524429
    6       -6.072998
    7       -5.810666
    8       -4.957523
    9       -1.064919
   10        0.576532
   11        1.375007
   12        1.768873
 
  0.8333333E-01  0.2777778E-01  0.0000000E+00  0.4629630E-02
    1      -22.025423
    2      -17.253562
    3      -15.230439
    4      -10.160168
    5       -9.493140
    6       -6.152910
    7       -5.917586
    8       -5.151316
    9       -0.827333
   10        0.618702
   11        1.417594
   12        1.812009
 
  0.1250000E+00  0.2777778E-01  0.0000000E+00  0.4629630E-02
    1      -21.973589
    2      -17.646428
    3      -14.763324
    4      -10.098733
    5       -9.441151
    6       -6.287389
    7       -6.085934
    8       -5.431091
    9       -0.475161
   10        0.688979
   11        1.488561
   12        1.883902
 
  0.1666667E+00  0.2777778E-01  0.0000000E+00  0.4629630E-02
    1      -21.901068
    2      -18.036002
    3      -14.270486
    4      -10.012858
    5       -9.368710
    6       -6.486188
    7       -6.294394
    8       -5.761420
    9       -0.044730
   10        0.787355
   11        1.587887
   12        1.984551
 
  0.2083333E+00  0.2777778E-01  0.0000000E+00  0.4629630E-02
    1      -21.807913
    2      -18.414057
    3      -13.760864
    4       -9.902683
    5       -9.276172
    6       -6.763892
    7       -6.514373
    8       -6.117092
    9        0.437491
   10        0.913812
   11        1.715544
   12        2.113955
 
  0.2500000E+00  0.2777778E-01  0.0000000E+00  0.4629630E-02
    1      -21.694185
    2      -18.777328
    3      -13.238661
    4       -9.768398
    5       -9.164015
    6       -7.113382
    7       -6.737945
    8       -6.481882
    9        0.953646
   10        1.068327
   11        1.871487
   12        2.272110
 
  0.2916667E+00  0.2777778E-01  0.0000000E+00  0.4629630E-02
    1      -21.559968
    2      -19.124161
    3      -12.706728
    4       -9.610243
    5       -9.032852
    6       -7.516949
    7       -6.967901
    8       -6.845509
    9        1.250865
   10        1.491423
   11        2.055656
   12        2.459010
 
  0.3333333E+00  0.2777778E-01  0.0000000E+00  0.4629630E-02
    1      -21.405356
    2      -19.453560
    3      -12.167544
    4       -9.428526
    5       -8.883452
    6       -7.961742
    7       -7.203074
    8       -7.201322
    9        1.461382
   10        2.041677
   11        2.267957
   12        2.674647
 
  0.3750000E+00  0.2777778E-01  0.0000000E+00  0.4629630E-02
    1      -21.230465
    2      -19.764852
    3      -11.623594
    4       -9.223628
    5       -8.716770
    6       -8.438489
    7       -7.544875
    8       -7.440053
    9        1.699815
   10        2.508234
   11        2.596705
   12        2.919004
 
  0.4166667E+00  0.2777778E-01  0.0000000E+00  0.4629630E-02
    1      -21.035431
    2      -20.057538
    3      -11.077562
    4       -8.996025
    5       -8.939752
    6       -8.533975
    7       -7.873087
    8       -7.675091
    9        1.966076
   10        2.776186
   11        3.147492
   12        3.192046
 
  0.4583333E+00  0.2777778E-01  0.0000000E+00  0.4629630E-02
    1      -20.820415
    2      -20.331226
    3      -10.532455
    4       -9.459274
    5       -8.746312
    6       -8.336493
    7       -8.183751
    8       -7.904750
    9        2.260035
   10        2.929964
   11        3.071021
   12        3.493696
 
  0.5000000E+00  0.2777778E-01  0.0000000E+00  0.2314815E-02
    1      -20.585606
    2      -20.585606
    3       -9.991706
    4       -9.991706
    5       -8.475236
    6       -8.475236
    7       -8.126054
    8       -8.126054
    9        2.581477
   10        2.581477
   11        3.389065
   12        3.389065
 
  0.0000000E+00  0.5555556E-01  0.0000000E+00  0.2314815E-02
    1      -22.027901
    2      -16.656680
    3      -15.822445
    4      -10.163103
    5       -9.704546
    6       -6.202828
    7       -5.869735
    8       -4.839933
    9       -1.169274
   10        0.615250
   11        1.414340
   12        1.808701
 
  0.4166667E-01  0.5555556E-01  0.0000000E+00  0.4629630E-02
    1      -22.017532
    2      -16.852937
    3      -15.611433
    4      -10.150810
    5       -9.694000
    6       -6.235816
    7       -5.897789
    8       -4.910863
    9       -1.084087
   10        0.629311
   11        1.428533
   12        1.823081
 
  0.8333333E-01  0.5555556E-01  0.0000000E+00  0.4629630E-02
    1      -21.986431
    2      -17.219013
    3      -15.201197
    4      -10.113952
    5       -9.662405
    6       -6.332764
    7       -5.981648
    8       -5.105882
    9       -0.846479
   10        0.671492
   11        1.471110
   12        1.866219
 
  0.1250000E+00  0.5555556E-01  0.0000000E+00  0.4629630E-02
    1      -21.934619
    2      -17.611263
    3      -14.735695
    4      -10.052585
    5       -9.609886
    6       -6.489061
    7       -6.119234
    8       -5.386858
    9       -0.495118
   10        0.741787
   11        1.542058
   12        1.938116
 
  0.1666667E+00  0.5555556E-01  0.0000000E+00  0.4629630E-02
    1      -21.862131
    2      -18.000277
    3      -14.244874
    4       -9.966807
    5       -9.536657
    6       -6.700411
    7       -6.304533
    8       -5.718021
    9       -0.066673
   10        0.840187
   11        1.641360
   12        2.038770
 
  0.2083333E+00  0.5555556E-01  0.0000000E+00  0.4629630E-02
    1      -21.769017
    2      -18.377840
    3      -13.737721
    4       -9.856757
    5       -9.443026
    6       -6.964728
    7       -6.526796
    8       -6.074138
    9        0.412368
   10        0.966674
   11        1.768985
   12        2.168180
 
  0.2500000E+00  0.5555556E-01  0.0000000E+00  0.4629630E-02
    1      -21.655342
    2      -18.740684
    3      -13.218532
    4       -9.722625
    5       -9.329403
    6       -7.281408
    7       -6.772474
    8       -6.439070
    9        0.924251
   10        1.121224
   11        1.924891
   12        2.326344
 
  0.2916667E+00  0.5555556E-01  0.0000000E+00  0.4629630E-02
    1      -21.521189
    2      -19.087147
    3      -12.690283
    4       -9.564651
    5       -9.196310
    6       -7.648423
    7       -7.029212
    8       -6.802632
    9        1.303800
   10        1.456807
   11        2.109019
   12        2.513255
 
  0.3333333E+00  0.5555556E-01  0.0000000E+00  0.4629630E-02
    1      -21.366655
    2      -19.416228
    3      -12.155617
    4       -9.383143
    5       -9.044397
    6       -8.060560
    7       -7.288451
    8       -7.158250
    9        1.514359
   10        2.001076
   11        2.321280
   12        2.728907
 
  0.3750000E+00  0.5555556E-01  0.0000000E+00  0.4629630E-02
    1      -21.191857
    2      -19.727245
    3      -11.617236
    4       -9.178481
    5       -8.874460
    6       -8.510412
    7       -7.544948
    8       -7.501533
    9        1.752838
   10        2.549705
   11        2.561529
   12        2.973284
 
  0.4166667E+00  0.5555556E-01  0.0000000E+00  0.4629630E-02
    1      -20.996932
    2      -20.019695
    3      -11.078100
    4       -8.990173
    5       -8.951141
    6       -8.687460
    7       -7.829437
    8       -7.795244
    9        2.019157
   10        2.829492
   11        3.095035
   12        3.246363
 
  0.4583333E+00  0.5555556E-01  0.0000000E+00  0.4629630E-02
    1      -20.782043
    2      -20.293180
    3      -10.541580
    4       -9.492651
    5       -8.701714
    6       -8.484547
    7       -8.139779
    8       -8.036691
    9        2.313200
   10        2.983585
   11        3.124435
   12        3.548111
 
  0.5000000E+00  0.5555556E-01  0.0000000E+00  0.2314815E-02
    1      -20.547385
    2      -20.547385
    3      -10.011574
    4      -10.011574
    5       -8.430945
    6       -8.430945
    7       -8.267087
    8       -8.267087
    9        2.634786
   10        2.634786
   11        3.442612
   12        3.442612
 
  0.0000000E+00  0.8333333E-01  0.0000000E+00  0.2314815E-02
    1      -21.962928
    2      -16.600559
    3      -15.771710
    4      -10.086092
    5       -9.972632
    6       -6.451068
    7       -6.025611
    8       -4.761310
    9       -1.204062
   10        0.703238
   11        1.503532
   12        1.899052
 
  0.4166667E-01  0.8333333E-01  0.0000000E+00  0.4629630E-02
    1      -21.952566
    2      -16.796426
    3      -15.561431
    4      -10.073823
    5       -9.961896
    6       -6.490335
    7       -6.044038
    8       -4.833221
    9       -1.118581
   10        0.717302
   11        1.517719
   12        1.913432
 
  0.8333333E-01  0.8333333E-01  0.0000000E+00  0.4629630E-02
    1      -21.921486
    2      -17.161548
    3      -15.153190
    4      -10.037035
    5       -9.929717
    6       -6.601911
    7       -6.103763
    8       -5.030400
    9       -0.880873
   10        0.759492
   11        1.560276
   12        1.956572
 
  0.1250000E+00  0.8333333E-01  0.0000000E+00  0.4629630E-02
    1      -21.869712
    2      -17.552772
    3      -14.690505
    4       -9.975786
    5       -9.876183
    6       -6.772991
    7       -6.212333
    8       -5.313464
    9       -0.530860
   10        0.829805
   11        1.631192
   12        2.028472
 
  0.1666667E+00  0.8333333E-01  0.0000000E+00  0.4629630E-02
    1      -21.797277
    2      -17.940841
    3      -14.203250
    4       -9.890173
    5       -9.801443
    6       -6.992054
    7       -6.372846
    8       -5.646060
    9       -0.105795
   10        0.928232
   11        1.730447
   12        2.129133
 
  0.2083333E+00  0.8333333E-01  0.0000000E+00  0.4629630E-02
    1      -21.704233
    2      -18.317572
    3      -13.700509
    4       -9.780337
    5       -9.705701
    6       -7.251431
    7       -6.581975
    8       -6.002924
    9        0.367813
   10        1.054754
   11        1.858013
   12        2.258551
 
  0.2500000E+00  0.8333333E-01  0.0000000E+00  0.4629630E-02
    1      -21.590647
    2      -18.679694
    3      -13.186760
    4       -9.646466
    5       -9.589226
    6       -7.547352
    7       -6.830797
    8       -6.368078
    9        0.872405
   10        1.209346
   11        2.013848
   12        2.416726
 
  0.2916667E+00  0.8333333E-01  0.0000000E+00  0.4629630E-02
    1      -21.456603
    2      -19.025533
    3      -12.665237
    4       -9.488803
    5       -9.452346
    6       -7.879237
    7       -7.106446
    8       -6.731509
    9        1.391971
   10        1.396057
   11        2.197895
   12        2.603652
 
  0.3333333E+00  0.8333333E-01  0.0000000E+00  0.4629630E-02
    1      -21.302198
    2      -19.354076
    3      -12.138925
    4       -9.307655
    5       -9.295444
    6       -8.248059
    7       -7.394635
    8       -7.086776
    9        1.602581
   10        1.930098
   11        2.410073
   12        2.819322
 
  0.3750000E+00  0.8333333E-01  0.0000000E+00  0.4629630E-02
    1      -21.127555
    2      -19.664630
    3      -11.610982
    4       -9.118956
    5       -9.103400
    6       -8.653893
    7       -7.682749
    8       -7.429582
    9        1.841116
   10        2.467633
   11        2.650258
   12        3.063725
 
  0.4166667E+00  0.8333333E-01  0.0000000E+00  0.4629630E-02
    1      -20.932814
    2      -19.956682
    3      -11.084968
    4       -9.094135
    5       -8.923366
    6       -8.876513
    7       -7.962025
    8       -7.756946
    9        2.107501
   10        2.918219
   11        3.002361
   12        3.336844
 
  0.4583333E+00  0.8333333E-01  0.0000000E+00  0.4629630E-02
    1      -20.718141
    2      -20.229825
    3      -10.565028
    4       -9.563629
    5       -8.709196
    6       -8.627580
    7       -8.227573
    8       -8.066727
    9        2.401631
   10        3.072452
   11        3.213351
   12        3.522416
 
  0.5000000E+00  0.8333333E-01  0.0000000E+00  0.2314815E-02
    1      -20.483734
    2      -20.483734
    3      -10.056028
    4      -10.056028
    5       -8.477022
    6       -8.477022
    7       -8.357340
    8       -8.357340
    9        2.723360
   10        2.723360
   11        3.531807
   12        3.531808
 
  0.0000000E+00  0.1111111E+00  0.0000000E+00  0.2314815E-02
    1      -21.872052
    2      -16.522021
    3      -15.702398
    4      -10.320777
    5       -9.978505
    6       -6.775506
    7       -6.237198
    8       -4.651375
    9       -1.258105
   10        0.826468
   11        1.628350
   12        2.025553
 
  0.4166667E-01  0.1111111E+00  0.0000000E+00  0.4629630E-02
    1      -21.861701
    2      -16.717501
    3      -15.493040
    4      -10.309717
    5       -9.966270
    6       -6.820108
    7       -6.245992
    8       -4.724799
    9       -1.172105
   10        0.840532
   11        1.642526
   12        2.039932
 
  0.8333333E-01  0.1111111E+00  0.0000000E+00  0.4629630E-02
    1      -21.830653
    2      -17.081361
    3      -15.087696
    4      -10.276542
    5       -9.929585
    6       -6.943511
    7       -6.281605
    8       -4.925270
    9       -0.934087
   10        0.882723
   11        1.685051
   12        2.083073
 
  0.1250000E+00  0.1111111E+00  0.0000000E+00  0.4629630E-02
    1      -21.778931
    2      -17.471142
    3      -14.629275
    4      -10.221268
    5       -9.868508
    6       -7.126070
    7       -6.360088
    8       -5.211457
    9       -0.585920
   10        0.953041
   11        1.755913
   12        2.154975
 
  0.1666667E+00  0.1111111E+00  0.0000000E+00  0.4629630E-02
    1      -21.706571
    2      -17.857868
    3      -14.147528
    4      -10.143913
    5       -9.783136
    6       -7.351761
    7       -6.491308
    8       -5.546144
    9       -0.165710
   10        1.051480
   11        1.855092
   12        2.255638
 
  0.2083333E+00  0.1111111E+00  0.0000000E+00  0.4629630E-02
    1      -21.613626
    2      -18.233407
    3      -13.651719
    4      -10.044490
    5       -9.673612
    6       -7.610043
    7       -6.677156
    8       -5.904062
    9        0.300058
   10        1.178026
   11        1.982558
   12        2.385064
 
  0.2500000E+00  0.1111111E+00  0.0000000E+00  0.4629630E-02
    1      -21.500166
    2      -18.594494
    3      -13.146665
    4       -9.922980
    5       -9.540124
    6       -7.894648
    7       -6.913167
    8       -6.269492
    9        0.794145
   10        1.332651
   11        2.138269
   12        2.543249
 
  0.2916667E+00  0.1111111E+00  0.0000000E+00  0.4629630E-02
    1      -21.366274
    2      -18.939439
    3      -12.636091
    4       -9.779307
    5       -9.382916
    6       -8.202765
    7       -7.190071
    8       -6.632685
    9        1.305001
   10        1.515316
   11        2.322171
   12        2.730189
 
  0.3333333E+00  0.1111111E+00  0.0000000E+00  0.4629630E-02
    1      -21.212054
    2      -19.267213
    3      -12.123653
    4       -9.613301
    5       -9.202294
    6       -8.534606
    7       -7.495086
    8       -6.987399
    9        1.725971
   10        1.824350
   11        2.534191
   12        2.945877
 
  0.3750000E+00  0.1111111E+00  0.0000000E+00  0.4629630E-02
    1      -21.037630
    2      -19.577106
    3      -11.613401
    4       -9.424646
    5       -8.998637
    6       -8.892693
    7       -7.813413
    8       -7.329474
    9        1.964553
   10        2.345788
   11        2.774224
   12        3.190305
 
  0.4166667E+00  0.1111111E+00  0.0000000E+00  0.4629630E-02
    1      -20.843149
    2      -19.868589
    3      -11.110044
    4       -9.280234
    5       -9.212850
    6       -8.772416
    7       -8.130404
    8       -7.656024
    9        2.230984
   10        2.863961
   11        3.042109
   12        3.463458
 
  0.4583333E+00  0.1111111E+00  0.0000000E+00  0.4629630E-02
    1      -20.628783
    2      -20.141244
    3      -10.619073
    4       -9.698782
    5       -8.977301
    6       -8.524213
    7       -8.434226
    8       -7.964967
    9        2.525171
   10        3.196247
   11        3.337475
   12        3.373630
 
  0.5000000E+00  0.1111111E+00  0.0000000E+00  0.2314815E-02
    1      -20.394735
    2      -20.394735
    3      -10.146621
    4      -10.146621
    5       -8.717566
    6       -8.717566
    7       -8.254757
    8       -8.254757
    9        2.846986
   10        2.846986
   11        3.656379
   12        3.656441
 
  0.0000000E+00  0.1388889E+00  0.0000000E+00  0.2314815E-02
    1      -21.755368
    2      -16.421094
    3      -15.616673
    4      -10.728479
    5       -9.840577
    6       -7.159511
    7       -6.498639
    8       -4.510267
    9       -1.336442
   10        0.984965
   11        1.788737
   12        2.188209
 
  0.4166667E-01  0.1388889E+00  0.0000000E+00  0.4629630E-02
    1      -21.745030
    2      -16.616393
    3      -15.408309
    4      -10.716878
    5       -9.828389
    6       -7.208639
    7       -6.497958
    8       -4.585923
    9       -1.249538
   10        0.999023
   11        1.802897
   12        2.202588
 
  0.8333333E-01  0.1388889E+00  0.0000000E+00  0.4629630E-02
    1      -21.714022
    2      -16.978769
    3      -15.006939
    4      -10.682036
    5       -9.791844
    6       -7.342049
    7       -6.509319
    8       -4.791155
    9       -1.010734
   10        1.041199
   11        1.845371
   12        2.245726
 
  0.1250000E+00  0.1388889E+00  0.0000000E+00  0.4629630E-02
    1      -21.662367
    2      -17.366682
    3      -14.554714
    4      -10.623828
    5       -9.731000
    6       -7.534527
    7       -6.556003
    8       -5.081726
    9       -0.664793
   10        1.111499
   11        1.916147
   12        2.317624
 
  0.1666667E+00  0.1388889E+00  0.0000000E+00  0.4629630E-02
    1      -21.590107
    2      -17.751629
    3      -14.081202
    4      -10.542020
    5       -9.645957
    6       -7.766733
    7       -6.653582
    8       -5.419246
    9       -0.250954
   10        1.209923
   11        2.015201
   12        2.418287
 
  0.2083333E+00  0.1388889E+00  0.0000000E+00  0.4629630E-02
    1      -21.497292
    2      -18.125585
    3      -13.596015
    4      -10.436226
    5       -9.536857
    6       -8.026343
    7       -6.808346
    8       -5.778517
    9        0.204434
   10        1.336463
   11        2.142500
   12        2.547714
 
  0.2500000E+00  0.1388889E+00  0.0000000E+00  0.4629630E-02
    1      -21.383993
    2      -18.485294
    3      -13.104619
    4      -10.305844
    5       -9.403892
    6       -8.305653
    7       -7.019635
    8       -6.144224
    9        0.684652
   10        1.491094
   11        2.297998
   12        2.705904
 
  0.2916667E+00  0.1388889E+00  0.0000000E+00  0.4629630E-02
    1      -21.250301
    2      -18.829051
    3      -12.611685
    4      -10.149971
    5       -9.247305
    6       -8.600161
    7       -7.281658
    8       -6.506999
    9        1.178710
   10        1.673776
   11        2.481634
   12        2.892855
 
  0.3333333E+00  0.1388889E+00  0.0000000E+00  0.4629630E-02
    1      -21.096322
    2      -19.155804
    3      -12.122151
    4       -9.967311
    5       -9.067403
    6       -8.908011
    7       -7.584800
    8       -6.860880
    9        1.678872
   10        1.884453
   11        2.693328
   12        3.108558
 
  0.3750000E+00  0.1388889E+00  0.0000000E+00  0.4629630E-02
    1      -20.922185
    2      -19.464820
    3      -11.641658
    4       -9.756148
    5       -9.229878
    6       -8.864565
    7       -7.916598
    8       -7.201897
    9        2.123057
   10        2.179286
   11        2.932978
   12        3.353005
 
  0.4166667E+00  0.1388889E+00  0.0000000E+00  0.4629630E-02
    1      -20.728045
    2      -19.755552
    3      -11.176572
    4       -9.568837
    5       -9.514567
    6       -8.639260
    7       -8.262586
    8       -7.527289
    9        2.389506
   10        2.675238
   11        3.200447
   12        3.626185
 
  0.4583333E+00  0.1388889E+00  0.0000000E+00  0.4629630E-02
    1      -20.514081
    2      -20.027565
    3      -10.733369
    4       -9.929682
    5       -9.241252
    6       -8.607467
    7       -8.392064
    8       -7.835053
    9        2.683702
   10        3.162715
   11        3.354815
   12        3.495538
 
  0.5000000E+00  0.1388889E+00  0.0000000E+00  0.2314815E-02
    1      -20.280505
    2      -20.280505
    3      -10.317134
    4      -10.317134
    5       -8.937141
    6       -8.937141
    7       -8.123695
    8       -8.123695
    9        3.005524
   10        3.005524
   11        3.637950
   12        3.637953
 
  0.0000000E+00  0.1666667E+00  0.0000000E+00  0.2314815E-02
    1      -21.612995
    2      -16.297821
    3      -15.518177
    4      -11.174943
    5       -9.672625
    6       -7.587505
    7       -6.803329
    8       -4.338171
    9       -1.444976
   10        1.178731
   11        1.984614
   12        2.387026
 
  0.4166667E-01  0.1666667E+00  0.0000000E+00  0.4629630E-02
    1      -21.602674
    2      -16.493484
    3      -15.310701
    4      -11.162423
    5       -9.660498
    6       -7.640647
    7       -6.793329
    8       -4.417103
    9       -1.356472
   10        1.192777
   11        1.998747
   12        2.401403
 
  0.8333333E-01  0.1666667E+00  0.0000000E+00  0.4629630E-02
    1      -21.571717
    2      -16.854277
    3      -14.914777
    4      -11.124733
    5       -9.624136
    6       -7.783012
    7       -6.780340
    8       -4.629123
    9       -1.115894
   10        1.234922
   11        2.041140
   12        2.444534
 
  0.1250000E+00  0.1666667E+00  0.0000000E+00  0.4629630E-02
    1      -21.520148
    2      -17.239868
    3      -14.471662
    4      -11.061457
    5       -9.563598
    6       -7.984651
    7       -6.793876
    8       -4.925676
    9       -0.772277
   10        1.305174
   11        2.111776
   12        2.516424
 
  0.1666667E+00  0.1666667E+00  0.0000000E+00  0.4629630E-02
    1      -21.448008
    2      -17.622543
    3      -14.010713
    4      -10.971837
    5       -9.478986
    6       -8.223537
    7       -6.854457
    8       -5.266870
    9       -0.366270
   10        1.403545
   11        2.210622
   12        2.617076
 
  0.2083333E+00  0.1666667E+00  0.0000000E+00  0.4629630E-02
    1      -21.355353
    2      -17.994464
    3      -13.542251
    4      -10.854661
    5       -9.370444
    6       -8.486100
    7       -6.972274
    8       -5.627749
    9        0.076163
   10        1.530035
   11        2.337633
   12        2.746495
 
  0.2500000E+00  0.1666667E+00  0.0000000E+00  0.4629630E-02
    1      -21.242257
    2      -18.352402
    3      -13.073017
    4      -10.708127
    5       -9.238165
    6       -8.763848
    7       -7.150067
    8       -5.993631
    9        0.539150
   10        1.684628
   11        2.492739
   12        2.904683
 
  0.2916667E+00  0.1666667E+00  0.0000000E+00  0.4629630E-02
    1      -21.108813
    2      -18.694636
    3      -12.609439
    4      -10.529725
    5       -9.082397
    6       -9.051390
    7       -7.385098
    8       -6.355683
    9        1.012537
   10        1.867287
   11        2.675842
   12        3.091636
 
  0.3333333E+00  0.1666667E+00  0.0000000E+00  0.4629630E-02
    1      -20.955135
    2      -19.020084
    3      -12.158489
    4      -10.316325
    5       -9.345574
    6       -8.903447
    7       -7.670549
    8       -6.708326
    9        1.489350
   10        2.077952
   11        2.886784
   12        3.307348
 
  0.3750000E+00  0.1666667E+00  0.0000000E+00  0.4629630E-02
    1      -20.781359
    2      -19.327984
    3      -11.727410
    4      -10.064855
    5       -9.645199
    6       -8.701696
    7       -7.996630
    8       -7.047840
    9        1.964448
   10        2.316544
   11        3.125268
   12        3.551810
 
  0.4166667E+00  0.1666667E+00  0.0000000E+00  0.4629630E-02
    1      -20.587646
    2      -19.617761
    3      -11.322264
    4       -9.951061
    5       -9.774005
    6       -8.477610
    7       -8.351403
    8       -7.371621
    9        2.433764
   10        2.582972
   11        3.390351
   12        3.825009
 
  0.4583333E+00  0.1666667E+00  0.0000000E+00  0.4629630E-02
    1      -20.374187
    2      -19.888960
    3      -10.945671
    4      -10.266126
    5       -9.446661
    6       -8.721261
    7       -8.231761
    8       -7.677771
    9        2.877128
   10        2.893770
   11        3.548084
   12        3.662669
 
  0.5000000E+00  0.1666667E+00  0.0000000E+00  0.2314815E-02
    1      -20.141206
    2      -20.141206
    3      -10.595511
    4      -10.595511
    5       -9.091368
    6       -9.091368
    7       -7.964855
    8       -7.964855
    9        3.198885
   10        3.198885
   11        3.340243
   12        3.340243
 