gr                                      
           1
     4.254997    0.000000    0.000000
     0.000000    2.529602    0.000000
     0.000000    0.000000   19.588324
   C 
   4
Direct configuration=     1
   0.00063729  0.00000000  0.00000000
   0.16602938  0.50000000  0.00000000
   0.50063729  0.50000000  0.00000000
   0.66602938  0.00000000  0.00000000
Direct configuration=     2
   0.00066060  0.00000000  0.00000000
   0.16600607  0.50000000 -0.00000000
   0.50066060  0.50000000  0.00000000
   0.66600607 -0.00000000 -0.00000000
Direct configuration=     3
   0.00064196  0.00000000  0.00000000
   0.16602470  0.50000000 -0.00000000
   0.50064196  0.50000000  0.00000000
   0.66602470 -0.00000000 -0.00000000
Direct configuration=     4
   0.00064195  0.00000000  0.00000000
   0.16602472  0.50000000 -0.00000000
   0.50064195  0.50000000  0.00000000
   0.66602472  0.00000000 -0.00000000
Direct configuration=     5
   0.00064195  0.00000000  0.00000000
   0.16602471  0.50000000 -0.00000000
   0.50064195  0.50000000  0.00000000
   0.66602471 -0.00000000 -0.00000000
