    4    4  400    1
  0.5270948E+02  0.4265633E-09  0.2491973E-09  0.1983452E-08  0.5000000E-15
  1.000000000000000E-004
  CAR 
 gr                                      
     16    247     12
 
  0.0000000E+00  0.0000000E+00  0.0000000E+00  0.1157407E-02
    1      -22.184459
    2      -16.892475
    3      -15.928334
    4      -10.305503
    5       -9.292426
    6       -5.875131
    7       -5.763583
    8       -5.026914
    9       -1.099246
   10        0.532114
   11        1.332056
   12        1.719107
 
  0.4166667E-01  0.0000000E+00  0.0000000E+00  0.2314815E-02
    1      -22.174158
    2      -17.069148
    3      -15.736491
    4      -10.293229
    5       -9.282146
    6       -5.898172
    7       -5.805310
    8       -5.094845
    9       -1.015788
   10        0.546082
   11        1.346189
   12        1.733413
 
  0.8333333E-01  0.0000000E+00  0.0000000E+00  0.2314815E-02
    1      -22.143259
    2      -17.418128
    3      -15.342090
    4      -10.256427
    5       -9.251357
    6       -5.965997
    7       -5.928854
    8       -5.282835
    9       -0.781391
   10        0.587985
   11        1.388584
   12        1.776334
 
  0.1250000E+00  0.0000000E+00  0.0000000E+00  0.2314815E-02
    1      -22.091782
    2      -17.801481
    3      -14.883334
    4      -10.195154
    5       -9.200210
    6       -6.129575
    7       -6.074937
    8       -5.556095
    9       -0.431367
   10        0.657824
   11        1.459229
   12        1.847869
 
  0.1666667E+00  0.0000000E+00  0.0000000E+00  0.2314815E-02
    1      -22.019761
    2      -18.185073
    3      -14.394812
    4      -10.109507
    5       -9.128967
    6       -6.400512
    7       -6.219548
    8       -5.880705
    9       -0.000520
   10        0.755597
   11        1.558104
   12        1.948019
 
  0.2083333E+00  0.0000000E+00  0.0000000E+00  0.2314815E-02
    1      -21.927246
    2      -18.558796
    3      -13.887293
    4       -9.999627
    5       -9.038001
    6       -6.733278
    7       -6.393355
    8       -6.231817
    9        0.485048
   10        0.881296
   11        1.685176
   12        2.076783
 
  0.2500000E+00  0.0000000E+00  0.0000000E+00  0.2314815E-02
    1      -21.814298
    2      -18.918618
    3      -13.365679
    4       -9.865702
    5       -8.927817
    6       -7.118920
    7       -6.593083
    8       -6.589560
    9        1.007332
   10        1.034902
   11        1.840397
   12        2.234160
 
  0.2916667E+00  0.0000000E+00  0.0000000E+00  0.2314815E-02
    1      -21.680999
    2      -19.262532
    3      -12.833087
    4       -9.707976
    5       -8.799062
    6       -7.548591
    7       -6.953987
    8       -6.801577
    9        1.216389
   10        1.553692
   11        2.023697
   12        2.420145
 
  0.3333333E+00  0.0000000E+00  0.0000000E+00  0.2314815E-02
    1      -21.527447
    2      -19.589367
    3      -12.292064
    4       -9.526757
    5       -8.652549
    6       -8.013995
    7       -7.307667
    8       -7.023377
    9        1.425716
   10        2.114510
   11        2.234962
   12        2.634733
 
  0.3750000E+00  0.0000000E+00  0.0000000E+00  0.2314815E-02
    1      -21.353754
    2      -19.898355
    3      -11.745066
    4       -9.322432
    5       -8.507619
    6       -8.489285
    7       -7.649511
    8       -7.249633
    9        1.662825
   10        2.474000
   11        2.681116
   12        2.877912
 
  0.4166667E+00  0.0000000E+00  0.0000000E+00  0.2314815E-02
    1      -21.160056
    2      -20.188941
    3      -11.194677
    4       -9.095486
    5       -9.022819
    6       -8.310508
    7       -7.976325
    8       -7.475764
    9        1.927640
   10        2.740420
   11        3.149667
   12        3.258101
 
  0.4583333E+00  0.0000000E+00  0.0000000E+00  0.2314815E-02
    1      -20.946514
    2      -20.460707
    3      -10.643758
    4       -9.553802
    5       -8.846522
    6       -8.285818
    7       -8.117727
    8       -7.697893
    9        2.220051
   10        2.886896
   11        3.033197
   12        3.449943
 
  0.5000000E+00  0.0000000E+00  0.0000000E+00  0.1157407E-02
    1      -20.713323
    2      -20.713323
    3      -10.095555
    4      -10.095555
    5       -8.576307
    6       -8.576307
    7       -7.912779
    8       -7.912779
    9        2.539894
   10        2.539894
   11        3.348050
   12        3.348050
 
  0.0000000E+00  0.2777778E-01  0.0000000E+00  0.2314815E-02
    1      -22.171061
    2      -16.880952
    3      -15.917221
    4      -10.289540
    5       -9.352622
    6       -5.930561
    7       -5.794641
    8       -5.010643
    9       -1.104103
   10        0.550267
   11        1.350457
   12        1.737733
 
  0.4166667E-01  0.2777778E-01  0.0000000E+00  0.4629630E-02
    1      -22.160761
    2      -17.057477
    3      -15.725583
    4      -10.277270
    5       -9.342320
    6       -5.958690
    7       -5.830580
    8       -5.078732
    9       -1.020611
   10        0.564235
   11        1.364589
   12        1.752040
 
  0.8333333E-01  0.2777778E-01  0.0000000E+00  0.4629630E-02
    1      -22.129866
    2      -17.406219
    3      -15.331587
    4      -10.240481
    5       -9.311463
    6       -6.047407
    7       -5.931262
    8       -5.267080
    9       -0.786229
   10        0.606141
   11        1.406981
   12        1.794961
 
  0.1250000E+00  0.2777778E-01  0.0000000E+00  0.4629630E-02
    1      -22.078396
    2      -17.789354
    3      -14.873334
    4      -10.179230
    5       -9.260200
    6       -6.212572
    7       -6.072850
    8       -5.540702
    9       -0.436466
   10        0.675985
   11        1.477621
   12        1.866497
 
  0.1666667E+00  0.2777778E-01  0.0000000E+00  0.4629630E-02
    1      -22.006386
    2      -18.172757
    3      -14.385417
    4      -10.093613
    5       -9.188782
    6       -6.461432
    7       -6.236100
    8       -5.865573
    9       -0.006232
   10        0.773765
   11        1.576489
   12        1.966648
 
  0.2083333E+00  0.2777778E-01  0.0000000E+00  0.4629630E-02
    1      -21.913884
    2      -18.546317
    3      -13.878619
    4       -9.983772
    5       -9.097574
    6       -6.780145
    7       -6.420368
    8       -6.216833
    9        0.478358
   10        0.899473
   11        1.703553
   12        2.095414
 
  0.2500000E+00  0.2777778E-01  0.0000000E+00  0.4629630E-02
    1      -21.800954
    2      -18.905998
    3      -13.357870
    4       -9.849894
    5       -8.987064
    6       -7.155240
    7       -6.623659
    8       -6.578154
    9        0.999325
   10        1.053091
   11        1.858765
   12        2.252794
 
  0.2916667E+00  0.2777778E-01  0.0000000E+00  0.4629630E-02
    1      -21.667678
    2      -19.249792
    3      -12.826316
    4       -9.692225
    5       -8.857881
    6       -7.576374
    7       -6.939049
    8       -6.841056
    9        1.234591
   10        1.544076
   11        2.042055
   12        2.438783
 
  0.3333333E+00  0.2777778E-01  0.0000000E+00  0.4629630E-02
    1      -21.514151
    2      -19.576523
    3      -12.286545
    4       -9.511071
    5       -8.710813
    6       -8.034715
    7       -7.292676
    8       -7.067133
    9        1.443932
   10        2.103065
   11        2.253313
   12        2.653375
 
  0.3750000E+00  0.2777778E-01  0.0000000E+00  0.4629630E-02
    1      -21.340489
    2      -19.885420
    3      -11.741057
    4       -9.306820
    5       -8.546838
    6       -8.522482
    7       -7.634444
    8       -7.296840
    9        1.681057
   10        2.492348
   11        2.667803
   12        2.896560
 
  0.4166667E+00  0.2777778E-01  0.0000000E+00  0.4629630E-02
    1      -21.146827
    2      -20.175929
    3      -11.192498
    4       -9.079954
    5       -9.032839
    6       -8.367154
    7       -7.961167
    8       -7.525763
    9        1.945892
   10        2.758776
   11        3.168320
   12        3.226028
 
  0.4583333E+00  0.2777778E-01  0.0000000E+00  0.4629630E-02
    1      -20.933327
    2      -20.447628
    3      -10.643801
    4       -9.559830
    5       -8.831079
    6       -8.270565
    7       -8.173226
    8       -7.750143
    9        2.238329
   10        2.905286
   11        3.051587
   12        3.468625
 
  0.5000000E+00  0.2777778E-01  0.0000000E+00  0.2314815E-02
    1      -20.700186
    2      -20.700186
    3      -10.098299
    4      -10.098299
    5       -8.560957
    6       -8.560957
    7       -7.966835
    8       -7.966835
    9        2.558212
   10        2.558212
   11        3.366439
   12        3.366439
 
  0.0000000E+00  0.5555556E-01  0.0000000E+00  0.2314815E-02
    1      -22.130876
    2      -16.846391
    3      -15.884057
    4      -10.241682
    5       -9.528341
    6       -6.092485
    7       -5.886955
    8       -4.961850
    9       -1.119490
   10        0.604730
   11        1.405652
   12        1.793613
 
  0.4166667E-01  0.5555556E-01  0.0000000E+00  0.4629630E-02
    1      -22.120580
    2      -17.022481
    3      -15.693024
    4      -10.229426
    5       -9.517967
    6       -6.127867
    7       -5.913603
    8       -5.030428
    9       -1.035888
   10        0.618701
   11        1.419781
   12        1.807920
 
  0.8333333E-01  0.5555556E-01  0.0000000E+00  0.4629630E-02
    1      -22.089698
    2      -17.370518
    3      -15.300249
    4      -10.192676
    5       -9.486890
    6       -6.232383
    7       -5.992725
    8       -5.219878
    9       -0.801539
   10        0.660612
   11        1.462164
   12        1.850842
 
  0.1250000E+00  0.5555556E-01  0.0000000E+00  0.4629630E-02
    1      -22.038250
    2      -17.753001
    3      -14.843531
    4      -10.131491
    5       -9.435244
    6       -6.402618
    7       -6.120681
    8       -5.494610
    9       -0.452565
   10        0.730467
   11        1.532789
   12        1.922381
 
  0.1666667E+00  0.5555556E-01  0.0000000E+00  0.4629630E-02
    1      -21.966272
    2      -18.135834
    3      -14.357467
    4      -10.045966
    5       -9.363257
    6       -6.635336
    7       -6.289897
    8       -5.820279
    9       -0.024198
   10        0.828264
   11        1.631636
   12        2.022536
 
  0.2083333E+00  0.5555556E-01  0.0000000E+00  0.4629630E-02
    1      -21.873812
    2      -18.508902
    3      -13.852895
    4       -9.936244
    5       -9.271258
    6       -6.927269
    7       -6.490273
    8       -6.171984
    9        0.457409
   10        0.953995
   11        1.758674
   12        2.151307
 
  0.2500000E+00  0.5555556E-01  0.0000000E+00  0.4629630E-02
    1      -21.760935
    2      -18.868160
    3      -13.334823
    4       -9.802512
    5       -9.159685
    6       -7.273789
    7       -6.711810
    8       -6.533469
    9        0.974360
   10        1.107642
   11        1.913856
   12        2.308693
 
  0.2916667E+00  0.5555556E-01  0.0000000E+00  0.4629630E-02
    1      -21.627725
    2      -19.211588
    3      -12.806497
    4       -9.645014
    5       -9.029101
    6       -7.668489
    7       -6.946168
    8       -6.894329
    9        1.289174
   10        1.514199
   11        2.097115
   12        2.494691
 
  0.3333333E+00  0.5555556E-01  0.0000000E+00  0.4629630E-02
    1      -21.474276
    2      -19.538005
    3      -12.270634
    4       -9.464058
    5       -8.880213
    6       -8.103899
    7       -7.247795
    8       -7.186793
    9        1.498552
   10        2.067584
   11        2.308346
   12        2.709295
 
  0.3750000E+00  0.5555556E-01  0.0000000E+00  0.4629630E-02
    1      -21.300706
    2      -19.846631
    3      -11.729894
    4       -9.260031
    5       -8.713890
    6       -8.572406
    7       -7.589325
    8       -7.428509
    9        1.735719
   10        2.547370
   11        2.626501
   12        2.952496
 
  0.4166667E+00  0.5555556E-01  0.0000000E+00  0.4629630E-02
    1      -21.107153
    2      -20.136907
    3      -11.187122
    4       -9.066857
    5       -9.033412
    6       -8.531198
    7       -7.915769
    8       -7.667146
    9        2.000602
   10        2.813824
   11        3.180919
   12        3.224278
 
  0.4583333E+00  0.5555556E-01  0.0000000E+00  0.4629630E-02
    1      -20.893781
    2      -20.408405
    3      -10.645498
    4       -9.580821
    5       -8.784806
    6       -8.333431
    7       -8.224872
    8       -7.899298
    9        2.293101
   10        2.960317
   11        3.106740
   12        3.524877
 
  0.5000000E+00  0.5555556E-01  0.0000000E+00  0.2314815E-02
    1      -20.660788
    2      -20.660788
    3      -10.108662
    4      -10.108662
    5       -8.514969
    6       -8.514969
    7       -8.122163
    8       -8.122163
    9        2.613077
   10        2.613077
   11        3.421588
   12        3.421588
 
  0.0000000E+00  0.8333333E-01  0.0000000E+00  0.2314815E-02
    1      -22.063941
    2      -16.788802
    3      -15.829396
    4      -10.162030
    5       -9.806307
    6       -6.349112
    7       -6.038029
    8       -4.880596
    9       -1.147845
   10        0.695522
   11        1.497620
   12        1.886750
 
  0.4166667E-01  0.8333333E-01  0.0000000E+00  0.4629630E-02
    1      -22.053652
    2      -16.964214
    3      -15.639342
    4      -10.149796
    5       -9.795794
    6       -6.389739
    7       -6.056205
    8       -4.950038
    9       -1.064027
   10        0.709493
   11        1.511744
   12        1.901057
 
  0.8333333E-01  0.8333333E-01  0.0000000E+00  0.4629630E-02
    1      -22.022792
    2      -17.311105
    3      -15.248628
    4      -10.113114
    5       -9.764289
    6       -6.504509
    7       -6.115912
    8       -5.141430
    9       -0.829689
   10        0.751409
   11        1.554110
   12        1.943980
 
  0.1250000E+00  0.8333333E-01  0.0000000E+00  0.4629630E-02
    1      -21.971381
    2      -17.692504
    3      -14.794563
    4      -10.052041
    5       -9.711899
    6       -6.680264
    7       -6.224637
    8       -5.418093
    9       -0.482042
   10        0.821272
   11        1.624707
   12        2.015521
 
  0.1666667E+00  0.8333333E-01  0.0000000E+00  0.4629630E-02
    1      -21.899457
    2      -18.074382
    3      -14.311739
    4       -9.966675
    5       -9.638802
    6       -6.906800
    7       -6.383573
    8       -5.745132
    9       -0.056874
   10        0.919084
   11        1.723515
   12        2.115679
 
  0.2083333E+00  0.8333333E-01  0.0000000E+00  0.4629630E-02
    1      -21.807068
    2      -18.446623
    3      -13.811098
    4       -9.857156
    5       -9.545254
    6       -7.178288
    7       -6.586948
    8       -6.097590
    9        0.419607
   10        1.044839
   11        1.850504
   12        2.244457
 
  0.2500000E+00  0.8333333E-01  0.0000000E+00  0.4629630E-02
    1      -21.694280
    2      -18.805168
    3      -13.297797
    4       -9.723673
    5       -9.431590
    6       -7.492222
    7       -6.824024
    8       -6.459337
    9        0.929663
   10        1.198517
   11        2.005630
   12        2.401852
 
  0.2916667E+00  0.8333333E-01  0.0000000E+00  0.4629630E-02
    1      -21.561178
    2      -19.147982
    3      -12.775283
    4       -9.566471
    5       -9.298237
    6       -7.847680
    7       -7.081865
    8       -6.820121
    9        1.380089
   10        1.461061
   11        2.188828
   12        2.587861
 
  0.3333333E+00  0.8333333E-01  0.0000000E+00  0.4629630E-02
    1      -21.407860
    2      -19.473869
    3      -12.246532
    4       -9.385856
    5       -9.145717
    6       -8.243188
    7       -7.348364
    8       -7.173294
    9        1.589510
   10        2.004768
   11        2.400003
   12        2.802480
 
  0.3750000E+00  0.8333333E-01  0.0000000E+00  0.4629630E-02
    1      -21.234444
    2      -19.782039
    3      -11.714535
    4       -9.182213
    5       -8.974660
    6       -8.675302
    7       -7.614288
    8       -7.514404
    9        1.826725
   10        2.553370
   11        2.638995
   12        3.045700
 
  0.4166667E+00  0.8333333E-01  0.0000000E+00  0.4629630E-02
    1      -21.041074
    2      -20.071923
    3      -11.182564
    4       -9.138676
    5       -8.956021
    6       -8.785818
    7       -7.873570
    8       -7.840361
    9        2.091661
   10        2.905488
   11        3.099213
   12        3.317510
 
  0.4583333E+00  0.8333333E-01  0.0000000E+00  0.4629630E-02
    1      -20.827917
    2      -20.343082
    3      -10.654340
    4       -9.627046
    5       -8.707878
    6       -8.580084
    7       -8.148950
    8       -8.122454
    9        2.384224
   10        3.051690
   11        3.198599
   12        3.613856
 
  0.5000000E+00  0.8333333E-01  0.0000000E+00  0.2314815E-02
    1      -20.595174
    2      -20.595174
    3      -10.134169
    4      -10.134169
    5       -8.438535
    6       -8.438535
    7       -8.358526
    8       -8.358526
    9        2.704293
   10        2.704293
   11        3.513420
   12        3.513421
 
  0.0000000E+00  0.1111111E+00  0.0000000E+00  0.2314815E-02
    1      -21.970318
    2      -16.708206
    3      -15.754286
    4      -10.167969
    5      -10.050752
    6       -6.684277
    7       -6.243917
    8       -4.766980
    9       -1.193171
   10        0.822663
   11        1.626324
   12        2.017148
 
  0.4166667E-01  0.1111111E+00  0.0000000E+00  0.4629630E-02
    1      -21.960039
    2      -16.882772
    3      -15.565541
    4      -10.157214
    5      -10.038551
    6       -6.728807
    7       -6.254009
    8       -4.837753
    9       -1.108970
   10        0.836632
   11        1.640438
   12        2.031455
 
  0.8333333E-01  0.1111111E+00  0.0000000E+00  0.4629630E-02
    1      -21.929210
    2      -17.228126
    3      -15.177782
    4      -10.124968
    5      -10.001968
    6       -6.851610
    7       -6.293740
    8       -5.032097
    9       -0.874523
   10        0.878541
   11        1.682777
   12        2.074378
 
  0.1250000E+00  0.1111111E+00  0.0000000E+00  0.4629630E-02
    1      -21.877853
    2      -17.608011
    3      -14.727666
    4      -10.071282
    5       -9.941059
    6       -7.033327
    7       -6.378419
    8       -5.311649
    9       -0.528731
   10        0.948399
   11        1.753328
   12        2.145918
 
  0.1666667E+00  0.1111111E+00  0.0000000E+00  0.4629630E-02
    1      -21.806003
    2      -17.988541
    3      -14.249766
    4       -9.996243
    5       -9.855924
    6       -7.259171
    7       -6.516041
    8       -5.640697
    9       -0.108199
   10        1.046211
   11        1.852073
   12        2.246078
 
  0.2083333E+00  0.1111111E+00  0.0000000E+00  0.4629630E-02
    1      -21.713713
    2      -18.359606
    3      -13.755191
    4       -9.899964
    5       -9.746703
    6       -7.520030
    7       -6.706371
    8       -5.994226
    9        0.360824
   10        1.171974
   11        1.978980
   12        2.374859
 
  0.2500000E+00  0.1111111E+00  0.0000000E+00  0.4629630E-02
    1      -21.601052
    2      -18.717136
    3      -13.249370
    4       -9.782580
    5       -9.613585
    6       -7.811069
    7       -6.942886
    8       -6.356316
    9        0.860854
   10        1.325671
   11        2.134007
   12        2.532262
 
  0.2916667E+00  0.1111111E+00  0.0000000E+00  0.4629630E-02
    1      -21.468102
    2      -19.059075
    3      -12.736121
    4       -9.644234
    5       -9.456815
    6       -8.130852
    7       -7.214465
    8       -6.716948
    9        1.379991
   10        1.507270
   11        2.317096
   12        2.718282
 
  0.3333333E+00  0.1111111E+00  0.0000000E+00  0.4629630E-02
    1      -21.314968
    2      -19.384210
    3      -12.218916
    4       -9.485064
    5       -9.276700
    6       -8.480457
    7       -7.507158
    8       -7.069658
    9        1.716724
   10        1.909594
   11        2.528161
   12        2.932915
 
  0.3750000E+00  0.1111111E+00  0.0000000E+00  0.4629630E-02
    1      -21.141771
    2      -19.691732
    3      -11.701405
    4       -9.305178
    5       -9.073622
    6       -8.861905
    7       -7.806514
    8       -7.410123
    9        1.953974
   10        2.442843
   11        2.767073
   12        3.176153
 
  0.4166667E+00  0.1111111E+00  0.0000000E+00  0.4629630E-02
    1      -20.948658
    2      -19.981058
    3      -11.187708
    4       -9.275994
    5       -9.104642
    6       -8.848058
    7       -8.100271
    8       -7.735344
    9        2.218945
   10        2.973714
   11        3.033587
   12        3.447988
 
  0.4583333E+00  0.1111111E+00  0.0000000E+00  0.4629630E-02
    1      -20.735805
    2      -20.251738
    3      -10.682606
    4       -9.720757
    5       -8.883486
    6       -8.600599
    7       -8.380155
    8       -8.043165
    9        2.511546
   10        3.179136
   11        3.327014
   12        3.493775
 
  0.5000000E+00  0.1111111E+00  0.0000000E+00  0.2314815E-02
    1      -20.503417
    2      -20.503417
    3      -10.191606
    4      -10.191606
    5       -8.641815
    6       -8.641815
    7       -8.331988
    8       -8.331988
    9        2.831661
   10        2.831661
   11        3.641571
   12        3.641571
 
  0.0000000E+00  0.1388889E+00  0.0000000E+00  0.2314815E-02
    1      -21.850096
    2      -16.604632
    3      -15.660514
    4      -10.592743
    5       -9.908093
    6       -7.080692
    7       -6.499519
    8       -4.621146
    9       -1.260884
   10        0.986165
   11        1.791706
   12        2.184812
 
  0.4166667E-01  0.1388889E+00  0.0000000E+00  0.4629630E-02
    1      -21.839831
    2      -16.778314
    3      -15.473345
    4      -10.581581
    5       -9.895937
    6       -7.128519
    7       -6.501451
    8       -4.693871
    9       -1.176007
   10        1.000126
   11        1.805806
   12        2.199118
 
  0.8333333E-01  0.1388889E+00  0.0000000E+00  0.4629630E-02
    1      -21.809042
    2      -17.121812
    3      -15.089558
    4      -10.548079
    5       -9.859487
    6       -7.258515
    7       -6.519994
    8       -4.892476
    9       -0.941125
   10        1.042016
   11        1.848101
   12        2.242038
 
  0.1250000E+00  0.1388889E+00  0.0000000E+00  0.4629630E-02
    1      -21.757753
    2      -17.499760
    3      -14.645043
    4      -10.492187
    5       -9.798802
    6       -7.446705
    7       -6.576742
    8       -5.176087
    9       -0.597641
   10        1.111846
   11        1.918580
   12        2.313574
 
  0.1666667E+00  0.1388889E+00  0.0000000E+00  0.4629630E-02
    1      -21.686002
    2      -17.878527
    3      -14.174334
    4      -10.413810
    5       -9.713981
    6       -7.674996
    7       -6.685354
    8       -5.507872
    9       -0.183265
   10        1.209629
   11        2.017220
   12        2.413730
 
  0.2083333E+00  0.1388889E+00  0.0000000E+00  0.4629630E-02
    1      -21.593842
    2      -18.248046
    3      -13.688837
    4      -10.312775
    5       -9.605165
    6       -7.932019
    7       -6.850419
    8       -5.862797
    9        0.275779
   10        1.335370
   11        2.143991
   12        2.542511
 
  0.2500000E+00  0.1388889E+00  0.0000000E+00  0.4629630E-02
    1      -21.481342
    2      -18.604238
    3      -13.194480
    4      -10.188800
    5       -9.472546
    6       -8.210902
    7       -7.069746
    8       -6.225272
    9        0.762423
   10        1.489055
   11        2.298849
   12        2.699915
 
  0.2916667E+00  0.1388889E+00  0.0000000E+00  0.4629630E-02
    1      -21.348591
    2      -18.945025
    3      -12.695797
    4      -10.041434
    5       -9.316367
    6       -8.508048
    7       -7.336088
    8       -6.585616
    9        1.265252
   10        1.670654
   11        2.481737
   12        2.885942
 
  0.3333333E+00  0.1388889E+00  0.0000000E+00  0.4629630E-02
    1      -21.195695
    2      -19.269170
    3      -12.197240
    4       -9.869985
    5       -9.136936
    6       -8.822706
    7       -7.638373
    8       -6.937624
    9        1.776126
   10        1.880115
   11        2.692579
   12        3.100586
 
  0.3750000E+00  0.1388889E+00  0.0000000E+00  0.4629630E-02
    1      -21.022782
    2      -19.575840
    3      -11.703740
    4       -9.673462
    5       -9.156739
    6       -8.934634
    7       -7.962773
    8       -7.277154
    9        2.117373
   10        2.288808
   11        2.931273
   12        3.343840
 
  0.4166667E+00  0.1388889E+00  0.0000000E+00  0.4629630E-02
    1      -20.830007
    2      -19.864434
    3      -11.220973
    4       -9.513992
    5       -9.450595
    6       -8.709934
    7       -8.294021
    8       -7.601327
    9        2.382347
   10        2.798191
   11        3.197669
   12        3.615693
 
  0.4583333E+00  0.1388889E+00  0.0000000E+00  0.4629630E-02
    1      -20.617549
    2      -20.134486
    3      -10.755274
    4       -9.898666
    5       -9.200128
    6       -8.617470
    7       -8.463421
    8       -7.908066
    9        2.674940
   10        3.299772
   11        3.342486
   12        3.491457
 
  0.5000000E+00  0.1388889E+00  0.0000000E+00  0.2314815E-02
    1      -20.385624
    2      -20.385624
    3      -10.312924
    4      -10.312924
    5       -8.921693
    6       -8.921693
    7       -8.195825
    8       -8.195825
    9        2.995035
   10        2.995035
   11        3.777358
   12        3.777366
 
  0.0000000E+00  0.1666667E+00  0.0000000E+00  0.2314815E-02
    1      -21.703395
    2      -16.478120
    3      -15.551087
    4      -11.060012
    5       -9.734378
    6       -7.522213
    7       -6.798929
    8       -4.443286
    9       -1.357479
   10        1.186025
   11        1.993688
   12        2.389745
 
  0.4166667E-01  0.1666667E+00  0.0000000E+00  0.4629630E-02
    1      -21.693146
    2      -16.651085
    3      -15.365681
    4      -11.048152
    5       -9.722280
    6       -7.573111
    7       -6.792519
    8       -4.518855
    9       -1.271386
   10        1.199974
   11        2.007765
   12        2.404049
 
  0.8333333E-01  0.1666667E+00  0.0000000E+00  0.4629630E-02
    1      -21.662409
    2      -16.992526
    3      -14.987165
    4      -11.012490
    5       -9.686006
    6       -7.710052
    7       -6.788842
    8       -4.723513
    9       -1.035327
   10        1.241828
   11        2.049991
   12        2.446963
 
  0.1250000E+00  0.1666667E+00  0.0000000E+00  0.4629630E-02
    1      -21.611205
    2      -17.368111
    3      -14.550632
    4      -10.952766
    5       -9.625614
    6       -7.905193
    7       -6.814885
    8       -5.012679
    9       -0.694384
   10        1.311603
   11        2.120351
   12        2.518489
 
  0.1666667E+00  0.1666667E+00  0.0000000E+00  0.4629630E-02
    1      -21.539574
    2      -17.744667
    3      -14.090591
    4      -10.868499
    5       -9.541206
    6       -8.137820
    7       -6.889211
    8       -5.348043
    9       -0.287679
   10        1.409321
   11        2.218818
   12        2.618635
 
  0.2083333E+00  0.1666667E+00  0.0000000E+00  0.4629630E-02
    1      -21.447572
    2      -18.112232
    3      -13.619020
    4      -10.758911
    5       -9.432924
    6       -8.395040
    7       -7.020579
    8       -5.704671
    9        0.158766
   10        1.534995
   11        2.345354
   12        2.747405
 
  0.2500000E+00  0.1666667E+00  0.0000000E+00  0.4629630E-02
    1      -21.335273
    2      -18.466728
    3      -13.142847
    4      -10.622814
    5       -9.300960
    6       -8.668793
    7       -7.210551
    8       -6.067492
    9        0.628569
   10        1.688622
   11        2.499904
   12        2.904803
 
  0.2916667E+00  0.1666667E+00  0.0000000E+00  0.4629630E-02
    1      -21.202768
    2      -18.806057
    3      -12.668037
    4      -10.458477
    5       -9.145562
    6       -8.954100
    7       -7.455357
    8       -6.427306
    9        1.111042
   10        1.870176
   11        2.682393
   12        3.090829
 
  0.3333333E+00  0.1666667E+00  0.0000000E+00  0.4629630E-02
    1      -21.050168
    2      -19.128949
    3      -12.200901
    4      -10.263543
    5       -9.248346
    6       -8.967037
    7       -7.747216
    8       -6.778262
    9        1.598736
   10        2.079603
   11        2.892721
   12        3.305478
 
  0.3750000E+00  0.1666667E+00  0.0000000E+00  0.4629630E-02
    1      -20.877609
    2      -19.434545
    3      -11.748427
    4      -10.035199
    5       -9.551103
    6       -8.765766
    7       -8.075348
    8       -7.116459
    9        2.086082
   10        2.316831
   11        3.130734
   12        3.548742
 
  0.4166667E+00  0.1666667E+00  0.0000000E+00  0.4629630E-02
    1      -20.685254
    2      -19.722218
    3      -11.317724
    4       -9.864228
    5       -9.771026
    6       -8.542218
    7       -8.426700
    8       -7.439173
    9        2.568650
   10        2.581766
   11        3.396145
   12        3.820609
 
  0.4583333E+00  0.1666667E+00  0.0000000E+00  0.4629630E-02
    1      -20.473291
    2      -19.991481
    3      -10.914332
    4      -10.191896
    5       -9.470892
    6       -8.786525
    7       -8.296971
    8       -7.744428
    9        2.874302
   10        3.042669
   11        3.541636
   12        3.687083
 
  0.5000000E+00  0.1666667E+00  0.0000000E+00  0.2314815E-02
    1      -20.241945
    2      -20.241945
    3      -10.540008
    4      -10.540008
    5       -9.139330
    6       -9.139330
    7       -8.030742
    8       -8.030742
    9        3.194309
   10        3.194309
   11        3.504260
   12        3.504260
 