<?xml version="1.0" encoding="ISO-8859-1"?>
<modeling>
 <generator>
  <i name="program" type="string">vasp </i>
  <i name="version" type="string">5.3.5  </i>
  <i name="subversion" type="string">31Mar14 (build Mar 02 2015 18:14:16) complex                          parallel </i>
  <i name="platform" type="string">LinuxIFC </i>
  <i name="date" type="string">2018 08 09 </i>
  <i name="time" type="string">19:24:45 </i>
 </generator>
 <incar>
  <i type="string" name="SYSTEM">  gr</i>
  <i type="string" name="PREC">accurate : accuracy</i>
  <i type="string" name="ALGO"> FAST.</i>
  <i type="int" name="NELM">   100</i>
  <i type="int" name="NELMDL">    -3</i>
  <i type="int" name="NELMIN">     5</i>
  <i type="int" name="IBRION">     1</i>
  <i name="EDIFF">      0.00000000</i>
  <i name="EDIFFG">     -0.00000100</i>
  <i type="int" name="NSW">   400</i>
  <i type="int" name="ISIF">     2</i>
  <i name="ENCUT">   2000.00000000</i>
  <i type="int" name="ISMEAR">     0</i>
  <i name="SIGMA">      0.05000000</i>
  <i type="int" name="NWRITE">     2</i>
  <i type="logical" name="LWAVE"> F  </i>
  <i type="logical" name="LCHARG"> F  </i>
  <i type="int" name="NELM">   100</i>
 </incar>
 <kpoints>
  <generation param="Gamma">
   <v type="int" name="divisions">      24       36        1 </v>
   <v name="usershift">      0.00000000       0.00000000       0.00000000 </v>
   <v name="genvec1">      0.04166667       0.00000000       0.00000000 </v>
   <v name="genvec2">      0.00000000       0.02777778       0.00000000 </v>
   <v name="genvec3">      0.00000000       0.00000000       1.00000000 </v>
   <v name="shift">      0.00000000       0.00000000       0.00000000 </v>
  </generation>
  <varray name="kpointlist" >
   <v>       0.00000000       0.00000000       0.00000000 </v>
   <v>       0.04166667       0.00000000       0.00000000 </v>
   <v>       0.08333333       0.00000000       0.00000000 </v>
   <v>       0.12500000       0.00000000       0.00000000 </v>
   <v>       0.16666667       0.00000000       0.00000000 </v>
   <v>       0.20833333       0.00000000       0.00000000 </v>
   <v>       0.25000000       0.00000000       0.00000000 </v>
   <v>       0.29166667       0.00000000       0.00000000 </v>
   <v>       0.33333333       0.00000000       0.00000000 </v>
   <v>       0.37500000       0.00000000       0.00000000 </v>
   <v>       0.41666667       0.00000000       0.00000000 </v>
   <v>       0.45833333       0.00000000       0.00000000 </v>
   <v>       0.50000000       0.00000000       0.00000000 </v>
   <v>       0.00000000       0.02777778       0.00000000 </v>
   <v>       0.04166667       0.02777778       0.00000000 </v>
   <v>       0.08333333       0.02777778       0.00000000 </v>
   <v>       0.12500000       0.02777778       0.00000000 </v>
   <v>       0.16666667       0.02777778       0.00000000 </v>
   <v>       0.20833333       0.02777778       0.00000000 </v>
   <v>       0.25000000       0.02777778       0.00000000 </v>
   <v>       0.29166667       0.02777778       0.00000000 </v>
   <v>       0.33333333       0.02777778       0.00000000 </v>
   <v>       0.37500000       0.02777778       0.00000000 </v>
   <v>       0.41666667       0.02777778       0.00000000 </v>
   <v>       0.45833333       0.02777778       0.00000000 </v>
   <v>       0.50000000       0.02777778       0.00000000 </v>
   <v>       0.00000000       0.05555556       0.00000000 </v>
   <v>       0.04166667       0.05555556       0.00000000 </v>
   <v>       0.08333333       0.05555556       0.00000000 </v>
   <v>       0.12500000       0.05555556       0.00000000 </v>
   <v>       0.16666667       0.05555556       0.00000000 </v>
   <v>       0.20833333       0.05555556       0.00000000 </v>
   <v>       0.25000000       0.05555556       0.00000000 </v>
   <v>       0.29166667       0.05555556       0.00000000 </v>
   <v>       0.33333333       0.05555556       0.00000000 </v>
   <v>       0.37500000       0.05555556       0.00000000 </v>
   <v>       0.41666667       0.05555556       0.00000000 </v>
   <v>       0.45833333       0.05555556       0.00000000 </v>
   <v>       0.50000000       0.05555556       0.00000000 </v>
   <v>       0.00000000       0.08333333       0.00000000 </v>
   <v>       0.04166667       0.08333333       0.00000000 </v>
   <v>       0.08333333       0.08333333       0.00000000 </v>
   <v>       0.12500000       0.08333333       0.00000000 </v>
   <v>       0.16666667       0.08333333       0.00000000 </v>
   <v>       0.20833333       0.08333333       0.00000000 </v>
   <v>       0.25000000       0.08333333       0.00000000 </v>
   <v>       0.29166667       0.08333333       0.00000000 </v>
   <v>       0.33333333       0.08333333       0.00000000 </v>
   <v>       0.37500000       0.08333333       0.00000000 </v>
   <v>       0.41666667       0.08333333       0.00000000 </v>
   <v>       0.45833333       0.08333333       0.00000000 </v>
   <v>       0.50000000       0.08333333       0.00000000 </v>
   <v>       0.00000000       0.11111111       0.00000000 </v>
   <v>       0.04166667       0.11111111       0.00000000 </v>
   <v>       0.08333333       0.11111111       0.00000000 </v>
   <v>       0.12500000       0.11111111       0.00000000 </v>
   <v>       0.16666667       0.11111111       0.00000000 </v>
   <v>       0.20833333       0.11111111       0.00000000 </v>
   <v>       0.25000000       0.11111111       0.00000000 </v>
   <v>       0.29166667       0.11111111       0.00000000 </v>
   <v>       0.33333333       0.11111111       0.00000000 </v>
   <v>       0.37500000       0.11111111       0.00000000 </v>
   <v>       0.41666667       0.11111111       0.00000000 </v>
   <v>       0.45833333       0.11111111       0.00000000 </v>
   <v>       0.50000000       0.11111111       0.00000000 </v>
   <v>       0.00000000       0.13888889       0.00000000 </v>
   <v>       0.04166667       0.13888889       0.00000000 </v>
   <v>       0.08333333       0.13888889       0.00000000 </v>
   <v>       0.12500000       0.13888889       0.00000000 </v>
   <v>       0.16666667       0.13888889       0.00000000 </v>
   <v>       0.20833333       0.13888889       0.00000000 </v>
   <v>       0.25000000       0.13888889       0.00000000 </v>
   <v>       0.29166667       0.13888889       0.00000000 </v>
   <v>       0.33333333       0.13888889       0.00000000 </v>
   <v>       0.37500000       0.13888889       0.00000000 </v>
   <v>       0.41666667       0.13888889       0.00000000 </v>
   <v>       0.45833333       0.13888889       0.00000000 </v>
   <v>       0.50000000       0.13888889       0.00000000 </v>
   <v>       0.00000000       0.16666667       0.00000000 </v>
   <v>       0.04166667       0.16666667       0.00000000 </v>
   <v>       0.08333333       0.16666667       0.00000000 </v>
   <v>       0.12500000       0.16666667       0.00000000 </v>
   <v>       0.16666667       0.16666667       0.00000000 </v>
   <v>       0.20833333       0.16666667       0.00000000 </v>
   <v>       0.25000000       0.16666667       0.00000000 </v>
   <v>       0.29166667       0.16666667       0.00000000 </v>
   <v>       0.33333333       0.16666667       0.00000000 </v>
   <v>       0.37500000       0.16666667       0.00000000 </v>
   <v>       0.41666667       0.16666667       0.00000000 </v>
   <v>       0.45833333       0.16666667       0.00000000 </v>
   <v>       0.50000000       0.16666667       0.00000000 </v>
   <v>       0.00000000       0.19444444       0.00000000 </v>
   <v>       0.04166667       0.19444444       0.00000000 </v>
   <v>       0.08333333       0.19444444       0.00000000 </v>
   <v>       0.12500000       0.19444444       0.00000000 </v>
   <v>       0.16666667       0.19444444       0.00000000 </v>
   <v>       0.20833333       0.19444444       0.00000000 </v>
   <v>       0.25000000       0.19444444       0.00000000 </v>
   <v>       0.29166667       0.19444444       0.00000000 </v>
   <v>       0.33333333       0.19444444       0.00000000 </v>
   <v>       0.37500000       0.19444444       0.00000000 </v>
   <v>       0.41666667       0.19444444       0.00000000 </v>
   <v>       0.45833333       0.19444444       0.00000000 </v>
   <v>       0.50000000       0.19444444       0.00000000 </v>
   <v>       0.00000000       0.22222222       0.00000000 </v>
   <v>       0.04166667       0.22222222       0.00000000 </v>
   <v>       0.08333333       0.22222222       0.00000000 </v>
   <v>       0.12500000       0.22222222       0.00000000 </v>
   <v>       0.16666667       0.22222222       0.00000000 </v>
   <v>       0.20833333       0.22222222       0.00000000 </v>
   <v>       0.25000000       0.22222222       0.00000000 </v>
   <v>       0.29166667       0.22222222       0.00000000 </v>
   <v>       0.33333333       0.22222222       0.00000000 </v>
   <v>       0.37500000       0.22222222       0.00000000 </v>
   <v>       0.41666667       0.22222222       0.00000000 </v>
   <v>       0.45833333       0.22222222       0.00000000 </v>
   <v>       0.50000000       0.22222222       0.00000000 </v>
   <v>       0.00000000       0.25000000       0.00000000 </v>
   <v>       0.04166667       0.25000000       0.00000000 </v>
   <v>       0.08333333       0.25000000       0.00000000 </v>
   <v>       0.12500000       0.25000000       0.00000000 </v>
   <v>       0.16666667       0.25000000       0.00000000 </v>
   <v>       0.20833333       0.25000000       0.00000000 </v>
   <v>       0.25000000       0.25000000       0.00000000 </v>
   <v>       0.29166667       0.25000000       0.00000000 </v>
   <v>       0.33333333       0.25000000       0.00000000 </v>
   <v>       0.37500000       0.25000000       0.00000000 </v>
   <v>       0.41666667       0.25000000       0.00000000 </v>
   <v>       0.45833333       0.25000000       0.00000000 </v>
   <v>       0.50000000       0.25000000       0.00000000 </v>
   <v>       0.00000000       0.27777778       0.00000000 </v>
   <v>       0.04166667       0.27777778       0.00000000 </v>
   <v>       0.08333333       0.27777778       0.00000000 </v>
   <v>       0.12500000       0.27777778       0.00000000 </v>
   <v>       0.16666667       0.27777778       0.00000000 </v>
   <v>       0.20833333       0.27777778       0.00000000 </v>
   <v>       0.25000000       0.27777778       0.00000000 </v>
   <v>       0.29166667       0.27777778       0.00000000 </v>
   <v>       0.33333333       0.27777778       0.00000000 </v>
   <v>       0.37500000       0.27777778       0.00000000 </v>
   <v>       0.41666667       0.27777778       0.00000000 </v>
   <v>       0.45833333       0.27777778       0.00000000 </v>
   <v>       0.50000000       0.27777778       0.00000000 </v>
   <v>       0.00000000       0.30555556       0.00000000 </v>
   <v>       0.04166667       0.30555556       0.00000000 </v>
   <v>       0.08333333       0.30555556       0.00000000 </v>
   <v>       0.12500000       0.30555556       0.00000000 </v>
   <v>       0.16666667       0.30555556       0.00000000 </v>
   <v>       0.20833333       0.30555556       0.00000000 </v>
   <v>       0.25000000       0.30555556       0.00000000 </v>
   <v>       0.29166667       0.30555556       0.00000000 </v>
   <v>       0.33333333       0.30555556       0.00000000 </v>
   <v>       0.37500000       0.30555556       0.00000000 </v>
   <v>       0.41666667       0.30555556       0.00000000 </v>
   <v>       0.45833333       0.30555556       0.00000000 </v>
   <v>       0.50000000       0.30555556       0.00000000 </v>
   <v>       0.00000000       0.33333333       0.00000000 </v>
   <v>       0.04166667       0.33333333       0.00000000 </v>
   <v>       0.08333333       0.33333333       0.00000000 </v>
   <v>       0.12500000       0.33333333       0.00000000 </v>
   <v>       0.16666667       0.33333333       0.00000000 </v>
   <v>       0.20833333       0.33333333       0.00000000 </v>
   <v>       0.25000000       0.33333333       0.00000000 </v>
   <v>       0.29166667       0.33333333       0.00000000 </v>
   <v>       0.33333333       0.33333333       0.00000000 </v>
   <v>       0.37500000       0.33333333       0.00000000 </v>
   <v>       0.41666667       0.33333333       0.00000000 </v>
   <v>       0.45833333       0.33333333       0.00000000 </v>
   <v>       0.50000000       0.33333333       0.00000000 </v>
   <v>       0.00000000       0.36111111       0.00000000 </v>
   <v>       0.04166667       0.36111111       0.00000000 </v>
   <v>       0.08333333       0.36111111       0.00000000 </v>
   <v>       0.12500000       0.36111111       0.00000000 </v>
   <v>       0.16666667       0.36111111       0.00000000 </v>
   <v>       0.20833333       0.36111111       0.00000000 </v>
   <v>       0.25000000       0.36111111       0.00000000 </v>
   <v>       0.29166667       0.36111111       0.00000000 </v>
   <v>       0.33333333       0.36111111       0.00000000 </v>
   <v>       0.37500000       0.36111111       0.00000000 </v>
   <v>       0.41666667       0.36111111       0.00000000 </v>
   <v>       0.45833333       0.36111111       0.00000000 </v>
   <v>       0.50000000       0.36111111       0.00000000 </v>
   <v>       0.00000000       0.38888889       0.00000000 </v>
   <v>       0.04166667       0.38888889       0.00000000 </v>
   <v>       0.08333333       0.38888889       0.00000000 </v>
   <v>       0.12500000       0.38888889       0.00000000 </v>
   <v>       0.16666667       0.38888889       0.00000000 </v>
   <v>       0.20833333       0.38888889       0.00000000 </v>
   <v>       0.25000000       0.38888889       0.00000000 </v>
   <v>       0.29166667       0.38888889       0.00000000 </v>
   <v>       0.33333333       0.38888889       0.00000000 </v>
   <v>       0.37500000       0.38888889       0.00000000 </v>
   <v>       0.41666667       0.38888889       0.00000000 </v>
   <v>       0.45833333       0.38888889       0.00000000 </v>
   <v>       0.50000000       0.38888889       0.00000000 </v>
   <v>       0.00000000       0.41666667       0.00000000 </v>
   <v>       0.04166667       0.41666667       0.00000000 </v>
   <v>       0.08333333       0.41666667       0.00000000 </v>
   <v>       0.12500000       0.41666667       0.00000000 </v>
   <v>       0.16666667       0.41666667       0.00000000 </v>
   <v>       0.20833333       0.41666667       0.00000000 </v>
   <v>       0.25000000       0.41666667       0.00000000 </v>
   <v>       0.29166667       0.41666667       0.00000000 </v>
   <v>       0.33333333       0.41666667       0.00000000 </v>
   <v>       0.37500000       0.41666667       0.00000000 </v>
   <v>       0.41666667       0.41666667       0.00000000 </v>
   <v>       0.45833333       0.41666667       0.00000000 </v>
   <v>       0.50000000       0.41666667       0.00000000 </v>
   <v>       0.00000000       0.44444444       0.00000000 </v>
   <v>       0.04166667       0.44444444       0.00000000 </v>
   <v>       0.08333333       0.44444444       0.00000000 </v>
   <v>       0.12500000       0.44444444       0.00000000 </v>
   <v>       0.16666667       0.44444444       0.00000000 </v>
   <v>       0.20833333       0.44444444       0.00000000 </v>
   <v>       0.25000000       0.44444444       0.00000000 </v>
   <v>       0.29166667       0.44444444       0.00000000 </v>
   <v>       0.33333333       0.44444444       0.00000000 </v>
   <v>       0.37500000       0.44444444       0.00000000 </v>
   <v>       0.41666667       0.44444444       0.00000000 </v>
   <v>       0.45833333       0.44444444       0.00000000 </v>
   <v>       0.50000000       0.44444444       0.00000000 </v>
   <v>       0.00000000       0.47222222       0.00000000 </v>
   <v>       0.04166667       0.47222222       0.00000000 </v>
   <v>       0.08333333       0.47222222       0.00000000 </v>
   <v>       0.12500000       0.47222222       0.00000000 </v>
   <v>       0.16666667       0.47222222       0.00000000 </v>
   <v>       0.20833333       0.47222222       0.00000000 </v>
   <v>       0.25000000       0.47222222       0.00000000 </v>
   <v>       0.29166667       0.47222222       0.00000000 </v>
   <v>       0.33333333       0.47222222       0.00000000 </v>
   <v>       0.37500000       0.47222222       0.00000000 </v>
   <v>       0.41666667       0.47222222       0.00000000 </v>
   <v>       0.45833333       0.47222222       0.00000000 </v>
   <v>       0.50000000       0.47222222       0.00000000 </v>
   <v>       0.00000000       0.50000000       0.00000000 </v>
   <v>       0.04166667       0.50000000       0.00000000 </v>
   <v>       0.08333333       0.50000000       0.00000000 </v>
   <v>       0.12500000       0.50000000       0.00000000 </v>
   <v>       0.16666667       0.50000000       0.00000000 </v>
   <v>       0.20833333       0.50000000       0.00000000 </v>
   <v>       0.25000000       0.50000000       0.00000000 </v>
   <v>       0.29166667       0.50000000       0.00000000 </v>
   <v>       0.33333333       0.50000000       0.00000000 </v>
   <v>       0.37500000       0.50000000       0.00000000 </v>
   <v>       0.41666667       0.50000000       0.00000000 </v>
   <v>       0.45833333       0.50000000       0.00000000 </v>
   <v>       0.50000000       0.50000000       0.00000000 </v>
  </varray>
  <varray name="weights" >
   <v>       0.00115741 </v>
   <v>       0.00231481 </v>
   <v>       0.00231481 </v>
   <v>       0.00231481 </v>
   <v>       0.00231481 </v>
   <v>       0.00231481 </v>
   <v>       0.00231481 </v>
   <v>       0.00231481 </v>
   <v>       0.00231481 </v>
   <v>       0.00231481 </v>
   <v>       0.00231481 </v>
   <v>       0.00231481 </v>
   <v>       0.00115741 </v>
   <v>       0.00231481 </v>
   <v>       0.00462963 </v>
   <v>       0.00462963 </v>
   <v>       0.00462963 </v>
   <v>       0.00462963 </v>
   <v>       0.00462963 </v>
   <v>       0.00462963 </v>
   <v>       0.00462963 </v>
   <v>       0.00462963 </v>
   <v>       0.00462963 </v>
   <v>       0.00462963 </v>
   <v>       0.00462963 </v>
   <v>       0.00231481 </v>
   <v>       0.00231481 </v>
   <v>       0.00462963 </v>
   <v>       0.00462963 </v>
   <v>       0.00462963 </v>
   <v>       0.00462963 </v>
   <v>       0.00462963 </v>
   <v>       0.00462963 </v>
   <v>       0.00462963 </v>
   <v>       0.00462963 </v>
   <v>       0.00462963 </v>
   <v>       0.00462963 </v>
   <v>       0.00462963 </v>
   <v>       0.00231481 </v>
   <v>       0.00231481 </v>
   <v>       0.00462963 </v>
   <v>       0.00462963 </v>
   <v>       0.00462963 </v>
   <v>       0.00462963 </v>
   <v>       0.00462963 </v>
   <v>       0.00462963 </v>
   <v>       0.00462963 </v>
   <v>       0.00462963 </v>
   <v>       0.00462963 </v>
   <v>       0.00462963 </v>
   <v>       0.00462963 </v>
   <v>       0.00231481 </v>
   <v>       0.00231481 </v>
   <v>       0.00462963 </v>
   <v>       0.00462963 </v>
   <v>       0.00462963 </v>
   <v>       0.00462963 </v>
   <v>       0.00462963 </v>
   <v>       0.00462963 </v>
   <v>       0.00462963 </v>
   <v>       0.00462963 </v>
   <v>       0.00462963 </v>
   <v>       0.00462963 </v>
   <v>       0.00462963 </v>
   <v>       0.00231481 </v>
   <v>       0.00231481 </v>
   <v>       0.00462963 </v>
   <v>       0.00462963 </v>
   <v>       0.00462963 </v>
   <v>       0.00462963 </v>
   <v>       0.00462963 </v>
   <v>       0.00462963 </v>
   <v>       0.00462963 </v>
   <v>       0.00462963 </v>
   <v>       0.00462963 </v>
   <v>       0.00462963 </v>
   <v>       0.00462963 </v>
   <v>       0.00231481 </v>
   <v>       0.00231481 </v>
   <v>       0.00462963 </v>
   <v>       0.00462963 </v>
   <v>       0.00462963 </v>
   <v>       0.00462963 </v>
   <v>       0.00462963 </v>
   <v>       0.00462963 </v>
   <v>       0.00462963 </v>
   <v>       0.00462963 </v>
   <v>       0.00462963 </v>
   <v>       0.00462963 </v>
   <v>       0.00462963 </v>
   <v>       0.00231481 </v>
   <v>       0.00231481 </v>
   <v>       0.00462963 </v>
   <v>       0.00462963 </v>
   <v>       0.00462963 </v>
   <v>       0.00462963 </v>
   <v>       0.00462963 </v>
   <v>       0.00462963 </v>
   <v>       0.00462963 </v>
   <v>       0.00462963 </v>
   <v>       0.00462963 </v>
   <v>       0.00462963 </v>
   <v>       0.00462963 </v>
   <v>       0.00231481 </v>
   <v>       0.00231481 </v>
   <v>       0.00462963 </v>
   <v>       0.00462963 </v>
   <v>       0.00462963 </v>
   <v>       0.00462963 </v>
   <v>       0.00462963 </v>
   <v>       0.00462963 </v>
   <v>       0.00462963 </v>
   <v>       0.00462963 </v>
   <v>       0.00462963 </v>
   <v>       0.00462963 </v>
   <v>       0.00462963 </v>
   <v>       0.00231481 </v>
   <v>       0.00231481 </v>
   <v>       0.00462963 </v>
   <v>       0.00462963 </v>
   <v>       0.00462963 </v>
   <v>       0.00462963 </v>
   <v>       0.00462963 </v>
   <v>       0.00462963 </v>
   <v>       0.00462963 </v>
   <v>       0.00462963 </v>
   <v>       0.00462963 </v>
   <v>       0.00462963 </v>
   <v>       0.00462963 </v>
   <v>       0.00231481 </v>
   <v>       0.00231481 </v>
   <v>       0.00462963 </v>
   <v>       0.00462963 </v>
   <v>       0.00462963 </v>
   <v>       0.00462963 </v>
   <v>       0.00462963 </v>
   <v>       0.00462963 </v>
   <v>       0.00462963 </v>
   <v>       0.00462963 </v>
   <v>       0.00462963 </v>
   <v>       0.00462963 </v>
   <v>       0.00462963 </v>
   <v>       0.00231481 </v>
   <v>       0.00231481 </v>
   <v>       0.00462963 </v>
   <v>       0.00462963 </v>
   <v>       0.00462963 </v>
   <v>       0.00462963 </v>
   <v>       0.00462963 </v>
   <v>       0.00462963 </v>
   <v>       0.00462963 </v>
   <v>       0.00462963 </v>
   <v>       0.00462963 </v>
   <v>       0.00462963 </v>
   <v>       0.00462963 </v>
   <v>       0.00231481 </v>
   <v>       0.00231481 </v>
   <v>       0.00462963 </v>
   <v>       0.00462963 </v>
   <v>       0.00462963 </v>
   <v>       0.00462963 </v>
   <v>       0.00462963 </v>
   <v>       0.00462963 </v>
   <v>       0.00462963 </v>
   <v>       0.00462963 </v>
   <v>       0.00462963 </v>
   <v>       0.00462963 </v>
   <v>       0.00462963 </v>
   <v>       0.00231481 </v>
   <v>       0.00231481 </v>
   <v>       0.00462963 </v>
   <v>       0.00462963 </v>
   <v>       0.00462963 </v>
   <v>       0.00462963 </v>
   <v>       0.00462963 </v>
   <v>       0.00462963 </v>
   <v>       0.00462963 </v>
   <v>       0.00462963 </v>
   <v>       0.00462963 </v>
   <v>       0.00462963 </v>
   <v>       0.00462963 </v>
   <v>       0.00231481 </v>
   <v>       0.00231481 </v>
   <v>       0.00462963 </v>
   <v>       0.00462963 </v>
   <v>       0.00462963 </v>
   <v>       0.00462963 </v>
   <v>       0.00462963 </v>
   <v>       0.00462963 </v>
   <v>       0.00462963 </v>
   <v>       0.00462963 </v>
   <v>       0.00462963 </v>
   <v>       0.00462963 </v>
   <v>       0.00462963 </v>
   <v>       0.00231481 </v>
   <v>       0.00231481 </v>
   <v>       0.00462963 </v>
   <v>       0.00462963 </v>
   <v>       0.00462963 </v>
   <v>       0.00462963 </v>
   <v>       0.00462963 </v>
   <v>       0.00462963 </v>
   <v>       0.00462963 </v>
   <v>       0.00462963 </v>
   <v>       0.00462963 </v>
   <v>       0.00462963 </v>
   <v>       0.00462963 </v>
   <v>       0.00231481 </v>
   <v>       0.00231481 </v>
   <v>       0.00462963 </v>
   <v>       0.00462963 </v>
   <v>       0.00462963 </v>
   <v>       0.00462963 </v>
   <v>       0.00462963 </v>
   <v>       0.00462963 </v>
   <v>       0.00462963 </v>
   <v>       0.00462963 </v>
   <v>       0.00462963 </v>
   <v>       0.00462963 </v>
   <v>       0.00462963 </v>
   <v>       0.00231481 </v>
   <v>       0.00231481 </v>
   <v>       0.00462963 </v>
   <v>       0.00462963 </v>
   <v>       0.00462963 </v>
   <v>       0.00462963 </v>
   <v>       0.00462963 </v>
   <v>       0.00462963 </v>
   <v>       0.00462963 </v>
   <v>       0.00462963 </v>
   <v>       0.00462963 </v>
   <v>       0.00462963 </v>
   <v>       0.00462963 </v>
   <v>       0.00231481 </v>
   <v>       0.00115741 </v>
   <v>       0.00231481 </v>
   <v>       0.00231481 </v>
   <v>       0.00231481 </v>
   <v>       0.00231481 </v>
   <v>       0.00231481 </v>
   <v>       0.00231481 </v>
   <v>       0.00231481 </v>
   <v>       0.00231481 </v>
   <v>       0.00231481 </v>
   <v>       0.00231481 </v>
   <v>       0.00231481 </v>
   <v>       0.00115741 </v>
  </varray>
 </kpoints>
 <parameters>
  <separator name="general" >
   <i type="string" name="SYSTEM">gr</i>
   <i type="logical" name="LCOMPAT"> F  </i>
  </separator>
  <separator name="electronic" >
   <i type="string" name="PREC">accura</i>
   <i name="ENMAX">   2000.00000000</i>
   <i name="ENAUG">    644.87300000</i>
   <i name="EDIFF">      0.00000000</i>
   <i type="int" name="IALGO">    68</i>
   <i type="int" name="IWAVPR">    11</i>
   <i type="int" name="NBANDS">    12</i>
   <i name="NELECT">     16.00000000</i>
   <i type="int" name="TURBO">     0</i>
   <i type="int" name="IRESTART">     0</i>
   <i type="int" name="NREBOOT">     0</i>
   <i type="int" name="NMIN">     0</i>
   <i name="EREF">      0.00000000</i>
   <separator name="electronic smearing" >
    <i type="int" name="ISMEAR">     0</i>
    <i name="SIGMA">      0.05000000</i>
    <i name="KSPACING">      0.50000000</i>
    <i type="logical" name="KGAMMA"> T  </i>
   </separator>
   <separator name="electronic projectors" >
    <i type="logical" name="LREAL"> F  </i>
    <v name="ROPT">      0.00000000</v>
    <i type="int" name="LMAXPAW">  -100</i>
    <i type="int" name="LMAXMIX">     2</i>
    <i type="logical" name="NLSPLINE"> F  </i>
   </separator>
   <separator name="electronic startup" >
    <i type="int" name="ISTART">     0</i>
    <i type="int" name="ICHARG">     2</i>
    <i type="int" name="INIWAV">     1</i>
   </separator>
   <separator name="electronic spin" >
    <i type="int" name="ISPIN">     1</i>
    <i type="logical" name="LNONCOLLINEAR"> F  </i>
    <v name="MAGMOM">      1.00000000      1.00000000      1.00000000      1.00000000</v>
    <i name="NUPDOWN">     -1.00000000</i>
    <i type="logical" name="LSORBIT"> F  </i>
    <v name="SAXIS">      0.00000000      0.00000000      1.00000000</v>
    <i type="logical" name="LSPIRAL"> F  </i>
    <v name="QSPIRAL">      0.00000000      0.00000000      0.00000000</v>
    <i type="logical" name="LZEROZ"> F  </i>
   </separator>
   <separator name="electronic exchange-correlation" >
    <i type="logical" name="LASPH"> F  </i>
    <i type="logical" name="LMETAGGA"> F  </i>
   </separator>
   <separator name="electronic convergence" >
    <i type="int" name="NELM">   100</i>
    <i type="int" name="NELMDL">    -3</i>
    <i type="int" name="NELMIN">     5</i>
    <i name="ENINI">   2000.00000000</i>
    <separator name="electronic convergence detail" >
     <i type="logical" name="LDIAG"> T  </i>
     <i type="logical" name="LSUBROT"> F  </i>
     <i name="WEIMIN">      0.00100000</i>
     <i name="EBREAK">      0.00000000</i>
     <i name="DEPER">      0.30000000</i>
     <i type="int" name="NRMM">     4</i>
     <i name="TIME">      0.40000000</i>
    </separator>
   </separator>
   <separator name="electronic mixer" >
    <i name="AMIX">      0.40000000</i>
    <i name="BMIX">      1.00000000</i>
    <i name="AMIN">      0.10000000</i>
    <i name="AMIX_MAG">      1.60000000</i>
    <i name="BMIX_MAG">      1.00000000</i>
    <separator name="electronic mixer details" >
     <i type="int" name="IMIX">     4</i>
     <i type="int" name="MAXMIX">   -45</i>
     <i name="WC">    100.00000000</i>
     <i type="int" name="INIMIX">     1</i>
     <i type="int" name="MIXPRE">     1</i>
     <i type="int" name="MREMOVE">     5</i>
    </separator>
   </separator>
   <separator name="electronic dipolcorrection" >
    <i type="logical" name="LDIPOL"> F  </i>
    <i type="logical" name="LMONO"> F  </i>
    <i type="int" name="IDIPOL">     0</i>
    <i name="EPSILON">      1.00000000</i>
    <v name="DIPOL">   -100.00000000   -100.00000000   -100.00000000</v>
    <i name="EFIELD">      0.00000000</i>
   </separator>
  </separator>
  <separator name="grids" >
   <i type="int" name="NGX">    64</i>
   <i type="int" name="NGY">    36</i>
   <i type="int" name="NGZ">   294</i>
   <i type="int" name="NGXF">   128</i>
   <i type="int" name="NGYF">    72</i>
   <i type="int" name="NGZF">   588</i>
   <i type="logical" name="ADDGRID"> F  </i>
  </separator>
  <separator name="ionic" >
   <i type="int" name="NSW">   400</i>
   <i type="int" name="IBRION">     1</i>
   <i type="int" name="ISIF">     2</i>
   <i name="PSTRESS">      0.00000000</i>
   <i name="EDIFFG">     -0.00000100</i>
   <i type="int" name="NFREE">     0</i>
   <i name="POTIM">      0.50000000</i>
   <i name="SMASS">     -3.00000000</i>
   <i name="SCALEE">      1.00000000</i>
  </separator>
  <separator name="ionic md" >
   <i name="TEBEG">      0.00010000</i>
   <i name="TEEND">      0.00010000</i>
   <i type="int" name="NBLOCK">     1</i>
   <i type="int" name="KBLOCK">   400</i>
   <i type="int" name="NPACO">   256</i>
   <i name="APACO">     16.00000000</i>
  </separator>
  <separator name="symmetry" >
   <i type="int" name="ISYM">     2</i>
   <i name="SYMPREC">      0.00001000</i>
  </separator>
  <separator name="dos" >
   <i type="logical" name="LORBIT"> F  </i>
   <v name="RWIGS">     -1.00000000</v>
   <i type="int" name="NEDOS">   301</i>
   <i name="EMIN">     10.00000000</i>
   <i name="EMAX">    -10.00000000</i>
   <i name="EFERMI">      0.00000000</i>
  </separator>
  <separator name="writing" >
   <i type="int" name="NWRITE">     2</i>
   <i type="logical" name="LWAVE"> F  </i>
   <i type="logical" name="LCHARG"> F  </i>
   <i type="logical" name="LPARD"> F  </i>
   <i type="logical" name="LVTOT"> F  </i>
   <i type="logical" name="LVHAR"> F  </i>
   <i type="logical" name="LELF"> F  </i>
   <i type="logical" name="LOPTICS"> F  </i>
   <v name="STM">      0.00000000      0.00000000      0.00000000      0.00000000      0.00000000      0.00000000      0.00000000</v>
  </separator>
  <separator name="performance" >
   <i type="int" name="NPAR">     4</i>
   <i type="int" name="NSIM">     4</i>
   <i type="int" name="NBLK">    -1</i>
   <i type="logical" name="LPLANE"> T  </i>
   <i type="logical" name="LSCALAPACK"> F  </i>
   <i type="logical" name="LSCAAWARE"> F  </i>
   <i type="logical" name="LSCALU"> F  </i>
   <i type="logical" name="LASYNC"> F  </i>
   <i type="logical" name="LORBITALREAL"> F  </i>
  </separator>
  <separator name="miscellaneous" >
   <i type="int" name="IDIOT">     3</i>
   <i type="logical" name="LMUSIC"> F  </i>
   <v name="POMASS">     12.01100000</v>
   <v name="DARWINR">      0.00000000</v>
   <v name="DARWINV">      1.00000000</v>
   <i type="logical" name="LCORR"> T  </i>
  </separator>
  <i type="logical" name="GGA_COMPAT"> T  </i>
  <i type="logical" name="LBERRY"> F  </i>
  <i type="int" name="ICORELEVEL">     0</i>
  <i type="logical" name="LDAU"> F  </i>
  <i type="int" name="I_CONSTRAINED_M">     0</i>
  <separator name="electronic exchange-correlation" >
   <i type="string" name="GGA">--</i>
   <i type="int" name="VOSKOWN">     0</i>
   <i type="logical" name="LHFCALC"> F  </i>
   <i type="string" name="PRECFOCK"></i>
   <i type="logical" name="LSYMGRAD"> F  </i>
   <i type="logical" name="LHFONE"> F  </i>
   <i type="logical" name="LRHFCALC"> F  </i>
   <i type="logical" name="LTHOMAS"> F  </i>
   <i type="logical" name="LMODELHF"> F  </i>
   <i name="ENCUT4O">     -1.00000000</i>
   <i type="int" name="EXXOEP">     0</i>
   <i type="int" name="FOURORBIT">     0</i>
   <i name="AEXX">      0.00000000</i>
   <i name="HFALPHA">      0.00000000</i>
   <i name="MCALPHA">      0.00000000</i>
   <i name="ALDAX">      1.00000000</i>
   <i name="AGGAX">      1.00000000</i>
   <i name="ALDAC">      1.00000000</i>
   <i name="AGGAC">      1.00000000</i>
   <i type="int" name="NKREDX">     1</i>
   <i type="int" name="NKREDY">     1</i>
   <i type="int" name="NKREDZ">     1</i>
   <i type="logical" name="SHIFTRED"> F  </i>
   <i type="logical" name="ODDONLY"> F  </i>
   <i type="logical" name="EVENONLY"> F  </i>
   <i type="int" name="LMAXFOCK">     0</i>
   <i type="int" name="NMAXFOCKAE">     0</i>
   <i type="logical" name="LFOCKAEDFT"> F  </i>
   <i name="HFSCREEN">      0.00000000</i>
   <i name="HFSCREENC">      0.00000000</i>
   <i type="int" name="NBANDSGWLOW">     0</i>
  </separator>
  <separator name="vdW DFT" >
   <i type="logical" name="LUSE_VDW"> F  </i>
   <i name="Zab_VDW">     -0.84910000</i>
   <i name="PARAM1">      0.12340000</i>
   <i name="PARAM2">      1.00000000</i>
   <i name="PARAM3">      0.00000000</i>
  </separator>
  <separator name="model GW" >
   <i type="int" name="MODEL_GW">     0</i>
   <i name="MODEL_EPS0">     31.62568521</i>
   <i name="MODEL_ALPHA">      1.00000000</i>
  </separator>
  <separator name="linear response parameters" >
   <i type="logical" name="LEPSILON"> F  </i>
   <i type="logical" name="LRPA"> F  </i>
   <i type="logical" name="LNABLA"> F  </i>
   <i type="logical" name="LVEL"> F  </i>
   <i type="int" name="KINTER">     0</i>
   <i name="CSHIFT">      0.10000000</i>
   <i name="OMEGAMAX">     -1.00000000</i>
   <i name="DEG_THRESHOLD">      0.00200000</i>
  </separator>
  <separator name="orbital magnetization" >
   <i type="logical" name="NUCIND"> F  </i>
   <v name="MAGPOS">      0.00000000      0.00000000      0.00000000</v>
   <i type="logical" name="LNICSALL"> T  </i>
   <i type="logical" name="ORBITALMAG"> F  </i>
   <i type="logical" name="LMAGBLOCH"> F  </i>
   <i type="logical" name="LCHIMAG"> F  </i>
   <i type="logical" name="LGAUGE"> T  </i>
   <i type="int" name="MAGATOM">     0</i>
   <v name="MAGDIPOL">      0.00000000      0.00000000      0.00000000</v>
   <v name="AVECCONST">      0.00000000      0.00000000      0.00000000</v>
  </separator>
  <separator name="response functions" >
   <i type="logical" name="LADDER"> F  </i>
   <i type="logical" name="LFXC"> F  </i>
   <i type="logical" name="LHARTREE"> T  </i>
   <i type="int" name="IBSE">     0</i>
   <i type="logical" name="LTCTE"> F  </i>
   <i type="logical" name="LTETE"> F  </i>
   <i type="logical" name="LTRIPLET"> F  </i>
   <i type="logical" name="LFXCEPS"> F  </i>
   <i type="logical" name="LFXHEG"> F  </i>
   <i type="logical" name="L2ORDER"> F  </i>
   <i type="logical" name="LUSEW"> F  </i>
   <i name="ENCUTGW">     -2.00000000</i>
   <i name="ENCUTGWSOFT">     -2.00000000</i>
   <i name="ENCUTLF">     -1.00000000</i>
   <i type="int" name="LMAXMP2">    -1</i>
   <i name="SCISSOR">      0.00000000</i>
   <i type="int" name="NOMEGA">     0</i>
   <i type="int" name="NOMEGAR">     0</i>
   <i type="int" name="NBANDSGW">    -1</i>
   <i type="int" name="NBANDSO">    -1</i>
   <i type="int" name="NBANDSV">    -1</i>
   <i type="int" name="NELM">   100</i>
   <i type="int" name="DIM">     3</i>
   <i type="int" name="ANTIRES">     0</i>
   <i name="OMEGAMAX">    -30.00000000</i>
   <i name="OMEGAMIN">    -30.00000000</i>
   <i name="OMEGATL">   -200.00000000</i>
   <i type="int" name="OMEGAGRID">     0</i>
   <i name="CSHIFT">     -0.10000000</i>
   <i type="logical" name="SELFENERGY"> F  </i>
   <i type="logical" name="LSPECTRAL"> F  </i>
   <i type="logical" name="ODDONLYGW"> F  </i>
   <i type="logical" name="EVENONLYGW"> F  </i>
   <i type="int" name="NKREDLFX">     1</i>
   <i type="int" name="NKREDLFY">     1</i>
   <i type="int" name="NKREDLFZ">     1</i>
   <i type="int" name="MAXMEM">  1800</i>
   <i type="int" name="TELESCOPE">     0</i>
   <i type="int" name="TAUPAR">     1</i>
  </separator>
  <separator name="External order field" >
   <i name="OFIELD_KAPPA">      0.00000000</i>
   <v name="OFIELD_K">      0.00000000      0.00000000      0.00000000</v>
   <i name="OFIELD_Q6_NEAR">      0.00000000</i>
   <i name="OFIELD_Q6_FAR">      0.00000000</i>
   <i name="OFIELD_A">      0.00000000</i>
  </separator>
 </parameters>
 <atominfo>
  <atoms>       4 </atoms>
  <types>       1 </types>
  <array name="atoms" >
   <dimension dim="1">ion</dimension>
   <field type="string">element</field>
   <field type="int">atomtype</field>
   <set>
    <rc><c>C </c><c>   1</c></rc>
    <rc><c>C </c><c>   1</c></rc>
    <rc><c>C </c><c>   1</c></rc>
    <rc><c>C </c><c>   1</c></rc>
   </set>
  </array>
  <array name="atomtypes" >
   <dimension dim="1">type</dimension>
   <field type="int">atomspertype</field>
   <field type="string">element</field>
   <field>mass</field>
   <field>valence</field>
   <field type="string">pseudopotential</field>
   <set>
    <rc><c>   4</c><c>C </c><c>     12.01100000</c><c>      4.00000000</c><c> PAW_PBE C 08Apr2002                    </c></rc>
   </set>
  </array>
 </atominfo>
 <structure name="initialpos" >
  <crystal>
   <varray name="basis" >
    <v>       4.26563350       0.00000000       0.00000000 </v>
    <v>       0.00000000       2.49197349       0.00000000 </v>
    <v>       0.00000000       0.00000000      19.83452152 </v>
   </varray>
   <i name="volume">    210.83790140 </i>
   <varray name="rec_basis" >
    <v>       0.23443177       0.00000000       0.00000000 </v>
    <v>       0.00000000       0.40128838       0.00000000 </v>
    <v>       0.00000000       0.00000000       0.05041715 </v>
   </varray>
  </crystal>
  <varray name="positions" >
   <v>       0.00026297       0.00000000       0.00000000 </v>
   <v>       0.16640370       0.50000000       0.00000000 </v>
   <v>       0.50026297       0.50000000       0.00000000 </v>
   <v>       0.66640370       0.00000000       0.00000000 </v>
  </varray>
 </structure>
 <calculation>
  <scstep>
   <time name="dav">  298.30  298.71</time>
   <time name="total">  300.79  301.22</time>
   <energy>
    <i name="alphaZ">      6.18334092 </i>
    <i name="ewald">   2530.97458394 </i>
    <i name="hartreedc">  -2958.02675039 </i>
    <i name="XCdc">     54.98459523 </i>
    <i name="pawpsdc">    151.32577238 </i>
    <i name="pawaedc">   -155.92769107 </i>
    <i name="eentropy">     -0.00148671 </i>
    <i name="bandstr">    -29.71968381 </i>
    <i name="atom">    588.62352690 </i>
    <i name="e_fr_energy">    188.41620740 </i>
    <i name="e_wo_entrp">    188.41769411 </i>
    <i name="e_0_energy">    188.41695075 </i>
   </energy>
  </scstep>
  <scstep>
   <time name="dav">  449.45  449.91</time>
   <time name="total">  449.46  449.94</time>
   <energy>
    <i name="e_fr_energy">     -9.28786620 </i>
    <i name="e_wo_entrp">     -9.28730814 </i>
    <i name="e_0_energy">     -9.28758717 </i>
   </energy>
  </scstep>
  <scstep>
   <time name="dav">  346.19  346.78</time>
   <time name="total">  376.68  377.30</time>
   <energy>
    <i name="e_fr_energy">    -38.28973658 </i>
    <i name="e_wo_entrp">    -38.28967284 </i>
    <i name="e_0_energy">    -38.28970471 </i>
   </energy>
  </scstep>
  <scstep>
   <time name="diag">   79.85   80.15</time>
   <time name="diis">  339.35  341.97</time>
   <time name="orth">    3.09    3.10</time>
   <time name="total">  454.92  458.14</time>
   <energy>
    <i name="e_fr_energy">    -37.66813378 </i>
    <i name="e_wo_entrp">    -37.66809069 </i>
    <i name="e_0_energy">    -37.66811224 </i>
   </energy>
  </scstep>
  <scstep>
   <time name="diag">   79.70   80.08</time>
   <time name="diis">  340.37  342.65</time>
   <time name="orth">    3.10    3.18</time>
   <time name="total">  455.74  458.85</time>
   <energy>
    <i name="e_fr_energy">    -36.92448988 </i>
    <i name="e_wo_entrp">    -36.92445618 </i>
    <i name="e_0_energy">    -36.92447303 </i>
   </energy>
  </scstep>
  <scstep>
   <time name="diag">   79.58   80.12</time>
   <time name="diis">  371.61  373.71</time>
   <time name="orth">    3.08    3.08</time>
   <time name="total">  486.90  489.91</time>
   <energy>
    <i name="e_fr_energy">    -36.92644045 </i>
    <i name="e_wo_entrp">    -36.92641045 </i>
    <i name="e_0_energy">    -36.92642545 </i>
   </energy>
  </scstep>
  <scstep>
   <time name="diag">   79.65   80.14</time>
   <time name="diis">  335.79  338.23</time>
   <time name="orth">    3.08    3.08</time>
   <time name="total">  451.10  454.40</time>
   <energy>
    <i name="e_fr_energy">    -36.91708410 </i>
    <i name="e_wo_entrp">    -36.91705599 </i>
    <i name="e_0_energy">    -36.91707005 </i>
   </energy>
  </scstep>
  <scstep>
   <time name="diag">   79.55   80.12</time>
   <time name="diis">  334.07  336.43</time>
   <time name="orth">    3.09    3.10</time>
   <time name="total">  449.32  452.67</time>
   <energy>
    <i name="e_fr_energy">    -36.91150532 </i>
    <i name="e_wo_entrp">    -36.91147668 </i>
    <i name="e_0_energy">    -36.91149100 </i>
   </energy>
  </scstep>
  <scstep>
   <time name="diag">   79.62   79.94</time>
   <time name="diis">  322.55  323.37</time>
   <time name="orth">    3.10    3.10</time>
   <time name="total">  438.05  439.29</time>
   <energy>
    <i name="e_fr_energy">    -36.91133593 </i>
    <i name="e_wo_entrp">    -36.91130632 </i>
    <i name="e_0_energy">    -36.91132112 </i>
   </energy>
  </scstep>
  <scstep>
   <time name="diag">   79.61   79.91</time>
   <time name="diis">  321.28  323.54</time>
   <time name="orth">    3.09    3.12</time>
   <time name="total">  436.70  439.48</time>
   <energy>
    <i name="e_fr_energy">    -36.91118473 </i>
    <i name="e_wo_entrp">    -36.91115571 </i>
    <i name="e_0_energy">    -36.91117022 </i>
   </energy>
  </scstep>
  <scstep>
   <time name="diag">   79.43   79.94</time>
   <time name="diis">  321.47  324.97</time>
   <time name="orth">    3.08    3.10</time>
   <time name="total">  436.43  440.92</time>
   <energy>
    <i name="e_fr_energy">    -36.91366596 </i>
    <i name="e_wo_entrp">    -36.91363720 </i>
    <i name="e_0_energy">    -36.91365158 </i>
   </energy>
  </scstep>
  <scstep>
   <time name="diag">   79.33   79.92</time>
   <time name="diis">  321.95  324.78</time>
   <time name="orth">    3.09    3.10</time>
   <time name="total">  436.86  440.65</time>
   <energy>
    <i name="e_fr_energy">    -36.91413078 </i>
    <i name="e_wo_entrp">    -36.91410177 </i>
    <i name="e_0_energy">    -36.91411627 </i>
   </energy>
  </scstep>
  <scstep>
   <time name="diag">   79.47   79.92</time>
   <time name="diis">  329.22  331.98</time>
   <time name="orth">    3.09    3.10</time>
   <time name="total">  444.40  447.96</time>
   <energy>
    <i name="e_fr_energy">    -36.91438065 </i>
    <i name="e_wo_entrp">    -36.91435161 </i>
    <i name="e_0_energy">    -36.91436613 </i>
   </energy>
  </scstep>
  <scstep>
   <time name="diag">   79.22   79.97</time>
   <time name="diis">  323.17  326.85</time>
   <time name="orth">    3.08    3.10</time>
   <time name="total">  437.96  442.80</time>
   <energy>
    <i name="e_fr_energy">    -36.91446352 </i>
    <i name="e_wo_entrp">    -36.91443455 </i>
    <i name="e_0_energy">    -36.91444904 </i>
   </energy>
  </scstep>
  <scstep>
   <time name="diag">   79.49   79.95</time>
   <time name="diis">  324.37  328.03</time>
   <time name="orth">    3.07    3.10</time>
   <time name="total">  439.38  443.94</time>
   <energy>
    <i name="e_fr_energy">    -36.91447262 </i>
    <i name="e_wo_entrp">    -36.91444363 </i>
    <i name="e_0_energy">    -36.91445813 </i>
   </energy>
  </scstep>
  <scstep>
   <time name="diag">   79.18   80.00</time>
   <time name="diis">  322.58  326.13</time>
   <time name="orth">    3.08    3.08</time>
   <time name="total">  437.37  442.10</time>
   <energy>
    <i name="e_fr_energy">    -36.91448459 </i>
    <i name="e_wo_entrp">    -36.91445558 </i>
    <i name="e_0_energy">    -36.91447008 </i>
   </energy>
  </scstep>
  <scstep>
   <time name="diag">   79.25   79.99</time>
   <time name="diis">  337.16  338.69</time>
   <time name="orth">    3.08    3.08</time>
   <time name="total">  452.29  454.64</time>
   <energy>
    <i name="e_fr_energy">    -36.91448933 </i>
    <i name="e_wo_entrp">    -36.91446033 </i>
    <i name="e_0_energy">    -36.91447483 </i>
   </energy>
  </scstep>
  <scstep>
   <time name="diag">   79.61   79.97</time>
   <time name="diis">  320.47  322.82</time>
   <time name="orth">    3.09    3.10</time>
   <time name="total">  435.94  438.88</time>
   <energy>
    <i name="e_fr_energy">    -36.91449055 </i>
    <i name="e_wo_entrp">    -36.91446156 </i>
    <i name="e_0_energy">    -36.91447606 </i>
   </energy>
  </scstep>
  <scstep>
   <time name="diag">   79.42   80.01</time>
   <time name="diis">  340.07  342.56</time>
   <time name="orth">    3.09    3.10</time>
   <time name="total">  455.24  458.84</time>
   <energy>
    <i name="e_fr_energy">    -36.91449131 </i>
    <i name="e_wo_entrp">    -36.91446231 </i>
    <i name="e_0_energy">    -36.91447681 </i>
   </energy>
  </scstep>
  <scstep>
   <time name="diag">   79.41   80.04</time>
   <time name="diis">  257.38  258.36</time>
   <time name="orth">    3.09    3.09</time>
   <time name="total">  372.69  374.40</time>
   <energy>
    <i name="e_fr_energy">    -36.91449137 </i>
    <i name="e_wo_entrp">    -36.91446237 </i>
    <i name="e_0_energy">    -36.91447687 </i>
   </energy>
  </scstep>
  <scstep>
   <time name="diag">   79.89   80.00</time>
   <time name="diis">  255.57  257.48</time>
   <time name="orth">    3.08    3.08</time>
   <time name="total">  371.08  373.43</time>
   <energy>
    <i name="e_fr_energy">    -36.91449138 </i>
    <i name="e_wo_entrp">    -36.91446239 </i>
    <i name="e_0_energy">    -36.91447689 </i>
   </energy>
  </scstep>
  <scstep>
   <time name="diag">   79.64   80.06</time>
   <time name="diis">  227.81  228.33</time>
   <time name="orth">    3.08    3.08</time>
   <time name="total">  343.35  344.44</time>
   <energy>
    <i name="e_fr_energy">    -36.91449138 </i>
    <i name="e_wo_entrp">    -36.91446239 </i>
    <i name="e_0_energy">    -36.91447689 </i>
   </energy>
  </scstep>
  <scstep>
   <time name="diag">   79.44   80.02</time>
   <time name="diis">  214.75  216.45</time>
   <time name="orth">    3.08    3.10</time>
   <time name="total">  329.91  332.48</time>
   <energy>
    <i name="e_fr_energy">    -36.91449139 </i>
    <i name="e_wo_entrp">    -36.91446239 </i>
    <i name="e_0_energy">    -36.91447689 </i>
   </energy>
  </scstep>
  <scstep>
   <time name="diag">   79.76   80.08</time>
   <time name="diis">  203.04  203.25</time>
   <time name="orth">    3.09    3.10</time>
   <time name="total">  318.81  319.41</time>
   <energy>
    <i name="e_fr_energy">    -36.91449139 </i>
    <i name="e_wo_entrp">    -36.91446239 </i>
    <i name="e_0_energy">    -36.91447689 </i>
   </energy>
  </scstep>
  <scstep>
   <time name="diag">   79.40   80.00</time>
   <time name="diis">  191.63  193.26</time>
   <time name="orth">    3.08    3.08</time>
   <time name="total">  276.50  278.75</time>
   <energy>
    <i name="alphaZ">      6.18334092 </i>
    <i name="ewald">   2530.97458394 </i>
    <i name="hartreedc">  -3025.05875584 </i>
    <i name="XCdc">     57.36914924 </i>
    <i name="pawpsdc">    273.71830771 </i>
    <i name="pawaedc">   -278.85189200 </i>
    <i name="eentropy">     -0.00002900 </i>
    <i name="bandstr">   -189.87272327 </i>
    <i name="atom">    588.62352690 </i>
    <i name="e_fr_energy">    -36.91449139 </i>
    <i name="e_wo_entrp">    -36.91446239 </i>
    <i name="e_0_energy">    -36.91447689 </i>
   </energy>
  </scstep>
  <structure>
   <crystal>
    <varray name="basis" >
     <v>       4.26563350       0.00000000       0.00000000 </v>
     <v>       0.00000000       2.49197349       0.00000000 </v>
     <v>       0.00000000       0.00000000      19.83452152 </v>
    </varray>
    <i name="volume">    210.83790140 </i>
    <varray name="rec_basis" >
     <v>       0.23443177       0.00000000       0.00000000 </v>
     <v>       0.00000000       0.40128838       0.00000000 </v>
     <v>       0.00000000       0.00000000       0.05041715 </v>
    </varray>
   </crystal>
   <varray name="positions" >
    <v>       0.00026297       0.00000000       0.00000000 </v>
    <v>       0.16640370       0.50000000       0.00000000 </v>
    <v>       0.50026297       0.50000000       0.00000000 </v>
    <v>       0.66640370       0.00000000       0.00000000 </v>
   </varray>
  </structure>
  <varray name="forces" >
   <v>      -0.00059651      -0.00000000       0.00000000 </v>
   <v>       0.00059651       0.00000000       0.00000000 </v>
   <v>      -0.00059651      -0.00000000       0.00000000 </v>
   <v>       0.00059651       0.00000000       0.00000000 </v>
  </varray>
  <varray name="stress" >
   <v>      -0.00396363       0.00000000       0.00000000 </v>
   <v>       0.00000000     -16.71281711       0.00000000 </v>
   <v>       0.00000000       0.00000000      -0.01011791 </v>
  </varray>
  <energy>
   <i name="e_fr_energy">    -36.91449139 </i>
   <i name="e_wo_entrp">    -36.91447689 </i>
   <i name="e_0_energy">     -0.00002900 </i>
  </energy>
  <time name="totalsc">10388.2110455.92</time>
 </calculation>
 <calculation>
  <scstep>
   <time name="dav">  304.49  306.39</time>
   <time name="total">  337.15  339.29</time>
   <energy>
    <i name="alphaZ">      6.18334092 </i>
    <i name="ewald">   2530.97483442 </i>
    <i name="hartreedc">  -3025.05886484 </i>
    <i name="XCdc">     57.36915640 </i>
    <i name="pawpsdc">    273.71830819 </i>
    <i name="pawaedc">   -278.85189249 </i>
    <i name="eentropy">     -0.00002841 </i>
    <i name="bandstr">   -189.87287237 </i>
    <i name="atom">    588.62352690 </i>
    <i name="e_fr_energy">    -36.91449128 </i>
    <i name="e_wo_entrp">    -36.91446286 </i>
    <i name="e_0_energy">    -36.91447707 </i>
   </energy>
  </scstep>
  <scstep>
   <time name="diag">   79.34   79.95</time>
   <time name="diis">  322.10  325.45</time>
   <time name="orth">    3.09    3.10</time>
   <time name="total">  437.19  441.43</time>
   <energy>
    <i name="e_fr_energy">    -36.91449128 </i>
    <i name="e_wo_entrp">    -36.91446285 </i>
    <i name="e_0_energy">    -36.91447707 </i>
   </energy>
  </scstep>
  <scstep>
   <time name="diag">   79.47   79.99</time>
   <time name="diis">  324.89  328.52</time>
   <time name="orth">    3.08    3.10</time>
   <time name="total">  439.89  444.42</time>
   <energy>
    <i name="e_fr_energy">    -36.91449128 </i>
    <i name="e_wo_entrp">    -36.91446282 </i>
    <i name="e_0_energy">    -36.91447705 </i>
   </energy>
  </scstep>
  <scstep>
   <time name="diag">   79.27   79.96</time>
   <time name="diis">  325.58  328.51</time>
   <time name="orth">    3.08    3.08</time>
   <time name="total">  440.43  444.38</time>
   <energy>
    <i name="e_fr_energy">    -36.91449128 </i>
    <i name="e_wo_entrp">    -36.91446282 </i>
    <i name="e_0_energy">    -36.91447705 </i>
   </energy>
  </scstep>
  <scstep>
   <time name="diag">   79.42   79.91</time>
   <time name="diis">  223.73  225.39</time>
   <time name="orth">    3.09    3.11</time>
   <time name="total">  338.87  341.81</time>
   <energy>
    <i name="e_fr_energy">    -36.91449128 </i>
    <i name="e_wo_entrp">    -36.91446282 </i>
    <i name="e_0_energy">    -36.91447705 </i>
   </energy>
  </scstep>
  <scstep>
   <time name="diag">   79.29   79.96</time>
   <time name="diis">  212.90  214.50</time>
   <time name="orth">    3.10    3.10</time>
   <time name="total">  297.69  299.97</time>
   <energy>
    <i name="alphaZ">      6.18334092 </i>
    <i name="ewald">   2530.97483442 </i>
    <i name="hartreedc">  -3025.05896235 </i>
    <i name="XCdc">     57.36916057 </i>
    <i name="pawpsdc">    273.71874842 </i>
    <i name="pawaedc">   -278.85233462 </i>
    <i name="eentropy">     -0.00002846 </i>
    <i name="bandstr">   -189.87277709 </i>
    <i name="atom">    588.62352690 </i>
    <i name="e_fr_energy">    -36.91449128 </i>
    <i name="e_wo_entrp">    -36.91446282 </i>
    <i name="e_0_energy">    -36.91447705 </i>
   </energy>
  </scstep>
  <structure>
   <crystal>
    <varray name="basis" >
     <v>       4.26563350       0.00000000       0.00000000 </v>
     <v>       0.00000000       2.49197349       0.00000000 </v>
     <v>       0.00000000       0.00000000      19.83452152 </v>
    </varray>
    <i name="volume">    210.83790140 </i>
    <varray name="rec_basis" >
     <v>       0.23443177       0.00000000       0.00000000 </v>
     <v>       0.00000000       0.40128838       0.00000000 </v>
     <v>       0.00000000       0.00000000       0.05041715 </v>
    </varray>
   </crystal>
   <varray name="positions" >
    <v>       0.00025622      -0.00000000       0.00000000 </v>
    <v>       0.16641045       0.50000000       0.00000000 </v>
    <v>       0.50025622       0.50000000       0.00000000 </v>
    <v>       0.66641045       0.00000000       0.00000000 </v>
   </varray>
  </structure>
  <varray name="forces" >
   <v>       0.00243202       0.00000000       0.00000000 </v>
   <v>      -0.00243202      -0.00000000      -0.00000000 </v>
   <v>       0.00243202      -0.00000000       0.00000000 </v>
   <v>      -0.00243202       0.00000000      -0.00000000 </v>
  </varray>
  <varray name="stress" >
   <v>       0.00658977       0.00000000       0.00000000 </v>
   <v>       0.00000000     -16.72139774       0.00000000 </v>
   <v>       0.00000000       0.00000000      -0.01010258 </v>
  </varray>
  <energy>
   <i name="e_fr_energy">    -36.91449128 </i>
   <i name="e_wo_entrp">    -36.91447705 </i>
   <i name="e_0_energy">     -0.00002846 </i>
  </energy>
  <time name="totalsc"> 2392.80 2413.08</time>
 </calculation>
 <calculation>
  <scstep>
   <time name="dav">  308.19  309.87</time>
   <time name="total">  341.03  342.80</time>
   <energy>
    <i name="alphaZ">      6.18334092 </i>
    <i name="ewald">   2530.97463318 </i>
    <i name="hartreedc">  -3025.05887681 </i>
    <i name="XCdc">     57.36915489 </i>
    <i name="pawpsdc">    273.71874943 </i>
    <i name="pawaedc">   -278.85233564 </i>
    <i name="eentropy">     -0.00002893 </i>
    <i name="bandstr">   -189.87265533 </i>
    <i name="atom">    588.62352690 </i>
    <i name="e_fr_energy">    -36.91449139 </i>
    <i name="e_wo_entrp">    -36.91446247 </i>
    <i name="e_0_energy">    -36.91447693 </i>
   </energy>
  </scstep>
  <scstep>
   <time name="diag">   79.80   79.97</time>
   <time name="diis">  326.36  326.53</time>
   <time name="orth">    3.08    3.08</time>
   <time name="total">  441.99  442.48</time>
   <energy>
    <i name="e_fr_energy">    -36.91449140 </i>
    <i name="e_wo_entrp">    -36.91446248 </i>
    <i name="e_0_energy">    -36.91447694 </i>
   </energy>
  </scstep>
  <scstep>
   <time name="diag">   79.51   79.98</time>
   <time name="diis">  325.92  328.31</time>
   <time name="orth">    3.09    3.10</time>
   <time name="total">  441.13  444.32</time>
   <energy>
    <i name="e_fr_energy">    -36.91449139 </i>
    <i name="e_wo_entrp">    -36.91446251 </i>
    <i name="e_0_energy">    -36.91447695 </i>
   </energy>
  </scstep>
  <scstep>
   <time name="diag">   79.26   79.97</time>
   <time name="diis">  316.15  319.13</time>
   <time name="orth">    3.06    3.13</time>
   <time name="total">  431.06  435.18</time>
   <energy>
    <i name="e_fr_energy">    -36.91449139 </i>
    <i name="e_wo_entrp">    -36.91446250 </i>
    <i name="e_0_energy">    -36.91447695 </i>
   </energy>
  </scstep>
  <scstep>
   <time name="diag">   79.38   80.02</time>
   <time name="diis">  220.19  222.10</time>
   <time name="orth">    3.08    3.10</time>
   <time name="total">  335.24  338.16</time>
   <energy>
    <i name="e_fr_energy">    -36.91449139 </i>
    <i name="e_wo_entrp">    -36.91446250 </i>
    <i name="e_0_energy">    -36.91447695 </i>
   </energy>
  </scstep>
  <scstep>
   <time name="diag">   79.22   79.98</time>
   <time name="diis">  209.47  211.27</time>
   <time name="orth">    3.08    3.08</time>
   <time name="total">  324.64  327.25</time>
   <energy>
    <i name="e_fr_energy">    -36.91449139 </i>
    <i name="e_wo_entrp">    -36.91446250 </i>
    <i name="e_0_energy">    -36.91447695 </i>
   </energy>
  </scstep>
  <scstep>
   <time name="diag">   79.66   79.88</time>
   <time name="diis">  203.32  204.25</time>
   <time name="orth">    3.08    3.08</time>
   <time name="total">  318.62  320.15</time>
   <energy>
    <i name="e_fr_energy">    -36.91449139 </i>
    <i name="e_wo_entrp">    -36.91446250 </i>
    <i name="e_0_energy">    -36.91447695 </i>
   </energy>
  </scstep>
  <scstep>
   <time name="diag">   79.90   79.92</time>
   <time name="diis">  195.89  196.03</time>
   <time name="orth">    3.09    3.09</time>
   <time name="total">  281.32  281.48</time>
   <energy>
    <i name="alphaZ">      6.18334092 </i>
    <i name="ewald">   2530.97463318 </i>
    <i name="hartreedc">  -3025.05880056 </i>
    <i name="XCdc">     57.36915153 </i>
    <i name="pawpsdc">    273.71839198 </i>
    <i name="pawaedc">   -278.85197669 </i>
    <i name="eentropy">     -0.00002889 </i>
    <i name="bandstr">   -189.87272976 </i>
    <i name="atom">    588.62352690 </i>
    <i name="e_fr_energy">    -36.91449139 </i>
    <i name="e_wo_entrp">    -36.91446250 </i>
    <i name="e_0_energy">    -36.91447695 </i>
   </energy>
  </scstep>
  <structure>
   <crystal>
    <varray name="basis" >
     <v>       4.26563350       0.00000000       0.00000000 </v>
     <v>       0.00000000       2.49197349       0.00000000 </v>
     <v>       0.00000000       0.00000000      19.83452152 </v>
    </varray>
    <i name="volume">    210.83790140 </i>
    <varray name="rec_basis" >
     <v>       0.23443177       0.00000000       0.00000000 </v>
     <v>       0.00000000       0.40128838       0.00000000 </v>
     <v>       0.00000000       0.00000000       0.05041715 </v>
    </varray>
   </crystal>
   <varray name="positions" >
    <v>       0.00026164       0.00000000       0.00000000 </v>
    <v>       0.16640503       0.50000000      -0.00000000 </v>
    <v>       0.50026164       0.50000000       0.00000000 </v>
    <v>       0.66640503       0.00000000      -0.00000000 </v>
   </varray>
  </structure>
  <varray name="forces" >
   <v>       0.00000259       0.00000000       0.00000000 </v>
   <v>      -0.00000259      -0.00000000       0.00000000 </v>
   <v>       0.00000259      -0.00000000       0.00000000 </v>
   <v>      -0.00000259      -0.00000000       0.00000000 </v>
  </varray>
  <varray name="stress" >
   <v>      -0.00182557       0.00000000       0.00000000 </v>
   <v>       0.00000000     -16.71455198       0.00000000 </v>
   <v>       0.00000000       0.00000000      -0.01011509 </v>
  </varray>
  <energy>
   <i name="e_fr_energy">    -36.91449139 </i>
   <i name="e_wo_entrp">    -36.91447695 </i>
   <i name="e_0_energy">     -0.00002889 </i>
  </energy>
  <time name="totalsc"> 3016.71 3033.67</time>
 </calculation>
 <calculation>
  <scstep>
   <time name="dav">  247.51  248.15</time>
   <time name="total">  280.15  281.09</time>
   <energy>
    <i name="alphaZ">      6.18334092 </i>
    <i name="ewald">   2530.97463297 </i>
    <i name="hartreedc">  -3025.05879976 </i>
    <i name="XCdc">     57.36915150 </i>
    <i name="pawpsdc">    273.71839247 </i>
    <i name="pawaedc">   -278.85197718 </i>
    <i name="eentropy">     -0.00002889 </i>
    <i name="bandstr">   -189.87273033 </i>
    <i name="atom">    588.62352690 </i>
    <i name="e_fr_energy">    -36.91449139 </i>
    <i name="e_wo_entrp">    -36.91446250 </i>
    <i name="e_0_energy">    -36.91447695 </i>
   </energy>
  </scstep>
  <scstep>
   <time name="diag">   79.34   79.88</time>
   <time name="diis">  158.52  159.82</time>
   <time name="orth">    3.08    3.08</time>
   <time name="total">  273.82  275.71</time>
   <energy>
    <i name="e_fr_energy">    -36.91449139 </i>
    <i name="e_wo_entrp">    -36.91446250 </i>
    <i name="e_0_energy">    -36.91447695 </i>
   </energy>
  </scstep>
  <scstep>
   <time name="diag">   79.38   79.90</time>
   <time name="diis">  156.41  157.77</time>
   <time name="orth">    3.08    3.10</time>
   <time name="total">  271.46  273.72</time>
   <energy>
    <i name="e_fr_energy">    -36.91449139 </i>
    <i name="e_wo_entrp">    -36.91446250 </i>
    <i name="e_0_energy">    -36.91447695 </i>
   </energy>
  </scstep>
  <scstep>
   <time name="diag">   79.11   79.93</time>
   <time name="diis">  154.62  156.00</time>
   <time name="orth">    3.08    3.08</time>
   <time name="total">  269.40  271.96</time>
   <energy>
    <i name="e_fr_energy">    -36.91449139 </i>
    <i name="e_wo_entrp">    -36.91446250 </i>
    <i name="e_0_energy">    -36.91447695 </i>
   </energy>
  </scstep>
  <scstep>
   <time name="diag">   79.28   79.90</time>
   <time name="diis">  153.01  154.27</time>
   <time name="orth">    3.08    3.08</time>
   <time name="total">  267.98  270.24</time>
   <energy>
    <i name="e_fr_energy">    -36.91449139 </i>
    <i name="e_wo_entrp">    -36.91446250 </i>
    <i name="e_0_energy">    -36.91447695 </i>
   </energy>
  </scstep>
  <scstep>
   <time name="diag">   79.22   79.90</time>
   <time name="diis">  152.56  153.51</time>
   <time name="orth">    3.08    3.08</time>
   <time name="total">  237.29  238.92</time>
   <energy>
    <i name="alphaZ">      6.18334092 </i>
    <i name="ewald">   2530.97463297 </i>
    <i name="hartreedc">  -3025.05879790 </i>
    <i name="XCdc">     57.36915149 </i>
    <i name="pawpsdc">    273.71839295 </i>
    <i name="pawaedc">   -278.85197766 </i>
    <i name="eentropy">     -0.00002889 </i>
    <i name="bandstr">   -189.87273218 </i>
    <i name="atom">    588.62352690 </i>
    <i name="e_fr_energy">    -36.91449139 </i>
    <i name="e_wo_entrp">    -36.91446250 </i>
    <i name="e_0_energy">    -36.91447695 </i>
   </energy>
  </scstep>
  <structure>
   <crystal>
    <varray name="basis" >
     <v>       4.26563350       0.00000000       0.00000000 </v>
     <v>       0.00000000       2.49197349       0.00000000 </v>
     <v>       0.00000000       0.00000000      19.83452152 </v>
    </varray>
    <i name="volume">    210.83790140 </i>
    <varray name="rec_basis" >
     <v>       0.23443177       0.00000000       0.00000000 </v>
     <v>       0.00000000       0.40128838       0.00000000 </v>
     <v>       0.00000000       0.00000000       0.05041715 </v>
    </varray>
   </crystal>
   <varray name="positions" >
    <v>       0.00026164       0.00000000       0.00000000 </v>
    <v>       0.16640502       0.50000000      -0.00000000 </v>
    <v>       0.50026164       0.50000000       0.00000000 </v>
    <v>       0.66640502       0.00000000      -0.00000000 </v>
   </varray>
  </structure>
  <varray name="forces" >
   <v>      -0.00000302      -0.00000000       0.00000000 </v>
   <v>       0.00000302       0.00000000       0.00000000 </v>
   <v>      -0.00000302       0.00000000       0.00000000 </v>
   <v>       0.00000302      -0.00000000       0.00000000 </v>
  </varray>
  <varray name="stress" >
   <v>      -0.00187428       0.00000000       0.00000000 </v>
   <v>       0.00000000     -16.71450254       0.00000000 </v>
   <v>       0.00000000       0.00000000      -0.01011493 </v>
  </varray>
  <energy>
   <i name="e_fr_energy">    -36.91449139 </i>
   <i name="e_wo_entrp">    -36.91447695 </i>
   <i name="e_0_energy">     -0.00002889 </i>
  </energy>
  <time name="totalsc"> 1701.04 1713.58</time>
 </calculation>
 <calculation>
  <scstep>
   <time name="dav">  242.29  243.64</time>
   <time name="total">  275.03  276.59</time>
   <energy>
    <i name="alphaZ">      6.18334092 </i>
    <i name="ewald">   2530.97463308 </i>
    <i name="hartreedc">  -3025.05879758 </i>
    <i name="XCdc">     57.36915149 </i>
    <i name="pawpsdc">    273.71839293 </i>
    <i name="pawaedc">   -278.85197764 </i>
    <i name="eentropy">     -0.00002889 </i>
    <i name="bandstr">   -189.87273261 </i>
    <i name="atom">    588.62352690 </i>
    <i name="e_fr_energy">    -36.91449139 </i>
    <i name="e_wo_entrp">    -36.91446250 </i>
    <i name="e_0_energy">    -36.91447695 </i>
   </energy>
  </scstep>
  <scstep>
   <time name="diag">   79.41   79.92</time>
   <time name="diis">  136.81  137.61</time>
   <time name="orth">    3.08    3.10</time>
   <time name="total">  252.02  253.61</time>
   <energy>
    <i name="e_fr_energy">    -36.91449139 </i>
    <i name="e_wo_entrp">    -36.91446250 </i>
    <i name="e_0_energy">    -36.91447695 </i>
   </energy>
  </scstep>
  <scstep>
   <time name="diag">   79.14   79.93</time>
   <time name="diis">  146.79  147.73</time>
   <time name="orth">    3.08    3.08</time>
   <time name="total">  261.49  263.65</time>
   <energy>
    <i name="e_fr_energy">    -36.91449139 </i>
    <i name="e_wo_entrp">    -36.91446250 </i>
    <i name="e_0_energy">    -36.91447695 </i>
   </energy>
  </scstep>
  <scstep>
   <time name="diag">   79.05   79.90</time>
   <time name="diis">  134.51  135.52</time>
   <time name="orth">    3.08    3.10</time>
   <time name="total">  249.29  251.45</time>
   <energy>
    <i name="e_fr_energy">    -36.91449139 </i>
    <i name="e_wo_entrp">    -36.91446250 </i>
    <i name="e_0_energy">    -36.91447695 </i>
   </energy>
  </scstep>
  <scstep>
   <time name="diag">   79.60   79.84</time>
   <time name="diis">  138.46  139.34</time>
   <time name="orth">    3.08    3.10</time>
   <time name="total">  223.56  224.72</time>
   <energy>
    <i name="alphaZ">      6.18334092 </i>
    <i name="ewald">   2530.97463308 </i>
    <i name="hartreedc">  -3025.05879776 </i>
    <i name="XCdc">     57.36915150 </i>
    <i name="pawpsdc">    273.71839325 </i>
    <i name="pawaedc">   -278.85197796 </i>
    <i name="eentropy">     -0.00002889 </i>
    <i name="bandstr">   -189.87273244 </i>
    <i name="atom">    588.62352690 </i>
    <i name="e_fr_energy">    -36.91449139 </i>
    <i name="e_wo_entrp">    -36.91446250 </i>
    <i name="e_0_energy">    -36.91447695 </i>
   </energy>
  </scstep>
  <structure>
   <crystal>
    <varray name="basis" >
     <v>       4.26563350       0.00000000       0.00000000 </v>
     <v>       0.00000000       2.49197349       0.00000000 </v>
     <v>       0.00000000       0.00000000      19.83452152 </v>
    </varray>
    <i name="volume">    210.83790140 </i>
    <varray name="rec_basis" >
     <v>       0.23443177       0.00000000       0.00000000 </v>
     <v>       0.00000000       0.40128838       0.00000000 </v>
     <v>       0.00000000       0.00000000       0.05041715 </v>
    </varray>
   </crystal>
   <varray name="positions" >
    <v>       0.00026164      -0.00000000       0.00000000 </v>
    <v>       0.16640503       0.50000000      -0.00000000 </v>
    <v>       0.50026164       0.50000000       0.00000000 </v>
    <v>       0.66640503       0.00000000      -0.00000000 </v>
   </varray>
  </structure>
  <varray name="forces" >
   <v>       0.00000031      -0.00000000      -0.00000000 </v>
   <v>      -0.00000031       0.00000000       0.00000000 </v>
   <v>       0.00000031       0.00000000      -0.00000000 </v>
   <v>      -0.00000031      -0.00000000       0.00000000 </v>
  </varray>
  <varray name="stress" >
   <v>      -0.00185828       0.00000000       0.00000000 </v>
   <v>       0.00000000     -16.71451849       0.00000000 </v>
   <v>       0.00000000       0.00000000      -0.01011274 </v>
  </varray>
  <energy>
   <i name="e_fr_energy">    -36.91449139 </i>
   <i name="e_wo_entrp">    -36.91447695 </i>
   <i name="e_0_energy">     -0.00002889 </i>
  </energy>
  <time name="totalsc"> 1356.08 1365.15</time>
  <eigenvalues>
   <array>
    <dimension dim="1">band</dimension>
    <dimension dim="2">kpoint</dimension>
    <dimension dim="3">spin</dimension>
    <field>eigene</field>
    <field>occ</field>
    <set>
     <set comment="spin 1">
      <set comment="kpoint 1">
       <r>  -22.1845    1.0000 </r>
       <r>  -16.8925    1.0000 </r>
       <r>  -15.9283    1.0000 </r>
       <r>  -10.3055    1.0000 </r>
       <r>   -9.2924    1.0000 </r>
       <r>   -5.8751    1.0000 </r>
       <r>   -5.7636    1.0000 </r>
       <r>   -5.0269    1.0000 </r>
       <r>   -1.0992    0.0000 </r>
       <r>    0.5321    0.0000 </r>
       <r>    1.3321    0.0000 </r>
       <r>    1.7191    0.0000 </r>
      </set>
      <set comment="kpoint 2">
       <r>  -22.1742    1.0000 </r>
       <r>  -17.0691    1.0000 </r>
       <r>  -15.7365    1.0000 </r>
       <r>  -10.2932    1.0000 </r>
       <r>   -9.2821    1.0000 </r>
       <r>   -5.8982    1.0000 </r>
       <r>   -5.8053    1.0000 </r>
       <r>   -5.0948    1.0000 </r>
       <r>   -1.0158    0.0000 </r>
       <r>    0.5461    0.0000 </r>
       <r>    1.3462    0.0000 </r>
       <r>    1.7334    0.0000 </r>
      </set>
      <set comment="kpoint 3">
       <r>  -22.1433    1.0000 </r>
       <r>  -17.4181    1.0000 </r>
       <r>  -15.3421    1.0000 </r>
       <r>  -10.2564    1.0000 </r>
       <r>   -9.2514    1.0000 </r>
       <r>   -5.9660    1.0000 </r>
       <r>   -5.9289    1.0000 </r>
       <r>   -5.2828    1.0000 </r>
       <r>   -0.7814    0.0000 </r>
       <r>    0.5880    0.0000 </r>
       <r>    1.3886    0.0000 </r>
       <r>    1.7763    0.0000 </r>
      </set>
      <set comment="kpoint 4">
       <r>  -22.0918    1.0000 </r>
       <r>  -17.8015    1.0000 </r>
       <r>  -14.8833    1.0000 </r>
       <r>  -10.1952    1.0000 </r>
       <r>   -9.2002    1.0000 </r>
       <r>   -6.1296    1.0000 </r>
       <r>   -6.0749    1.0000 </r>
       <r>   -5.5561    1.0000 </r>
       <r>   -0.4314    0.0000 </r>
       <r>    0.6578    0.0000 </r>
       <r>    1.4592    0.0000 </r>
       <r>    1.8479    0.0000 </r>
      </set>
      <set comment="kpoint 5">
       <r>  -22.0198    1.0000 </r>
       <r>  -18.1851    1.0000 </r>
       <r>  -14.3948    1.0000 </r>
       <r>  -10.1095    1.0000 </r>
       <r>   -9.1290    1.0000 </r>
       <r>   -6.4005    1.0000 </r>
       <r>   -6.2195    1.0000 </r>
       <r>   -5.8807    1.0000 </r>
       <r>   -0.0005    0.0000 </r>
       <r>    0.7556    0.0000 </r>
       <r>    1.5581    0.0000 </r>
       <r>    1.9480    0.0000 </r>
      </set>
      <set comment="kpoint 6">
       <r>  -21.9272    1.0000 </r>
       <r>  -18.5588    1.0000 </r>
       <r>  -13.8873    1.0000 </r>
       <r>   -9.9996    1.0000 </r>
       <r>   -9.0380    1.0000 </r>
       <r>   -6.7333    1.0000 </r>
       <r>   -6.3934    1.0000 </r>
       <r>   -6.2318    1.0000 </r>
       <r>    0.4850    0.0000 </r>
       <r>    0.8813    0.0000 </r>
       <r>    1.6852    0.0000 </r>
       <r>    2.0768    0.0000 </r>
      </set>
      <set comment="kpoint 7">
       <r>  -21.8143    1.0000 </r>
       <r>  -18.9186    1.0000 </r>
       <r>  -13.3657    1.0000 </r>
       <r>   -9.8657    1.0000 </r>
       <r>   -8.9278    1.0000 </r>
       <r>   -7.1189    1.0000 </r>
       <r>   -6.5931    1.0000 </r>
       <r>   -6.5896    1.0000 </r>
       <r>    1.0073    0.0000 </r>
       <r>    1.0349    0.0000 </r>
       <r>    1.8404    0.0000 </r>
       <r>    2.2342    0.0000 </r>
      </set>
      <set comment="kpoint 8">
       <r>  -21.6810    1.0000 </r>
       <r>  -19.2625    1.0000 </r>
       <r>  -12.8331    1.0000 </r>
       <r>   -9.7080    1.0000 </r>
       <r>   -8.7991    1.0000 </r>
       <r>   -7.5486    1.0000 </r>
       <r>   -6.9540    1.0000 </r>
       <r>   -6.8016    1.0000 </r>
       <r>    1.2164    0.0000 </r>
       <r>    1.5537    0.0000 </r>
       <r>    2.0237    0.0000 </r>
       <r>    2.4201    0.0000 </r>
      </set>
      <set comment="kpoint 9">
       <r>  -21.5274    1.0000 </r>
       <r>  -19.5894    1.0000 </r>
       <r>  -12.2921    1.0000 </r>
       <r>   -9.5268    1.0000 </r>
       <r>   -8.6525    1.0000 </r>
       <r>   -8.0140    1.0000 </r>
       <r>   -7.3077    1.0000 </r>
       <r>   -7.0234    1.0000 </r>
       <r>    1.4257    0.0000 </r>
       <r>    2.1145    0.0000 </r>
       <r>    2.2350    0.0000 </r>
       <r>    2.6347    0.0000 </r>
      </set>
      <set comment="kpoint 10">
       <r>  -21.3538    1.0000 </r>
       <r>  -19.8984    1.0000 </r>
       <r>  -11.7451    1.0000 </r>
       <r>   -9.3224    1.0000 </r>
       <r>   -8.5076    1.0000 </r>
       <r>   -8.4893    1.0000 </r>
       <r>   -7.6495    1.0000 </r>
       <r>   -7.2496    1.0000 </r>
       <r>    1.6628    0.0000 </r>
       <r>    2.4740    0.0000 </r>
       <r>    2.6811    0.0000 </r>
       <r>    2.8779    0.0000 </r>
      </set>
      <set comment="kpoint 11">
       <r>  -21.1601    1.0000 </r>
       <r>  -20.1889    1.0000 </r>
       <r>  -11.1947    1.0000 </r>
       <r>   -9.0955    1.0000 </r>
       <r>   -9.0228    1.0000 </r>
       <r>   -8.3105    1.0000 </r>
       <r>   -7.9763    1.0000 </r>
       <r>   -7.4758    1.0000 </r>
       <r>    1.9276    0.0000 </r>
       <r>    2.7404    0.0000 </r>
       <r>    3.1497    0.0000 </r>
       <r>    3.2581    0.0000 </r>
      </set>
      <set comment="kpoint 12">
       <r>  -20.9465    1.0000 </r>
       <r>  -20.4607    1.0000 </r>
       <r>  -10.6438    1.0000 </r>
       <r>   -9.5538    1.0000 </r>
       <r>   -8.8465    1.0000 </r>
       <r>   -8.2858    1.0000 </r>
       <r>   -8.1177    1.0000 </r>
       <r>   -7.6979    1.0000 </r>
       <r>    2.2201    0.0000 </r>
       <r>    2.8869    0.0000 </r>
       <r>    3.0332    0.0000 </r>
       <r>    3.4499    0.0000 </r>
      </set>
      <set comment="kpoint 13">
       <r>  -20.7133    1.0000 </r>
       <r>  -20.7133    1.0000 </r>
       <r>  -10.0956    1.0000 </r>
       <r>  -10.0956    1.0000 </r>
       <r>   -8.5763    1.0000 </r>
       <r>   -8.5763    1.0000 </r>
       <r>   -7.9128    1.0000 </r>
       <r>   -7.9128    1.0000 </r>
       <r>    2.5399    0.0000 </r>
       <r>    2.5399    0.0000 </r>
       <r>    3.3480    0.0000 </r>
       <r>    3.3480    0.0000 </r>
      </set>
      <set comment="kpoint 14">
       <r>  -22.1711    1.0000 </r>
       <r>  -16.8810    1.0000 </r>
       <r>  -15.9172    1.0000 </r>
       <r>  -10.2895    1.0000 </r>
       <r>   -9.3526    1.0000 </r>
       <r>   -5.9306    1.0000 </r>
       <r>   -5.7946    1.0000 </r>
       <r>   -5.0106    1.0000 </r>
       <r>   -1.1041    0.0000 </r>
       <r>    0.5503    0.0000 </r>
       <r>    1.3505    0.0000 </r>
       <r>    1.7377    0.0000 </r>
      </set>
      <set comment="kpoint 15">
       <r>  -22.1608    1.0000 </r>
       <r>  -17.0575    1.0000 </r>
       <r>  -15.7256    1.0000 </r>
       <r>  -10.2773    1.0000 </r>
       <r>   -9.3423    1.0000 </r>
       <r>   -5.9587    1.0000 </r>
       <r>   -5.8306    1.0000 </r>
       <r>   -5.0787    1.0000 </r>
       <r>   -1.0206    0.0000 </r>
       <r>    0.5642    0.0000 </r>
       <r>    1.3646    0.0000 </r>
       <r>    1.7520    0.0000 </r>
      </set>
      <set comment="kpoint 16">
       <r>  -22.1299    1.0000 </r>
       <r>  -17.4062    1.0000 </r>
       <r>  -15.3316    1.0000 </r>
       <r>  -10.2405    1.0000 </r>
       <r>   -9.3115    1.0000 </r>
       <r>   -6.0474    1.0000 </r>
       <r>   -5.9313    1.0000 </r>
       <r>   -5.2671    1.0000 </r>
       <r>   -0.7862    0.0000 </r>
       <r>    0.6061    0.0000 </r>
       <r>    1.4070    0.0000 </r>
       <r>    1.7950    0.0000 </r>
      </set>
      <set comment="kpoint 17">
       <r>  -22.0784    1.0000 </r>
       <r>  -17.7894    1.0000 </r>
       <r>  -14.8733    1.0000 </r>
       <r>  -10.1792    1.0000 </r>
       <r>   -9.2602    1.0000 </r>
       <r>   -6.2126    1.0000 </r>
       <r>   -6.0729    1.0000 </r>
       <r>   -5.5407    1.0000 </r>
       <r>   -0.4365    0.0000 </r>
       <r>    0.6760    0.0000 </r>
       <r>    1.4776    0.0000 </r>
       <r>    1.8665    0.0000 </r>
      </set>
      <set comment="kpoint 18">
       <r>  -22.0064    1.0000 </r>
       <r>  -18.1728    1.0000 </r>
       <r>  -14.3854    1.0000 </r>
       <r>  -10.0936    1.0000 </r>
       <r>   -9.1888    1.0000 </r>
       <r>   -6.4614    1.0000 </r>
       <r>   -6.2361    1.0000 </r>
       <r>   -5.8656    1.0000 </r>
       <r>   -0.0062    0.0000 </r>
       <r>    0.7738    0.0000 </r>
       <r>    1.5765    0.0000 </r>
       <r>    1.9666    0.0000 </r>
      </set>
      <set comment="kpoint 19">
       <r>  -21.9139    1.0000 </r>
       <r>  -18.5463    1.0000 </r>
       <r>  -13.8786    1.0000 </r>
       <r>   -9.9838    1.0000 </r>
       <r>   -9.0976    1.0000 </r>
       <r>   -6.7801    1.0000 </r>
       <r>   -6.4204    1.0000 </r>
       <r>   -6.2168    1.0000 </r>
       <r>    0.4784    0.0000 </r>
       <r>    0.8995    0.0000 </r>
       <r>    1.7036    0.0000 </r>
       <r>    2.0954    0.0000 </r>
      </set>
      <set comment="kpoint 20">
       <r>  -21.8010    1.0000 </r>
       <r>  -18.9060    1.0000 </r>
       <r>  -13.3579    1.0000 </r>
       <r>   -9.8499    1.0000 </r>
       <r>   -8.9871    1.0000 </r>
       <r>   -7.1552    1.0000 </r>
       <r>   -6.6237    1.0000 </r>
       <r>   -6.5782    1.0000 </r>
       <r>    0.9993    0.0000 </r>
       <r>    1.0531    0.0000 </r>
       <r>    1.8588    0.0000 </r>
       <r>    2.2528    0.0000 </r>
      </set>
      <set comment="kpoint 21">
       <r>  -21.6677    1.0000 </r>
       <r>  -19.2498    1.0000 </r>
       <r>  -12.8263    1.0000 </r>
       <r>   -9.6922    1.0000 </r>
       <r>   -8.8579    1.0000 </r>
       <r>   -7.5764    1.0000 </r>
       <r>   -6.9390    1.0000 </r>
       <r>   -6.8411    1.0000 </r>
       <r>    1.2346    0.0000 </r>
       <r>    1.5441    0.0000 </r>
       <r>    2.0421    0.0000 </r>
       <r>    2.4388    0.0000 </r>
      </set>
      <set comment="kpoint 22">
       <r>  -21.5142    1.0000 </r>
       <r>  -19.5765    1.0000 </r>
       <r>  -12.2865    1.0000 </r>
       <r>   -9.5111    1.0000 </r>
       <r>   -8.7108    1.0000 </r>
       <r>   -8.0347    1.0000 </r>
       <r>   -7.2927    1.0000 </r>
       <r>   -7.0671    1.0000 </r>
       <r>    1.4439    0.0000 </r>
       <r>    2.1031    0.0000 </r>
       <r>    2.2533    0.0000 </r>
       <r>    2.6534    0.0000 </r>
      </set>
      <set comment="kpoint 23">
       <r>  -21.3405    1.0000 </r>
       <r>  -19.8854    1.0000 </r>
       <r>  -11.7411    1.0000 </r>
       <r>   -9.3068    1.0000 </r>
       <r>   -8.5468    1.0000 </r>
       <r>   -8.5225    1.0000 </r>
       <r>   -7.6344    1.0000 </r>
       <r>   -7.2968    1.0000 </r>
       <r>    1.6811    0.0000 </r>
       <r>    2.4923    0.0000 </r>
       <r>    2.6678    0.0000 </r>
       <r>    2.8966    0.0000 </r>
      </set>
      <set comment="kpoint 24">
       <r>  -21.1468    1.0000 </r>
       <r>  -20.1759    1.0000 </r>
       <r>  -11.1925    1.0000 </r>
       <r>   -9.0800    1.0000 </r>
       <r>   -9.0328    1.0000 </r>
       <r>   -8.3672    1.0000 </r>
       <r>   -7.9612    1.0000 </r>
       <r>   -7.5258    1.0000 </r>
       <r>    1.9459    0.0000 </r>
       <r>    2.7588    0.0000 </r>
       <r>    3.1683    0.0000 </r>
       <r>    3.2260    0.0000 </r>
      </set>
      <set comment="kpoint 25">
       <r>  -20.9333    1.0000 </r>
       <r>  -20.4476    1.0000 </r>
       <r>  -10.6438    1.0000 </r>
       <r>   -9.5598    1.0000 </r>
       <r>   -8.8311    1.0000 </r>
       <r>   -8.2706    1.0000 </r>
       <r>   -8.1732    1.0000 </r>
       <r>   -7.7501    1.0000 </r>
       <r>    2.2383    0.0000 </r>
       <r>    2.9053    0.0000 </r>
       <r>    3.0516    0.0000 </r>
       <r>    3.4686    0.0000 </r>
      </set>
      <set comment="kpoint 26">
       <r>  -20.7002    1.0000 </r>
       <r>  -20.7002    1.0000 </r>
[...]
       <r>   -9.1253    1.0000 </r>
       <r>   -5.6239    1.0000 </r>
       <r>   -5.6239    1.0000 </r>
       <r>   -0.4839    0.0000 </r>
       <r>   -0.4839    0.0000 </r>
       <r>    4.8294    0.0000 </r>
       <r>    4.8294    0.0000 </r>
      </set>
      <set comment="kpoint 209">
       <r>  -18.8403    1.0000 </r>
       <r>  -17.0918    1.0000 </r>
       <r>  -13.9733    1.0000 </r>
       <r>  -12.3769    1.0000 </r>
       <r>  -12.3751    1.0000 </r>
       <r>  -10.8721    1.0000 </r>
       <r>   -6.4526    1.0000 </r>
       <r>   -4.5986    1.0000 </r>
       <r>   -0.9896    0.0000 </r>
       <r>    1.1319    0.0000 </r>
       <r>    5.1602    0.0000 </r>
       <r>    5.9491    0.0000 </r>
      </set>
      <set comment="kpoint 210">
       <r>  -18.8306    1.0000 </r>
       <r>  -17.0841    1.0000 </r>
       <r>  -14.0621    1.0000 </r>
       <r>  -12.4577    1.0000 </r>
       <r>  -12.2800    1.0000 </r>
       <r>  -10.7915    1.0000 </r>
       <r>   -6.4438    1.0000 </r>
       <r>   -4.6011    1.0000 </r>
       <r>   -0.9999    0.0000 </r>
       <r>    1.1061    0.0000 </r>
       <r>    5.1739    0.0000 </r>
       <r>    5.9652    0.0000 </r>
      </set>
      <set comment="kpoint 211">
       <r>  -18.8014    1.0000 </r>
       <r>  -17.0615    1.0000 </r>
       <r>  -14.2813    1.0000 </r>
       <r>  -12.6655    1.0000 </r>
       <r>  -12.0367    1.0000 </r>
       <r>  -10.5904    1.0000 </r>
       <r>   -6.4174    1.0000 </r>
       <r>   -4.6093    1.0000 </r>
       <r>   -1.0290    0.0000 </r>
       <r>    1.0308    0.0000 </r>
       <r>    5.2148    0.0000 </r>
       <r>    6.0132    0.0000 </r>
      </set>
      <set comment="kpoint 212">
       <r>  -18.7529    1.0000 </r>
       <r>  -17.0253    1.0000 </r>
       <r>  -14.5593    1.0000 </r>
       <r>  -12.9362    1.0000 </r>
       <r>  -11.7188    1.0000 </r>
       <r>  -10.3329    1.0000 </r>
       <r>   -6.3738    1.0000 </r>
       <r>   -4.6246    1.0000 </r>
       <r>   -1.0715    0.0000 </r>
       <r>    0.9112    0.0000 </r>
       <r>    5.2826    0.0000 </r>
       <r>    6.0920    0.0000 </r>
      </set>
      <set comment="kpoint 213">
       <r>  -18.6851    1.0000 </r>
       <r>  -16.9780    1.0000 </r>
       <r>  -14.8537    1.0000 </r>
       <r>  -13.2331    1.0000 </r>
       <r>  -11.3682    1.0000 </r>
       <r>  -10.0594    1.0000 </r>
       <r>   -6.3134    1.0000 </r>
       <r>   -4.6494    1.0000 </r>
       <r>   -1.1197    0.0000 </r>
       <r>    0.7552    0.0000 </r>
       <r>    5.3764    0.0000 </r>
       <r>    6.2002    0.0000 </r>
      </set>
      <set comment="kpoint 214">
       <r>  -18.5984    1.0000 </r>
       <r>  -16.9249    1.0000 </r>
       <r>  -15.1407    1.0000 </r>
       <r>  -13.5379    1.0000 </r>
       <r>  -11.0069    1.0000 </r>
       <r>   -9.7927    1.0000 </r>
       <r>   -6.2370    1.0000 </r>
       <r>   -4.6865    1.0000 </r>
       <r>   -1.1645    0.0000 </r>
       <r>    0.5716    0.0000 </r>
       <r>    5.4918    0.0000 </r>
       <r>    6.1785    0.0000 </r>
      </set>
      <set comment="kpoint 215">
       <r>  -18.4930    1.0000 </r>
       <r>  -16.8760    1.0000 </r>
       <r>  -15.4012    1.0000 </r>
       <r>  -13.8410    1.0000 </r>
       <r>  -10.6485    1.0000 </r>
       <r>   -9.5482    1.0000 </r>
       <r>   -6.1457    1.0000 </r>
       <r>   -4.7386    1.0000 </r>
       <r>   -1.1964    0.0000 </r>
       <r>    0.3695    0.0000 </r>
       <r>    5.5728    0.0000 </r>
       <r>    5.8034    0.0000 </r>
      </set>
      <set comment="kpoint 216">
       <r>  -18.3694    1.0000 </r>
       <r>  -16.8500    1.0000 </r>
       <r>  -15.6114    1.0000 </r>
       <r>  -14.1368    1.0000 </r>
       <r>  -10.3034    1.0000 </r>
       <r>   -9.3380    1.0000 </r>
       <r>   -6.0407    1.0000 </r>
       <r>   -4.8077    1.0000 </r>
       <r>   -1.2073    0.0000 </r>
       <r>    0.1572    0.0000 </r>
       <r>    5.3081    0.0000 </r>
       <r>    5.8658    0.0000 </r>
      </set>
      <set comment="kpoint 217">
       <r>  -18.2283    1.0000 </r>
       <r>  -16.8757    1.0000 </r>
       <r>  -15.7397    1.0000 </r>
       <r>  -14.4213    1.0000 </r>
       <r>   -9.9812    1.0000 </r>
       <r>   -9.1726    1.0000 </r>
       <r>   -5.9237    1.0000 </r>
       <r>   -4.8947    1.0000 </r>
       <r>   -1.1911    0.0000 </r>
       <r>   -0.0576    0.0000 </r>
       <r>    5.0138    0.0000 </r>
       <r>    5.8388    0.0000 </r>
      </set>
      <set comment="kpoint 218">
       <r>  -18.0707    1.0000 </r>
       <r>  -16.9732    1.0000 </r>
       <r>  -15.7642    1.0000 </r>
       <r>  -14.6914    1.0000 </r>
       <r>   -9.6911    1.0000 </r>
       <r>   -9.0608    1.0000 </r>
       <r>   -5.7968    1.0000 </r>
       <r>   -4.9986    1.0000 </r>
       <r>   -1.1439    0.0000 </r>
       <r>   -0.2680    0.0000 </r>
       <r>    4.7968    0.0000 </r>
       <r>    5.4403    0.0000 </r>
      </set>
      <set comment="kpoint 219">
       <r>  -17.8978    1.0000 </r>
       <r>  -17.1305    1.0000 </r>
       <r>  -15.6958    1.0000 </r>
       <r>  -14.9445    1.0000 </r>
       <r>   -9.4422    1.0000 </r>
       <r>   -9.0096    1.0000 </r>
       <r>   -5.6624    1.0000 </r>
       <r>   -5.1172    1.0000 </r>
       <r>   -1.0648    0.0000 </r>
       <r>   -0.4680    0.0000 </r>
       <r>    4.6700    0.0000 </r>
       <r>    5.1122    0.0000 </r>
      </set>
      <set comment="kpoint 220">
       <r>  -17.7119    1.0000 </r>
       <r>  -17.3189    1.0000 </r>
       <r>  -15.5625    1.0000 </r>
       <r>  -15.1773    1.0000 </r>
       <r>   -9.2433    1.0000 </r>
       <r>   -9.0230    1.0000 </r>
       <r>   -5.5235    1.0000 </r>
       <r>   -5.2469    1.0000 </r>
       <r>   -0.9546    0.0000 </r>
       <r>   -0.6523    0.0000 </r>
       <r>    4.6388    0.0000 </r>
       <r>    4.8641    0.0000 </r>
      </set>
      <set comment="kpoint 221">
       <r>  -17.5168    1.0000 </r>
       <r>  -17.5168    1.0000 </r>
       <r>  -15.3856    1.0000 </r>
       <r>  -15.3856    1.0000 </r>
       <r>   -9.1017    1.0000 </r>
       <r>   -9.1017    1.0000 </r>
       <r>   -5.3837    1.0000 </r>
       <r>   -5.3837    1.0000 </r>
       <r>   -0.8159    0.0000 </r>
       <r>   -0.8159    0.0000 </r>
       <r>    4.7044    0.0000 </r>
       <r>    4.7044    0.0000 </r>
      </set>
      <set comment="kpoint 222">
       <r>  -18.4270    1.0000 </r>
       <r>  -17.5490    1.0000 </r>
       <r>  -13.6033    1.0000 </r>
       <r>  -12.8034    1.0000 </r>
       <r>  -12.0343    1.0000 </r>
       <r>  -11.2772    1.0000 </r>
       <r>   -6.0018    1.0000 </r>
       <r>   -5.0696    1.0000 </r>
       <r>   -0.4920    0.0000 </r>
       <r>    0.5708    0.0000 </r>
       <r>    5.7476    0.0000 </r>
       <r>    6.5019    0.0000 </r>
      </set>
      <set comment="kpoint 223">
       <r>  -18.4175    1.0000 </r>
       <r>  -17.5403    1.0000 </r>
       <r>  -13.6923    1.0000 </r>
       <r>  -12.8888    1.0000 </r>
       <r>  -11.9398    1.0000 </r>
       <r>  -11.1912    1.0000 </r>
       <r>   -5.9942    1.0000 </r>
       <r>   -5.0671    1.0000 </r>
       <r>   -0.5087    0.0000 </r>
       <r>    0.5471    0.0000 </r>
       <r>    5.7612    0.0000 </r>
       <r>    6.5189    0.0000 </r>
      </set>
      <set comment="kpoint 224">
       <r>  -18.3888    1.0000 </r>
       <r>  -17.5142    1.0000 </r>
       <r>  -13.9128    1.0000 </r>
       <r>  -13.1023    1.0000 </r>
       <r>  -11.7037    1.0000 </r>
       <r>  -10.9767    1.0000 </r>
       <r>   -5.9718    1.0000 </r>
       <r>   -5.0599    1.0000 </r>
       <r>   -0.5570    0.0000 </r>
       <r>    0.4778    0.0000 </r>
       <r>    5.8019    0.0000 </r>
       <r>    6.5693    0.0000 </r>
      </set>
      <set comment="kpoint 225">
       <r>  -18.3413    1.0000 </r>
       <r>  -17.4713    1.0000 </r>
       <r>  -14.1947    1.0000 </r>
       <r>  -13.3786    1.0000 </r>
       <r>  -11.3970    1.0000 </r>
       <r>  -10.7006    1.0000 </r>
       <r>   -5.9350    1.0000 </r>
       <r>   -5.0492    1.0000 </r>
       <r>   -0.6315    0.0000 </r>
       <r>    0.3683    0.0000 </r>
       <r>    5.8692    0.0000 </r>
       <r>    6.6517    0.0000 </r>
      </set>
      <set comment="kpoint 226">
       <r>  -18.2750    1.0000 </r>
       <r>  -17.4126    1.0000 </r>
       <r>  -14.4978    1.0000 </r>
       <r>  -13.6799    1.0000 </r>
       <r>  -11.0614    1.0000 </r>
       <r>  -10.4038    1.0000 </r>
       <r>   -5.8845    1.0000 </r>
       <r>   -5.0367    1.0000 </r>
       <r>   -0.7245    0.0000 </r>
       <r>    0.2262    0.0000 </r>
       <r>    5.9613    0.0000 </r>
       <r>    6.7642    0.0000 </r>
      </set>
      <set comment="kpoint 227">
       <r>  -18.1904    1.0000 </r>
       <r>  -17.3397    1.0000 </r>
       <r>  -14.8019    1.0000 </r>
       <r>  -13.9876    1.0000 </r>
       <r>  -10.7192    1.0000 </r>
       <r>  -10.1089    1.0000 </r>
       <r>   -5.8214    1.0000 </r>
       <r>   -5.0251    1.0000 </r>
       <r>   -0.8263    0.0000 </r>
       <r>    0.0606    0.0000 </r>
       <r>    6.0643    0.0000 </r>
       <r>    6.4529    0.0000 </r>
      </set>
      <set comment="kpoint 228">
       <r>  -18.0880    1.0000 </r>
       <r>  -17.2557    1.0000 </r>
       <r>  -15.0951    1.0000 </r>
       <r>  -14.2919    1.0000 </r>
       <r>  -10.3842    1.0000 </r>
       <r>   -9.8310    1.0000 </r>
       <r>   -5.7475    1.0000 </r>
       <r>   -5.0175    1.0000 </r>
       <r>   -0.9267    0.0000 </r>
       <r>   -0.1193    0.0000 </r>
       <r>    5.9055    0.0000 </r>
       <r>    6.2837    0.0000 </r>
      </set>
      <set comment="kpoint 229">
       <r>  -17.9687    1.0000 </r>
       <r>  -17.1661    1.0000 </r>
       <r>  -15.3667    1.0000 </r>
       <r>  -14.5870    1.0000 </r>
       <r>  -10.0676    1.0000 </r>
       <r>   -9.5818    1.0000 </r>
       <r>   -5.6645    1.0000 </r>
       <r>   -5.0174    1.0000 </r>
       <r>   -1.0156    0.0000 </r>
       <r>   -0.3044    0.0000 </r>
       <r>    5.5062    0.0000 </r>
       <r>    6.0004    0.0000 </r>
      </set>
      <set comment="kpoint 230">
       <r>  -17.8338    1.0000 </r>
       <r>  -17.0816    1.0000 </r>
       <r>  -15.6032    1.0000 </r>
       <r>  -14.8685    1.0000 </r>
       <r>   -9.7790    1.0000 </r>
       <r>   -9.3718    1.0000 </r>
       <r>   -5.5751    1.0000 </r>
       <r>   -5.0282    1.0000 </r>
       <r>   -1.0840    0.0000 </r>
       <r>   -0.4862    0.0000 </r>
       <r>    5.1599    0.0000 </r>
       <r>    5.5741    0.0000 </r>
      </set>
      <set comment="kpoint 231">
       <r>  -17.6852    1.0000 </r>
       <r>  -17.0219    1.0000 </r>
       <r>  -15.7829    1.0000 </r>
       <r>  -15.1322    1.0000 </r>
       <r>   -9.5282    1.0000 </r>
       <r>   -9.2106    1.0000 </r>
       <r>   -5.4821    1.0000 </r>
       <r>   -5.0528    1.0000 </r>
       <r>   -1.1244    0.0000 </r>
       <r>   -0.6571    0.0000 </r>
       <r>    4.8905    0.0000 </r>
       <r>    5.2141    0.0000 </r>
      </set>
      <set comment="kpoint 232">
       <r>  -17.5266    1.0000 </r>
       <r>  -17.0163    1.0000 </r>
       <r>  -15.8755    1.0000 </r>
       <r>  -15.3734    1.0000 </r>
       <r>   -9.3242    1.0000 </r>
       <r>   -9.1060    1.0000 </r>
       <r>   -5.3891    1.0000 </r>
       <r>   -5.0929    1.0000 </r>
       <r>   -1.1314    0.0000 </r>
       <r>   -0.8100    0.0000 </r>
       <r>    4.7084    0.0000 </r>
       <r>    4.9309    0.0000 </r>
      </set>
      <set comment="kpoint 233">
       <r>  -17.3640    1.0000 </r>
       <r>  -17.0836    1.0000 </r>
       <r>  -15.8615    1.0000 </r>
       <r>  -15.5851    1.0000 </r>
       <r>   -9.1750    1.0000 </r>
       <r>   -9.0639    1.0000 </r>
       <r>   -5.3000    1.0000 </r>
       <r>   -5.1486    1.0000 </r>
       <r>   -1.1024    0.0000 </r>
       <r>   -0.9385    0.0000 </r>
       <r>    4.6200    0.0000 </r>
       <r>    4.7334    0.0000 </r>
      </set>
      <set comment="kpoint 234">
       <r>  -17.2092    1.0000 </r>
       <r>  -17.2092    1.0000 </r>
       <r>  -15.7549    1.0000 </r>
       <r>  -15.7549    1.0000 </r>
       <r>   -9.0870    1.0000 </r>
       <r>   -9.0870    1.0000 </r>
       <r>   -5.2186    1.0000 </r>
       <r>   -5.2186    1.0000 </r>
       <r>   -1.0374    0.0000 </r>
       <r>   -1.0374    0.0000 </r>
       <r>    4.6285    0.0000 </r>
       <r>    4.6285    0.0000 </r>
      </set>
      <set comment="kpoint 235">
       <r>  -17.9956    1.0000 </r>
       <r>  -17.9956    1.0000 </r>
       <r>  -13.2131    1.0000 </r>
       <r>  -13.2131    1.0000 </r>
       <r>  -11.6660    1.0000 </r>
       <r>  -11.6660    1.0000 </r>
       <r>   -5.5392    1.0000 </r>
       <r>   -5.5392    1.0000 </r>
       <r>    0.0288    0.0000 </r>
       <r>    0.0288    0.0000 </r>
       <r>    6.3655    0.0000 </r>
       <r>    6.3655    0.0000 </r>
      </set>
      <set comment="kpoint 236">
       <r>  -17.9863    1.0000 </r>
       <r>  -17.9863    1.0000 </r>
       <r>  -13.3008    1.0000 </r>
       <r>  -13.3008    1.0000 </r>
       <r>  -11.5753    1.0000 </r>
       <r>  -11.5753    1.0000 </r>
       <r>   -5.5337    1.0000 </r>
       <r>   -5.5337    1.0000 </r>
       <r>    0.0079    0.0000 </r>
       <r>    0.0079    0.0000 </r>
       <r>    6.3790    0.0000 </r>
       <r>    6.3790    0.0000 </r>
      </set>
      <set comment="kpoint 237">
       <r>  -17.9586    1.0000 </r>
       <r>  -17.9586    1.0000 </r>
       <r>  -13.5187    1.0000 </r>
       <r>  -13.5187    1.0000 </r>
       <r>  -11.3490    1.0000 </r>
       <r>  -11.3490    1.0000 </r>
       <r>   -5.5172    1.0000 </r>
       <r>   -5.5172    1.0000 </r>
       <r>   -0.0528    0.0000 </r>
       <r>   -0.0528    0.0000 </r>
       <r>    6.4194    0.0000 </r>
       <r>    6.4194    0.0000 </r>
      </set>
      <set comment="kpoint 238">
       <r>  -17.9127    1.0000 </r>
       <r>  -17.9127    1.0000 </r>
       <r>  -13.7992    1.0000 </r>
       <r>  -13.7992    1.0000 </r>
       <r>  -11.0563    1.0000 </r>
       <r>  -11.0563    1.0000 </r>
       <r>   -5.4905    1.0000 </r>
       <r>   -5.4905    1.0000 </r>
       <r>   -0.1482    0.0000 </r>
       <r>   -0.1482    0.0000 </r>
       <r>    6.4859    0.0000 </r>
       <r>    6.4859    0.0000 </r>
      </set>
      <set comment="kpoint 239">
       <r>  -17.8490    1.0000 </r>
       <r>  -17.8490    1.0000 </r>
       <r>  -14.1030    1.0000 </r>
       <r>  -14.1030    1.0000 </r>
       <r>  -10.7388    1.0000 </r>
       <r>  -10.7388    1.0000 </r>
       <r>   -5.4549    1.0000 </r>
       <r>   -5.4549    1.0000 </r>
       <r>   -0.2704    0.0000 </r>
       <r>   -0.2704    0.0000 </r>
       <r>    6.5744    0.0000 </r>
       <r>    6.5744    0.0000 </r>
      </set>
      <set comment="kpoint 240">
       <r>  -17.7682    1.0000 </r>
       <r>  -17.7682    1.0000 </r>
       <r>  -14.4114    1.0000 </r>
       <r>  -14.4114    1.0000 </r>
       <r>  -10.4188    1.0000 </r>
       <r>  -10.4188    1.0000 </r>
       <r>   -5.4120    1.0000 </r>
       <r>   -5.4120    1.0000 </r>
       <r>   -0.4103    0.0000 </r>
       <r>   -0.4103    0.0000 </r>
       <r>    6.6053    0.0000 </r>
       <r>    6.6053    0.0000 </r>
      </set>
      <set comment="kpoint 241">
       <r>  -17.6715    1.0000 </r>
       <r>  -17.6715    1.0000 </r>
       <r>  -14.7139    1.0000 </r>
       <r>  -14.7139    1.0000 </r>
       <r>  -10.1107    1.0000 </r>
       <r>  -10.1107    1.0000 </r>
       <r>   -5.3643    1.0000 </r>
       <r>   -5.3643    1.0000 </r>
       <r>   -0.5580    0.0000 </r>
       <r>   -0.5580    0.0000 </r>
       <r>    6.1836    0.0000 </r>
       <r>    6.1836    0.0000 </r>
      </set>
      <set comment="kpoint 242">
       <r>  -17.5608    1.0000 </r>
       <r>  -17.5608    1.0000 </r>
       <r>  -15.0038    1.0000 </r>
       <r>  -15.0038    1.0000 </r>
       <r>   -9.8260    1.0000 </r>
       <r>   -9.8260    1.0000 </r>
       <r>   -5.3146    1.0000 </r>
       <r>   -5.3146    1.0000 </r>
       <r>   -0.7038    0.0000 </r>
       <r>   -0.7038    0.0000 </r>
       <r>    5.7363    0.0000 </r>
       <r>    5.7363    0.0000 </r>
      </set>
      <set comment="kpoint 243">
       <r>  -17.4393    1.0000 </r>
       <r>  -17.4393    1.0000 </r>
       <r>  -15.2746    1.0000 </r>
       <r>  -15.2746    1.0000 </r>
       <r>   -9.5749    1.0000 </r>
       <r>   -9.5749    1.0000 </r>
       <r>   -5.2663    1.0000 </r>
       <r>   -5.2663    1.0000 </r>
       <r>   -0.8384    0.0000 </r>
       <r>   -0.8384    0.0000 </r>
       <r>    5.3470    0.0000 </r>
       <r>    5.3470    0.0000 </r>
      </set>
      <set comment="kpoint 244">
       <r>  -17.3129    1.0000 </r>
       <r>  -17.3129    1.0000 </r>
       <r>  -15.5187    1.0000 </r>
       <r>  -15.5187    1.0000 </r>
       <r>   -9.3672    1.0000 </r>
       <r>   -9.3672    1.0000 </r>
       <r>   -5.2231    1.0000 </r>
       <r>   -5.2231    1.0000 </r>
       <r>   -0.9535    0.0000 </r>
       <r>   -0.9535    0.0000 </r>
       <r>    5.0301    0.0000 </r>
       <r>    5.0301    0.0000 </r>
      </set>
      <set comment="kpoint 245">
       <r>  -17.1929    1.0000 </r>
       <r>  -17.1929    1.0000 </r>
       <r>  -15.7236    1.0000 </r>
       <r>  -15.7236    1.0000 </r>
       <r>   -9.2114    1.0000 </r>
       <r>   -9.2114    1.0000 </r>
       <r>   -5.1888    1.0000 </r>
       <r>   -5.1888    1.0000 </r>
       <r>   -1.0416    0.0000 </r>
       <r>   -1.0416    0.0000 </r>
       <r>    4.7957    0.0000 </r>
       <r>    4.7957    0.0000 </r>
      </set>
      <set comment="kpoint 246">
       <r>  -17.0998    1.0000 </r>
       <r>  -17.0998    1.0000 </r>
       <r>  -15.8679    1.0000 </r>
       <r>  -15.8679    1.0000 </r>
       <r>   -9.1148    1.0000 </r>
       <r>   -9.1148    1.0000 </r>
       <r>   -5.1667    1.0000 </r>
       <r>   -5.1667    1.0000 </r>
       <r>   -1.0970    0.0000 </r>
       <r>   -1.0970    0.0000 </r>
       <r>    4.6516    0.0000 </r>
       <r>    4.6516    0.0000 </r>
      </set>
      <set comment="kpoint 247">
       <r>  -17.0632    1.0000 </r>
       <r>  -17.0632    1.0000 </r>
       <r>  -15.9216    1.0000 </r>
       <r>  -15.9216    1.0000 </r>
       <r>   -9.0820    1.0000 </r>
       <r>   -9.0820    1.0000 </r>
       <r>   -5.1590    1.0000 </r>
       <r>   -5.1590    1.0000 </r>
       <r>   -1.1159    0.0000 </r>
       <r>   -1.1159    0.0000 </r>
       <r>    4.6030    0.0000 </r>
       <r>    4.6030    0.0000 </r>
      </set>
     </set>
    </set>
   </array>
  </eigenvalues>
  <separator name="orbital magnetization" >
   <v name="MAGDIPOLOUT">      0.00000000      0.00000000      0.00000000</v>
  </separator>
 </calculation>
 <structure name="finalpos" >
  <crystal>
   <varray name="basis" >
    <v>       4.26563350       0.00000000       0.00000000 </v>
    <v>       0.00000000       2.49197349       0.00000000 </v>
    <v>       0.00000000       0.00000000      19.83452152 </v>
   </varray>
   <i name="volume">    210.83790140 </i>
   <varray name="rec_basis" >
    <v>       0.23443177       0.00000000       0.00000000 </v>
    <v>       0.00000000       0.40128838       0.00000000 </v>
    <v>       0.00000000       0.00000000       0.05041715 </v>
   </varray>
  </crystal>
  <varray name="positions" >
   <v>       0.00026164      -0.00000000       0.00000000 </v>
   <v>       0.16640503       0.50000000      -0.00000000 </v>
   <v>       0.50026164       0.50000000       0.00000000 </v>
   <v>       0.66640503       0.00000000      -0.00000000 </v>
  </varray>
 </structure>
</modeling>
