gr                                      
           1
     4.265633    0.000000    0.000000
     0.000000    2.491973    0.000000
     0.000000    0.000000   19.834522
   C 
   4
Direct configuration=     1
   0.00026297  0.00000000  0.00000000
   0.16640370  0.50000000  0.00000000
   0.50026297  0.50000000  0.00000000
   0.66640370  0.00000000  0.00000000
Direct configuration=     2
   0.00025622 -0.00000000  0.00000000
   0.16641045  0.50000000  0.00000000
   0.50025622  0.50000000  0.00000000
   0.66641045  0.00000000  0.00000000
Direct configuration=     3
   0.00026164  0.00000000  0.00000000
   0.16640503  0.50000000 -0.00000000
   0.50026164  0.50000000  0.00000000
   0.66640503  0.00000000 -0.00000000
Direct configuration=     4
   0.00026164  0.00000000  0.00000000
   0.16640502  0.50000000 -0.00000000
   0.50026164  0.50000000  0.00000000
   0.66640502  0.00000000 -0.00000000
Direct configuration=     5
   0.00026164 -0.00000000  0.00000000
   0.16640503  0.50000000 -0.00000000
   0.50026164  0.50000000  0.00000000
   0.66640503  0.00000000 -0.00000000
