    4    4  400    1
  0.5270948E+02  0.4295692E-09  0.2464840E-09  0.1991255E-08  0.5000000E-15
  1.000000000000000E-004
  CAR 
 gr                                      
     16    247     12
 
  0.0000000E+00  0.0000000E+00  0.0000000E+00  0.1157407E-02
    1      -22.217470
    2      -17.073035
    3      -15.945051
    4      -10.330996
    5       -9.081763
    6       -5.834035
    7       -5.773051
    8       -5.159613
    9       -1.099665
   10        0.528161
   11        1.328652
   12        1.713720
 
  0.4166667E-01  0.0000000E+00  0.0000000E+00  0.2314815E-02
    1      -22.207326
    2      -17.226221
    3      -15.776660
    4      -10.318895
    5       -9.071735
    6       -5.877131
    7       -5.795079
    8       -5.224400
    9       -1.018936
   10        0.541912
   11        1.342588
   12        1.727826
 
  0.8333333E-01  0.0000000E+00  0.0000000E+00  0.2314815E-02
    1      -22.176900
    2      -17.549066
    3      -15.408278
    4      -10.282609
    5       -9.041703
    6       -6.004583
    7       -5.859959
    8       -5.404506
    9       -0.791171
   10        0.583167
   11        1.384390
   12        1.770142
 
  0.1250000E+00  0.0000000E+00  0.0000000E+00  0.2314815E-02
    1      -22.126210
    2      -17.915895
    3      -14.965837
    4      -10.222196
    5       -8.991819
    6       -6.211207
    7       -5.964282
    8       -5.667991
    9       -0.448817
   10        0.651936
   11        1.454047
   12        1.840670
 
  0.1666667E+00  0.0000000E+00  0.0000000E+00  0.2314815E-02
    1      -22.055292
    2      -18.287965
    3      -14.488508
    4      -10.137754
    5       -8.922345
    6       -6.489303
    7       -6.102960
    8       -5.982838
    9       -0.024745
   10        0.748226
   11        1.551536
   12        1.939414
 
  0.2083333E+00  0.0000000E+00  0.0000000E+00  0.2314815E-02
    1      -21.964194
    2      -18.652739
    3      -13.989449
    4      -10.029424
    5       -8.833660
    6       -6.829721
    7       -6.324950
    8       -6.269910
    9        0.455716
   10        0.872040
   11        1.676821
   12        2.066373
 
  0.2500000E+00  0.0000000E+00  0.0000000E+00  0.2314815E-02
    1      -21.852979
    2      -19.005102
    3      -13.474597
    4       -9.897396
    5       -8.726268
    6       -7.222837
    7       -6.678121
    8       -6.458702
    9        0.974711
   10        1.023368
   11        1.829847
   12        2.221547
 
  0.2916667E+00  0.0000000E+00  0.0000000E+00  0.2314815E-02
    1      -21.721729
    2      -19.342527
    3      -12.947528
    4       -9.741914
    5       -8.600819
    6       -7.659295
    7       -7.031764
    8       -6.663063
    9        1.202189
   10        1.519501
   11        2.010533
   12        2.404934
 
  0.3333333E+00  0.0000000E+00  0.0000000E+00  0.2314815E-02
    1      -21.570540
    2      -19.663572
    3      -12.410991
    4       -9.563290
    5       -8.458129
    6       -8.130459
    7       -7.378902
    8       -6.877202
    9        1.408466
   10        2.080204
   11        2.218743
   12        2.616530
 
  0.3750000E+00  0.0000000E+00  0.0000000E+00  0.2314815E-02
    1      -21.399530
    2      -19.967315
    3      -11.867511
    4       -9.361916
    5       -8.628629
    6       -8.299206
    7       -7.714824
    8       -7.095974
    9        1.642150
   10        2.454239
   11        2.647501
   12        2.856326
 
  0.4166667E+00  0.0000000E+00  0.0000000E+00  0.2314815E-02
    1      -21.208836
    2      -20.253114
    3      -11.319668
    4       -9.147086
    5       -9.138281
    6       -8.125286
    7       -8.036251
    8       -7.314923
    9        1.903170
   10        2.716520
   11        3.124308
   12        3.205246
 
  0.4583333E+00  0.0000000E+00  0.0000000E+00  0.2314815E-02
    1      -20.998625
    2      -20.520497
    3      -10.770277
    4       -9.680035
    5       -8.893000
    6       -8.340837
    7       -7.937873
    8       -7.530258
    9        2.191431
   10        2.849087
   11        3.004252
   12        3.420456
 
  0.5000000E+00  0.0000000E+00  0.0000000E+00  0.1157407E-02
    1      -20.769099
    2      -20.769099
    3      -10.222515
    4      -10.222515
    5       -8.626852
    6       -8.626852
    7       -7.738795
    8       -7.738795
    9        2.506802
   10        2.506802
   11        3.311867
   12        3.311867
 
  0.0000000E+00  0.2777778E-01  0.0000000E+00  0.2314815E-02
    1      -22.203768
    2      -17.061250
    3      -15.933417
    4      -10.314650
    5       -9.143729
    6       -5.863330
    7       -5.830358
    8       -5.142968
    9       -1.103270
   10        0.546744
   11        1.347466
   12        1.732764
 
  0.4166667E-01  0.2777778E-01  0.0000000E+00  0.4629630E-02
    1      -22.193625
    2      -17.214277
    3      -15.765233
    4      -10.302552
    5       -9.133686
    6       -5.913786
    7       -5.844367
    8       -5.207893
    9       -1.022517
   10        0.560495
   11        1.361401
   12        1.746869
 
  0.8333333E-01  0.2777778E-01  0.0000000E+00  0.4629630E-02
    1      -22.163203
    2      -17.536871
    3      -15.397255
    4      -10.266279
    5       -9.103606
    6       -6.045650
    7       -5.902975
    8       -5.388318
    9       -0.794778
   10        0.601751
   11        1.403201
   12        1.789186
 
  0.1250000E+00  0.2777778E-01  0.0000000E+00  0.4629630E-02
    1      -22.112521
    2      -17.903474
    3      -14.955295
    4      -10.205887
    5       -9.053639
    6       -6.251238
    7       -6.005583
    8       -5.652134
    9       -0.452669
   10        0.670523
   11        1.472854
   12        1.859715
 
  0.1666667E+00  0.2777778E-01  0.0000000E+00  0.4629630E-02
    1      -22.041613
    2      -18.275351
    3      -14.478530
    4      -10.121474
    5       -8.984042
    6       -6.525336
    7       -6.145004
    8       -5.967229
    9       -0.029159
   10        0.766818
   11        1.570337
   12        1.958459
 
  0.2083333E+00  0.2777778E-01  0.0000000E+00  0.4629630E-02
    1      -21.950529
    2      -18.639961
    3      -13.980135
    4      -10.013181
    5       -8.895183
    6       -6.860439
    7       -6.313863
    8       -6.309487
    9        0.450405
   10        0.890639
   11        1.695615
   12        2.085420
 
  0.2500000E+00  0.2777778E-01  0.0000000E+00  0.4629630E-02
    1      -21.839333
    2      -18.992184
    3      -13.466067
    4       -9.881198
    5       -8.787557
    6       -7.247895
    7       -6.662718
    8       -6.505020
    9        0.968191
   10        1.041976
   11        1.848634
   12        2.240596
 
  0.2916667E+00  0.2777778E-01  0.0000000E+00  0.4629630E-02
    1      -21.708105
    2      -19.329488
    3      -12.939928
    4       -9.725769
    5       -8.661800
    6       -7.678897
    7       -7.016360
    8       -6.711814
    9        1.220807
   10        1.511503
   11        2.029313
   12        2.423987
 
  0.3333333E+00  0.2777778E-01  0.0000000E+00  0.4629630E-02
    1      -21.556942
    2      -19.650428
    3      -12.404499
    4       -9.547207
    5       -8.518711
    6       -8.145088
    7       -7.363457
    8       -6.928245
    9        1.427097
   10        2.070537
   11        2.237519
   12        2.635586
 
  0.3750000E+00  0.2777778E-01  0.0000000E+00  0.4629630E-02
    1      -21.385963
    2      -19.954081
    3      -11.862341
    4       -9.345902
    5       -8.638878
    6       -8.359276
    7       -7.699312
    8       -7.149067
    9        1.660795
   10        2.473016
   11        2.636183
   12        2.875387
 
  0.4166667E+00  0.2777778E-01  0.0000000E+00  0.4629630E-02
    1      -21.195306
    2      -20.239803
    3      -11.316080
    4       -9.153561
    5       -9.122342
    6       -8.184707
    7       -8.020658
    8       -7.369789
    9        1.921830
   10        2.735309
   11        3.143376
   12        3.193489
 
  0.4583333E+00  0.2777778E-01  0.0000000E+00  0.4629630E-02
    1      -20.985138
    2      -20.507118
    3      -10.768582
    4       -9.683304
    5       -8.877144
    6       -8.325156
    7       -7.996481
    8       -7.586620
    9        2.210111
   10        2.867838
   11        3.023071
   12        3.439549
 
  0.5000000E+00  0.2777778E-01  0.0000000E+00  0.2314815E-02
    1      -20.755662
    2      -20.755662
    3      -10.223083
    4      -10.223083
    5       -8.611083
    6       -8.611083
    7       -7.796394
    8       -7.796394
    9        2.525509
   10        2.525509
   11        3.330618
   12        3.330618
 
  0.0000000E+00  0.5555556E-01  0.0000000E+00  0.2314815E-02
    1      -22.162670
    2      -17.025896
    3      -15.898664
    4      -10.265644
    5       -9.324655
    6       -5.997684
    7       -5.950562
    8       -5.093052
    9       -1.114912
   10        0.602495
   11        1.403901
   12        1.789895
 
  0.4166667E-01  0.5555556E-01  0.0000000E+00  0.4629630E-02
    1      -22.152532
    2      -17.178461
    3      -15.731095
    4      -10.253559
    5       -9.314560
    6       -6.052150
    7       -5.958628
    8       -5.158404
    9       -1.034082
   10        0.616247
   11        1.417834
   12        1.804000
 
  0.8333333E-01  0.5555556E-01  0.0000000E+00  0.4629630E-02
    1      -22.122123
    2      -17.500303
    3      -15.364332
    4      -10.217323
    5       -9.284322
    6       -6.184962
    7       -6.010825
    8       -5.339812
    9       -0.806413
   10        0.657506
   11        1.459626
   12        1.846318
 
  0.1250000E+00  0.5555556E-01  0.0000000E+00  0.4629630E-02
    1      -22.071463
    2      -17.866232
    3      -14.923838
    4      -10.156994
    5       -9.234081
    6       -6.383513
    7       -6.112350
    8       -5.604644
    9       -0.465048
   10        0.726283
   11        1.529266
   12        1.916848
 
  0.1666667E+00  0.5555556E-01  0.0000000E+00  0.4629630E-02
    1      -22.000589
    2      -18.237532
    3      -14.448796
    4      -10.072668
    5       -9.164074
    6       -6.643967
    7       -6.255756
    8       -5.920493
    9       -0.043254
   10        0.822589
   11        1.626732
   12        2.015595
 
  0.2083333E+00  0.5555556E-01  0.0000000E+00  0.4629630E-02
    1      -21.909548
    2      -18.601648
    3      -13.952435
    4       -9.964488
    5       -9.074643
    6       -6.961678
    7       -6.431856
    8       -6.263192
    9        0.433569
   10        0.946425
   11        1.751988
   12        2.142560
 
  0.2500000E+00  0.5555556E-01  0.0000000E+00  0.4629630E-02
    1      -21.798405
    2      -18.953447
    3      -13.440781
    4       -9.832643
    5       -8.966246
    6       -7.330602
    7       -6.631694
    8       -6.616604
    9        0.947659
   10        1.097784
   11        1.904984
   12        2.297742
 
  0.2916667E+00  0.5555556E-01  0.0000000E+00  0.4629630E-02
    1      -21.667245
    2      -19.290387
    3      -12.917517
    4       -9.677377
    5       -8.839474
    6       -7.743718
    7       -6.970239
    8       -6.847303
    9        1.276641
   10        1.486446
   11        2.085640
   12        2.481140
 
  0.3333333E+00  0.5555556E-01  0.0000000E+00  0.4629630E-02
    1      -21.516162
    2      -19.611014
    3      -12.385526
    4       -9.499002
    5       -8.695066
    6       -8.193647
    7       -7.317206
    8       -7.071931
    9        1.482961
   10        2.040343
   11        2.293830
   12        2.692749
 
  0.3750000E+00  0.5555556E-01  0.0000000E+00  0.4629630E-02
    1      -21.345276
    2      -19.914395
    3      -11.847490
    4       -9.297908
    5       -8.673189
    6       -8.533937
    7       -7.652854
    8       -7.299979
    9        1.716692
   10        2.529328
   11        2.600793
   12        2.932562
 
  0.4166667E+00  0.5555556E-01  0.0000000E+00  0.4629630E-02
    1      -21.154730
    2      -20.199884
    3      -11.306180
    4       -9.175678
    5       -9.074580
    6       -8.357214
    7       -7.973951
    8       -7.526857
    9        1.977766
   10        2.791660
   11        3.155717
   12        3.200568
 
  0.4583333E+00  0.5555556E-01  0.0000000E+00  0.4629630E-02
    1      -20.944691
    2      -20.466997
    3      -10.764640
    4       -9.695134
    5       -8.829632
    6       -8.278181
    7       -8.166271
    8       -7.748815
    9        2.266093
   10        2.923983
   11        3.079516
   12        3.496751
 
  0.5000000E+00  0.5555556E-01  0.0000000E+00  0.2314815E-02
    1      -20.715365
    2      -20.715365
    3      -10.226308
    4      -10.226308
    5       -8.563836
    6       -8.563836
    7       -7.962788
    8       -7.962788
    9        2.581554
   10        2.581554
   11        3.386831
   12        3.386831
 
  0.0000000E+00  0.8333333E-01  0.0000000E+00  0.2314815E-02
    1      -22.094213
    2      -16.966986
    3      -15.841266
    4      -10.184081
    5       -9.611008
    6       -6.262642
    7       -6.093801
    8       -5.009927
    9       -1.137070
   10        0.695424
   11        1.497936
   12        1.885116
 
  0.4166667E-01  0.8333333E-01  0.0000000E+00  0.4629630E-02
    1      -22.084082
    2      -17.118810
    3      -15.674707
    4      -10.172018
    5       -9.600810
    6       -6.309806
    7       -6.106087
    8       -5.076035
    9       -1.056088
   10        0.709174
   11        1.511863
   12        1.899222
 
  0.8333333E-01  0.8333333E-01  0.0000000E+00  0.4629630E-02
    1      -22.053696
    2      -17.439427
    3      -15.309985
    4      -10.135846
    5       -9.570258
    6       -6.436435
    7       -6.155720
    8       -5.259170
    9       -0.828506
   10        0.750433
   11        1.553641
   12        1.941539
 
  0.1250000E+00  0.8333333E-01  0.0000000E+00  0.4629630E-02
    1      -22.003075
    2      -17.804237
    3      -14.872003
    4      -10.075624
    5       -9.519469
    6       -6.624816
    7       -6.254326
    8       -5.525770
    9       -0.488403
   10        0.819211
   11        1.623257
   12        2.012071
 
  0.1666667E+00  0.8333333E-01  0.0000000E+00  0.4629630E-02
    1      -21.932255
    2      -18.174572
    3      -14.399949
    4       -9.991449
    5       -9.448645
    6       -6.866441
    7       -6.400851
    8       -5.842920
    9       -0.069565
   10        0.915522
   11        1.720690
   12        2.110820
 
  0.2083333E+00  0.8333333E-01  0.0000000E+00  0.4629630E-02
    1      -21.841286
    2      -18.537861
    3      -13.907145
    4       -9.883463
    5       -9.358074
    6       -7.157088
    7       -6.587352
    8       -6.186367
    9        0.402530
   10        1.039372
   11        1.845907
   12        2.237788
 
  0.2500000E+00  0.8333333E-01  0.0000000E+00  0.4629630E-02
    1      -21.730235
    2      -18.888949
    3      -13.399746
    4       -9.751855
    5       -9.248141
    6       -7.493942
    7       -6.802950
    8       -6.540074
    9        0.910242
   10        1.190751
   11        1.998858
   12        2.392977
 
  0.2916667E+00  0.8333333E-01  0.0000000E+00  0.4629630E-02
    1      -21.599185
    2      -19.225278
    3      -12.881592
    4       -9.596869
    5       -9.119341
    6       -7.873870
    7       -7.036629
    8       -6.893684
    9        1.369636
   10        1.441209
   11        2.179469
   12        2.576384
 
  0.3333333E+00  0.8333333E-01  0.0000000E+00  0.4629630E-02
    1      -21.448235
    2      -19.545377
    3      -12.355764
    4       -9.418816
    5       -8.972287
    6       -8.292508
    7       -7.279032
    8       -7.240413
    9        1.575990
   10        1.986159
   11        2.387624
   12        2.788006
 
  0.3750000E+00  0.8333333E-01  0.0000000E+00  0.4629630E-02
    1      -21.277507
    2      -19.848304
    3      -11.825187
    4       -9.218083
    5       -8.807738
    6       -8.744298
    7       -7.575695
    8       -7.523035
    9        1.809757
   10        2.537244
   11        2.623118
   12        3.027834
 
  0.4166667E+00  0.8333333E-01  0.0000000E+00  0.4629630E-02
    1      -21.087145
    2      -20.133399
    3      -11.292939
    4       -9.223082
    5       -8.995156
    6       -8.626622
    7       -7.896356
    8       -7.763460
    9        2.070870
   10        2.885515
   11        3.085472
   12        3.295861
 
  0.4583333E+00  0.8333333E-01  0.0000000E+00  0.4629630E-02
    1      -20.877322
    2      -20.400173
    3      -10.762429
    4       -9.722730
    5       -8.750641
    6       -8.430070
    7       -8.200118
    8       -7.996543
    9        2.359241
   10        3.017276
   11        3.173557
   12        3.589061
 
  0.5000000E+00  0.8333333E-01  0.0000000E+00  0.2314815E-02
    1      -20.648249
    2      -20.648249
    3      -10.237541
    4      -10.237541
    5       -8.485302
    6       -8.485302
    7       -8.219470
    8       -8.219470
    9        2.674759
   10        2.674759
   11        3.480318
   12        3.480318
 
  0.0000000E+00  0.1111111E+00  0.0000000E+00  0.2314815E-02
    1      -21.998458
    2      -16.884540
    3      -15.762121
    4      -10.070136
    5       -9.983940
    6       -6.608318
    7       -6.289923
    8       -4.893697
    9       -1.173854
   10        0.825539
   11        1.629531
   12        2.018430
 
  0.4166667E-01  0.1111111E+00  0.0000000E+00  0.4629630E-02
    1      -21.988338
    2      -17.035396
    3      -15.596940
    4      -10.058104
    5       -9.973561
    6       -6.654542
    7       -6.299117
    8       -4.960965
    9       -1.092597
   10        0.839286
   11        1.643451
   12        2.032535
 
  0.8333333E-01  0.1111111E+00  0.0000000E+00  0.4629630E-02
    1      -21.957983
    2      -17.354353
    3      -15.235123
    4      -10.022027
    5       -9.942451
    6       -6.779911
    7       -6.338500
    8       -5.146725
    9       -0.865048
   10        0.880534
   11        1.685205
   12        2.074851
 
  0.1250000E+00  0.1111111E+00  0.0000000E+00  0.4629630E-02
    1      -21.907416
    2      -17.717609
    3      -14.800832
    4       -9.961962
    5       -9.890691
    6       -6.963814
    7       -6.424179
    8       -5.415971
    9       -0.526735
   10        0.949300
   11        1.754782
   12        2.145381
 
  0.1666667E+00  0.1111111E+00  0.0000000E+00  0.4629630E-02
    1      -21.836673
    2      -18.086588
    3      -14.333249
    4       -9.878007
    5       -9.818414
    6       -7.193085
    7       -6.561898
    8       -5.735030
    9       -0.112208
   10        1.045600
   11        1.852162
   12        2.244130
 
  0.2083333E+00  0.1111111E+00  0.0000000E+00  0.4629630E-02
    1      -21.745806
    2      -18.448707
    3      -13.845849
    4       -9.770304
    5       -9.725807
    6       -7.460664
    7       -6.748719
    8       -6.079550
    9        0.352961
   10        1.169444
   11        1.977311
   12        2.371101
 
  0.2500000E+00  0.1111111E+00  0.0000000E+00  0.4629630E-02
    1      -21.634884
    2      -18.798789
    3      -13.344999
    4       -9.639042
    5       -9.613116
    6       -7.763410
    7       -6.975883
    8       -6.433657
    9        0.851333
   10        1.320827
   11        2.130184
   12        2.526294
 
  0.2916667E+00  0.1111111E+00  0.0000000E+00  0.4629630E-02
    1      -21.503988
    2      -19.134251
    3      -12.834825
    4       -9.484466
    5       -9.480640
    6       -8.100706
    7       -7.231078
    8       -6.787194
    9        1.370840
   10        1.499725
   11        2.310714
   12        2.709709
 
  0.3333333E+00  0.1111111E+00  0.0000000E+00  0.4629630E-02
    1      -21.353225
    2      -19.453603
    3      -12.318770
    4       -9.328736
    5       -9.306886
    6       -8.472871
    7       -7.500932
    8       -7.133545
    9        1.706097
   10        1.902598
   11        2.518798
   12        2.921342
 
  0.3750000E+00  0.1111111E+00  0.0000000E+00  0.4629630E-02
    1      -21.182718
    2      -19.755886
    3      -11.800231
    4       -9.157821
    5       -9.106686
    6       -8.879333
    7       -7.773569
    8       -7.468266
    9        1.939884
   10        2.439446
   11        2.754264
   12        3.161185
 
  0.4166667E+00  0.1111111E+00  0.0000000E+00  0.4629630E-02
    1      -20.992616
    2      -20.040426
    3      -11.282879
    4       -9.317439
    5       -8.968378
    6       -8.884348
    7       -8.040259
    8       -7.788267
    9        2.201016
   10        2.974624
   11        3.016749
   12        3.429231
 
  0.4583333E+00  0.1111111E+00  0.0000000E+00  0.4629630E-02
    1      -20.783100
    2      -20.306721
    3      -10.770870
    4       -9.782548
    5       -8.760982
    6       -8.640472
    7       -8.295548
    8       -8.091330
    9        2.489403
   10        3.147475
   11        3.305119
   12        3.495266
 
  0.5000000E+00  0.1111111E+00  0.0000000E+00  0.2314815E-02
    1      -20.554382
    2      -20.554382
    3      -10.268964
    4      -10.268964
    5       -8.536359
    6       -8.536359
    7       -8.375812
    8       -8.375812
    9        2.804935
   10        2.804935
   11        3.610225
   12        3.610225
 
  0.0000000E+00  0.1388889E+00  0.0000000E+00  0.2314815E-02
    1      -21.875492
    2      -16.778587
    3      -15.662746
    4      -10.422660
    5       -9.924060
    6       -7.016712
    7       -6.534759
    8       -4.744511
    9       -1.230893
   10        0.992844
   11        1.798631
   12        2.189840
 
  0.4166667E-01  0.1388889E+00  0.0000000E+00  0.4629630E-02
    1      -21.865385
    2      -16.928327
    3      -15.499281
    4      -10.411971
    5       -9.912071
    6       -7.063750
    7       -6.538400
    8       -4.813473
    9       -1.149142
   10        1.006583
   11        1.812538
   12        2.203943
 
  0.8333333E-01  0.1388889E+00  0.0000000E+00  0.4629630E-02
    1      -21.835072
    2      -17.245257
    3      -15.141321
    4      -10.379908
    5       -9.876121
    6       -7.191155
    7       -6.562122
    8       -5.003010
    9       -0.921415
   10        1.047808
   11        1.854255
   12        2.246256
 
  0.1250000E+00  0.1388889E+00  0.0000000E+00  0.4629630E-02
    1      -21.784575
    2      -17.606534
    3      -14.712159
    4      -10.326476
    5       -9.816270
    6       -7.375636
    7       -6.626369
    8       -5.275980
    9       -0.585378
   10        1.116539
   11        1.923770
   12        2.316781
 
  0.1666667E+00  0.1388889E+00  0.0000000E+00  0.4629630E-02
    1      -21.713933
    2      -17.973758
    3      -14.250969
    4      -10.251681
    5       -9.732615
    6       -7.600559
    7       -6.742676
    8       -5.597653
    9       -0.176630
   10        1.212800
   11        2.021061
   12        2.415525
 
  0.2083333E+00  0.1388889E+00  0.0000000E+00  0.4629630E-02
    1      -21.623197
    2      -18.334350
    3      -13.771466
    4      -10.155512
    5       -9.625298
    6       -7.855945
    7       -6.913525
    8       -5.943589
    9        0.279194
   10        1.336607
   11        2.146098
   12        2.542491
 
  0.2500000E+00  0.1388889E+00  0.0000000E+00  0.4629630E-02
    1      -21.512438
    2      -18.683116
    3      -13.280399
    4      -10.037924
    5       -9.494510
    6       -8.136205
    7       -7.134803
    8       -6.298171
    9        0.764976
   10        1.487961
   11        2.298836
   12        2.697684
 
  0.2916667E+00  0.1388889E+00  0.0000000E+00  0.4629630E-02
    1      -21.381745
    2      -19.017444
    3      -12.782418
    4       -9.898810
    5       -9.340495
    6       -8.439060
    7       -7.397490
    8       -6.651539
    9        1.269069
   10        1.666840
   11        2.479215
   12        2.881103
 
  0.3333333E+00  0.1388889E+00  0.0000000E+00  0.4629630E-02
    1      -21.231223
    2      -19.335820
    3      -12.281674
    4       -9.737967
    5       -9.163562
    6       -8.765018
    7       -7.689012
    8       -6.997313
    9        1.783057
   10        1.873199
   11        2.687149
   12        3.092743
 
  0.3750000E+00  0.1388889E+00  0.0000000E+00  0.4629630E-02
    1      -21.061003
    2      -19.637260
    3      -11.782494
    4       -9.555051
    5       -9.116621
    6       -8.964094
    7       -7.994801
    8       -7.331218
    9        2.106976
   10        2.300396
   11        2.922511
   12        3.332597
 
  0.4166667E+00  0.1388889E+00  0.0000000E+00  0.4629630E-02
    1      -20.871241
    2      -19.921074
    3      -11.289734
    4       -9.496916
    5       -9.349571
    6       -8.742568
    7       -8.300471
    8       -7.650279
    9        2.368091
   10        2.815581
   11        3.185056
   12        3.600657
 
  0.4583333E+00  0.1388889E+00  0.0000000E+00  0.4629630E-02
    1      -20.662122
    2      -20.186745
    3      -10.808931
    4       -9.907314
    5       -9.120965
    6       -8.594320
    7       -8.499575
    8       -7.952356
    9        2.656449
   10        3.314407
   11        3.323182
   12        3.473990
 
  0.5000000E+00  0.1388889E+00  0.0000000E+00  0.2314815E-02
    1      -20.433868
    2      -20.433868
    3      -10.346149
    4      -10.346149
    5       -8.868942
    6       -8.868942
    7       -8.235858
    8       -8.235858
    9        2.971935
   10        2.971935
   11        3.758471
   12        3.758471
 
  0.0000000E+00  0.1666667E+00  0.0000000E+00  0.2314815E-02
    1      -21.725433
    2      -16.649167
    3      -15.545693
    4      -10.906583
    5       -9.746190
    6       -7.471107
    7       -6.823305
    8       -4.562567
    9       -1.315069
   10        1.197328
   11        2.005153
   12        2.399347
 
  0.4166667E-01  0.1666667E+00  0.0000000E+00  0.4629630E-02
    1      -21.715343
    2      -16.797771
    3      -15.384249
    4      -10.895361
    5       -9.734256
    6       -7.519721
    7       -6.820176
    8       -4.633981
    9       -1.232412
   10        1.211054
   11        2.019040
   12        2.413448
 
  0.8333333E-01  0.1666667E+00  0.0000000E+00  0.4629630E-02
    1      -21.685081
    2      -17.112402
    3      -15.031301
    4      -10.861649
    5       -9.698475
    6       -7.650926
    7       -6.825068
    8       -4.828868
    9       -1.003964
   10        1.252241
   11        2.060697
   12        2.455754
 
  0.1250000E+00  0.1666667E+00  0.0000000E+00  0.4629630E-02
    1      -21.634670
    2      -17.471293
    3      -14.609243
    4      -10.805306
    5       -9.638904
    6       -7.838897
    7       -6.862508
    8       -5.106940
    9       -0.670522
   10        1.320912
   11        2.130110
   12        2.526270
 
  0.1666667E+00  0.1666667E+00  0.0000000E+00  0.4629630E-02
    1      -21.564150
    2      -17.836345
    3      -14.157263
    4      -10.726065
    5       -9.555643
    6       -8.064419
    7       -6.948904
    8       -5.432058
    9       -0.269055
   10        1.417098
   11        2.227254
   12        2.625001
 
  0.2083333E+00  0.1666667E+00  0.0000000E+00  0.4629630E-02
    1      -21.473576
    2      -18.195032
    3      -13.689515
    4      -10.623490
    5       -9.448835
    6       -8.315539
    7       -7.091331
    8       -5.779756
    9        0.174850
   10        1.540824
   11        2.352096
   12        2.751955
 
  0.2500000E+00  0.1666667E+00  0.0000000E+00  0.4629630E-02
    1      -21.363020
    2      -18.542146
    3      -13.213486
    4      -10.496904
    5       -9.318672
    6       -8.584898
    7       -7.289942
    8       -6.134832
    9        0.644616
   10        1.692101
   11        2.504587
   12        2.907138
 
  0.2916667E+00  0.1666667E+00  0.0000000E+00  0.4629630E-02
    1      -21.232574
    2      -18.875052
    3      -12.734885
    4      -10.345289
    5       -9.165399
    6       -8.868230
    7       -7.539713
    8       -6.487848
    9        1.129219
   10        1.870913
   11        2.684664
   12        3.090552
 
  0.3333333E+00  0.1666667E+00  0.0000000E+00  0.4629630E-02
    1      -21.082351
    2      -19.192204
    3      -12.259299
    4      -10.167192
    5       -9.163802
    6       -8.989324
    7       -7.831654
    8       -6.832749
    9        1.620859
   10        2.077215
   11        2.892243
   12        3.302192
 
  0.3750000E+00  0.1666667E+00  0.0000000E+00  0.4629630E-02
    1      -20.912487
    2      -19.492591
    3      -11.792852
    4       -9.960694
    5       -9.472310
    6       -8.790829
    7       -8.153748
    8       -7.165487
    9        2.113634
   10        2.310938
   11        3.127217
   12        3.542053
 
  0.4166667E+00  0.1666667E+00  0.0000000E+00  0.4629630E-02
    1      -20.723145
    2      -19.775498
    3      -11.342294
    4       -9.796837
    5       -9.723676
    6       -8.570385
    7       -8.491771
    8       -7.483239
    9        2.571992
   10        2.602799
   11        3.389444
   12        3.810123
 
  0.4583333E+00  0.1666667E+00  0.0000000E+00  0.4629630E-02
    1      -20.514520
    2      -20.040389
    3      -10.914311
    4      -10.142313
    5       -9.454740
    6       -8.830374
    7       -8.328578
    8       -7.783962
    9        2.860268
   10        3.084332
   11        3.517954
   12        3.678729
 
  0.5000000E+00  0.1666667E+00  0.0000000E+00  0.2314815E-02
    1      -20.286842
    2      -20.286842
    3      -10.513875
    4      -10.513875
    5       -9.155040
    6       -9.155040
    7       -8.066131
    8       -8.066131
    9        3.175640
   10        3.175640
   11        3.554647
   12        3.554647
 