gr                                      
           1
     4.295692    0.000000    0.000000
     0.000000    2.464840    0.000000
     0.000000    0.000000   19.912545
   C 
   4
Direct configuration=     1
   0.99987391  0.00000000  0.00000000
   0.16679275  0.50000000  0.00000000
   0.49987391  0.50000000  0.00000000
   0.66679275  0.00000000  0.00000000
Direct configuration=     2
   0.99985518 -0.00000000  0.00000000
   0.16681148  0.50000000 -0.00000000
   0.49985518  0.50000000  0.00000000
   0.66681148 -0.00000000 -0.00000000
Direct configuration=     3
   0.99987014 -0.00000000  0.00000000
   0.16679653  0.50000000 -0.00000000
   0.49987014  0.50000000  0.00000000
   0.66679653 -0.00000000 -0.00000000
Direct configuration=     4
   0.99987014  0.00000000  0.00000000
   0.16679653  0.50000000 -0.00000000
   0.49987014  0.50000000  0.00000000
   0.66679653 -0.00000000 -0.00000000
Direct configuration=     5
   0.99987014  0.00000000  0.00000000
   0.16679653  0.50000000 -0.00000000
   0.49987014  0.50000000  0.00000000
   0.66679653 -0.00000000 -0.00000000
