    4    4  400    1
  0.5270948E+02  0.4273899E-09  0.2466806E-09  0.1999813E-08  0.5000000E-15
  1.000000000000000E-004
  CAR 
 gr                                      
     16    247     12
 
  0.0000000E+00  0.0000000E+00  0.0000000E+00  0.1157407E-02
    1      -22.253614
    2      -17.023221
    3      -15.972885
    4      -10.358911
    5       -9.154872
    6       -5.787233
    7       -5.784463
    8       -5.112723
    9       -1.075461
   10        0.523877
   11        1.324954
   12        1.707897
 
  0.4166667E-01  0.0000000E+00  0.0000000E+00  0.2314815E-02
    1      -22.243368
    2      -17.187844
    3      -15.792998
    4      -10.346670
    5       -9.144690
    6       -5.830008
    7       -5.807022
    8       -5.179171
    9       -0.993024
   10        0.537774
   11        1.339035
   12        1.722148
 
  0.8333333E-01  0.0000000E+00  0.0000000E+00  0.2314815E-02
    1      -22.212636
    2      -17.524416
    3      -15.410719
    4      -10.309966
    5       -9.114194
    6       -5.956568
    7       -5.873450
    8       -5.363569
    9       -0.760830
   10        0.579468
   11        1.381275
   12        1.764902
 
  0.1250000E+00  0.0000000E+00  0.0000000E+00  0.2314815E-02
    1      -22.161436
    2      -17.900531
    3      -14.958713
    4      -10.248857
    5       -9.063538
    6       -6.161917
    7       -5.980215
    8       -5.632651
    9       -0.412660
   10        0.648965
   11        1.451660
   12        1.836160
 
  0.1666667E+00  0.0000000E+00  0.0000000E+00  0.2314815E-02
    1      -22.089802
    2      -18.279402
    3      -14.474208
    4      -10.163440
    5       -8.992984
    6       -6.438602
    7       -6.122056
    8       -5.953430
    9        0.017627
   10        0.746270
   11        1.550170
   12        1.935923
 
  0.2083333E+00  0.0000000E+00  0.0000000E+00  0.2314815E-02
    1      -21.997785
    2      -18.649645
    3      -13.969227
    4      -10.053855
    5       -8.902910
    6       -6.777723
    7       -6.301341
    8       -6.292695
    9        0.504216
   10        0.871383
   11        1.676770
   12        2.064192
 
  0.2500000E+00  0.0000000E+00  0.0000000E+00  0.2314815E-02
    1      -21.885445
    2      -19.006674
    3      -13.449199
    4       -9.920293
    5       -8.793824
    6       -7.169864
    7       -6.660005
    8       -6.485518
    9        1.024292
   10        1.029060
   11        1.831409
   12        2.220966
 
  0.2916667E+00  0.0000000E+00  0.0000000E+00  0.2314815E-02
    1      -21.752864
    2      -19.348222
    3      -12.917466
    4       -9.762998
    5       -8.666378
    6       -7.605815
    7       -7.018794
    8       -6.694091
    9        1.204974
   10        1.579352
   11        2.014008
   12        2.406244
 
  0.3333333E+00  0.0000000E+00  0.0000000E+00  0.2314815E-02
    1      -21.600140
    2      -19.672982
    3      -12.376674
    4       -9.582281
    5       -8.521389
    6       -8.077025
    7       -7.370728
    8       -6.912491
    9        1.413390
   10        2.145189
   11        2.224444
   12        2.620020
 
  0.3750000E+00  0.0000000E+00  0.0000000E+00  0.2314815E-02
    1      -21.427386
    2      -19.980110
    3      -11.829304
    4       -9.378531
    5       -8.575823
    6       -8.359869
    7       -7.711110
    8       -7.135474
    9        1.649491
   10        2.462497
   11        2.717224
   12        2.862285
 
  0.4166667E+00  0.0000000E+00  0.0000000E+00  0.2314815E-02
    1      -21.234739
    2      -20.269011
    3      -11.277938
    4       -9.152238
    5       -9.095485
    6       -8.183062
    7       -8.036676
    8       -7.358508
    9        1.913202
   10        2.727718
   11        3.133025
   12        3.241382
 
  0.4583333E+00  0.0000000E+00  0.0000000E+00  0.2314815E-02
    1      -21.022362
    2      -20.539241
    3      -10.725409
    4       -9.630187
    5       -8.904013
    6       -8.345089
    7       -7.992482
    8       -7.577748
    9        2.204428
   10        2.868801
   11        3.018941
   12        3.432215
 
  0.5000000E+00  0.0000000E+00  0.0000000E+00  0.1157407E-02
    1      -20.790452
    2      -20.790452
    3      -10.174926
    4      -10.174926
    5       -8.634632
    6       -8.634632
    7       -7.789968
    8       -7.789968
    9        2.523030
   10        2.523030
   11        3.331476
   12        3.331476
 
  0.0000000E+00  0.2777778E-01  0.0000000E+00  0.2314815E-02
    1      -22.239945
    2      -17.011493
    3      -15.961289
    4      -10.342580
    5       -9.216485
    6       -5.841304
    7       -5.817386
    8       -5.096088
    9       -1.079384
   10        0.542419
   11        1.343740
   12        1.726910
 
  0.4166667E-01  0.2777778E-01  0.0000000E+00  0.4629630E-02
    1      -22.229700
    2      -17.175946
    3      -15.781623
    4      -10.330344
    5       -9.206286
    6       -5.884817
    7       -5.838533
    8       -5.162681
    9       -0.996919
   10        0.556316
   11        1.357820
   12        1.741161
 
  0.8333333E-01  0.2777778E-01  0.0000000E+00  0.4629630E-02
    1      -22.198971
    2      -17.512257
    3      -15.399760
    4      -10.293652
    5       -9.175739
    6       -6.009225
    7       -5.905211
    8       -5.347412
    9       -0.764748
   10        0.598012
   11        1.400057
   12        1.783915
 
  0.1250000E+00  0.2777778E-01  0.0000000E+00  0.4629630E-02
    1      -22.147779
    2      -17.888144
    3      -14.948247
    4      -10.232564
    5       -9.124993
    6       -6.209690
    7       -6.014046
    8       -5.616838
    9       -0.416831
   10        0.667513
   11        1.470439
   12        1.855174
 
  0.1666667E+00  0.2777778E-01  0.0000000E+00  0.4629630E-02
    1      -22.076156
    2      -18.266821
    3      -14.464320
    4      -10.147176
    5       -9.054306
    6       -6.480078
    7       -6.158853
    8       -5.937869
    9        0.012873
   10        0.764824
   11        1.568943
   12        1.954938
 
  0.2083333E+00  0.2777778E-01  0.0000000E+00  0.4629630E-02
    1      -21.984152
    2      -18.636899
    3      -13.960021
    4      -10.037629
    5       -8.964045
    6       -6.812401
    7       -6.332806
    8       -6.285926
    9        0.498532
   10        0.889945
   11        1.695535
   12        2.083209
 
  0.2500000E+00  0.2777778E-01  0.0000000E+00  0.4629630E-02
    1      -21.871831
    2      -18.993787
    3      -13.440801
    4       -9.904113
    5       -8.854706
    6       -7.197860
    7       -6.644649
    8       -6.528942
    9        1.022124
   10        1.042864
   11        1.850166
   12        2.239986
 
  0.2916667E+00  0.2777778E-01  0.0000000E+00  0.4629630E-02
    1      -21.739272
    2      -19.335213
    3      -12.910030
    4       -9.746873
    5       -8.726924
    6       -7.627621
    7       -7.003434
    8       -6.740617
    9        1.223558
   10        1.570886
   11        2.032758
   12        2.425266
 
  0.3333333E+00  0.2777778E-01  0.0000000E+00  0.4629630E-02
    1      -21.586574
    2      -19.659868
    3      -12.370388
    4       -9.566218
    5       -8.581500
    6       -8.093316
    7       -7.355323
    8       -6.961794
    9        1.431988
   10        2.134997
   11        2.243188
   12        2.639046
 
  0.3750000E+00  0.2777778E-01  0.0000000E+00  0.4629630E-02
    1      -21.413851
    2      -19.966907
    3      -11.824398
    4       -9.362539
    5       -8.587332
    6       -8.419422
    7       -7.695635
    8       -7.187184
    9        1.668103
   10        2.481240
   11        2.705328
   12        2.881316
 
  0.4166667E+00  0.2777778E-01  0.0000000E+00  0.4629630E-02
    1      -21.221241
    2      -20.255730
    3      -11.274687
    4       -9.136323
    5       -9.102918
    6       -8.241904
    7       -8.021116
    8       -7.412255
    9        1.931832
   10        2.746472
   11        3.152063
   12        3.266241
 
  0.4583333E+00  0.2777778E-01  0.0000000E+00  0.4629630E-02
    1      -21.008907
    2      -20.525893
    3      -10.724147
    4       -9.634188
    5       -8.888183
    6       -8.329439
    7       -8.050427
    8       -7.633188
    9        2.223080
   10        2.887534
   11        3.037725
   12        3.451265
 
  0.5000000E+00  0.2777778E-01  0.0000000E+00  0.2314815E-02
    1      -20.777046
    2      -20.777046
    3      -10.176057
    4      -10.176057
    5       -8.618891
    6       -8.618891
    7       -7.846793
    8       -7.846793
    9        2.541713
   10        2.541713
   11        3.350236
   12        3.350236
 
  0.0000000E+00  0.5555556E-01  0.0000000E+00  0.2314815E-02
    1      -22.198946
    2      -16.976312
    3      -15.926652
    4      -10.293622
    5       -9.396394
    6       -6.007302
    7       -5.907115
    8       -5.046202
    9       -1.091985
   10        0.598048
   11        1.400091
   12        1.783950
 
  0.4166667E-01  0.5555556E-01  0.0000000E+00  0.4629630E-02
    1      -22.188705
    2      -17.140265
    3      -15.747644
    4      -10.281398
    5       -9.386140
    6       -6.050490
    7       -5.926612
    8       -5.113246
    9       -1.009433
   10        0.611947
   11        1.414168
   12        1.798201
 
  0.8333333E-01  0.5555556E-01  0.0000000E+00  0.4629630E-02
    1      -22.157989
    2      -17.475802
    3      -15.367034
    4      -10.244745
    5       -9.355423
    6       -6.171800
    7       -5.990806
    8       -5.299003
    9       -0.777322
   10        0.653647
   11        1.456397
   12        1.840956
 
  0.1250000E+00  0.5555556E-01  0.0000000E+00  0.4629630E-02
    1      -22.106819
    2      -17.851005
    3      -14.917022
    4      -10.183720
    5       -9.304381
    6       -6.361714
    7       -6.101893
    8       -5.569479
    9       -0.430171
   10        0.723155
   11        1.526765
   12        1.912216
 
  0.1666667E+00  0.5555556E-01  0.0000000E+00  0.4629630E-02
    1      -22.035229
    2      -18.229100
    3      -14.434862
    4      -10.098421
    5       -9.233252
    6       -6.614904
    7       -6.254026
    8       -5.891281
    9       -0.002247
   10        0.820480
   11        1.625251
   12        2.011983
 
  0.2083333E+00  0.5555556E-01  0.0000000E+00  0.4629630E-02
    1      -21.943268
    2      -18.598681
    3      -13.932656
    4       -9.988990
    5       -9.142373
    6       -6.926470
    7       -6.438360
    8       -6.239781
    9        0.480571
   10        0.945620
   11        1.751821
   12        2.140258
 
  0.2500000E+00  0.5555556E-01  0.0000000E+00  0.4629630E-02
    1      -21.831000
    2      -18.955144
    3      -13.415927
    4       -9.855614
    5       -9.032200
    6       -7.290479
    7       -6.645880
    8       -6.598679
    9        1.000335
   10        1.098564
   11        1.906426
   12        2.297041
 
  0.2916667E+00  0.5555556E-01  0.0000000E+00  0.4629630E-02
    1      -21.698508
    2      -19.296204
    3      -12.888136
    4       -9.698539
    5       -8.903318
    6       -7.699980
    7       -6.957447
    8       -6.868550
    9        1.279288
   10        1.544416
   11        2.088993
   12        2.482330
 
  0.3333333E+00  0.5555556E-01  0.0000000E+00  0.4629630E-02
    1      -21.545889
    2      -19.620545
    3      -12.352069
    4       -9.518076
    5       -8.756459
    6       -8.147562
    7       -7.309195
    8       -7.099610
    9        1.487752
   10        2.103215
   11        2.299402
   12        2.696119
 
  0.3750000E+00  0.5555556E-01  0.0000000E+00  0.4629630E-02
    1      -21.373259
    2      -19.927312
    3      -11.810383
    4       -9.314612
    5       -8.625922
    6       -8.592531
    7       -7.649290
    8       -7.333497
    9        1.723906
   10        2.537451
   11        2.668181
   12        2.938403
 
  0.4166667E+00  0.5555556E-01  0.0000000E+00  0.4629630E-02
    1      -21.180758
    2      -20.215902
    3      -11.265868
    4       -9.128258
    5       -9.088633
    6       -8.412648
    7       -7.974512
    8       -7.565672
    9        1.987678
   10        2.802716
   11        3.209168
   12        3.227022
 
  0.4583333E+00  0.5555556E-01  0.0000000E+00  0.4629630E-02
    1      -20.968552
    2      -20.485863
    3      -10.721612
    4       -9.648451
    5       -8.840749
    6       -8.282557
    7       -8.218170
    8       -7.792433
    9        2.278978
   10        2.943617
   11        3.094066
   12        3.508400
 
  0.5000000E+00  0.5555556E-01  0.0000000E+00  0.2314815E-02
    1      -20.736842
    2      -20.736842
    3      -10.181126
    4      -10.181126
    5       -8.571729
    6       -8.571729
    7       -8.010757
    8       -8.010757
    9        2.597682
   10        2.597682
   11        3.406491
   12        3.406491
 
  0.0000000E+00  0.8333333E-01  0.0000000E+00  0.2314815E-02
    1      -22.130653
    2      -16.917690
    3      -15.869457
    4      -10.212137
    5       -9.681173
    6       -6.270244
    7       -6.054276
    8       -4.963127
    9       -1.115761
   10        0.690778
   11        1.493985
   12        1.879018
 
  0.4166667E-01  0.8333333E-01  0.0000000E+00  0.4629630E-02
    1      -22.120419
    2      -17.080846
    3      -15.691524
    4      -10.199935
    5       -9.670809
    6       -6.314342
    7       -6.069720
    8       -5.030966
    9       -1.033037
   10        0.704676
   11        1.508058
   12        1.893270
 
  0.8333333E-01  0.8333333E-01  0.0000000E+00  0.4629630E-02
    1      -22.089725
    2      -17.415119
    3      -15.313021
    4      -10.163347
    5       -9.639755
    6       -6.436096
    7       -6.124553
    8       -5.218529
    9       -0.800993
   10        0.746377
   11        1.550272
   12        1.936025
 
  0.1250000E+00  0.8333333E-01  0.0000000E+00  0.4629630E-02
    1      -22.038594
    2      -17.789186
    3      -14.865587
    4      -10.102432
    5       -9.588126
    6       -6.619924
    7       -6.228377
    8       -5.490833
    9       -0.455140
   10        0.815889
   11        1.620615
   12        2.007287
 
  0.1666667E+00  0.8333333E-01  0.0000000E+00  0.4629630E-02
    1      -21.967058
    2      -18.166308
    3      -14.386498
    4      -10.017286
    5       -9.516119
    6       -6.856523
    7       -6.381070
    8       -5.813962
    9       -0.030280
   10        0.913224
   11        1.719066
   12        2.107056
 
  0.2083333E+00  0.8333333E-01  0.0000000E+00  0.4629630E-02
    1      -21.875168
    2      -18.535055
    3      -13.887960
    4       -9.908052
    5       -9.424013
    6       -7.141192
    7       -6.575297
    8       -6.163213
    9        0.447639
   10        1.038382
   11        1.845594
   12        2.235337
 
  0.2500000E+00  0.8333333E-01  0.0000000E+00  0.4629630E-02
    1      -21.762990
    2      -18.890803
    3      -13.375635
    4       -9.774917
    5       -9.312181
    6       -7.471426
    7       -6.799945
    8       -6.522396
    9        0.960802
   10        1.191352
   11        2.000151
   12        2.392127
 
  0.2916667E+00  0.8333333E-01  0.0000000E+00  0.4629630E-02
    1      -21.630609
    2      -19.231249
    3      -12.853155
    4       -9.618128
    5       -9.181100
    6       -7.844922
    7       -7.043193
    8       -6.881120
    9        1.372110
   10        1.496798
   11        2.182667
   12        2.577425
 
  0.3333333E+00  0.8333333E-01  0.0000000E+00  0.4629630E-02
    1      -21.478121
    2      -19.555062
    3      -12.323523
    4       -9.437992
    5       -9.031362
    6       -8.258140
    7       -7.294835
    8       -7.232612
    9        1.580613
   10        2.046354
   11        2.393035
   12        2.791228
 
  0.3750000E+00  0.8333333E-01  0.0000000E+00  0.4629630E-02
    1      -21.305647
    2      -19.861373
    3      -11.789666
    4       -9.234898
    5       -8.863691
    6       -8.705979
    7       -7.572321
    8       -7.547220
    9        1.816810
   10        2.601648
   11        2.631069
   12        3.033527
 
  0.4166667E+00  0.8333333E-01  0.0000000E+00  0.4629630E-02
    1      -21.113330
    2      -20.149571
    3      -11.254714
    4       -9.182368
    5       -9.009328
    6       -8.678970
    7       -7.897089
    8       -7.795001
    9        2.080628
   10        2.896387
   11        3.153697
   12        3.304315
 
  0.4583333E+00  0.8333333E-01  0.0000000E+00  0.4629630E-02
    1      -20.901339
    2      -20.419193
    3      -10.722177
    4       -9.681036
    5       -8.761887
    6       -8.478269
    7       -8.204651
    8       -8.034457
    9        2.371980
   10        3.036793
   11        3.187922
   12        3.603626
 
  0.5000000E+00  0.8333333E-01  0.0000000E+00  0.2314815E-02
    1      -20.669880
    2      -20.669880
    3      -10.196072
    4      -10.196072
    5       -8.493338
    6       -8.493338
    7       -8.262894
    8       -8.262894
    9        2.690753
   10        2.690753
   11        3.500146
   12        3.500146
 
  0.0000000E+00  0.1111111E+00  0.0000000E+00  0.2314815E-02
    1      -22.035127
    2      -16.835647
    3      -15.790618
    4      -10.098299
    5      -10.052100
    6       -6.613428
    7       -6.255427
    8       -4.846966
    9       -1.154840
   10        0.820622
   11        1.625386
   12        2.012120
 
  0.4166667E-01  0.1111111E+00  0.0000000E+00  0.4629630E-02
    1      -22.024904
    2      -16.997767
    3      -15.614145
    4      -10.086129
    5      -10.041542
    6       -6.659020
    7       -6.265281
    8       -4.916026
    9       -1.071806
   10        0.834517
   11        1.639450
   12        2.026371
 
  0.8333333E-01  0.1111111E+00  0.0000000E+00  0.4629630E-02
    1      -21.994242
    2      -17.330328
    3      -15.238646
    4      -10.049637
    5      -10.009893
    6       -6.783564
    7       -6.305623
    8       -5.106333
    9       -0.839759
   10        0.876209
   11        1.681639
   12        2.069125
 
  0.1250000E+00  0.1111111E+00  0.0000000E+00  0.4629630E-02
    1      -21.943164
    2      -17.702815
    3      -14.795008
    4       -9.988881
    5       -9.957224
    6       -6.966923
    7       -6.392214
    8       -5.381373
    9       -0.495746
   10        0.945711
   11        1.751941
   12        2.140386
 
  0.1666667E+00  0.1111111E+00  0.0000000E+00  0.4629630E-02
    1      -21.871703
    2      -18.078564
    3      -14.320532
    4       -9.903959
    5       -9.883658
    6       -7.195264
    7       -6.531631
    8       -5.706450
    9       -0.075351
   10        1.043039
   11        1.850336
   12        2.240156
 
  0.2083333E+00  0.1111111E+00  0.0000000E+00  0.4629630E-02
    1      -21.779914
    2      -18.446131
    3      -13.827588
    4       -9.795012
    5       -9.789362
    6       -7.460767
    7       -6.721856
    8       -6.056774
    9        0.395397
   10        1.168197
   11        1.976792
   12        2.368439
 
  0.2500000E+00  0.1111111E+00  0.0000000E+00  0.4629630E-02
    1      -21.667864
    2      -18.800866
    3      -13.322074
    4       -9.674550
    5       -9.662231
    6       -7.759767
    7       -6.954771
    8       -6.416338
    9        0.898903
   10        1.321179
   11        2.131266
   12        2.525235
 
  0.2916667E+00  0.1111111E+00  0.0000000E+00  0.4629630E-02
    1      -21.535636
    2      -19.140441
    3      -12.807934
    4       -9.539479
    5       -9.505859
    6       -8.091571
    7       -7.218195
    8       -6.774962
    9        1.423067
   10        1.501956
   11        2.313692
   12        2.710542
 
  0.3333333E+00  0.1111111E+00  0.0000000E+00  0.4629630E-02
    1      -21.383334
    2      -19.463505
    3      -12.288575
    4       -9.384446
    5       -9.326205
    6       -8.457071
    7       -7.498175
    8       -7.126046
    9        1.710486
   10        1.959015
   11        2.523978
   12        2.924357
 
  0.3750000E+00  0.1111111E+00  0.0000000E+00  0.4629630E-02
    1      -21.211079
    2      -19.769171
    3      -11.767452
    4       -9.209780
    5       -9.123655
    6       -8.856791
    7       -7.781679
    8       -7.465164
    9        1.946710
   10        2.499624
   11        2.761966
   12        3.166672
 
  0.4166667E+00  0.1111111E+00  0.0000000E+00  0.4629630E-02
    1      -21.019021
    2      -20.056813
    3      -11.248371
    4       -9.289186
    5       -9.015844
    6       -8.898688
    7       -8.058784
    8       -7.789246
    9        2.210556
   10        3.027345
   11        3.038220
   12        3.437479
 
  0.4583333E+00  0.1111111E+00  0.0000000E+00  0.4629630E-02
    1      -20.807335
    2      -20.325956
    3      -10.735688
    4       -9.750259
    5       -8.803050
    6       -8.651901
    7       -8.323295
    8       -8.096085
    9        2.501934
   10        3.166812
   11        3.319194
   12        3.561697
 
  0.5000000E+00  0.1111111E+00  0.0000000E+00  0.2314815E-02
    1      -20.576230
    2      -20.576230
    3      -10.234428
    4      -10.234428
    5       -8.571922
    6       -8.571922
    7       -8.384049
    8       -8.384049
    9        2.820734
   10        2.820734
   11        3.630798
   12        3.630798
 
  0.0000000E+00  0.1388889E+00  0.0000000E+00  0.2314815E-02
    1      -21.912457
    2      -16.730212
    3      -15.691683
    4      -10.488486
    5       -9.952357
    6       -7.019046
    7       -6.506033
    8       -4.697866
    9       -1.214861
   10        0.987588
   11        1.794235
   12        2.183257
 
  0.4166667E-01  0.1388889E+00  0.0000000E+00  0.4629630E-02
    1      -21.902247
    2      -16.891151
    3      -15.517015
    4      -10.477597
    5       -9.940230
    6       -7.066526
    7       -6.509199
    8       -4.768712
    9       -1.131278
   10        1.001476
   11        1.808287
   12        2.197507
 
  0.8333333E-01  0.1388889E+00  0.0000000E+00  0.4629630E-02
    1      -21.871627
    2      -17.221619
    3      -15.145513
    4      -10.444928
    5       -9.903868
    6       -7.195245
    7       -6.531566
    8       -4.962971
    9       -0.898987
   10        1.043145
   11        1.850437
   12        2.240258
 
  0.1250000E+00  0.1388889E+00  0.0000000E+00  0.4629630E-02
    1      -21.820617
    2      -17.592089
    3      -14.707177
    4      -10.390471
    5       -9.843329
    6       -7.381533
    7       -6.594084
    8       -5.241858
    9       -0.557304
   10        1.112615
   11        1.920674
   12        2.311514
 
  0.1666667E+00  0.1388889E+00  0.0000000E+00  0.4629630E-02
    1      -21.749256
    2      -17.966057
    3      -14.239329
    4      -10.314202
    5       -9.758711
    6       -7.608168
    7       -6.709066
    8       -5.569597
    9       -0.142890
   10        1.209907
   11        2.018977
   12        2.411280
 
  0.2083333E+00  0.1388889E+00  0.0000000E+00  0.4629630E-02
    1      -21.657597
    2      -18.332081
    3      -13.754610
    4      -10.216065
    5       -9.650158
    6       -7.864629
    7       -6.879723
    8       -5.921333
    9        0.318193
   10        1.335034
   11        2.145314
   12        2.539561
 
  0.2500000E+00  0.1388889E+00  0.0000000E+00  0.4629630E-02
    1      -21.545710
    2      -18.685487
    3      -13.259342
    4      -10.095949
    5       -9.517858
    6       -8.144837
    7       -7.102588
    8       -6.281341
    9        0.808704
   10        1.487993
   11        2.299644
   12        2.696357
 
  0.2916667E+00  0.1388889E+00  0.0000000E+00  0.4629630E-02
    1      -21.413682
    2      -19.023921
    3      -12.758053
    4       -9.953645
    5       -9.362058
    6       -8.446044
    7       -7.369199
    8       -6.639755
    9        1.316985
   10        1.668760
   11        2.481906
   12        2.881669
 
  0.3333333E+00  0.1388889E+00  0.0000000E+00  0.4629630E-02
    1      -21.261619
    2      -19.346003
    3      -12.254947
    4       -9.788805
    5       -9.183064
    6       -8.768392
    7       -7.667362
    8       -6.990218
    9        1.834646
   10        1.877287
   11        2.692020
   12        3.095492
 
  0.3750000E+00  0.1388889E+00  0.0000000E+00  0.4629630E-02
    1      -21.089650
    2      -19.650825
    3      -11.754529
    4       -9.600884
    5       -9.114417
    6       -8.981261
    7       -7.982479
    8       -7.328479
    9        2.113510
   10        2.355191
   11        2.929869
   12        3.337820
 
  0.4166667E+00  0.1388889E+00  0.0000000E+00  0.4629630E-02
    1      -20.897929
    2      -19.937740
    3      -11.261938
    4       -9.487796
    5       -9.389123
    6       -8.757123
    7       -8.299451
    8       -7.651583
    9        2.377349
   10        2.873194
   11        3.195248
   12        3.608643
 
  0.4583333E+00  0.1388889E+00  0.0000000E+00  0.4629630E-02
    1      -20.686638
    2      -20.206260
    3      -10.783050
    4       -9.891182
    5       -9.152670
    6       -8.605236
    7       -8.511242
    8       -7.957402
    9        2.668708
   10        3.333500
   11        3.383415
   12        3.487584
 
  0.5000000E+00  0.1388889E+00  0.0000000E+00  0.2314815E-02
    1      -20.455996
    2      -20.455996
    3      -10.324187
    4      -10.324187
    5       -8.891042
    6       -8.891042
    7       -8.244357
    8       -8.244357
    9        2.987472
   10        2.987472
   11        3.791647
   12        3.791648
 
  0.0000000E+00  0.1666667E+00  0.0000000E+00  0.2314815E-02
    1      -21.762760
    2      -16.601424
    3      -15.575259
    4      -10.969789
    5       -9.774643
    6       -7.470524
    7       -6.800722
    8       -4.516020
    9       -1.302691
   10        1.191669
   11        2.000454
   12        2.392434
 
  0.4166667E-01  0.1666667E+00  0.0000000E+00  0.4629630E-02
    1      -21.752568
    2      -16.761185
    3      -15.402694
    4      -10.958330
    5       -9.762573
    6       -7.520194
    7       -6.796459
    8       -4.589457
    9       -1.218107
   10        1.205544
   11        2.014485
   12        2.406682
 
  0.8333333E-01  0.1666667E+00  0.0000000E+00  0.4629630E-02
    1      -21.721998
    2      -17.089282
    3      -15.036404
    4      -10.923898
    5       -9.726381
    6       -7.653998
    7       -6.798567
    8       -4.789319
    9       -0.984975
   10        1.247176
   11        2.056573
   12        2.449427
 
  0.1250000E+00  0.1666667E+00  0.0000000E+00  0.4629630E-02
    1      -21.671073
    2      -17.457308
    3      -14.605464
    4      -10.866318
    5       -9.666127
    6       -7.845180
    7       -6.832632
    8       -5.073476
    9       -0.645938
   10        1.316587
   11        2.126704
   12        2.520673
 
  0.1666667E+00  0.1666667E+00  0.0000000E+00  0.4629630E-02
    1      -21.599834
    2      -17.829063
    3      -14.147237
    4      -10.785261
    5       -9.581911
    6       -8.073916
    7       -6.915861
    8       -5.404714
    9       -0.239048
   10        1.413806
   11        2.224854
   12        2.620428
 
  0.2083333E+00  0.1666667E+00  0.0000000E+00  0.4629630E-02
    1      -21.508335
    2      -18.193153
    3      -13.674869
    4      -10.680193
    5       -9.473875
    6       -8.327882
    7       -7.055904
    8       -5.758196
    9        0.209728
   10        1.538857
   11        2.350987
   12        2.748697
 
  0.2500000E+00  0.1666667E+00  0.0000000E+00  0.4629630E-02
    1      -21.396649
    2      -18.544889
    3      -13.195507
    4      -10.550281
    5       -9.342211
    6       -8.599435
    7       -7.253384
    8       -6.118648
    9        0.683741
   10        1.691746
   11        2.505055
   12        2.905485
 
  0.2916667E+00  0.1666667E+00  0.0000000E+00  0.4629630E-02
    1      -21.264867
    2      -18.881889
    3      -12.714873
    4      -10.394283
    5       -9.187165
    6       -8.884016
    7       -7.503695
    8       -6.476648
    9        1.171990
   10        1.872454
   11        2.686991
   12        3.090794
 
  0.3333333E+00  0.1666667E+00  0.0000000E+00  0.4629630E-02
    1      -21.113100
    2      -19.202738
    3      -12.238776
    4      -10.210432
    5       -9.179548
    6       -9.009046
    7       -7.798242
    8       -6.826176
    9        1.666729
   10        2.080933
   11        2.896711
   12        3.304620
 
  0.3750000E+00  0.1666667E+00  0.0000000E+00  0.4629630E-02
    1      -20.941484
    2      -19.506502
    3      -11.773699
    4       -9.996434
    5       -9.486332
    6       -8.808235
    7       -8.125384
    8       -7.163212
    9        2.162120
   10        2.317113
   11        3.134100
   12        3.546955
 
  0.4166667E+00  0.1666667E+00  0.0000000E+00  0.4629630E-02
    1      -20.750182
    2      -19.792509
    3      -11.326716
    4       -9.807110
    5       -9.749870
    6       -8.585204
    7       -8.471171
    8       -7.484953
    9        2.580902
   10        2.653487
   11        3.399004
   12        3.817788
 
  0.4583333E+00  0.1666667E+00  0.0000000E+00  0.4629630E-02
    1      -20.539382
    2      -20.060248
    3      -10.904480
    4      -10.146798
    5       -9.469425
    6       -8.820172
    7       -8.340536
    8       -7.789373
    9        2.872192
   10        3.136877
   11        3.536738
   12        3.691116
 
  0.5000000E+00  0.1666667E+00  0.0000000E+00  0.2314815E-02
    1      -20.309315
    2      -20.309315
    3      -10.511203
    4      -10.511203
    5       -9.157090
    6       -9.157090
    7       -8.074956
    8       -8.074956
    9        3.190855
   10        3.190855
   11        3.608672
   12        3.608672
 