gr                                      
           1
     4.273899    0.000000    0.000000
     0.000000    2.466806    0.000000
     0.000000    0.000000   19.998132
   C 
   4
Direct configuration=     1
   0.00013158  0.00000000  0.00000000
   0.16653509  0.50000000  0.00000000
   0.50013158  0.50000000  0.00000000
   0.66653509  0.00000000  0.00000000
Direct configuration=     2
  -0.00055424  0.00000000  0.00000000
   0.16722091  0.50000000  0.00000000
   0.49944576  0.50000000  0.00000000
   0.66722091 -0.00000000  0.00000000
Direct configuration=     3
  -0.00000450  0.00000000 -0.00000000
   0.16667117  0.50000000  0.00000000
   0.49999550  0.50000000 -0.00000000
   0.66667117  0.00000000  0.00000000
Direct configuration=     4
  -0.00000572  0.00000000 -0.00000000
   0.16667239  0.50000000  0.00000000
   0.49999428  0.50000000 -0.00000000
   0.66667239  0.00000000  0.00000000
Direct configuration=     5
  -0.00000569  0.00000000 -0.00000000
   0.16667236  0.50000000  0.00000000
   0.49999431  0.50000000 -0.00000000
   0.66667236  0.00000000  0.00000000
Direct configuration=     6
  -0.00000570  0.00000000 -0.00000000
   0.16667237  0.50000000  0.00000000
   0.49999430  0.50000000 -0.00000000
   0.66667237  0.00000000  0.00000000
Direct configuration=     7
  -0.00000571  0.00000000 -0.00000000
   0.16667237  0.50000000  0.00000000
   0.49999429  0.50000000 -0.00000000
   0.66667237 -0.00000000  0.00000000
