    4    4  400    1
  0.5270948E+02  0.4402106E-09  0.2455380E-09  0.1950605E-08  0.5000000E-15
  1.000000000000000E-004
  CAR 
 gr                                      
     16    247     12
 
  0.0000000E+00  0.0000000E+00  0.0000000E+00  0.1157407E-02
    1      -22.044992
    2      -17.303025
    3      -15.800563
    4      -10.197871
    5       -8.735939
    6       -6.047215
    7       -5.717594
    8       -5.380110
    9       -1.205387
   10        0.549242
   11        1.346634
   12        1.742293
 
  0.4166667E-01  0.0000000E+00  0.0000000E+00  0.2314815E-02
    1      -22.035332
    2      -17.413916
    3      -15.674751
    4      -10.186426
    5       -8.726643
    6       -6.091815
    7       -5.737164
    8       -5.437297
    9       -1.132557
   10        0.562299
   11        1.359887
   12        1.755714
 
  0.8333333E-01  0.0000000E+00  0.0000000E+00  0.2314815E-02
    1      -22.006359
    2      -17.675514
    3      -15.368463
    4      -10.152110
    5       -8.698807
    6       -6.223428
    7       -5.794871
    8       -5.597584
    9       -0.925492
   10        0.601478
   11        1.399641
   12        1.795980
 
  0.1250000E+00  0.0000000E+00  0.0000000E+00  0.2314815E-02
    1      -21.958091
    2      -17.996348
    3      -14.973393
    4      -10.094980
    5       -8.652583
    6       -6.435923
    7       -5.887858
    8       -5.834889
    9       -0.610740
   10        0.666805
   11        1.465880
   12        1.863094
 
  0.1666667E+00  0.0000000E+00  0.0000000E+00  0.2314815E-02
    1      -21.890566
    2      -18.333884
    3      -14.532455
    4      -10.015136
    5       -8.588229
    6       -6.720377
    7       -6.121719
    8       -6.011822
    9       -0.216586
   10        0.758310
   11        1.558576
   12        1.957064
 
  0.2083333E+00  0.0000000E+00  0.0000000E+00  0.2314815E-02
    1      -21.803835
    2      -18.670956
    3      -14.063361
    4       -9.912721
    5       -8.506119
    6       -7.066431
    7       -6.436283
    8       -6.161561
    9        0.234036
   10        0.876012
   11        1.677683
   12        2.077892
 
  0.2500000E+00  0.0000000E+00  0.0000000E+00  0.2314815E-02
    1      -21.697963
    2      -18.999905
    3      -13.574497
    4       -9.787926
    5       -8.406753
    6       -7.463496
    7       -6.763283
    8       -6.331496
    9        0.724285
   10        1.019917
   11        1.823131
   12        2.225580
 
  0.2916667E+00  0.0000000E+00  0.0000000E+00  0.2314815E-02
    1      -21.573037
    2      -19.316854
    3      -13.070672
    4       -9.641001
    5       -8.290771
    6       -7.901568
    7       -7.092404
    8       -6.516102
    9        1.190011
   10        1.241802
   11        1.994804
   12        2.400128
 
  0.3333333E+00  0.0000000E+00  0.0000000E+00  0.2314815E-02
    1      -21.429162
    2      -19.619606
    3      -12.555245
    4       -9.472262
    5       -8.371669
    6       -8.158973
    7       -7.416695
    8       -6.710207
    9        1.386266
   10        1.776850
   11        2.192505
   12        2.601532
 
  0.3750000E+00  0.0000000E+00  0.0000000E+00  0.2314815E-02
    1      -21.266466
    2      -19.906802
    3      -12.031008
    4       -9.282110
    5       -8.865999
    6       -8.012346
    7       -7.731392
    8       -6.909146
    9        1.608633
   10        2.320312
   11        2.415856
   12        2.829784
 
  0.4166667E+00  0.0000000E+00  0.0000000E+00  0.2314815E-02
    1      -21.085103
    2      -20.177530
    3      -11.500618
    4       -9.377895
    5       -9.071043
    6       -8.033152
    7       -7.852094
    8       -7.108826
    9        1.857049
   10        2.663995
   11        2.858485
   12        3.084873
 
  0.4583333E+00  0.0000000E+00  0.0000000E+00  0.2314815E-02
    1      -20.885263
    2      -20.431147
    3      -10.966838
    4       -9.901720
    5       -8.839692
    6       -8.319565
    7       -7.679675
    8       -7.305725
    9        2.131429
   10        2.757587
   11        2.934340
   12        3.310442
 
  0.5000000E+00  0.0000000E+00  0.0000000E+00  0.1157407E-02
    1      -20.667181
    2      -20.667181
    3      -10.432715
    4      -10.432715
    5       -8.588858
    6       -8.588858
    7       -7.496848
    8       -7.496848
    9        2.431660
   10        2.431660
   11        3.213742
   12        3.213742
 
  0.0000000E+00  0.2777778E-01  0.0000000E+00  0.2314815E-02
    1      -22.031133
    2      -17.290968
    3      -15.788731
    4      -10.181442
    5       -8.799590
    6       -6.072517
    7       -5.777071
    8       -5.363414
    9       -1.207547
   10        0.568012
   11        1.365584
   12        1.761484
 
  0.4166667E-01  0.2777778E-01  0.0000000E+00  0.4629630E-02
    1      -22.021474
    2      -17.401748
    3      -15.663073
    4      -10.170001
    5       -8.790284
    6       -6.117551
    7       -5.795615
    8       -5.420709
    9       -1.134708
   10        0.581068
   11        1.378837
   12        1.774905
 
  0.8333333E-01  0.2777778E-01  0.0000000E+00  0.4629630E-02
    1      -21.992505
    2      -17.663133
    3      -15.357128
    4      -10.135696
    5       -8.762415
    6       -6.249553
    7       -5.851262
    8       -5.581252
    9       -0.927684
   10        0.620248
   11        1.418589
   12        1.815171
 
  0.1250000E+00  0.2777778E-01  0.0000000E+00  0.4629630E-02
    1      -21.944245
    2      -17.983758
    3      -14.962489
    4      -10.078586
    5       -8.716134
    6       -6.461198
    7       -5.942633
    8       -5.818836
    9       -0.613150
   10        0.685576
   11        1.484824
   12        1.882286
 
  0.1666667E+00  0.2777778E-01  0.0000000E+00  0.4629630E-02
    1      -21.876731
    2      -18.321110
    3      -14.522054
    4       -9.998768
    5       -8.651695
    6       -6.743388
    7       -6.105886
    8       -6.065946
    9       -0.219472
   10        0.777081
   11        1.577516
   12        1.976256
 
  0.2083333E+00  0.2777778E-01  0.0000000E+00  0.4629630E-02
    1      -21.790015
    2      -18.658023
    3      -14.053546
    4       -9.896387
    5       -8.569468
    6       -7.086213
    7       -6.420589
    8       -6.215864
    9        0.230393
   10        0.894786
   11        1.696619
   12        2.097085
 
  0.2500000E+00  0.2777778E-01  0.0000000E+00  0.4629630E-02
    1      -21.684162
    2      -18.986835
    3      -13.565364
    4       -9.771633
    5       -8.469943
    6       -7.479609
    7       -6.747656
    8       -6.386514
    9        0.719617
   10        1.038695
   11        1.842063
   12        2.244775
 
  0.2916667E+00  0.2777778E-01  0.0000000E+00  0.4629630E-02
    1      -21.559259
    2      -19.303665
    3      -13.062339
    4       -9.624757
    5       -8.353753
    6       -7.913970
    7       -7.076789
    8       -6.572115
    9        1.208795
   10        1.235876
   11        2.013733
   12        2.419325
 
  0.3333333E+00  0.2777778E-01  0.0000000E+00  0.4629630E-02
    1      -21.415412
    2      -19.606314
    3      -12.547851
    4       -9.456074
    5       -8.380561
    6       -8.221687
    7       -7.401053
    8       -6.767311
    9        1.405056
   10        1.769499
   11        2.211434
   12        2.620732
 
  0.3750000E+00  0.2777778E-01  0.0000000E+00  0.4629630E-02
    1      -21.252747
    2      -19.893420
    3      -12.024719
    4       -9.265984
    5       -8.871705
    6       -8.074722
    7       -7.715699
    8       -6.967322
    9        1.627431
   10        2.311535
   11        2.434792
   12        2.848988
 
  0.4166667E+00  0.2777778E-01  0.0000000E+00  0.4629630E-02
    1      -21.071422
    2      -20.164070
    3      -11.495629
    4       -9.380785
    5       -9.054985
    6       -8.017393
    7       -7.914046
    8       -7.167993
    9        1.875856
   10        2.682947
   11        2.849024
   12        3.104081
 
  0.4583333E+00  0.2777778E-01  0.0000000E+00  0.4629630E-02
    1      -20.871626
    2      -20.417620
    3      -10.963379
    4       -9.902163
    5       -8.823707
    6       -8.303732
    7       -7.741106
    8       -7.365769
    9        2.150246
   10        2.776443
   11        2.953292
   12        3.310598
 
  0.5000000E+00  0.2777778E-01  0.0000000E+00  0.2314815E-02
    1      -20.653595
    2      -20.653595
    3      -10.431054
    4      -10.431054
    5       -8.572948
    6       -8.572948
    7       -7.557647
    8       -7.557647
    9        2.450492
   10        2.450492
   11        3.232116
   12        3.232116
 
  0.0000000E+00  0.5555556E-01  0.0000000E+00  0.2314815E-02
    1      -21.989563
    2      -17.254799
    3      -15.753374
    4      -10.132192
    5       -8.985370
    6       -6.148092
    7       -5.950577
    8       -5.313349
    9       -1.214828
   10        0.624321
   11        1.422428
   12        1.819057
 
  0.4166667E-01  0.5555556E-01  0.0000000E+00  0.4629630E-02
    1      -21.979909
    2      -17.365252
    3      -15.628174
    4      -10.120762
    5       -8.976028
    6       -6.196323
    7       -5.964179
    8       -5.370977
    9       -1.141957
   10        0.637377
   11        1.435679
   12        1.832479
 
  0.8333333E-01  0.5555556E-01  0.0000000E+00  0.4629630E-02
    1      -21.950954
    2      -17.626005
    3      -15.323263
    4      -10.086492
    5       -8.948049
    6       -6.331872
    7       -6.011349
    8       -5.532309
    9       -0.935052
   10        0.676555
   11        1.475424
   12        1.872744
 
  0.1250000E+00  0.5555556E-01  0.0000000E+00  0.4629630E-02
    1      -21.902718
    2      -17.946005
    3      -14.929928
    4      -10.029439
    5       -8.901576
    6       -6.541840
    7       -6.097081
    8       -5.770747
    9       -0.621179
   10        0.741882
   11        1.541650
   12        1.939860
 
  0.1666667E+00  0.5555556E-01  0.0000000E+00  0.4629630E-02
    1      -21.835239
    2      -18.282806
    3      -14.491025
    4       -9.949702
    5       -8.836853
    6       -6.817196
    7       -6.218540
    8       -6.058470
    9       -0.228956
   10        0.833389
   11        1.634330
   12        2.033830
 
  0.2083333E+00  0.5555556E-01  0.0000000E+00  0.4629630E-02
    1      -21.748567
    2      -18.619242
    3      -14.024305
    4       -9.847424
    5       -8.754229
    6       -7.149894
    7       -6.373595
    8       -6.369464
    9        0.218592
   10        0.951098
   11        1.753418
   12        2.154662
 
  0.2500000E+00  0.5555556E-01  0.0000000E+00  0.4629630E-02
    1      -21.642770
    2      -18.947641
    3      -13.538216
    4       -9.722796
    5       -8.654175
    6       -7.531692
    7       -6.700862
    8       -6.542857
    9        0.704679
   10        1.095014
   11        1.898847
   12        2.302356
 
  0.2916667E+00  0.5555556E-01  0.0000000E+00  0.4629630E-02
    1      -21.517937
    2      -19.264113
    3      -13.037648
    4       -9.576068
    5       -8.537292
    6       -7.954298
    7       -7.030027
    8       -6.732045
    9        1.217084
   10        1.265124
   11        2.070507
   12        2.476912
 
  0.3333333E+00  0.5555556E-01  0.0000000E+00  0.4629630E-02
    1      -21.374172
    2      -19.566452
    3      -12.526052
    4       -9.407555
    5       -8.409777
    6       -8.404339
    7       -7.354208
    8       -6.931065
    9        1.461399
   10        1.746317
   11        2.268209
   12        2.678326
 
  0.3750000E+00  0.5555556E-01  0.0000000E+00  0.4629630E-02
    1      -21.211604
    2      -19.853289
    3      -12.006332
    4       -9.217654
    5       -8.890855
    6       -8.256250
    7       -7.668695
    8       -7.134771
    9        1.683790
   10        2.283876
   11        2.491587
   12        2.906592
 
  0.4166667E+00  0.5555556E-01  0.0000000E+00  0.4629630E-02
    1      -21.030392
    2      -20.123705
    3      -11.481271
    4       -9.391062
    5       -9.006863
    6       -8.094170
    7       -7.970185
    8       -7.338808
    9        1.932234
   10        2.739793
   11        2.818680
   12        3.161701
 
  0.4583333E+00  0.5555556E-01  0.0000000E+00  0.4629630E-02
    1      -20.830728
    2      -20.377052
    3      -10.953777
    4       -9.904754
    5       -8.775807
    6       -8.256299
    7       -7.919498
    8       -7.539536
    9        2.206646
   10        2.832920
   11        3.010141
   12        3.302035
 
  0.5000000E+00  0.5555556E-01  0.0000000E+00  0.2314815E-02
    1      -20.612850
    2      -20.612850
    3      -10.427059
    4      -10.427059
    5       -8.525280
    6       -8.525280
    7       -7.733932
    8       -7.733932
    9        2.506922
   10        2.506922
   11        3.286860
   12        3.286860
 
  0.0000000E+00  0.8333333E-01  0.0000000E+00  0.2314815E-02
    1      -21.920319
    2      -17.194531
    3      -15.694928
    4      -10.050227
    5       -9.279226
    6       -6.272934
    7       -6.224898
    8       -5.229980
    9       -1.229632
   10        0.718165
   11        1.517143
   12        1.915014
 
  0.4166667E-01  0.8333333E-01  0.0000000E+00  0.4629630E-02
    1      -21.910672
    2      -17.304456
    3      -15.570489
    4      -10.038817
    5       -9.269810
    6       -6.343945
    7       -6.212905
    8       -5.288195
    9       -1.156695
   10        0.731219
   11        1.530389
   12        1.928435
 
  0.8333333E-01  0.8333333E-01  0.0000000E+00  0.4629630E-02
    1      -21.881740
    2      -17.564172
    3      -15.267312
    4      -10.004606
    5       -9.241606
    6       -6.491415
    7       -6.240182
    8       -5.450912
    9       -0.949970
   10        0.770392
   11        1.570124
   12        1.968700
 
  0.1250000E+00  0.8333333E-01  0.0000000E+00  0.4629630E-02
    1      -21.833545
    2      -17.883142
    3      -14.876198
    4       -9.947652
    5       -9.194742
    6       -6.698103
    7       -6.317291
    8       -5.690839
    9       -0.637223
   10        0.835712
   11        1.636332
   12        2.035814
 
  0.1666667E+00  0.8333333E-01  0.0000000E+00  0.4629630E-02
    1      -21.766124
    2      -18.219027
    3      -14.439929
    4       -9.868053
    5       -9.129439
    6       -6.960227
    7       -6.437735
    8       -5.979722
    9       -0.247511
   10        0.927211
   11        1.728987
   12        2.129784
 
  0.2083333E+00  0.8333333E-01  0.0000000E+00  0.4629630E-02
    1      -21.679526
    2      -18.554665
    3      -13.976306
    4       -9.765952
    5       -9.046014
    6       -7.273730
    7       -6.592778
    8       -6.295569
    9        0.196032
   10        1.044914
   11        1.848047
   12        2.250617
 
  0.2500000E+00  0.8333333E-01  0.0000000E+00  0.4629630E-02
    1      -21.573825
    2      -18.882374
    3      -13.493866
    4       -9.641541
    5       -8.944892
    6       -7.633615
    7       -6.773342
    8       -6.623171
    9        0.676695
   10        1.188830
   11        1.993448
   12        2.398314
 
  0.2916667E+00  0.8333333E-01  0.0000000E+00  0.4629630E-02
    1      -21.449107
    2      -19.198247
    3      -12.997608
    4       -9.495068
    5       -8.826619
    6       -8.034017
    7       -6.971060
    8       -6.952381
    9        1.182417
   10        1.358944
   11        2.165087
   12        2.572877
 
  0.3333333E+00  0.8333333E-01  0.0000000E+00  0.4629630E-02
    1      -21.305478
    2      -19.500067
    3      -12.491118
    4       -9.326846
    5       -8.691881
    6       -8.468552
    7       -7.276407
    8       -7.178780
    9        1.555226
   10        1.703981
   11        2.362786
   12        2.774300
 
  0.3750000E+00  0.8333333E-01  0.0000000E+00  0.4629630E-02
    1      -21.143073
    2      -19.786452
    3      -11.977459
    4       -9.137272
    5       -8.930752
    6       -8.541530
    7       -7.590613
    8       -7.390640
    9        1.777627
   10        2.233484
   11        2.586201
   12        3.002578
 
  0.4166667E+00  0.8333333E-01  0.0000000E+00  0.4629630E-02
    1      -20.962050
    2      -20.056476
    3      -11.459604
    4       -9.414431
    5       -8.926838
    6       -8.376615
    7       -7.891746
    8       -7.601932
    9        2.026080
   10        2.762057
   11        2.834504
   12        3.257709
 
  0.4583333E+00  0.8333333E-01  0.0000000E+00  0.4629630E-02
    1      -20.762607
    2      -20.309483
    3      -10.940684
    4       -9.913920
    5       -8.696166
    6       -8.198422
    7       -8.177465
    8       -7.808898
    9        2.300502
   10        2.926811
   11        3.104862
   12        3.264136
 
  0.5000000E+00  0.8333333E-01  0.0000000E+00  0.2314815E-02
    1      -20.544985
    2      -20.544985
    3      -10.424155
    4      -10.424155
    5       -8.446040
    6       -8.446040
    7       -8.008532
    8       -8.008532
    9        2.600791
   10        2.600791
   11        3.376021
   12        3.376021
 
  0.0000000E+00  0.1111111E+00  0.0000000E+00  0.2314815E-02
    1      -21.823459
    2      -17.110185
    3      -15.614218
    4       -9.935728
    5       -9.661702
    6       -6.582121
    7       -6.445303
    8       -5.113419
    9       -1.255970
   10        0.849538
   11        1.649688
   12        2.049354
 
  0.4166667E-01  0.1111111E+00  0.0000000E+00  0.4629630E-02
    1      -21.813824
    2      -17.219403
    3      -15.490832
    4       -9.924347
    5       -9.652154
    6       -6.638366
    7       -6.444343
    8       -5.172532
    9       -1.182900
   10        0.862588
   11        1.662928
   12        2.062774
 
  0.8333333E-01  0.1111111E+00  0.0000000E+00  0.4629630E-02
    1      -21.784926
    2      -17.477714
    3      -15.190119
    4       -9.890223
    5       -9.623543
    6       -6.775015
    7       -6.471803
    8       -5.337347
    9       -0.976376
   10        0.901748
   11        1.702644
   12        2.103036
 
  0.1250000E+00  0.1111111E+00  0.0000000E+00  0.4629630E-02
    1      -21.736787
    2      -17.795259
    3      -14.802229
    4       -9.833413
    5       -9.575976
    6       -6.967212
    7       -6.547375
    8       -5.579505
    9       -0.665238
   10        0.967046
   11        1.768822
   12        2.170147
 
  0.1666667E+00  0.1111111E+00  0.0000000E+00  0.4629630E-02
    1      -21.669445
    2      -18.129864
    3      -14.369848
    4       -9.754017
    5       -9.509631
    6       -7.206957
    7       -6.670788
    8       -5.870099
    9       -0.279201
   10        1.058520
   11        1.861436
   12        2.264114
 
  0.2083333E+00  0.1111111E+00  0.0000000E+00  0.4629630E-02
    1      -21.582954
    2      -18.464383
    3      -13.910855
    4       -9.652176
    5       -9.424763
    6       -7.490501
    7       -6.835002
    8       -6.186991
    9        0.158457
   10        1.176197
   11        1.980449
   12        2.384944
 
  0.2500000E+00  0.1111111E+00  0.0000000E+00  0.4629630E-02
    1      -21.477386
    2      -18.791119
    3      -13.433928
    4       -9.528082
    5       -9.321716
    6       -7.815395
    7       -7.030012
    8       -6.515060
    9        0.631140
   10        1.320089
   11        2.125800
   12        2.532641
 
  0.2916667E+00  0.1111111E+00  0.0000000E+00  0.4629630E-02
    1      -21.352828
    2      -19.106148
    3      -12.944252
    4       -9.381983
    5       -9.200926
    6       -8.179138
    7       -7.245172
    8       -6.844310
    9        1.127020
   10        1.490186
   11        2.297397
   12        2.707206
 
  0.3333333E+00  0.1111111E+00  0.0000000E+00  0.4629630E-02
    1      -21.209392
    2      -19.407234
    3      -12.445647
    4       -9.214190
    5       -9.062941
    6       -8.578318
    7       -7.470928
    8       -7.168087
    9        1.637210
   10        1.686453
   11        2.495082
   12        2.908636
 
  0.3750000E+00  0.1111111E+00  0.0000000E+00  0.4629630E-02
    1      -21.047214
    2      -19.692982
    3      -11.941463
    4       -9.025095
    5       -9.008399
    6       -8.908439
    7       -7.699681
    8       -7.481859
    9        1.908839
   10        2.154418
   11        2.718547
   12        3.136924
 
  0.4166667E+00  0.1111111E+00  0.0000000E+00  0.4629630E-02
    1      -20.866458
    2      -19.962454
    3      -11.435023
    4       -9.464054
    5       -8.815188
    6       -8.738252
    7       -7.925813
    8       -7.782453
    9        2.157274
   10        2.671607
   11        2.967015
   12        3.392067
 
  0.4583333E+00  0.1111111E+00  0.0000000E+00  0.4629630E-02
    1      -20.667327
    2      -20.214981
    3      -10.929875
    4       -9.939703
    5       -8.585082
    6       -8.553412
    7       -8.145293
    8       -8.067581
    9        2.431671
   10        3.057902
   11        3.177090
   12        3.237405
 
  0.5000000E+00  0.1111111E+00  0.0000000E+00  0.2314815E-02
    1      -20.450066
    2      -20.450066
    3      -10.429960
    4      -10.429960
    5       -8.355211
    6       -8.355211
    7       -8.335551
    8       -8.335551
    9        2.731924
   10        2.731924
   11        3.487844
   12        3.487846
 
  0.0000000E+00  0.1388889E+00  0.0000000E+00  0.2314815E-02
    1      -21.699070
    2      -17.001791
    3      -15.512625
    4      -10.111516
    5       -9.788959
    6       -7.003360
    7       -6.662680
    8       -4.963825
    9       -1.299409
   10        1.018426
   11        1.820004
   12        2.222077
 
  0.4166667E-01  0.1388889E+00  0.0000000E+00  0.4629630E-02
    1      -21.689449
    2      -17.110166
    3      -15.390585
    4      -10.101739
    5       -9.777617
    6       -7.049035
    7       -6.667829
    8       -5.024241
    9       -1.226079
   10        1.031468
   11        1.833234
   12        2.235496
 
  0.8333333E-01  0.1388889E+00  0.0000000E+00  0.4629630E-02
    1      -21.660594
    2      -17.366749
    3      -15.093122
    4      -10.072430
    5       -9.743611
    6       -7.171837
    7       -6.696344
    8       -5.192068
    9       -1.019671
   10        1.070604
   11        1.872920
   12        2.275754
 
  0.1250000E+00  0.1388889E+00  0.0000000E+00  0.4629630E-02
    1      -21.612528
    2      -17.682498
    3      -14.709637
    4      -10.023649
    5       -9.686999
    6       -7.350087
    7       -6.766364
    8       -5.437366
    9       -0.710608
   10        1.135863
   11        1.939048
   12        2.342857
 
  0.1666667E+00  0.1388889E+00  0.0000000E+00  0.4629630E-02
    1      -21.545291
    2      -18.015463
    3      -14.282695
    4       -9.955496
    5       -9.607879
    6       -7.570301
    7       -6.885353
    8       -5.730320
    9       -0.329518
   10        1.227285
   11        2.031595
   12        2.436814
 
  0.2083333E+00  0.1388889E+00  0.0000000E+00  0.4629630E-02
    1      -21.458937
    2      -18.348535
    3      -13.830302
    4       -9.868113
    5       -9.506393
    6       -7.825353
    7       -7.052003
    8       -6.048611
    9        0.100157
   10        1.344903
   11        2.150525
   12        2.557634
 
  0.2500000E+00  0.1388889E+00  0.0000000E+00  0.4629630E-02
    1      -21.353538
    2      -18.674009
    3      -13.361373
    4       -9.761679
    5       -9.382733
    6       -8.111984
    7       -7.259150
    8       -6.377270
    9        0.562018
   10        1.488737
   11        2.295787
   12        2.705324
 
  0.2916667E+00  0.1388889E+00  0.0000000E+00  0.4629630E-02
    1      -21.229189
    2      -18.987939
    3      -12.881416
    4       -9.636409
    5       -9.237144
    6       -8.429434
    7       -7.495862
    8       -6.706523
    9        1.044551
   10        1.658778
   11        2.467299
   12        2.879885
 
  0.3333333E+00  0.1388889E+00  0.0000000E+00  0.4629630E-02
    1      -21.086003
    2      -19.288071
    3      -12.394675
    4       -9.492554
    5       -9.069939
    6       -8.778138
    7       -7.749596
    8       -7.029911
    9        1.539267
   10        1.854994
   11        2.664936
   12        3.081316
 
  0.3750000E+00  0.1388889E+00  0.0000000E+00  0.4629630E-02
    1      -20.924120
    2      -19.572990
    3      -11.905039
    4       -9.330403
    5       -9.158159
    6       -8.881504
    7       -8.008508
    8       -7.343051
    9        2.039437
   10        2.077327
   11        2.888450
   12        3.309609
 
  0.4166667E+00  0.1388889E+00  0.0000000E+00  0.4629630E-02
    1      -20.743710
    2      -19.841743
    3      -11.416512
    4       -9.567896
    5       -9.150296
    6       -8.672323
    7       -8.263265
    8       -7.642876
    9        2.325702
   10        2.539225
   11        3.137192
   12        3.564764
 
  0.4583333E+00  0.1388889E+00  0.0000000E+00  0.4629630E-02
    1      -20.544982
    2      -20.093646
    3      -10.933468
    4      -10.003760
    5       -8.952658
    6       -8.507663
    7       -8.443001
    8       -7.927171
    9        2.600024
   10        3.032492
   11        3.226026
   12        3.407637
 
  0.5000000E+00  0.1388889E+00  0.0000000E+00  0.2314815E-02
    1      -20.328190
    2      -20.328190
    3      -10.460776
    4      -10.460776
    5       -8.738102
    6       -8.738102
    7       -8.194295
    8       -8.194295
    9        2.900178
   10        2.900178
   11        3.497050
   12        3.497052
 
  0.0000000E+00  0.1666667E+00  0.0000000E+00  0.2314815E-02
    1      -21.547265
    2      -16.869392
    3      -15.392451
    4      -10.607849
    5       -9.610272
    6       -7.471240
    7       -6.921762
    8       -4.781409
    9       -1.366883
   10        1.224803
   11        2.028004
   12        2.433185
 
  0.4166667E-01  0.1666667E+00  0.0000000E+00  0.4629630E-02
    1      -21.537662
    2      -16.976844
    3      -15.272056
    4      -10.597682
    5       -9.598982
    6       -7.514809
    7       -6.924047
    8       -4.843693
    9       -1.293034
   10        1.237833
   11        2.041218
   12        2.446601
 
  0.8333333E-01  0.1666667E+00  0.0000000E+00  0.4629630E-02
    1      -21.508861
    2      -17.231453
    3      -14.978772
    4      -10.567171
    5       -9.565131
    6       -7.633787
    7       -6.942036
    8       -5.015767
    9       -1.086427
   10        1.276934
   11        2.080854
   12        2.486851
 
  0.1250000E+00  0.1666667E+00  0.0000000E+00  0.4629630E-02
    1      -21.460885
    2      -17.545062
    3      -14.601227
    4      -10.516290
    5       -9.508778
    6       -7.807028
    7       -6.994912
    8       -5.265381
    9       -0.779790
   10        1.342132
   11        2.146899
   12        2.553940
 
  0.1666667E+00  0.1666667E+00  0.0000000E+00  0.4629630E-02
    1      -21.393775
    2      -17.876031
    3      -14.181877
    4      -10.444981
    5       -9.430021
    6       -8.018408
    7       -7.095062
    8       -5.561475
    9       -0.404968
   10        1.433470
   11        2.239331
   12        2.647878
 
  0.2083333E+00  0.1666667E+00  0.0000000E+00  0.4629630E-02
    1      -21.307588
    2      -18.207320
    3      -13.738958
    4      -10.353143
    5       -9.329004
    6       -8.257904
    7       -7.246611
    8       -5.881551
    9        0.014458
   10        1.550987
   11        2.358115
   12        2.768677
 
  0.2500000E+00  0.1666667E+00  0.0000000E+00  0.4629630E-02
    1      -21.202400
    2      -18.531228
    3      -13.281818
    4      -10.240603
    5       -9.205917
    6       -8.519735
    7       -7.447267
    8       -6.210894
    9        0.462429
   10        1.694711
   11        2.503202
   12        2.916346
 
  0.2916667E+00  0.1666667E+00  0.0000000E+00  0.4629630E-02
    1      -21.078307
    2      -18.843794
    3      -12.816588
    4      -10.107081
    5       -9.061005
    6       -8.801249
    7       -7.689822
    8       -6.540052
    9        0.927899
   10        1.864644
   11        2.674528
   12        3.090892
 
  0.3333333E+00  0.1666667E+00  0.0000000E+00  0.4629630E-02
    1      -20.935428
    2      -19.142739
    3      -12.348352
    4       -9.952149
    5       -9.102417
    6       -8.894578
    7       -7.963383
    8       -6.862839
    9        1.402880
   10        2.060756
   11        2.872000
   12        3.292314
 
  0.3750000E+00  0.1666667E+00  0.0000000E+00  0.4629630E-02
    1      -20.773909
    2      -19.426628
    3      -11.882097
    4       -9.775201
    5       -9.425326
    6       -8.707021
    7       -8.254671
    8       -7.175072
    9        1.881211
   10        2.282987
   11        3.095472
   12        3.520604
 
  0.4166667E+00  0.1666667E+00  0.0000000E+00  0.4629630E-02
    1      -20.593928
    2      -19.694486
    3      -11.423168
    4       -9.773124
    5       -9.575469
    6       -8.549748
    7       -8.498811
    8       -7.473823
    9        2.357832
   10        2.531250
   11        3.344601
   12        3.775793
 
  0.4583333E+00  0.1666667E+00  0.0000000E+00  0.4629630E-02
    1      -20.395700
    2      -19.945616
    3      -10.977379
    4      -10.148254
    5       -9.352218
    6       -8.836236
    7       -8.270539
    8       -7.756974
    9        2.805438
   10        2.828322
   11        3.431048
   12        3.614005
 
  0.5000000E+00  0.1666667E+00  0.0000000E+00  0.2314815E-02
    1      -20.179489
    2      -20.179489
    3      -10.550685
    4      -10.550685
    5       -9.105296
    6       -9.105296
    7       -8.022948
    8       -8.022948
    9        3.105422
   10        3.105422
   11        3.288347
   12        3.288347
 