       N       E                     dE             d eps       ncg     rms          rms(c)
DAV:   1     0.185844198432E+03    0.18584E+03   -0.10711E+04  5928   0.276E+03
DAV:   2    -0.922986305487E+01   -0.19507E+03   -0.17368E+03 10436   0.258E+02
DAV:   3    -0.379989370225E+02   -0.28769E+02   -0.28106E+02  7444   0.118E+02    0.702E+00
RMM:   4    -0.375309487653E+02    0.46799E+00   -0.96477E+00  5928   0.263E+01    0.408E+00
RMM:   5    -0.368371578242E+02    0.69379E+00   -0.26370E+00  5935   0.111E+01    0.701E-01
RMM:   6    -0.368390743729E+02   -0.19165E-02   -0.83507E-02  6377   0.201E+00    0.496E-01
RMM:   7    -0.368303900596E+02    0.86843E-02   -0.31014E-02  5945   0.153E+00    0.319E-01
RMM:   8    -0.368258010014E+02    0.45891E-02   -0.57581E-03  5931   0.505E-01    0.138E-01
RMM:   9    -0.368255281246E+02    0.27288E-03   -0.19243E-02  5928   0.820E-01    0.145E-01
RMM:  10    -0.368255208744E+02    0.72502E-05   -0.19340E-03  5928   0.320E-01    0.260E-02
RMM:  11    -0.368276830549E+02   -0.21622E-02   -0.60425E-04  5930   0.165E-01    0.391E-02
RMM:  12    -0.368282332685E+02   -0.55021E-03   -0.20129E-04  5953   0.928E-02    0.378E-03
RMM:  13    -0.368284619025E+02   -0.22863E-03   -0.37816E-05  6077   0.297E-02    0.236E-03
RMM:  14    -0.368285446501E+02   -0.82748E-04   -0.10435E-05  6016   0.129E-02    0.926E-04
RMM:  15    -0.368285577561E+02   -0.13106E-04   -0.16169E-06  5950   0.672E-03    0.245E-03
RMM:  16    -0.368285713266E+02   -0.13570E-04   -0.23899E-06  5928   0.103E-02    0.161E-03
RMM:  17    -0.368285773510E+02   -0.60244E-05   -0.32720E-07  5928   0.352E-03    0.343E-04
RMM:  18    -0.368285783254E+02   -0.97440E-06   -0.17550E-08  5982   0.112E-03    0.889E-05
RMM:  19    -0.368285790210E+02   -0.69560E-06   -0.94276E-09  5238   0.403E-04    0.128E-05
RMM:  20    -0.368285790484E+02   -0.27415E-07   -0.46777E-10  4546   0.115E-04    0.187E-05
RMM:  21    -0.368285790592E+02   -0.10775E-07   -0.16075E-10  4272   0.734E-05    0.919E-06
RMM:  22    -0.368285790592E+02   -0.14779E-10   -0.18593E-11  3880   0.495E-05
   1 F= -.36828579E+02 E0= -.36828579E+02  d E =-.368286E+02
       N       E                     dE             d eps       ncg     rms          rms(c)
DAV:   1    -0.368285790397E+02    0.19471E-07   -0.19036E-06  6556   0.129E-02    0.255E-04
RMM:   2    -0.368285790399E+02   -0.23817E-09   -0.30802E-08  5982   0.154E-03    0.186E-04
RMM:   3    -0.368285790371E+02    0.28580E-08   -0.51233E-09  5962   0.576E-04    0.503E-05
RMM:   4    -0.368285790373E+02   -0.20066E-09   -0.33758E-10  4532   0.150E-04    0.142E-05
RMM:   5    -0.368285790373E+02    0.37971E-10   -0.22163E-11  3760   0.574E-05
   2 F= -.36828579E+02 E0= -.36828579E+02  d E =0.219434E-07
       N       E                     dE             d eps       ncg     rms          rms(c)
DAV:   1    -0.368285790568E+02   -0.19484E-07   -0.11636E-06  6644   0.101E-02    0.199E-04
RMM:   2    -0.368285790593E+02   -0.24959E-08   -0.18173E-08  5975   0.120E-03    0.144E-04
RMM:   3    -0.368285790604E+02   -0.11255E-08   -0.30586E-09  5924   0.445E-04    0.378E-05
RMM:   4    -0.368285790600E+02    0.40473E-09   -0.18803E-10  3941   0.117E-04    0.107E-05
RMM:   5    -0.368285790601E+02   -0.12039E-09   -0.15560E-11  3690   0.548E-05    0.565E-06
RMM:   6    -0.368285790601E+02    0.85265E-11   -0.14842E-11  3231   0.395E-05
   3 F= -.36828579E+02 E0= -.36828579E+02  d E =-.228508E-07
       N       E                     dE             d eps       ncg     rms          rms(c)
DAV:   1    -0.368285790595E+02    0.61243E-09    0.52801E-09  4896   0.462E-05    0.704E-07
RMM:   2    -0.368285790600E+02   -0.51239E-09   -0.19585E-13  1815   0.163E-05    0.435E-07
RMM:   3    -0.368285790600E+02    0.16485E-10   -0.13437E-12  1724   0.164E-05    0.369E-08
RMM:   4    -0.368285790600E+02    0.70486E-11   -0.22698E-13  1630   0.155E-05    0.234E-08
RMM:   5    -0.368285790600E+02    0.15916E-11    0.80594E-14  1563   0.152E-05
   4 F= -.36828579E+02 E0= -.36828579E+02  d E =0.116643E-09
       N       E                     dE             d eps       ncg     rms          rms(c)
DAV:   1    -0.368285790594E+02    0.55252E-09    0.53013E-09  4416   0.190E-05    0.231E-07
RMM:   2    -0.368285790600E+02   -0.55411E-09    0.28619E-14  1287   0.729E-06    0.142E-07
RMM:   3    -0.368285790600E+02   -0.72760E-11   -0.16797E-13  1272   0.729E-06    0.717E-09
RMM:   4    -0.368285790600E+02   -0.90949E-12   -0.32369E-13  1258   0.730E-06    0.484E-09
RMM:   5    -0.368285790600E+02   -0.18190E-11   -0.97453E-15  1257   0.725E-06
   5 F= -.36828579E+02 E0= -.36828579E+02  d E =-.131877E-10
