gr                                      
           1
     4.402106    0.000000    0.000000
     0.000000    2.455380    0.000000
     0.000000    0.000000   19.506051
   C 
   4
Direct configuration=     1
   0.99938979  0.00000000  0.00000000
   0.16727688  0.50000000  0.00000000
   0.49938979  0.50000000  0.00000000
   0.66727688  0.00000000  0.00000000
Direct configuration=     2
   0.99938679  0.00000000 -0.00000000
   0.16727988  0.50000000  0.00000000
   0.49938679  0.50000000 -0.00000000
   0.66727988  0.00000000  0.00000000
Direct configuration=     3
   0.99938914  0.00000000  0.00000000
   0.16727753  0.50000000 -0.00000000
   0.49938914  0.50000000  0.00000000
   0.66727753  0.00000000 -0.00000000
Direct configuration=     4
   0.99938913  0.00000000  0.00000000
   0.16727754  0.50000000 -0.00000000
   0.49938913  0.50000000  0.00000000
   0.66727754  0.00000000 -0.00000000
Direct configuration=     5
   0.99938913  0.00000000  0.00000000
   0.16727753  0.50000000 -0.00000000
   0.49938913  0.50000000  0.00000000
   0.66727753  0.00000000 -0.00000000
