    4    4  400    1
  0.5270948E+02  0.4273726E-09  0.2467299E-09  0.1999494E-08  0.5000000E-15
  1.000000000000000E-004
  CAR 
 gr                                      
     16    247     12
 
  0.0000000E+00  0.0000000E+00  0.0000000E+00  0.1157407E-02
    1      -22.252269
    2      -17.020627
    3      -15.972010
    4      -10.357872
    5       -9.157687
    6       -5.786701
    7       -5.786328
    8       -5.111008
    9       -1.075886
   10        0.524035
   11        1.325089
   12        1.708109
 
  0.4166667E-01  0.0000000E+00  0.0000000E+00  0.2314815E-02
    1      -22.242022
    2      -17.185479
    3      -15.791896
    4      -10.345631
    5       -9.147502
    6       -5.829455
    7       -5.808896
    8       -5.177486
    9       -0.993428
   10        0.537934
   11        1.339172
   12        1.722361
 
  0.8333333E-01  0.0000000E+00  0.0000000E+00  0.2314815E-02
    1      -22.211286
    2      -17.522299
    3      -15.409374
    4      -10.308925
    5       -9.117000
    6       -5.955956
    7       -5.875353
    8       -5.361955
    9       -0.761189
   10        0.579632
   11        1.381415
   12        1.765118
 
  0.1250000E+00  0.0000000E+00  0.0000000E+00  0.2314815E-02
    1      -22.160080
    2      -17.898563
    3      -14.957228
    4      -10.247812
    5       -9.066334
    6       -6.161214
    7       -5.982161
    8       -5.631121
    9       -0.412979
   10        0.649136
   11        1.451806
   12        1.836381
 
  0.1666667E+00  0.0000000E+00  0.0000000E+00  0.2314815E-02
    1      -22.088439
    2      -18.277532
    3      -14.472638
    4      -10.162389
    5       -8.995766
    6       -6.437787
    7       -6.124057
    8       -5.951978
    9        0.017324
   10        0.746451
   11        1.550323
   12        1.936153
 
  0.2083333E+00  0.0000000E+00  0.0000000E+00  0.2314815E-02
    1      -21.996411
    2      -18.647848
    3      -13.967602
    4      -10.052798
    5       -8.905675
    6       -6.776784
    7       -6.299954
    8       -6.294760
    9        0.503898
   10        0.871577
   11        1.676933
   12        2.064432
 
  0.2500000E+00  0.0000000E+00  0.0000000E+00  0.2314815E-02
    1      -21.884059
    2      -19.004935
    3      -13.447538
    4       -9.919228
    5       -8.796566
    6       -7.168799
    7       -6.658673
    8       -6.487651
    9        1.024500
   10        1.028698
   11        1.831584
   12        2.221219
 
  0.2916667E+00  0.0000000E+00  0.0000000E+00  0.2314815E-02
    1      -21.751463
    2      -19.346533
    3      -12.915784
    4       -9.761924
    5       -8.669093
    6       -7.604630
    7       -7.017506
    8       -6.696294
    9        1.205199
   10        1.578920
   11        2.014199
   12        2.406512
 
  0.3333333E+00  0.0000000E+00  0.0000000E+00  0.2314815E-02
    1      -21.598722
    2      -19.671336
    3      -12.374983
    4       -9.581195
    5       -8.524072
    6       -8.075728
    7       -7.369478
    8       -6.914763
    9        1.413634
   10        2.144666
   11        2.224652
   12        2.620304
 
  0.3750000E+00  0.0000000E+00  0.0000000E+00  0.2314815E-02
    1      -21.425948
    2      -19.978503
    3      -11.827617
    4       -9.377433
    5       -8.574428
    6       -8.362517
    7       -7.709892
    8       -7.137812
    9        1.649756
   10        2.462725
   11        2.716602
   12        2.862589
 
  0.4166667E+00  0.0000000E+00  0.0000000E+00  0.2314815E-02
    1      -21.233279
    2      -20.267439
    3      -11.276266
    4       -9.151125
    5       -9.094005
    6       -8.185670
    7       -8.035484
    8       -7.360908
    9        1.913491
   10        2.727972
   11        3.133350
   12        3.241772
 
  0.4583333E+00  0.0000000E+00  0.0000000E+00  0.2314815E-02
    1      -21.020878
    2      -20.537701
    3      -10.723764
    4       -9.628638
    5       -8.902884
    6       -8.343921
    7       -7.995045
    8       -7.580207
    9        2.204741
   10        2.869167
   11        3.019228
   12        3.433315
 
  0.5000000E+00  0.0000000E+00  0.0000000E+00  0.1157407E-02
    1      -20.788942
    2      -20.788942
    3      -10.173323
    4      -10.173323
    5       -8.633485
    6       -8.633485
    7       -7.792481
    8       -7.792481
    9        2.523370
   10        2.523370
   11        3.331810
   12        3.331810
 
  0.0000000E+00  0.2777778E-01  0.0000000E+00  0.2314815E-02
    1      -22.238605
    2      -17.008903
    3      -15.960424
    4      -10.341549
    5       -9.219271
    6       -5.843140
    7       -5.816872
    8       -5.094380
    9       -1.079827
   10        0.542569
   11        1.343868
   12        1.727114
 
  0.4166667E-01  0.2777778E-01  0.0000000E+00  0.4629630E-02
    1      -22.228359
    2      -17.173585
    3      -15.780530
    4      -10.329311
    5       -9.209070
    6       -5.885655
    7       -5.839006
    8       -5.161003
    9       -0.997342
   10        0.556468
   11        1.357949
   12        1.741366
 
  0.8333333E-01  0.2777778E-01  0.0000000E+00  0.4629630E-02
    1      -22.197627
    2      -17.510145
    3      -15.398424
    4      -10.292618
    5       -9.178517
    6       -6.009305
    7       -5.906409
    8       -5.345806
    9       -0.765126
   10        0.598169
   11        1.400189
   12        1.784124
 
  0.1250000E+00  0.2777778E-01  0.0000000E+00  0.4629630E-02
    1      -22.146428
    2      -17.886181
    3      -14.946772
    4      -10.231526
    5       -9.127761
    6       -6.209388
    7       -6.015577
    8       -5.615316
    9       -0.417169
   10        0.667677
   11        1.470576
   12        1.855388
 
  0.1666667E+00  0.2777778E-01  0.0000000E+00  0.4629630E-02
    1      -22.074798
    2      -18.264957
    3      -14.462760
    4      -10.146133
    5       -9.057058
    6       -6.479525
    7       -6.160577
    8       -5.936426
    9        0.012550
   10        0.764997
   11        1.569088
   12        1.955160
 
  0.2083333E+00  0.2777778E-01  0.0000000E+00  0.4629630E-02
    1      -21.982784
    2      -18.635107
    3      -13.958407
    4      -10.036580
    5       -8.966778
    6       -6.811645
    7       -6.334669
    8       -6.284548
    9        0.498194
   10        0.890131
   11        1.695691
   12        2.083441
 
  0.2500000E+00  0.2777778E-01  0.0000000E+00  0.4629630E-02
    1      -21.870450
    2      -18.992053
    3      -13.439152
    4       -9.903056
    5       -8.857415
    6       -7.196929
    7       -6.643326
    8       -6.530921
    9        1.021740
   10        1.043065
   11        1.850334
   12        2.240231
 
  0.2916667E+00  0.2777778E-01  0.0000000E+00  0.4629630E-02
    1      -21.737876
    2      -19.333529
    3      -12.908361
    4       -9.745806
    5       -8.729605
    6       -7.626535
    7       -7.002155
    8       -6.742698
    9        1.223775
   10        1.570430
   11        2.032941
   12        2.425526
 
  0.3333333E+00  0.2777778E-01  0.0000000E+00  0.4629630E-02
    1      -21.585161
    2      -19.658228
    3      -12.368712
    4       -9.565140
    5       -8.584148
    6       -8.092096
    7       -7.354081
    8       -6.963967
    9        1.432224
   10        2.134447
   11        2.243388
   12        2.639323
 
  0.3750000E+00  0.2777778E-01  0.0000000E+00  0.4629630E-02
    1      -21.412419
    2      -19.965305
    3      -11.822728
    4       -9.361448
    5       -8.585995
    6       -8.422031
    7       -7.694425
    8       -7.189440
    9        1.668361
   10        2.481461
   11        2.704677
   12        2.881612
 
  0.4166667E+00  0.2777778E-01  0.0000000E+00  0.4629630E-02
    1      -21.219786
    2      -20.254164
    3      -11.273035
    4       -9.135218
    5       -9.101485
    6       -8.244469
    7       -8.019933
    8       -7.414586
    9        1.932113
   10        2.746718
   11        3.152381
   12        3.260617
 
  0.4583333E+00  0.2777778E-01  0.0000000E+00  0.4629630E-02
    1      -21.007428
    2      -20.524358
    3      -10.722527
    4       -9.632676
    5       -8.887061
    6       -8.328279
    7       -8.052943
    8       -7.635587
    9        2.223386
   10        2.887893
   11        3.038004
   12        3.451605
 
  0.5000000E+00  0.2777778E-01  0.0000000E+00  0.2314815E-02
    1      -20.775541
    2      -20.775541
    3      -10.174483
    4      -10.174483
    5       -8.617751
    6       -8.617751
    7       -7.849254
    8       -7.849254
    9        2.542045
   10        2.542045
   11        3.350563
   12        3.350563
 
  0.0000000E+00  0.5555556E-01  0.0000000E+00  0.2314815E-02
    1      -22.197622
    2      -16.973734
    3      -15.925815
    4      -10.292612
    5       -9.399097
    6       -6.009053
    7       -5.906656
    8       -5.044516
    9       -1.092484
   10        0.598175
   11        1.400196
   12        1.784130
 
  0.4166667E-01  0.5555556E-01  0.0000000E+00  0.4629630E-02
    1      -22.187380
    2      -17.137918
    3      -15.746579
    4      -10.280387
    5       -9.388840
    6       -6.051940
    7       -5.926442
    8       -5.111590
    9       -1.009910
   10        0.612076
   11        1.414274
   12        1.798383
 
  0.8333333E-01  0.5555556E-01  0.0000000E+00  0.4629630E-02
    1      -22.156661
    2      -17.473705
    3      -15.365725
    4      -10.243732
    5       -9.358116
    6       -6.172771
    7       -5.991079
    8       -5.297421
    9       -0.777754
   10        0.653780
   11        1.456507
   12        1.841141
 
  0.1250000E+00  0.5555556E-01  0.0000000E+00  0.4629630E-02
    1      -22.105485
    2      -17.849057
    3      -14.915574
    4      -10.182704
    5       -9.307063
    6       -6.362257
    7       -6.102540
    8       -5.567982
    9       -0.430564
   10        0.723296
   11        1.526880
   12        1.912407
 
  0.1666667E+00  0.5555556E-01  0.0000000E+00  0.4629630E-02
    1      -22.033887
    2      -18.227251
    3      -14.433331
    4      -10.097401
    5       -9.235915
    6       -6.615063
    7       -6.254991
    8       -5.889863
    9       -0.002627
   10        0.820630
   11        1.625373
   12        2.012182
 
  0.2083333E+00  0.5555556E-01  0.0000000E+00  0.4629630E-02
    1      -21.941916
    2      -18.596905
    3      -13.931073
    4       -9.987962
    5       -9.145014
    6       -6.926284
    7       -6.439603
    8       -6.238429
    9        0.480173
   10        0.945783
   11        1.751953
   12        2.140468
 
  0.2500000E+00  0.5555556E-01  0.0000000E+00  0.4629630E-02
    1      -21.829635
    2      -18.953426
    3      -13.414313
    4       -9.854579
    5       -9.034814
    6       -7.289990
    7       -6.647360
    8       -6.597381
    9        0.999887
   10        1.098742
   11        1.906571
   12        2.297263
 
  0.2916667E+00  0.5555556E-01  0.0000000E+00  0.4629630E-02
    1      -21.697128
    2      -19.294536
    3      -12.886507
    4       -9.697495
    5       -8.905897
    6       -7.699234
    7       -6.956193
    8       -6.870231
    9        1.279482
   10        1.543892
   11        2.089152
   12        2.482567
 
  0.3333333E+00  0.5555556E-01  0.0000000E+00  0.4629630E-02
    1      -21.544492
    2      -19.618920
    3      -12.350439
    4       -9.517020
    5       -8.758998
    6       -8.146602
    7       -7.307978
    8       -7.101458
    9        1.487966
   10        2.102592
   11        2.299579
   12        2.696374
 
  0.3750000E+00  0.5555556E-01  0.0000000E+00  0.4629630E-02
    1      -21.371843
    2      -19.925726
    3      -11.808766
    4       -9.313544
    5       -8.624786
    6       -8.595023
    7       -7.648104
    8       -7.335487
    9        1.724140
   10        2.537648
   11        2.667447
   12        2.938676
 
  0.4166667E+00  0.5555556E-01  0.0000000E+00  0.4629630E-02
    1      -21.179320
    2      -20.214351
    3      -11.264280
    4       -9.126980
    5       -9.087551
    6       -8.415084
    7       -7.973352
    8       -7.567781
    9        1.987936
   10        2.802938
   11        3.209463
   12        3.226216
 
  0.4583333E+00  0.5555556E-01  0.0000000E+00  0.4629630E-02
    1      -20.967089
    2      -20.484344
    3      -10.720070
    4       -9.647061
    5       -8.839651
    6       -8.281421
    7       -8.220542
    8       -7.794644
    9        2.279261
   10        2.943955
   11        3.094321
   12        3.508778
 
  0.5000000E+00  0.5555556E-01  0.0000000E+00  0.2314815E-02
    1      -20.735352
    2      -20.735352
    3      -10.179649
    4      -10.179649
    5       -8.570613
    6       -8.570613
    7       -8.013054
    8       -8.013054
    9        2.597993
   10        2.597993
   11        3.406796
   12        3.406796
 
  0.0000000E+00  0.8333333E-01  0.0000000E+00  0.2314815E-02
    1      -22.129356
    2      -16.915133
    3      -15.868670
    4      -10.211164
    5       -9.683741
    6       -6.271866
    7       -6.053899
    8       -4.961477
    9       -1.116352
   10        0.690867
   11        1.494052
   12        1.879160
 
  0.4166667E-01  0.8333333E-01  0.0000000E+00  0.4629630E-02
    1      -22.119121
    2      -17.078522
    3      -15.690507
    4      -10.198961
    5       -9.673374
    6       -6.315856
    7       -6.069437
    8       -5.029348
    9       -1.033605
   10        0.704767
   11        1.508126
   12        1.893413
 
  0.8333333E-01  0.8333333E-01  0.0000000E+00  0.4629630E-02
    1      -22.088424
    2      -17.413046
    3      -15.311759
    4      -10.162371
    5       -9.642311
    6       -6.437413
    7       -6.124426
    8       -5.216987
    9       -0.801515
   10        0.746471
   11        1.550342
   12        1.936172
 
  0.1250000E+00  0.8333333E-01  0.0000000E+00  0.4629630E-02
    1      -22.037287
    2      -17.787265
    3      -14.864187
    4      -10.101453
    5       -9.590667
    6       -6.621036
    7       -6.228394
    8       -5.489378
    9       -0.455624
   10        0.815991
   11        1.620691
   12        2.007439
 
  0.1666667E+00  0.8333333E-01  0.0000000E+00  0.4629630E-02
    1      -21.965743
    2      -18.164485
    3      -14.385018
    4      -10.016302
    5       -9.518638
    6       -6.857397
    7       -6.381252
    8       -5.812587
    9       -0.030753
   10        0.913336
   11        1.719150
   12        2.107217
 
  0.2083333E+00  0.8333333E-01  0.0000000E+00  0.4629630E-02
    1      -21.873842
    2      -18.533305
    3      -13.886433
    4       -9.907061
    5       -9.426503
    6       -7.141774
    7       -6.575693
    8       -6.161904
    9        0.447142
   10        1.038507
   11        1.845687
   12        2.235508
 
  0.2500000E+00  0.8333333E-01  0.0000000E+00  0.4629630E-02
    1      -21.761652
    2      -18.889112
    3      -13.374084
    4       -9.773919
    5       -9.314636
    6       -7.471671
    7       -6.800605
    8       -6.521140
    9        0.960250
   10        1.191492
   11        2.000256
   12        2.392311
 
  0.2916667E+00  0.8333333E-01  0.0000000E+00  0.4629630E-02
    1      -21.629256
    2      -19.229608
    3      -12.851597
    4       -9.617120
    5       -9.183511
    6       -7.844815
    7       -7.044142
    8       -6.879908
    9        1.372266
   10        1.496162
   11        2.182787
   12        2.577624
 
  0.3333333E+00  0.8333333E-01  0.0000000E+00  0.4629630E-02
    1      -21.476751
    2      -19.553463
    3      -12.321976
    4       -9.436974
    5       -9.033718
    6       -8.257701
    7       -7.296064
    8       -7.231436
    9        1.580789
   10        2.045610
   11        2.393173
   12        2.791444
 
  0.3750000E+00  0.8333333E-01  0.0000000E+00  0.4629630E-02
    1      -21.304257
    2      -19.859814
    3      -11.788149
    4       -9.233868
    5       -8.865982
    6       -8.705254
    7       -7.571176
    8       -7.548697
    9        1.817007
   10        2.600780
   11        2.631227
   12        3.033762
 
  0.4166667E+00  0.8333333E-01  0.0000000E+00  0.4629630E-02
    1      -21.111918
    2      -20.148047
    3      -11.253249
    4       -9.181408
    5       -9.008284
    6       -8.681182
    7       -7.895969
    8       -7.796689
    9        2.080848
   10        2.896570
   11        3.152719
   12        3.304571
 
  0.4583333E+00  0.8333333E-01  0.0000000E+00  0.4629630E-02
    1      -20.899903
    2      -20.417701
    3      -10.720786
    4       -9.679892
    5       -8.760828
    6       -8.480386
    7       -8.203554
    8       -8.036316
    9        2.372226
   10        3.037095
   11        3.188138
   12        3.603925
 
  0.5000000E+00  0.8333333E-01  0.0000000E+00  0.2314815E-02
    1      -20.668417
    2      -20.668417
    3      -10.194787
    4      -10.194787
    5       -8.492260
    6       -8.492260
    7       -8.264895
    8       -8.264895
    9        2.691026
   10        2.691026
   11        3.500415
   12        3.500415
 
  0.0000000E+00  0.1111111E+00  0.0000000E+00  0.2314815E-02
    1      -22.033868
    2      -16.833119
    3      -15.789903
    4      -10.097377
    5      -10.054485
    6       -6.614886
    7       -6.255150
    8       -4.845367
    9       -1.155556
   10        0.820657
   11        1.625399
   12        2.012208
 
  0.4166667E-01  0.1111111E+00  0.0000000E+00  0.4629630E-02
    1      -22.023644
    2      -16.995474
    3      -15.613198
    4      -10.085206
    5      -10.043923
    6       -6.660445
    7       -6.265022
    8       -4.914461
    9       -1.072499
   10        0.834554
   11        1.639464
   12        2.026460
 
  0.8333333E-01  0.1111111E+00  0.0000000E+00  0.4629630E-02
    1      -21.992979
    2      -17.328290
    3      -15.237453
    4      -10.048712
    5      -10.012261
    6       -6.784933
    7       -6.305375
    8       -5.104848
    9       -0.840404
   10        0.876250
   11        1.681656
   12        2.069218
 
  0.1250000E+00  0.1111111E+00  0.0000000E+00  0.4629630E-02
    1      -21.941894
    2      -17.700930
    3      -14.793680
    4       -9.987953
    5       -9.959573
    6       -6.968238
    7       -6.391950
    8       -5.379978
    9       -0.496352
   10        0.945760
   11        1.751964
   12        2.140484
 
  0.1666667E+00  0.1111111E+00  0.0000000E+00  0.4629630E-02
    1      -21.870426
    2      -18.076779
    3      -14.319130
    4       -9.903026
    5       -9.885978
    6       -7.196507
    7       -6.531356
    8       -5.705135
    9       -0.075951
   10        1.043097
   11        1.850366
   12        2.240263
 
  0.2083333E+00  0.1111111E+00  0.0000000E+00  0.4629630E-02
    1      -21.778627
    2      -18.444419
    3      -13.826147
    4       -9.794073
    5       -9.791644
    6       -7.461891
    7       -6.721613
    8       -6.055526
    9        0.394768
   10        1.168269
   11        1.976832
   12        2.368556
 
  0.2500000E+00  0.1111111E+00  0.0000000E+00  0.4629630E-02
    1      -21.666564
    2      -18.799212
    3      -13.320620
    4       -9.676782
    5       -9.661284
    6       -7.760702
    7       -6.954634
    8       -6.415142
    9        0.898212
   10        1.321265
   11        2.131317
   12        2.525365
 
  0.2916667E+00  0.1111111E+00  0.0000000E+00  0.4629630E-02
    1      -21.534321
    2      -19.138837
    3      -12.806490
    4       -9.541649
    5       -9.504904
    6       -8.092237
    7       -7.218254
    8       -6.773809
    9        1.422283
   10        1.502059
   11        2.313758
   12        2.710687
 
  0.3333333E+00  0.1111111E+00  0.0000000E+00  0.4629630E-02
    1      -21.382001
    2      -19.461944
    3      -12.287166
    4       -9.386537
    5       -9.325239
    6       -8.457400
    7       -7.498513
    8       -7.124928
    9        1.710609
   10        1.958112
   11        2.524060
   12        2.924519
 
  0.3750000E+00  0.1111111E+00  0.0000000E+00  0.4629630E-02
    1      -21.209727
    2      -19.767649
    3      -11.766104
    4       -9.211773
    5       -9.122677
    6       -8.856752
    7       -7.782342
    8       -7.464076
    9        1.946855
   10        2.498582
   11        2.762068
   12        3.166853
 
  0.4166667E+00  0.1111111E+00  0.0000000E+00  0.4629630E-02
    1      -21.017647
    2      -20.055326
    3      -11.247117
    4       -9.288796
    5       -9.017714
    6       -8.897697
    7       -8.059771
    8       -7.788183
    9        2.210724
   10        3.027471
   11        3.037034
   12        3.437682
 
  0.4583333E+00  0.1111111E+00  0.0000000E+00  0.4629630E-02
    1      -20.805937
    2      -20.324501
    3      -10.734569
    4       -9.749566
    5       -8.804764
    6       -8.650896
    7       -8.324573
    8       -8.095043
    9        2.502127
   10        3.167063
   11        3.319354
   12        3.560484
 
  0.5000000E+00  0.1111111E+00  0.0000000E+00  0.2314815E-02
    1      -20.574805
    2      -20.574805
    3      -10.233493
    4      -10.233493
    5       -8.573441
    6       -8.573441
    7       -8.383026
    8       -8.383026
    9        2.820954
   10        2.820954
   11        3.631017
   12        3.631017
 
  0.0000000E+00  0.1388889E+00  0.0000000E+00  0.2314815E-02
    1      -21.911247
    2      -16.727721
    3      -15.691067
    4      -10.490641
    5       -9.951500
    6       -7.020317
    7       -6.505864
    8       -4.696331
    9       -1.215733
   10        0.987555
   11        1.794179
   12        2.183276
 
  0.4166667E-01  0.1388889E+00  0.0000000E+00  0.4629630E-02
    1      -21.901036
    2      -16.888900
    3      -15.516163
    4      -10.479747
    5       -9.939372
    6       -7.067800
    7       -6.509010
    8       -4.767215
    9       -1.132124
   10        1.001444
   11        1.808232
   12        2.197528
 
  0.8333333E-01  0.1388889E+00  0.0000000E+00  0.4629630E-02
    1      -21.870412
    2      -17.219628
    3      -15.144415
    4      -10.447062
    5       -9.903008
    6       -7.196535
    7       -6.531310
    8       -4.961559
    9       -0.899781
   10        1.043118
   11        1.850385
   12        2.240282
 
  0.1250000E+00  0.1388889E+00  0.0000000E+00  0.4629630E-02
    1      -21.819396
    2      -17.590252
    3      -14.705950
    4      -10.392577
    5       -9.842466
    6       -7.382852
    7       -6.593723
    8       -5.240541
    9       -0.558060
   10        1.112595
   11        1.920627
   12        2.311544
 
  0.1666667E+00  0.1388889E+00  0.0000000E+00  0.4629630E-02
    1      -21.748027
    2      -17.964320
    3      -14.238037
    4      -10.316268
    5       -9.757844
    6       -7.609512
    7       -6.708589
    8       -5.568362
    9       -0.143643
   10        1.209897
   11        2.018937
   12        2.411318
 
  0.2083333E+00  0.1388889E+00  0.0000000E+00  0.4629630E-02
    1      -21.656358
    2      -18.330417
    3      -13.753295
    4      -10.218076
    5       -9.649285
    6       -7.865973
    7       -6.879149
    8       -5.920164
    9        0.317405
   10        1.335037
   11        2.145284
   12        2.539609
 
  0.2500000E+00  0.1388889E+00  0.0000000E+00  0.4629630E-02
    1      -21.544458
    2      -18.683882
    3      -13.258036
    4      -10.097886
    5       -9.516978
    6       -8.146139
    7       -7.101963
    8       -6.280224
    9        0.807845
   10        1.488011
   11        2.299625
   12        2.696418
 
  0.2916667E+00  0.1388889E+00  0.0000000E+00  0.4629630E-02
    1      -21.412415
    2      -19.022366
    3      -12.756789
    4       -9.955488
    5       -9.361169
    6       -8.447243
    7       -7.368594
    8       -6.638679
    9        1.316023
   10        1.668795
   11        2.481900
   12        2.881745
 
  0.3333333E+00  0.1388889E+00  0.0000000E+00  0.4629630E-02
    1      -21.260335
    2      -19.344491
    3      -12.253760
    4       -9.790524
    5       -9.182165
    6       -8.769412
    7       -7.666871
    8       -6.989176
    9        1.833556
   10        1.877341
   11        2.692030
   12        3.095586
 
  0.3750000E+00  0.1388889E+00  0.0000000E+00  0.4629630E-02
    1      -21.088346
    2      -19.649351
    3      -11.753464
    4       -9.602443
    5       -9.115169
    6       -8.980351
    7       -7.982208
    8       -7.327464
    9        2.113586
   10        2.353951
   11        2.929897
   12        3.337933
 
  0.4166667E+00  0.1388889E+00  0.0000000E+00  0.4629630E-02
    1      -20.896603
    2      -19.936302
    3      -11.261049
    4       -9.488203
    5       -9.390476
    6       -8.756201
    7       -8.299492
    8       -7.650592
    9        2.377449
   10        2.871789
   11        3.195299
   12        3.608777
 
  0.4583333E+00  0.1388889E+00  0.0000000E+00  0.4629630E-02
    1      -20.685288
    2      -20.204853
    3      -10.782402
    4       -9.891208
    5       -9.153760
    6       -8.605643
    7       -8.510305
    8       -7.956432
    9        2.668834
   10        3.333684
   11        3.381851
   12        3.487667
 
  0.5000000E+00  0.1388889E+00  0.0000000E+00  0.2314815E-02
    1      -20.454619
    2      -20.454619
    3      -10.323849
    4      -10.323849
    5       -8.891811
    6       -8.891811
    7       -8.243404
    8       -8.243404
    9        2.987626
   10        2.987626
   11        3.791699
   12        3.791699
 
  0.0000000E+00  0.1666667E+00  0.0000000E+00  0.2314815E-02
    1      -21.761610
    2      -16.598979
    3      -15.574778
    4      -10.971668
    5       -9.773866
    6       -7.471592
    7       -6.800655
    8       -4.514565
    9       -1.303741
   10        1.191552
   11        2.000314
   12        2.392368
 
  0.4166667E-01  0.1666667E+00  0.0000000E+00  0.4629630E-02
    1      -21.751416
    2      -16.758987
    3      -15.401972
    4      -10.960201
    5       -9.761795
    6       -7.521285
    7       -6.796351
    8       -4.588043
    9       -1.219127
   10        1.205428
   11        2.014345
   12        2.406617
 
  0.8333333E-01  0.1666667E+00  0.0000000E+00  0.4629630E-02
    1      -21.720843
    2      -17.087350
    3      -15.035437
    4      -10.925746
    5       -9.725602
    6       -7.655148
    7       -6.798349
    8       -4.788000
    9       -0.985937
   10        1.247064
   11        2.056436
   12        2.449366
 
  0.1250000E+00  0.1666667E+00  0.0000000E+00  0.4629630E-02
    1      -21.669912
    2      -17.455531
    3      -14.604377
    4      -10.868125
    5       -9.665345
    6       -7.846406
    7       -6.832257
    8       -5.072257
    9       -0.646860
   10        1.316483
   11        2.126572
   12        2.520618
 
  0.1666667E+00  0.1666667E+00  0.0000000E+00  0.4629630E-02
    1      -21.598665
    2      -17.827387
    3      -14.146105
    4      -10.787008
    5       -9.581124
    6       -8.075216
    7       -6.915314
    8       -5.403580
    9       -0.239970
   10        1.413713
   11        2.224729
   12        2.620381
 
  0.2083333E+00  0.1666667E+00  0.0000000E+00  0.4629630E-02
    1      -21.507155
    2      -18.191550
    3      -13.673742
    4      -10.681855
    5       -9.473082
    6       -8.329244
    7       -7.055190
    8       -5.757127
    9        0.208765
   10        1.538777
   11        2.350871
   12        2.748661
 
  0.2500000E+00  0.1666667E+00  0.0000000E+00  0.4629630E-02
    1      -21.395456
    2      -18.543345
    3      -13.194431
    4      -10.551827
    5       -9.341411
    6       -8.600836
    7       -7.252529
    8       -6.117628
    9        0.682699
   10        1.691681
   11        2.504949
   12        2.905462
 
  0.2916667E+00  0.1666667E+00  0.0000000E+00  0.4629630E-02
    1      -21.263659
    2      -18.880394
    3      -12.713898
    4      -10.395674
    5       -9.186358
    6       -8.885424
    7       -7.502742
    8       -6.475667
    9        1.170838
   10        1.872406
   11        2.686898
   12        3.090786
 
  0.3333333E+00  0.1666667E+00  0.0000000E+00  0.4629630E-02
    1      -21.111875
    2      -19.201286
    3      -12.237961
    4      -10.211616
    5       -9.180918
    6       -9.008229
    7       -7.797252
    8       -6.825226
    9        1.665443
   10        2.080906
   11        2.896631
   12        3.304629
 
  0.3750000E+00  0.1666667E+00  0.0000000E+00  0.4629630E-02
    1      -20.940240
    2      -19.505088
    3      -11.773114
    4       -9.997348
    5       -9.487604
    6       -8.807408
    7       -8.124437
    8       -7.162288
    9        2.160678
   10        2.317107
   11        3.134035
   12        3.546983
 
  0.4166667E+00  0.1666667E+00  0.0000000E+00  0.4629630E-02
    1      -20.748915
    2      -19.791130
    3      -11.326438
    4       -9.808205
    5       -9.750446
    6       -8.584365
    7       -8.470364
    8       -7.484051
    9        2.580920
   10        2.651875
   11        3.398953
   12        3.817839
 
  0.4583333E+00  0.1666667E+00  0.0000000E+00  0.4629630E-02
    1      -20.538092
    2      -20.058901
    3      -10.904570
    4      -10.147625
    5       -9.469611
    6       -8.819614
    7       -8.339685
    8       -7.788490
    9        2.872236
   10        3.135082
   11        3.536840
   12        3.691069
 
  0.5000000E+00  0.1666667E+00  0.0000000E+00  0.2314815E-02
    1      -20.307997
    2      -20.307997
    3      -10.511681
    4      -10.511681
    5       -9.156878
    6       -9.156878
    7       -8.074089
    8       -8.074089
    9        3.190927
   10        3.190927
   11        3.606681
   12        3.606681
 