gr                                      
           1
     4.273726    0.000000    0.000000
     0.000000    2.467299    0.000000
     0.000000    0.000000   19.994945
   C 
   4
Direct configuration=     1
   0.00013158  0.00000000  0.00000000
   0.16653509  0.50000000  0.00000000
   0.50013158  0.50000000  0.00000000
   0.66653509  0.00000000  0.00000000
Direct configuration=     2
  -0.00052764 -0.00000000  0.00000000
   0.16719431  0.50000000 -0.00000000
   0.49947236  0.50000000  0.00000000
   0.66719431 -0.00000000 -0.00000000
Direct configuration=     3
   0.00000072 -0.00000000  0.00000000
   0.16666594  0.50000000 -0.00000000
   0.50000072  0.50000000  0.00000000
   0.66666594 -0.00000000 -0.00000000
Direct configuration=     4
  -0.00000044 -0.00000000 -0.00000000
   0.16666711  0.50000000  0.00000000
   0.49999956  0.50000000 -0.00000000
   0.66666711 -0.00000000  0.00000000
Direct configuration=     5
  -0.00000045 -0.00000000  0.00000000
   0.16666712  0.50000000 -0.00000000
   0.49999955  0.50000000  0.00000000
   0.66666712 -0.00000000 -0.00000000
