    4    4  400    1
  0.5270948E+02  0.4273041E-09  0.2467498E-09  0.1999654E-08  0.5000000E-15
  1.000000000000000E-004
  CAR 
 gr                                      
     16    247     12
 
  0.0000000E+00  0.0000000E+00  0.0000000E+00  0.1157407E-02
    1      -22.252941
    2      -17.018419
    3      -15.972562
    4      -10.358391
    5       -9.160632
    6       -5.787192
    7       -5.785170
    8       -5.109142
    9       -1.075289
   10        0.523956
   11        1.325021
   12        1.708001
 
  0.4166667E-01  0.0000000E+00  0.0000000E+00  0.2314815E-02
    1      -22.242691
    2      -17.183689
    3      -15.792028
    4      -10.346146
    5       -9.150442
    6       -5.827910
    7       -5.809779
    8       -5.175677
    9       -0.992775
   10        0.537859
   11        1.339107
   12        1.722258
 
  0.8333333E-01  0.0000000E+00  0.0000000E+00  0.2314815E-02
    1      -22.211945
    2      -17.520984
    3      -15.409028
    4      -10.309427
    5       -9.119925
    6       -5.954367
    7       -5.876289
    8       -5.360293
    9       -0.760393
   10        0.579572
   11        1.381364
   12        1.765029
 
  0.1250000E+00  0.0000000E+00  0.0000000E+00  0.2314815E-02
    1      -22.160723
    2      -17.897559
    3      -14.956565
    4      -10.248292
    5       -9.069234
    6       -6.159561
    7       -5.983182
    8       -5.629648
    9       -0.412002
   10        0.649099
   11        1.451778
   12        1.836315
 
  0.1666667E+00  0.0000000E+00  0.0000000E+00  0.2314815E-02
    1      -22.089058
    2      -18.276753
    3      -14.471744
    4      -10.162840
    5       -8.998630
    6       -6.436060
    7       -6.125187
    8       -5.950701
    9        0.018487
   10        0.746447
   11        1.550328
   12        1.936119
 
  0.2083333E+00  0.0000000E+00  0.0000000E+00  0.2314815E-02
    1      -21.997000
    2      -18.647247
    3      -13.966521
    4      -10.053210
    5       -8.908492
    6       -6.774983
    7       -6.298866
    8       -6.296016
    9        0.505235
   10        0.871614
   11        1.676979
   12        2.064440
 
  0.2500000E+00  0.0000000E+00  0.0000000E+00  0.2314815E-02
    1      -21.884612
    2      -19.004486
    3      -13.446297
    4       -9.919593
    5       -8.799328
    6       -7.166933
    7       -6.657761
    8       -6.489045
    9        1.024588
   10        1.030192
   11        1.831681
   12        2.221277
 
  0.2916667E+00  0.0000000E+00  0.0000000E+00  0.2314815E-02
    1      -21.751973
    2      -19.346217
    3      -12.914401
    4       -9.762233
    5       -8.671788
    6       -7.602713
    7       -7.016757
    8       -6.697831
    9        1.205346
   10        1.580553
   11        2.014356
   12        2.406630
 
  0.3333333E+00  0.0000000E+00  0.0000000E+00  0.2314815E-02
    1      -21.599182
    2      -19.671141
    3      -12.373474
    4       -9.581440
    5       -8.526692
    6       -8.073780
    7       -7.368880
    8       -6.916445
    9        1.413850
   10        2.146422
   11        2.224879
   12        2.620491
 
  0.3750000E+00  0.0000000E+00  0.0000000E+00  0.2314815E-02
    1      -21.426351
    2      -19.978418
    3      -11.825996
    4       -9.377604
    5       -8.572469
    6       -8.365050
    7       -7.709433
    8       -7.139636
    9        1.650048
   10        2.463034
   11        2.718467
   12        2.862853
 
  0.4166667E+00  0.0000000E+00  0.0000000E+00  0.2314815E-02
    1      -21.233619
    2      -20.267455
    3      -11.274547
    4       -9.151214
    5       -9.092056
    6       -8.188107
    7       -8.035155
    8       -7.362870
    9        1.913868
   10        2.728374
   11        3.133842
   12        3.242575
 
  0.4583333E+00  0.0000000E+00  0.0000000E+00  0.2314815E-02
    1      -21.021148
    2      -20.537809
    3      -10.721962
    4       -9.626719
    5       -8.902882
    6       -8.343710
    7       -7.997376
    8       -7.582300
    9        2.205213
   10        2.869852
   11        3.019740
   12        3.433015
 
  0.5000000E+00  0.0000000E+00  0.0000000E+00  0.1157407E-02
    1      -20.789134
    2      -20.789134
    3      -10.171454
    4      -10.171454
    5       -8.633383
    6       -8.633383
    7       -7.794698
    8       -7.794698
    9        2.523944
   10        2.523944
   11        3.332477
   12        3.332477
 
  0.0000000E+00  0.2777778E-01  0.0000000E+00  0.2314815E-02
    1      -22.239280
    2      -17.006697
    3      -15.960979
    4      -10.342071
    5       -9.222198
    6       -5.843982
    7       -5.815372
    8       -5.092517
    9       -1.079245
   10        0.542486
   11        1.343796
   12        1.727003
 
  0.4166667E-01  0.2777778E-01  0.0000000E+00  0.4629630E-02
    1      -22.229030
    2      -17.171797
    3      -15.780667
    4      -10.329829
    5       -9.211992
    6       -5.885564
    7       -5.838441
    8       -5.159198
    9       -0.996703
   10        0.556390
   11        1.357882
   12        1.741260
 
  0.8333333E-01  0.2777778E-01  0.0000000E+00  0.4629630E-02
    1      -22.198289
    2      -17.508832
    3      -15.398082
    4      -10.293123
    5       -9.181423
    6       -6.008437
    7       -5.906630
    8       -5.344148
    9       -0.764344
   10        0.598105
   11        1.400136
   12        1.784031
 
  0.1250000E+00  0.2777778E-01  0.0000000E+00  0.4629630E-02
    1      -22.147074
    2      -17.885179
    3      -14.946113
    4      -10.232009
    5       -9.130641
    6       -6.208151
    7       -6.016186
    8       -5.613846
    9       -0.416206
   10        0.667636
   11        1.470546
   12        1.855319
 
  0.1666667E+00  0.2777778E-01  0.0000000E+00  0.4629630E-02
    1      -22.075419
    2      -18.264179
    3      -14.461871
    4      -10.146586
    5       -9.059902
    6       -6.478067
    7       -6.161439
    8       -5.935152
    9        0.013698
   10        0.764990
   11        1.569090
   12        1.955123
 
  0.2083333E+00  0.2777778E-01  0.0000000E+00  0.4629630E-02
    1      -21.983376
    2      -18.634509
    3      -13.957331
    4      -10.036994
    5       -8.969575
    6       -6.810031
    7       -6.335737
    8       -6.283464
    9        0.499514
   10        0.890165
   11        1.695734
   12        2.083446
 
  0.2500000E+00  0.2777778E-01  0.0000000E+00  0.4629630E-02
    1      -21.871005
    2      -18.991607
    3      -13.437917
    4       -9.903423
    5       -8.860155
    6       -7.195197
    7       -6.642417
    8       -6.532176
    9        1.023216
   10        1.043149
   11        1.850428
   12        2.240286
 
  0.2916667E+00  0.2777778E-01  0.0000000E+00  0.4629630E-02
    1      -21.738389
    2      -19.333216
    3      -12.906987
    4       -9.746117
    5       -8.732278
    6       -7.624718
    7       -7.001409
    8       -6.744129
    9        1.223919
   10        1.572044
   11        2.033095
   12        2.425641
 
  0.3333333E+00  0.2777778E-01  0.0000000E+00  0.4629630E-02
    1      -21.585623
    2      -19.658035
    3      -12.367214
    4       -9.565387
    5       -8.586743
    6       -8.090222
    7       -7.353487
    8       -6.965566
    9        1.432436
   10        2.136181
   11        2.243612
   12        2.639507
 
  0.3750000E+00  0.2777778E-01  0.0000000E+00  0.4629630E-02
    1      -21.412824
    2      -19.965222
    3      -11.821119
    4       -9.361622
    5       -8.584092
    6       -8.424538
    7       -7.693969
    8       -7.191198
    9        1.668650
   10        2.481766
   11        2.706517
   12        2.881874
 
  0.4166667E+00  0.2777778E-01  0.0000000E+00  0.4629630E-02
    1      -21.220129
    2      -20.254181
    3      -11.271332
    4       -9.135310
    5       -9.099579
    6       -8.246877
    7       -8.019606
    8       -7.416494
    9        1.932488
   10        2.747116
   11        3.152783
   12        3.261395
 
  0.4583333E+00  0.2777778E-01  0.0000000E+00  0.4629630E-02
    1      -21.007700
    2      -20.524468
    3      -10.720745
    4       -9.630791
    5       -8.887062
    6       -8.328071
    7       -8.055241
    8       -7.637635
    9        2.223855
   10        2.888575
   11        3.038513
   12        3.452183
 
  0.5000000E+00  0.2777778E-01  0.0000000E+00  0.2314815E-02
    1      -20.775735
    2      -20.775735
    3      -10.172639
    4      -10.172639
    5       -8.617652
    6       -8.617652
    7       -7.851432
    8       -7.851432
    9        2.542617
   10        2.542617
   11        3.351227
   12        3.351227
 
  0.0000000E+00  0.5555556E-01  0.0000000E+00  0.2314815E-02
    1      -22.198305
    2      -16.971537
    3      -15.926382
    4      -10.293142
    5       -9.401970
    6       -6.009833
    7       -5.905244
    8       -5.042660
    9       -1.091946
   10        0.598082
   11        1.400115
   12        1.784010
 
  0.4166667E-01  0.5555556E-01  0.0000000E+00  0.4629630E-02
    1      -22.188059
    2      -17.136138
    3      -15.746728
    4      -10.280913
    5       -9.391708
    6       -6.052434
    7       -5.925318
    8       -5.109792
    9       -1.009316
   10        0.611988
   11        1.414198
   12        1.798267
 
  0.8333333E-01  0.5555556E-01  0.0000000E+00  0.4629630E-02
    1      -22.157330
    2      -17.472399
    3      -15.365396
    4      -10.244245
    5       -9.360968
    6       -6.172807
    7       -5.990417
    8       -5.295772
    9       -0.777016
   10        0.653706
   11        1.456444
   12        1.841040
 
  0.1250000E+00  0.5555556E-01  0.0000000E+00  0.4629630E-02
    1      -22.106137
    2      -17.848063
    3      -14.914930
    4      -10.183195
    5       -9.309887
    6       -6.361887
    7       -6.102295
    8       -5.566523
    9       -0.429646
   10        0.723245
   11        1.526840
   12        1.912329
 
  0.1666667E+00  0.5555556E-01  0.0000000E+00  0.4629630E-02
    1      -22.034516
    2      -18.226481
    3      -14.432459
    4      -10.097862
    5       -9.238702
    6       -6.614337
    7       -6.255126
    8       -5.888601
    9       -0.001526
   10        0.820613
   11        1.625366
   12        2.012136
 
  0.2083333E+00  0.5555556E-01  0.0000000E+00  0.4629630E-02
    1      -21.942515
    2      -18.596314
    3      -13.930017
    4       -9.988385
    5       -9.147752
    6       -6.925252
    7       -6.440085
    8       -6.237356
    9        0.481443
   10        0.945807
   11        1.751987
   12        2.140463
 
  0.2500000E+00  0.5555556E-01  0.0000000E+00  0.4629630E-02
    1      -21.830198
    2      -18.952987
    3      -13.413101
    4       -9.854954
    5       -9.037492
    6       -7.288706
    7       -6.648156
    8       -6.596484
    9        1.001308
   10        1.098817
   11        1.906655
   12        2.297309
 
  0.2916667E+00  0.5555556E-01  0.0000000E+00  0.4629630E-02
    1      -21.697648
    2      -19.294231
    3      -12.885159
    4       -9.697814
    5       -8.908504
    6       -7.697756
    7       -6.955459
    8       -6.871305
    9        1.279617
   10        1.545444
   11        2.089297
   12        2.482673
 
  0.3333333E+00  0.5555556E-01  0.0000000E+00  0.4629630E-02
    1      -21.544961
    2      -19.618735
    3      -12.348972
    4       -9.517276
    5       -8.761521
    6       -8.144983
    7       -7.307394
    8       -7.102778
    9        1.488169
   10        2.104257
   11        2.299794
   12        2.696548
 
  0.3750000E+00  0.5555556E-01  0.0000000E+00  0.4629630E-02
    1      -21.372256
    2      -19.925650
    3      -11.807198
    4       -9.313726
    5       -8.623075
    6       -8.597450
    7       -7.647658
    8       -7.337024
    9        1.724420
   10        2.537943
   11        2.669211
   12        2.938929
 
  0.4166667E+00  0.5555556E-01  0.0000000E+00  0.4629630E-02
    1      -21.179669
    2      -20.214377
    3      -11.262628
    4       -9.125218
    5       -9.087651
    6       -8.417402
    7       -7.973035
    8       -7.569513
    9        1.988302
   10        2.803326
   11        3.209909
   12        3.228922
 
  0.4583333E+00  0.5555556E-01  0.0000000E+00  0.4629630E-02
    1      -20.967369
    2      -20.484461
    3      -10.718353
    4       -9.645285
    5       -8.839661
    6       -8.281222
    7       -8.222737
    8       -7.796547
    9        2.279721
   10        2.944629
   11        3.094820
   12        3.509156
 
  0.5000000E+00  0.5555556E-01  0.0000000E+00  0.2314815E-02
    1      -20.735554
    2      -20.735554
    3      -10.177890
    4      -10.177890
    5       -8.570523
    6       -8.570523
    7       -8.015112
    8       -8.015112
    9        2.598556
   10        2.598556
   11        3.407455
   12        3.407455
 
  0.0000000E+00  0.8333333E-01  0.0000000E+00  0.2314815E-02
    1      -22.130051
    2      -16.912950
    3      -15.869256
    4      -10.211706
    5       -9.686529
    6       -6.272549
    7       -6.052626
    8       -4.959633
    9       -1.115888
   10        0.690757
   11        1.493956
   12        1.879025
 
  0.4166667E-01  0.8333333E-01  0.0000000E+00  0.4629630E-02
    1      -22.119813
    2      -17.076754
    3      -15.690677
    4      -10.199499
    5       -9.676157
    6       -6.316441
    7       -6.068262
    8       -5.027564
    9       -1.033084
   10        0.704662
   11        1.508034
   12        1.893282
 
  0.8333333E-01  0.8333333E-01  0.0000000E+00  0.4629630E-02
    1      -22.089106
    2      -17.411754
    3      -15.311454
    4      -10.162897
    5       -9.645076
    6       -6.437822
    7       -6.123425
    8       -5.215355
    9       -0.800849
   10        0.746381
   11        1.550265
   12        1.936055
 
  0.1250000E+00  0.8333333E-01  0.0000000E+00  0.4629630E-02
    1      -22.037952
    2      -17.786283
    3      -14.863568
    4      -10.101956
    5       -9.593403
    6       -6.621265
    7       -6.227574
    8       -5.487939
    9       -0.454780
   10        0.815924
   11        1.620636
   12        2.007345
 
  0.1666667E+00  0.8333333E-01  0.0000000E+00  0.4629630E-02
    1      -21.966384
    2      -18.163727
    3      -14.384174
    4      -10.016776
    5       -9.521333
    6       -6.857418
    7       -6.380652
    8       -5.811345
    9       -0.029730
   10        0.913302
   11        1.719127
   12        2.107156
 
  0.2083333E+00  0.8333333E-01  0.0000000E+00  0.4629630E-02
    1      -21.874454
    2      -18.532726
    3      -13.885410
    4       -9.907497
    5       -9.429146
    6       -7.141538
    7       -6.575378
    8       -6.160851
    9        0.448328
   10        1.038514
   11        1.845706
   12        2.235488
 
  0.2500000E+00  0.8333333E-01  0.0000000E+00  0.4629630E-02
    1      -21.762227
    2      -18.888684
    3      -13.372911
    4       -9.774308
    5       -9.317212
    6       -7.471139
    7       -6.800637
    8       -6.520263
    9        0.961579
   10        1.191551
   11        2.000325
   12        2.392341
 
  0.2916667E+00  0.8333333E-01  0.0000000E+00  0.4629630E-02
    1      -21.629788
    2      -19.229314
    3      -12.850298
    4       -9.617453
    5       -9.186007
    6       -7.843981
    7       -7.044548
    8       -6.879193
    9        1.372385
   10        1.497612
   11        2.182916
   12        2.577715
 
  0.3333333E+00  0.8333333E-01  0.0000000E+00  0.4629630E-02
    1      -21.477232
    2      -19.553290
    3      -12.320570
    4       -9.437243
    5       -9.036119
    6       -8.256599
    7       -7.296834
    8       -7.230870
    9        1.580976
   10        2.047161
   11        2.393371
   12        2.791603
 
  0.3750000E+00  0.8333333E-01  0.0000000E+00  0.4629630E-02
    1      -21.304682
    2      -19.859750
    3      -11.786658
    4       -9.234064
    5       -8.868272
    6       -8.703941
    7       -7.570748
    8       -7.549796
    9        1.817271
   10        2.602417
   11        2.631506
   12        3.034000
 
  0.4166667E+00  0.8333333E-01  0.0000000E+00  0.4629630E-02
    1      -21.112280
    2      -20.148084
    3      -11.251695
    4       -9.179947
    5       -9.008399
    6       -8.683343
    7       -7.895669
    8       -7.798073
    9        2.081199
   10        2.896941
   11        3.154434
   12        3.304896
 
  0.4583333E+00  0.8333333E-01  0.0000000E+00  0.4629630E-02
    1      -20.900195
    2      -20.417830
    3      -10.719198
    4       -9.678342
    5       -8.760852
    6       -8.482396
    7       -8.203372
    8       -8.037944
    9        2.372672
   10        3.037755
   11        3.188620
   12        3.614499
 
  0.5000000E+00  0.8333333E-01  0.0000000E+00  0.2314815E-02
    1      -20.668631
    2      -20.668631
    3      -10.193198
    4      -10.193198
    5       -8.492186
    6       -8.492186
    7       -8.266729
    8       -8.266729
    9        2.691575
   10        2.691575
   11        3.501066
   12        3.501067
 
  0.0000000E+00  0.1111111E+00  0.0000000E+00  0.2314815E-02
    1      -22.034581
    2      -16.830957
    3      -15.790518
    4      -10.097937
    5      -10.057162
    6       -6.615450
    7       -6.254054
    8       -4.843539
    9       -1.155196
   10        0.820524
   11        1.625282
   12        2.012051
 
  0.4166667E-01  0.1111111E+00  0.0000000E+00  0.4629630E-02
    1      -22.024353
    2      -16.993726
    3      -15.613399
    4      -10.085761
    5      -10.046594
    6       -6.660985
    7       -6.263946
    8       -4.912695
    9       -1.072080
   10        0.834426
   11        1.639351
   12        2.026308
 
  0.8333333E-01  0.1111111E+00  0.0000000E+00  0.4629630E-02
    1      -21.993678
    2      -17.327016
    3      -15.237181
    4      -10.049255
    5      -10.014913
    6       -6.785439
    7       -6.304322
    8       -5.103239
    9       -0.839839
   10        0.876136
   11        1.681557
   12        2.069080
 
  0.1250000E+00  0.1111111E+00  0.0000000E+00  0.4629630E-02
    1      -21.942577
    2      -17.699967
    3      -14.793100
    4       -9.988474
    5       -9.962192
    6       -6.968721
    7       -6.390912
    8       -5.378565
    9       -0.495610
   10        0.945670
   11        1.751888
   12        2.140369
 
  0.1666667E+00  0.1111111E+00  0.0000000E+00  0.4629630E-02
    1      -21.871085
    2      -18.076039
    3      -14.318329
    4       -9.903518
    5       -9.888551
    6       -7.196950
    7       -6.530355
    8       -5.703922
    9       -0.075036
   10        1.043040
   11        1.850322
   12        2.240180
 
  0.2083333E+00  0.1111111E+00  0.0000000E+00  0.4629630E-02
    1      -21.779256
    2      -18.443858
    3      -13.825176
    4       -9.794527
    5       -9.794156
    6       -7.462249
    7       -6.720711
    8       -6.054502
    9        0.395837
   10        1.168254
   11        1.976829
   12        2.368515
 
  0.2500000E+00  0.1111111E+00  0.0000000E+00  0.4629630E-02
    1      -21.667157
    2      -18.798802
    3      -13.319511
    4       -9.679218
    5       -9.661691
    6       -7.760906
    7       -6.953921
    8       -6.414292
    9        0.899412
   10        1.321301
   11        2.131364
   12        2.525374
 
  0.2916667E+00  0.1111111E+00  0.0000000E+00  0.4629630E-02
    1      -21.534870
    2      -19.138561
    3      -12.805270
    4       -9.543990
    5       -9.505255
    6       -8.092209
    7       -7.217831
    8       -6.773120
    9        1.423590
   10        1.502155
   11        2.313865
   12        2.710756
 
  0.3333333E+00  0.1111111E+00  0.0000000E+00  0.4629630E-02
    1      -21.382500
    2      -19.461788
    3      -12.285861
    4       -9.388762
    5       -9.325528
    6       -8.457079
    7       -7.498467
    8       -7.124387
    9        1.710774
   10        1.959505
   11        2.524236
   12        2.924657
 
  0.3750000E+00  0.1111111E+00  0.0000000E+00  0.4629630E-02
    1      -21.210170
    2      -19.767602
    3      -11.764745
    4       -9.213858
    5       -9.122893
    6       -8.856120
    7       -7.782714
    8       -7.463672
    9        1.947097
   10        2.500044
   11        2.762324
   12        3.167070
 
  0.4166667E+00  0.1111111E+00  0.0000000E+00  0.4629630E-02
    1      -21.018026
    2      -20.055380
    3      -11.245738
    4       -9.287884
    5       -9.019628
    6       -8.897832
    7       -8.060552
    8       -7.787906
    9        2.211053
   10        3.027818
   11        3.038553
   12        3.437987
 
  0.4583333E+00  0.1111111E+00  0.0000000E+00  0.4629630E-02
    1      -20.806245
    2      -20.324648
    3      -10.733214
    4       -9.748436
    5       -8.806471
    6       -8.650941
    7       -8.325719
    8       -8.094883
    9        2.502552
   10        3.167703
   11        3.319811
   12        3.562351
 
  0.5000000E+00  0.1111111E+00  0.0000000E+00  0.2314815E-02
    1      -20.575036
    2      -20.575036
    3      -10.232218
    4      -10.232218
    5       -8.574895
    6       -8.574895
    7       -8.382973
    8       -8.382973
    9        2.821483
   10        2.821483
   11        3.631670
   12        3.631679
 
  0.0000000E+00  0.1388889E+00  0.0000000E+00  0.2314815E-02
    1      -21.911982
    2      -16.725585
    3      -15.691724
    4      -10.493184
    5       -9.952082
    6       -7.020745
    7       -6.504966
    8       -4.694524
    9       -1.215505
   10        0.987392
   11        1.794035
   12        2.183092
 
  0.4166667E-01  0.1388889E+00  0.0000000E+00  0.4629630E-02
    1      -21.901768
    2      -16.887177
    3      -15.516408
    4      -10.482283
    5       -9.939950
    6       -7.068242
    7       -6.508092
    8       -4.765474
    9       -1.131835
   10        1.001286
   11        1.808092
   12        2.197348
 
  0.8333333E-01  0.1388889E+00  0.0000000E+00  0.4629630E-02
    1      -21.871133
    2      -17.218379
    3      -15.144190
    4      -10.449576
    5       -9.903574
    6       -7.197022
    7       -6.530331
    8       -4.959982
    9       -0.899343
   10        1.042974
   11        1.850259
   12        2.240116
 
  0.1250000E+00  0.1388889E+00  0.0000000E+00  0.4629630E-02
    1      -21.820101
    2      -17.589313
    3      -14.705423
    4      -10.395053
    5       -9.843011
    6       -7.383404
    7       -6.592661
    8       -5.239165
    9       -0.557447
   10        1.112475
   11        1.920524
   12        2.311401
 
  0.1666667E+00  0.1388889E+00  0.0000000E+00  0.4629630E-02
    1      -21.748709
    2      -17.963604
    3      -14.237300
    4      -10.318688
    5       -9.758359
    6       -7.610124
    7       -6.707452
    8       -5.567187
    9       -0.142863
   10        1.209810
   11        2.018866
   12        2.411207
 
  0.2083333E+00  0.1388889E+00  0.0000000E+00  0.4629630E-02
    1      -21.657010
    2      -18.329878
    3      -13.752402
    4      -10.220422
    5       -9.649762
    6       -7.866622
    7       -6.877972
    8       -5.919178
    9        0.318327
   10        1.334993
   11        2.145253
   12        2.539540
 
  0.2500000E+00  0.1388889E+00  0.0000000E+00  0.4629630E-02
    1      -21.545073
    2      -18.683495
    3      -13.257026
    4      -10.100136
    5       -9.517409
    6       -8.146781
    7       -7.100810
    8       -6.279411
    9        0.808883
   10        1.488018
   11        2.299644
   12        2.696400
 
  0.2916667E+00  0.1388889E+00  0.0000000E+00  0.4629630E-02
    1      -21.412987
    2      -19.022111
    3      -12.755697
    4       -9.957615
    5       -9.361545
    6       -8.447817
    7       -7.367552
    8       -6.638025
    9        1.317152
   10        1.668863
   11        2.481978
   12        2.881787
 
  0.3333333E+00  0.1388889E+00  0.0000000E+00  0.4629630E-02
    1      -21.260857
    2      -19.344357
    3      -12.252625
    4       -9.792496
    5       -9.182478
    6       -8.769837
    7       -7.666047
    8       -6.988668
    9        1.834753
   10        1.877478
   11        2.692177
   12        3.095696
 
  0.3750000E+00  0.1388889E+00  0.0000000E+00  0.4629630E-02
    1      -21.088811
    2      -19.649327
    3      -11.752333
    4       -9.604218
    5       -9.115360
    6       -8.980592
    7       -7.981712
    8       -7.327092
    9        2.113801
   10        2.355197
   11        2.930122
   12        3.338121
 
  0.4166667E+00  0.1388889E+00  0.0000000E+00  0.4629630E-02
    1      -20.897004
    2      -19.936378
    3      -11.259981
    4       -9.488094
    5       -9.392000
    6       -8.756361
    7       -8.299415
    8       -7.650345
    9        2.377751
   10        2.873068
   11        3.195613
   12        3.609054
 
  0.4583333E+00  0.1388889E+00  0.0000000E+00  0.4629630E-02
    1      -20.685619
    2      -20.205022
    3      -10.781469
    4       -9.890778
    5       -9.154970
    6       -8.606026
    7       -8.510377
    8       -7.956300
    9        2.669231
   10        3.334298
   11        3.383158
   12        3.488088
 
  0.5000000E+00  0.1388889E+00  0.0000000E+00  0.2314815E-02
    1      -20.454872
    2      -20.454872
    3      -10.323132
    4      -10.323132
    5       -8.892637
    6       -8.892637
    7       -8.243379
    8       -8.243379
    9        2.988128
   10        2.988128
   11        3.792552
   12        3.792553
 
  0.0000000E+00  0.1666667E+00  0.0000000E+00  0.2314815E-02
    1      -21.762372
    2      -16.596873
    3      -15.575492
    4      -10.974056
    5       -9.774476
    6       -7.471877
    7       -6.799966
    8       -4.512783
    9       -1.303672
   10        1.191353
   11        2.000137
   12        2.392150
 
  0.4166667E-01  0.1666667E+00  0.0000000E+00  0.4629630E-02
    1      -21.752175
    2      -16.757297
    3      -15.402274
    4      -10.962580
    5       -9.762400
    6       -7.521607
    7       -6.795617
    8       -4.586334
    9       -1.218993
   10        1.205234
   11        2.014173
   12        2.406404
 
  0.8333333E-01  0.1666667E+00  0.0000000E+00  0.4629630E-02
    1      -21.721592
    2      -17.086133
    3      -15.035276
    4      -10.928097
    5       -9.726195
    6       -7.655563
    7       -6.797501
    8       -4.786464
    9       -0.985648
   10        1.246885
   11        2.056277
   12        2.449166
 
  0.1250000E+00  0.1666667E+00  0.0000000E+00  0.4629630E-02
    1      -21.670645
    2      -17.454622
    3      -14.603926
    4      -10.870427
    5       -9.665917
    6       -7.846938
    7       -6.831266
    8       -5.070929
    9       -0.646396
   10        1.316328
   11        2.126436
   12        2.520442
 
  0.1666667E+00  0.1666667E+00  0.0000000E+00  0.4629630E-02
    1      -21.599374
    2      -17.826700
    3      -14.145462
    4      -10.789238
    5       -9.581666
    6       -8.075865
    7       -6.914179
    8       -5.402454
    9       -0.239349
   10        1.413590
   11        2.224624
   12        2.620237
 
  0.2083333E+00  0.1666667E+00  0.0000000E+00  0.4629630E-02
    1      -21.507834
    2      -18.191041
    3      -13.672969
    4      -10.683986
    5       -9.473587
    6       -8.329995
    7       -7.053934
    8       -5.756189
    9        0.209515
   10        1.538697
   11        2.350806
   12        2.748558
 
  0.2500000E+00  0.1666667E+00  0.0000000E+00  0.4629630E-02
    1      -21.396099
    2      -18.542986
    3      -13.193580
    4      -10.553826
    5       -9.341870
    6       -8.601665
    7       -7.251197
    8       -6.116861
    9        0.683549
   10        1.691653
   11        2.504934
   12        2.905410
 
  0.2916667E+00  0.1666667E+00  0.0000000E+00  0.4629630E-02
    1      -21.264258
    2      -18.880167
    3      -12.713021
    4      -10.397496
    5       -9.186762
    6       -8.886296
    7       -7.501392
    8       -6.475057
    9        1.171761
   10        1.872439
   11        2.686940
   12        3.090794
 
  0.3333333E+00  0.1666667E+00  0.0000000E+00  0.4629630E-02
    1      -21.112424
    2      -19.201179
    3      -12.237123
    4      -10.213203
    5       -9.181784
    6       -9.008572
    7       -7.795961
    8       -6.824761
    9        1.666415
   10        2.081008
   11        2.896740
   12        3.304706
 
  0.3750000E+00  0.1666667E+00  0.0000000E+00  0.4629630E-02
    1      -20.940732
    2      -19.505091
    3      -11.772392
    4       -9.998629
    5       -9.488399
    6       -8.807680
    7       -8.123297
    8       -7.161955
    9        2.161680
   10        2.317288
   11        3.134219
   12        3.547138
 
  0.4166667E+00  0.1666667E+00  0.0000000E+00  0.4629630E-02
    1      -20.749343
    2      -19.791233
    3      -11.325920
    4       -9.808848
    5       -9.751339
    6       -8.584558
    7       -8.469483
    8       -7.483842
    9        2.581188
   10        2.652890
   11        3.399220
   12        3.818082
 
  0.4583333E+00  0.1666667E+00  0.0000000E+00  0.4629630E-02
    1      -20.538449
    2      -20.059097
    3      -10.904337
    4      -10.148029
    5       -9.470045
    6       -8.819102
    7       -8.339789
    8       -7.788394
    9        2.872600
   10        3.136097
   11        3.537422
   12        3.691418
 
  0.5000000E+00  0.1666667E+00  0.0000000E+00  0.2314815E-02
    1      -20.308277
    2      -20.308277
    3      -10.511776
    4      -10.511776
    5       -9.156822
    6       -9.156822
    7       -8.074098
    8       -8.074098
    9        3.191395
   10        3.191395
   11        3.607678
   12        3.607679
 