       N       E                     dE             d eps       ncg     rms          rms(c)
DAV:   1     0.189927041268E+03    0.18993E+03   -0.10653E+04  5928   0.275E+03
DAV:   2    -0.882782670770E+01   -0.19875E+03   -0.17588E+03 10368   0.259E+02
DAV:   3    -0.383578300210E+02   -0.29530E+02   -0.28902E+02  7344   0.120E+02    0.736E+00
RMM:   4    -0.377110840524E+02    0.64675E+00   -0.98106E+00  5928   0.267E+01    0.426E+00
RMM:   5    -0.369370833858E+02    0.77400E+00   -0.28923E+00  5935   0.117E+01    0.739E-01
RMM:   6    -0.369380427884E+02   -0.95940E-03   -0.80652E-02  6372   0.204E+00    0.523E-01
RMM:   7    -0.369283664746E+02    0.96763E-02   -0.34021E-02  5940   0.161E+00    0.348E-01
RMM:   8    -0.369225420519E+02    0.58244E-02   -0.77419E-03  5929   0.584E-01    0.136E-01
RMM:   9    -0.369221501154E+02    0.39194E-03   -0.21239E-02  5928   0.863E-01    0.163E-01
RMM:  10    -0.369219940286E+02    0.15609E-03   -0.27844E-03  5928   0.380E-01    0.312E-02
RMM:  11    -0.369245861969E+02   -0.25922E-02   -0.74008E-04  5929   0.177E-01    0.469E-02
RMM:  12    -0.369250435699E+02   -0.45737E-03   -0.24589E-04  5937   0.103E-01    0.499E-03
RMM:  13    -0.369253097166E+02   -0.26615E-03   -0.54913E-05  6002   0.417E-02    0.483E-03
RMM:  14    -0.369253969980E+02   -0.87281E-04   -0.12460E-05  5936   0.208E-02    0.252E-03
RMM:  15    -0.369254043002E+02   -0.73022E-05   -0.14494E-06  6014   0.731E-03    0.677E-04
RMM:  16    -0.369254154440E+02   -0.11144E-04   -0.33052E-07  6063   0.311E-03    0.338E-04
RMM:  17    -0.369254187579E+02   -0.33138E-05   -0.34061E-08  6032   0.150E-03    0.664E-04
RMM:  18    -0.369254209207E+02   -0.21628E-05   -0.81418E-08  5928   0.192E-03    0.907E-05
RMM:  19    -0.369254212206E+02   -0.29991E-06   -0.40359E-09  6039   0.398E-04    0.228E-05
RMM:  20    -0.369254212716E+02   -0.50994E-07   -0.68672E-10  4538   0.140E-04    0.194E-05
RMM:  21    -0.369254212836E+02   -0.12057E-07   -0.11631E-10  4138   0.669E-05    0.949E-06
RMM:  22    -0.369254212836E+02    0.57526E-10   -0.22925E-11  3902   0.510E-05
   1 F= -.36925421E+02 E0= -.36925358E+02  d E =-.369254E+02
       N       E                     dE             d eps       ncg     rms          rms(c)
DAV:   1    -0.369244518305E+02    0.96945E-03   -0.87820E-02  6820   0.279E+00    0.603E-02
RMM:   2    -0.369244949548E+02   -0.43124E-04   -0.14145E-03  5929   0.335E-01    0.428E-02
RMM:   3    -0.369244492045E+02    0.45750E-04   -0.25128E-04  5971   0.128E-01    0.106E-02
RMM:   4    -0.369244449217E+02    0.42828E-05   -0.14631E-05  6087   0.303E-02    0.303E-03
RMM:   5    -0.369244450654E+02   -0.14370E-06   -0.11295E-06  6197   0.767E-03    0.148E-03
RMM:   6    -0.369244449840E+02    0.81425E-07   -0.18581E-07  6100   0.332E-03    0.113E-04
RMM:   7    -0.369244449850E+02   -0.10482E-08   -0.11042E-08  6092   0.758E-04    0.843E-05
RMM:   8    -0.369244449851E+02   -0.58208E-10   -0.79773E-10  5448   0.221E-04
   2 F= -.36924445E+02 E0= -.36924398E+02  d E =0.976298E-03
       N       E                     dE             d eps       ncg     rms          rms(c)
DAV:   1    -0.369254939188E+02   -0.10489E-02   -0.56112E-02  6448   0.223E+00    0.484E-02
RMM:   2    -0.369255176882E+02   -0.23769E-04   -0.87426E-04  5928   0.266E-01    0.341E-02
RMM:   3    -0.369254887990E+02    0.28889E-04   -0.15937E-04  5952   0.102E-01    0.829E-03
RMM:   4    -0.369254861754E+02    0.26235E-05   -0.92889E-06  6102   0.244E-02    0.245E-03
RMM:   5    -0.369254862635E+02   -0.88053E-07   -0.71473E-07  6168   0.607E-03    0.119E-03
RMM:   6    -0.369254862115E+02    0.51991E-07   -0.12470E-07  6101   0.273E-03    0.859E-05
RMM:   7    -0.369254862103E+02    0.11986E-08   -0.67942E-09  6092   0.589E-04    0.666E-05
RMM:   8    -0.369254862100E+02    0.25682E-09   -0.48080E-10  4735   0.176E-04    0.111E-05
RMM:   9    -0.369254862098E+02    0.21919E-09   -0.32656E-11  3845   0.662E-05    0.242E-06
RMM:  10    -0.369254862101E+02   -0.31116E-09   -0.25042E-11  3795   0.529E-05    0.269E-06
RMM:  11    -0.369254862103E+02   -0.18485E-09   -0.12123E-11  3522   0.400E-05    0.440E-07
RMM:  12    -0.369254862107E+02   -0.37699E-09   -0.11339E-11  3223   0.348E-05    0.483E-07
RMM:  13    -0.369254862106E+02    0.81741E-10   -0.44612E-12  3068   0.296E-05
   3 F= -.36925486E+02 E0= -.36925421E+02  d E =-.104123E-02
       N       E                     dE             d eps       ncg     rms          rms(c)
DAV:   1    -0.369254862107E+02   -0.30354E-10   -0.10276E-08  6664   0.119E-03    0.265E-05
RMM:   2    -0.369254862112E+02   -0.47271E-09   -0.22971E-10  4195   0.146E-04    0.186E-05
RMM:   3    -0.369254862111E+02    0.10129E-09   -0.58354E-11  3740   0.795E-05    0.447E-06
RMM:   4    -0.369254862110E+02    0.92996E-10   -0.18283E-11  3518   0.420E-05    0.147E-06
RMM:   5    -0.369254862108E+02    0.14506E-09   -0.29372E-12  3561   0.401E-05    0.727E-06
RMM:   6    -0.369254862110E+02   -0.18997E-09   -0.53154E-12  3066   0.314E-05    0.610E-07
RMM:   7    -0.369254862112E+02   -0.12312E-09   -0.58956E-12  2733   0.273E-05    0.106E-07
RMM:   8    -0.369254862110E+02    0.18872E-09   -0.19365E-12  2439   0.241E-05    0.183E-07
RMM:   9    -0.369254862112E+02   -0.23522E-09   -0.15555E-13  2265   0.220E-05    0.172E-07
RMM:  10    -0.369254862109E+02    0.27057E-09   -0.28061E-12  2106   0.210E-05    0.261E-07
RMM:  11    -0.369254862113E+02   -0.40507E-09   -0.91236E-13  1969   0.198E-05    0.315E-07
RMM:  12    -0.369254862110E+02    0.31741E-09   -0.16605E-12  1859   0.188E-05    0.369E-07
RMM:  13    -0.369254862109E+02    0.13711E-09   -0.91604E-13  1739   0.181E-05    0.364E-07
RMM:  14    -0.369254862113E+02   -0.45270E-09   -0.19219E-13  1691   0.174E-05    0.362E-07
RMM:  15    -0.369254862112E+02    0.11801E-09   -0.12147E-12  1666   0.172E-05    0.369E-07
RMM:  16    -0.369254862110E+02    0.20123E-09   -0.69202E-13  1630   0.168E-05    0.358E-07
RMM:  17    -0.369254862110E+02    0.67985E-10    0.12809E-13  1410   0.165E-05
   4 F= -.36925486E+02 E0= -.36925421E+02  d E =-.350497E-09
