<?xml version="1.0" encoding="ISO-8859-1"?>
<modeling>
 <generator>
  <i name="program" type="string">vasp </i>
  <i name="version" type="string">5.3.5  </i>
  <i name="subversion" type="string">31Mar14 (build Mar 02 2015 18:14:16) complex                          parallel </i>
  <i name="platform" type="string">LinuxIFC </i>
  <i name="date" type="string">2018 08 10 </i>
  <i name="time" type="string">14:45:14 </i>
 </generator>
 <incar>
  <i type="string" name="SYSTEM">  gr</i>
  <i type="string" name="PREC">accurate : accuracy</i>
  <i type="string" name="ALGO"> FAST.</i>
  <i type="int" name="NELM">   100</i>
  <i type="int" name="NELMDL">    -3</i>
  <i type="int" name="NELMIN">     5</i>
  <i type="int" name="IBRION">     1</i>
  <i name="EDIFF">      0.00000000</i>
  <i name="EDIFFG">     -0.00000100</i>
  <i type="int" name="NSW">   400</i>
  <i type="int" name="ISIF">     2</i>
  <i name="ENCUT">   2000.00000000</i>
  <i type="int" name="ISMEAR">     0</i>
  <i name="SIGMA">      0.05000000</i>
  <i type="int" name="NWRITE">     2</i>
  <i type="logical" name="LWAVE"> F  </i>
  <i type="logical" name="LCHARG"> F  </i>
  <i type="int" name="NELM">   100</i>
 </incar>
 <kpoints>
  <generation param="Gamma">
   <v type="int" name="divisions">      24       36        1 </v>
   <v name="usershift">      0.00000000       0.00000000       0.00000000 </v>
   <v name="genvec1">      0.04166667       0.00000000       0.00000000 </v>
   <v name="genvec2">      0.00000000       0.02777778       0.00000000 </v>
   <v name="genvec3">      0.00000000       0.00000000       1.00000000 </v>
   <v name="shift">      0.00000000       0.00000000       0.00000000 </v>
  </generation>
  <varray name="kpointlist" >
   <v>       0.00000000       0.00000000       0.00000000 </v>
   <v>       0.04166667       0.00000000       0.00000000 </v>
   <v>       0.08333333       0.00000000       0.00000000 </v>
   <v>       0.12500000       0.00000000       0.00000000 </v>
   <v>       0.16666667       0.00000000       0.00000000 </v>
   <v>       0.20833333       0.00000000       0.00000000 </v>
   <v>       0.25000000       0.00000000       0.00000000 </v>
   <v>       0.29166667       0.00000000       0.00000000 </v>
   <v>       0.33333333       0.00000000       0.00000000 </v>
   <v>       0.37500000       0.00000000       0.00000000 </v>
   <v>       0.41666667       0.00000000       0.00000000 </v>
   <v>       0.45833333       0.00000000       0.00000000 </v>
   <v>       0.50000000       0.00000000       0.00000000 </v>
   <v>       0.00000000       0.02777778       0.00000000 </v>
   <v>       0.04166667       0.02777778       0.00000000 </v>
   <v>       0.08333333       0.02777778       0.00000000 </v>
   <v>       0.12500000       0.02777778       0.00000000 </v>
   <v>       0.16666667       0.02777778       0.00000000 </v>
   <v>       0.20833333       0.02777778       0.00000000 </v>
   <v>       0.25000000       0.02777778       0.00000000 </v>
   <v>       0.29166667       0.02777778       0.00000000 </v>
   <v>       0.33333333       0.02777778       0.00000000 </v>
   <v>       0.37500000       0.02777778       0.00000000 </v>
   <v>       0.41666667       0.02777778       0.00000000 </v>
   <v>       0.45833333       0.02777778       0.00000000 </v>
   <v>       0.50000000       0.02777778       0.00000000 </v>
   <v>       0.00000000       0.05555556       0.00000000 </v>
   <v>       0.04166667       0.05555556       0.00000000 </v>
   <v>       0.08333333       0.05555556       0.00000000 </v>
   <v>       0.12500000       0.05555556       0.00000000 </v>
   <v>       0.16666667       0.05555556       0.00000000 </v>
   <v>       0.20833333       0.05555556       0.00000000 </v>
   <v>       0.25000000       0.05555556       0.00000000 </v>
   <v>       0.29166667       0.05555556       0.00000000 </v>
   <v>       0.33333333       0.05555556       0.00000000 </v>
   <v>       0.37500000       0.05555556       0.00000000 </v>
   <v>       0.41666667       0.05555556       0.00000000 </v>
   <v>       0.45833333       0.05555556       0.00000000 </v>
   <v>       0.50000000       0.05555556       0.00000000 </v>
   <v>       0.00000000       0.08333333       0.00000000 </v>
   <v>       0.04166667       0.08333333       0.00000000 </v>
   <v>       0.08333333       0.08333333       0.00000000 </v>
   <v>       0.12500000       0.08333333       0.00000000 </v>
   <v>       0.16666667       0.08333333       0.00000000 </v>
   <v>       0.20833333       0.08333333       0.00000000 </v>
   <v>       0.25000000       0.08333333       0.00000000 </v>
   <v>       0.29166667       0.08333333       0.00000000 </v>
   <v>       0.33333333       0.08333333       0.00000000 </v>
   <v>       0.37500000       0.08333333       0.00000000 </v>
   <v>       0.41666667       0.08333333       0.00000000 </v>
   <v>       0.45833333       0.08333333       0.00000000 </v>
   <v>       0.50000000       0.08333333       0.00000000 </v>
   <v>       0.00000000       0.11111111       0.00000000 </v>
   <v>       0.04166667       0.11111111       0.00000000 </v>
   <v>       0.08333333       0.11111111       0.00000000 </v>
   <v>       0.12500000       0.11111111       0.00000000 </v>
   <v>       0.16666667       0.11111111       0.00000000 </v>
   <v>       0.20833333       0.11111111       0.00000000 </v>
   <v>       0.25000000       0.11111111       0.00000000 </v>
   <v>       0.29166667       0.11111111       0.00000000 </v>
   <v>       0.33333333       0.11111111       0.00000000 </v>
   <v>       0.37500000       0.11111111       0.00000000 </v>
   <v>       0.41666667       0.11111111       0.00000000 </v>
   <v>       0.45833333       0.11111111       0.00000000 </v>
   <v>       0.50000000       0.11111111       0.00000000 </v>
   <v>       0.00000000       0.13888889       0.00000000 </v>
   <v>       0.04166667       0.13888889       0.00000000 </v>
   <v>       0.08333333       0.13888889       0.00000000 </v>
   <v>       0.12500000       0.13888889       0.00000000 </v>
   <v>       0.16666667       0.13888889       0.00000000 </v>
   <v>       0.20833333       0.13888889       0.00000000 </v>
   <v>       0.25000000       0.13888889       0.00000000 </v>
   <v>       0.29166667       0.13888889       0.00000000 </v>
   <v>       0.33333333       0.13888889       0.00000000 </v>
   <v>       0.37500000       0.13888889       0.00000000 </v>
   <v>       0.41666667       0.13888889       0.00000000 </v>
   <v>       0.45833333       0.13888889       0.00000000 </v>
   <v>       0.50000000       0.13888889       0.00000000 </v>
   <v>       0.00000000       0.16666667       0.00000000 </v>
   <v>       0.04166667       0.16666667       0.00000000 </v>
   <v>       0.08333333       0.16666667       0.00000000 </v>
   <v>       0.12500000       0.16666667       0.00000000 </v>
   <v>       0.16666667       0.16666667       0.00000000 </v>
   <v>       0.20833333       0.16666667       0.00000000 </v>
   <v>       0.25000000       0.16666667       0.00000000 </v>
   <v>       0.29166667       0.16666667       0.00000000 </v>
   <v>       0.33333333       0.16666667       0.00000000 </v>
   <v>       0.37500000       0.16666667       0.00000000 </v>
   <v>       0.41666667       0.16666667       0.00000000 </v>
   <v>       0.45833333       0.16666667       0.00000000 </v>
   <v>       0.50000000       0.16666667       0.00000000 </v>
   <v>       0.00000000       0.19444444       0.00000000 </v>
   <v>       0.04166667       0.19444444       0.00000000 </v>
   <v>       0.08333333       0.19444444       0.00000000 </v>
   <v>       0.12500000       0.19444444       0.00000000 </v>
   <v>       0.16666667       0.19444444       0.00000000 </v>
   <v>       0.20833333       0.19444444       0.00000000 </v>
   <v>       0.25000000       0.19444444       0.00000000 </v>
   <v>       0.29166667       0.19444444       0.00000000 </v>
   <v>       0.33333333       0.19444444       0.00000000 </v>
   <v>       0.37500000       0.19444444       0.00000000 </v>
   <v>       0.41666667       0.19444444       0.00000000 </v>
   <v>       0.45833333       0.19444444       0.00000000 </v>
   <v>       0.50000000       0.19444444       0.00000000 </v>
   <v>       0.00000000       0.22222222       0.00000000 </v>
   <v>       0.04166667       0.22222222       0.00000000 </v>
   <v>       0.08333333       0.22222222       0.00000000 </v>
   <v>       0.12500000       0.22222222       0.00000000 </v>
   <v>       0.16666667       0.22222222       0.00000000 </v>
   <v>       0.20833333       0.22222222       0.00000000 </v>
   <v>       0.25000000       0.22222222       0.00000000 </v>
   <v>       0.29166667       0.22222222       0.00000000 </v>
   <v>       0.33333333       0.22222222       0.00000000 </v>
   <v>       0.37500000       0.22222222       0.00000000 </v>
   <v>       0.41666667       0.22222222       0.00000000 </v>
   <v>       0.45833333       0.22222222       0.00000000 </v>
   <v>       0.50000000       0.22222222       0.00000000 </v>
   <v>       0.00000000       0.25000000       0.00000000 </v>
   <v>       0.04166667       0.25000000       0.00000000 </v>
   <v>       0.08333333       0.25000000       0.00000000 </v>
   <v>       0.12500000       0.25000000       0.00000000 </v>
   <v>       0.16666667       0.25000000       0.00000000 </v>
   <v>       0.20833333       0.25000000       0.00000000 </v>
   <v>       0.25000000       0.25000000       0.00000000 </v>
   <v>       0.29166667       0.25000000       0.00000000 </v>
   <v>       0.33333333       0.25000000       0.00000000 </v>
   <v>       0.37500000       0.25000000       0.00000000 </v>
   <v>       0.41666667       0.25000000       0.00000000 </v>
   <v>       0.45833333       0.25000000       0.00000000 </v>
   <v>       0.50000000       0.25000000       0.00000000 </v>
   <v>       0.00000000       0.27777778       0.00000000 </v>
   <v>       0.04166667       0.27777778       0.00000000 </v>
   <v>       0.08333333       0.27777778       0.00000000 </v>
   <v>       0.12500000       0.27777778       0.00000000 </v>
   <v>       0.16666667       0.27777778       0.00000000 </v>
   <v>       0.20833333       0.27777778       0.00000000 </v>
   <v>       0.25000000       0.27777778       0.00000000 </v>
   <v>       0.29166667       0.27777778       0.00000000 </v>
   <v>       0.33333333       0.27777778       0.00000000 </v>
   <v>       0.37500000       0.27777778       0.00000000 </v>
   <v>       0.41666667       0.27777778       0.00000000 </v>
   <v>       0.45833333       0.27777778       0.00000000 </v>
   <v>       0.50000000       0.27777778       0.00000000 </v>
   <v>       0.00000000       0.30555556       0.00000000 </v>
   <v>       0.04166667       0.30555556       0.00000000 </v>
   <v>       0.08333333       0.30555556       0.00000000 </v>
   <v>       0.12500000       0.30555556       0.00000000 </v>
   <v>       0.16666667       0.30555556       0.00000000 </v>
   <v>       0.20833333       0.30555556       0.00000000 </v>
   <v>       0.25000000       0.30555556       0.00000000 </v>
   <v>       0.29166667       0.30555556       0.00000000 </v>
   <v>       0.33333333       0.30555556       0.00000000 </v>
   <v>       0.37500000       0.30555556       0.00000000 </v>
   <v>       0.41666667       0.30555556       0.00000000 </v>
   <v>       0.45833333       0.30555556       0.00000000 </v>
   <v>       0.50000000       0.30555556       0.00000000 </v>
   <v>       0.00000000       0.33333333       0.00000000 </v>
   <v>       0.04166667       0.33333333       0.00000000 </v>
   <v>       0.08333333       0.33333333       0.00000000 </v>
   <v>       0.12500000       0.33333333       0.00000000 </v>
   <v>       0.16666667       0.33333333       0.00000000 </v>
   <v>       0.20833333       0.33333333       0.00000000 </v>
   <v>       0.25000000       0.33333333       0.00000000 </v>
   <v>       0.29166667       0.33333333       0.00000000 </v>
   <v>       0.33333333       0.33333333       0.00000000 </v>
   <v>       0.37500000       0.33333333       0.00000000 </v>
   <v>       0.41666667       0.33333333       0.00000000 </v>
   <v>       0.45833333       0.33333333       0.00000000 </v>
   <v>       0.50000000       0.33333333       0.00000000 </v>
   <v>       0.00000000       0.36111111       0.00000000 </v>
   <v>       0.04166667       0.36111111       0.00000000 </v>
   <v>       0.08333333       0.36111111       0.00000000 </v>
   <v>       0.12500000       0.36111111       0.00000000 </v>
   <v>       0.16666667       0.36111111       0.00000000 </v>
   <v>       0.20833333       0.36111111       0.00000000 </v>
   <v>       0.25000000       0.36111111       0.00000000 </v>
   <v>       0.29166667       0.36111111       0.00000000 </v>
   <v>       0.33333333       0.36111111       0.00000000 </v>
   <v>       0.37500000       0.36111111       0.00000000 </v>
   <v>       0.41666667       0.36111111       0.00000000 </v>
   <v>       0.45833333       0.36111111       0.00000000 </v>
   <v>       0.50000000       0.36111111       0.00000000 </v>
   <v>       0.00000000       0.38888889       0.00000000 </v>
   <v>       0.04166667       0.38888889       0.00000000 </v>
   <v>       0.08333333       0.38888889       0.00000000 </v>
   <v>       0.12500000       0.38888889       0.00000000 </v>
   <v>       0.16666667       0.38888889       0.00000000 </v>
   <v>       0.20833333       0.38888889       0.00000000 </v>
   <v>       0.25000000       0.38888889       0.00000000 </v>
   <v>       0.29166667       0.38888889       0.00000000 </v>
   <v>       0.33333333       0.38888889       0.00000000 </v>
   <v>       0.37500000       0.38888889       0.00000000 </v>
   <v>       0.41666667       0.38888889       0.00000000 </v>
   <v>       0.45833333       0.38888889       0.00000000 </v>
   <v>       0.50000000       0.38888889       0.00000000 </v>
   <v>       0.00000000       0.41666667       0.00000000 </v>
   <v>       0.04166667       0.41666667       0.00000000 </v>
   <v>       0.08333333       0.41666667       0.00000000 </v>
   <v>       0.12500000       0.41666667       0.00000000 </v>
   <v>       0.16666667       0.41666667       0.00000000 </v>
   <v>       0.20833333       0.41666667       0.00000000 </v>
   <v>       0.25000000       0.41666667       0.00000000 </v>
   <v>       0.29166667       0.41666667       0.00000000 </v>
   <v>       0.33333333       0.41666667       0.00000000 </v>
   <v>       0.37500000       0.41666667       0.00000000 </v>
   <v>       0.41666667       0.41666667       0.00000000 </v>
   <v>       0.45833333       0.41666667       0.00000000 </v>
   <v>       0.50000000       0.41666667       0.00000000 </v>
   <v>       0.00000000       0.44444444       0.00000000 </v>
   <v>       0.04166667       0.44444444       0.00000000 </v>
   <v>       0.08333333       0.44444444       0.00000000 </v>
   <v>       0.12500000       0.44444444       0.00000000 </v>
   <v>       0.16666667       0.44444444       0.00000000 </v>
   <v>       0.20833333       0.44444444       0.00000000 </v>
   <v>       0.25000000       0.44444444       0.00000000 </v>
   <v>       0.29166667       0.44444444       0.00000000 </v>
   <v>       0.33333333       0.44444444       0.00000000 </v>
   <v>       0.37500000       0.44444444       0.00000000 </v>
   <v>       0.41666667       0.44444444       0.00000000 </v>
   <v>       0.45833333       0.44444444       0.00000000 </v>
   <v>       0.50000000       0.44444444       0.00000000 </v>
   <v>       0.00000000       0.47222222       0.00000000 </v>
   <v>       0.04166667       0.47222222       0.00000000 </v>
   <v>       0.08333333       0.47222222       0.00000000 </v>
   <v>       0.12500000       0.47222222       0.00000000 </v>
   <v>       0.16666667       0.47222222       0.00000000 </v>
   <v>       0.20833333       0.47222222       0.00000000 </v>
   <v>       0.25000000       0.47222222       0.00000000 </v>
   <v>       0.29166667       0.47222222       0.00000000 </v>
   <v>       0.33333333       0.47222222       0.00000000 </v>
   <v>       0.37500000       0.47222222       0.00000000 </v>
   <v>       0.41666667       0.47222222       0.00000000 </v>
   <v>       0.45833333       0.47222222       0.00000000 </v>
   <v>       0.50000000       0.47222222       0.00000000 </v>
   <v>       0.00000000       0.50000000       0.00000000 </v>
   <v>       0.04166667       0.50000000       0.00000000 </v>
   <v>       0.08333333       0.50000000       0.00000000 </v>
   <v>       0.12500000       0.50000000       0.00000000 </v>
   <v>       0.16666667       0.50000000       0.00000000 </v>
   <v>       0.20833333       0.50000000       0.00000000 </v>
   <v>       0.25000000       0.50000000       0.00000000 </v>
   <v>       0.29166667       0.50000000       0.00000000 </v>
   <v>       0.33333333       0.50000000       0.00000000 </v>
   <v>       0.37500000       0.50000000       0.00000000 </v>
   <v>       0.41666667       0.50000000       0.00000000 </v>
   <v>       0.45833333       0.50000000       0.00000000 </v>
   <v>       0.50000000       0.50000000       0.00000000 </v>
  </varray>
  <varray name="weights" >
   <v>       0.00115741 </v>
   <v>       0.00231481 </v>
   <v>       0.00231481 </v>
   <v>       0.00231481 </v>
   <v>       0.00231481 </v>
   <v>       0.00231481 </v>
   <v>       0.00231481 </v>
   <v>       0.00231481 </v>
   <v>       0.00231481 </v>
   <v>       0.00231481 </v>
   <v>       0.00231481 </v>
   <v>       0.00231481 </v>
   <v>       0.00115741 </v>
   <v>       0.00231481 </v>
   <v>       0.00462963 </v>
   <v>       0.00462963 </v>
   <v>       0.00462963 </v>
   <v>       0.00462963 </v>
   <v>       0.00462963 </v>
   <v>       0.00462963 </v>
   <v>       0.00462963 </v>
   <v>       0.00462963 </v>
   <v>       0.00462963 </v>
   <v>       0.00462963 </v>
   <v>       0.00462963 </v>
   <v>       0.00231481 </v>
   <v>       0.00231481 </v>
   <v>       0.00462963 </v>
   <v>       0.00462963 </v>
   <v>       0.00462963 </v>
   <v>       0.00462963 </v>
   <v>       0.00462963 </v>
   <v>       0.00462963 </v>
   <v>       0.00462963 </v>
   <v>       0.00462963 </v>
   <v>       0.00462963 </v>
   <v>       0.00462963 </v>
   <v>       0.00462963 </v>
   <v>       0.00231481 </v>
   <v>       0.00231481 </v>
   <v>       0.00462963 </v>
   <v>       0.00462963 </v>
   <v>       0.00462963 </v>
   <v>       0.00462963 </v>
   <v>       0.00462963 </v>
   <v>       0.00462963 </v>
   <v>       0.00462963 </v>
   <v>       0.00462963 </v>
   <v>       0.00462963 </v>
   <v>       0.00462963 </v>
   <v>       0.00462963 </v>
   <v>       0.00231481 </v>
   <v>       0.00231481 </v>
   <v>       0.00462963 </v>
   <v>       0.00462963 </v>
   <v>       0.00462963 </v>
   <v>       0.00462963 </v>
   <v>       0.00462963 </v>
   <v>       0.00462963 </v>
   <v>       0.00462963 </v>
   <v>       0.00462963 </v>
   <v>       0.00462963 </v>
   <v>       0.00462963 </v>
   <v>       0.00462963 </v>
   <v>       0.00231481 </v>
   <v>       0.00231481 </v>
   <v>       0.00462963 </v>
   <v>       0.00462963 </v>
   <v>       0.00462963 </v>
   <v>       0.00462963 </v>
   <v>       0.00462963 </v>
   <v>       0.00462963 </v>
   <v>       0.00462963 </v>
   <v>       0.00462963 </v>
   <v>       0.00462963 </v>
   <v>       0.00462963 </v>
   <v>       0.00462963 </v>
   <v>       0.00231481 </v>
   <v>       0.00231481 </v>
   <v>       0.00462963 </v>
   <v>       0.00462963 </v>
   <v>       0.00462963 </v>
   <v>       0.00462963 </v>
   <v>       0.00462963 </v>
   <v>       0.00462963 </v>
   <v>       0.00462963 </v>
   <v>       0.00462963 </v>
   <v>       0.00462963 </v>
   <v>       0.00462963 </v>
   <v>       0.00462963 </v>
   <v>       0.00231481 </v>
   <v>       0.00231481 </v>
   <v>       0.00462963 </v>
   <v>       0.00462963 </v>
   <v>       0.00462963 </v>
   <v>       0.00462963 </v>
   <v>       0.00462963 </v>
   <v>       0.00462963 </v>
   <v>       0.00462963 </v>
   <v>       0.00462963 </v>
   <v>       0.00462963 </v>
   <v>       0.00462963 </v>
   <v>       0.00462963 </v>
   <v>       0.00231481 </v>
   <v>       0.00231481 </v>
   <v>       0.00462963 </v>
   <v>       0.00462963 </v>
   <v>       0.00462963 </v>
   <v>       0.00462963 </v>
   <v>       0.00462963 </v>
   <v>       0.00462963 </v>
   <v>       0.00462963 </v>
   <v>       0.00462963 </v>
   <v>       0.00462963 </v>
   <v>       0.00462963 </v>
   <v>       0.00462963 </v>
   <v>       0.00231481 </v>
   <v>       0.00231481 </v>
   <v>       0.00462963 </v>
   <v>       0.00462963 </v>
   <v>       0.00462963 </v>
   <v>       0.00462963 </v>
   <v>       0.00462963 </v>
   <v>       0.00462963 </v>
   <v>       0.00462963 </v>
   <v>       0.00462963 </v>
   <v>       0.00462963 </v>
   <v>       0.00462963 </v>
   <v>       0.00462963 </v>
   <v>       0.00231481 </v>
   <v>       0.00231481 </v>
   <v>       0.00462963 </v>
   <v>       0.00462963 </v>
   <v>       0.00462963 </v>
   <v>       0.00462963 </v>
   <v>       0.00462963 </v>
   <v>       0.00462963 </v>
   <v>       0.00462963 </v>
   <v>       0.00462963 </v>
   <v>       0.00462963 </v>
   <v>       0.00462963 </v>
   <v>       0.00462963 </v>
   <v>       0.00231481 </v>
   <v>       0.00231481 </v>
   <v>       0.00462963 </v>
   <v>       0.00462963 </v>
   <v>       0.00462963 </v>
   <v>       0.00462963 </v>
   <v>       0.00462963 </v>
   <v>       0.00462963 </v>
   <v>       0.00462963 </v>
   <v>       0.00462963 </v>
   <v>       0.00462963 </v>
   <v>       0.00462963 </v>
   <v>       0.00462963 </v>
   <v>       0.00231481 </v>
   <v>       0.00231481 </v>
   <v>       0.00462963 </v>
   <v>       0.00462963 </v>
   <v>       0.00462963 </v>
   <v>       0.00462963 </v>
   <v>       0.00462963 </v>
   <v>       0.00462963 </v>
   <v>       0.00462963 </v>
   <v>       0.00462963 </v>
   <v>       0.00462963 </v>
   <v>       0.00462963 </v>
   <v>       0.00462963 </v>
   <v>       0.00231481 </v>
   <v>       0.00231481 </v>
   <v>       0.00462963 </v>
   <v>       0.00462963 </v>
   <v>       0.00462963 </v>
   <v>       0.00462963 </v>
   <v>       0.00462963 </v>
   <v>       0.00462963 </v>
   <v>       0.00462963 </v>
   <v>       0.00462963 </v>
   <v>       0.00462963 </v>
   <v>       0.00462963 </v>
   <v>       0.00462963 </v>
   <v>       0.00231481 </v>
   <v>       0.00231481 </v>
   <v>       0.00462963 </v>
   <v>       0.00462963 </v>
   <v>       0.00462963 </v>
   <v>       0.00462963 </v>
   <v>       0.00462963 </v>
   <v>       0.00462963 </v>
   <v>       0.00462963 </v>
   <v>       0.00462963 </v>
   <v>       0.00462963 </v>
   <v>       0.00462963 </v>
   <v>       0.00462963 </v>
   <v>       0.00231481 </v>
   <v>       0.00231481 </v>
   <v>       0.00462963 </v>
   <v>       0.00462963 </v>
   <v>       0.00462963 </v>
   <v>       0.00462963 </v>
   <v>       0.00462963 </v>
   <v>       0.00462963 </v>
   <v>       0.00462963 </v>
   <v>       0.00462963 </v>
   <v>       0.00462963 </v>
   <v>       0.00462963 </v>
   <v>       0.00462963 </v>
   <v>       0.00231481 </v>
   <v>       0.00231481 </v>
   <v>       0.00462963 </v>
   <v>       0.00462963 </v>
   <v>       0.00462963 </v>
   <v>       0.00462963 </v>
   <v>       0.00462963 </v>
   <v>       0.00462963 </v>
   <v>       0.00462963 </v>
   <v>       0.00462963 </v>
   <v>       0.00462963 </v>
   <v>       0.00462963 </v>
   <v>       0.00462963 </v>
   <v>       0.00231481 </v>
   <v>       0.00231481 </v>
   <v>       0.00462963 </v>
   <v>       0.00462963 </v>
   <v>       0.00462963 </v>
   <v>       0.00462963 </v>
   <v>       0.00462963 </v>
   <v>       0.00462963 </v>
   <v>       0.00462963 </v>
   <v>       0.00462963 </v>
   <v>       0.00462963 </v>
   <v>       0.00462963 </v>
   <v>       0.00462963 </v>
   <v>       0.00231481 </v>
   <v>       0.00115741 </v>
   <v>       0.00231481 </v>
   <v>       0.00231481 </v>
   <v>       0.00231481 </v>
   <v>       0.00231481 </v>
   <v>       0.00231481 </v>
   <v>       0.00231481 </v>
   <v>       0.00231481 </v>
   <v>       0.00231481 </v>
   <v>       0.00231481 </v>
   <v>       0.00231481 </v>
   <v>       0.00231481 </v>
   <v>       0.00115741 </v>
  </varray>
 </kpoints>
 <parameters>
  <separator name="general" >
   <i type="string" name="SYSTEM">gr</i>
   <i type="logical" name="LCOMPAT"> F  </i>
  </separator>
  <separator name="electronic" >
   <i type="string" name="PREC">accura</i>
   <i name="ENMAX">   2000.00000000</i>
   <i name="ENAUG">    644.87300000</i>
   <i name="EDIFF">      0.00000000</i>
   <i type="int" name="IALGO">    68</i>
   <i type="int" name="IWAVPR">    11</i>
   <i type="int" name="NBANDS">    12</i>
   <i name="NELECT">     16.00000000</i>
   <i type="int" name="TURBO">     0</i>
   <i type="int" name="IRESTART">     0</i>
   <i type="int" name="NREBOOT">     0</i>
   <i type="int" name="NMIN">     0</i>
   <i name="EREF">      0.00000000</i>
   <separator name="electronic smearing" >
    <i type="int" name="ISMEAR">     0</i>
    <i name="SIGMA">      0.05000000</i>
    <i name="KSPACING">      0.50000000</i>
    <i type="logical" name="KGAMMA"> T  </i>
   </separator>
   <separator name="electronic projectors" >
    <i type="logical" name="LREAL"> F  </i>
    <v name="ROPT">      0.00000000</v>
    <i type="int" name="LMAXPAW">  -100</i>
    <i type="int" name="LMAXMIX">     2</i>
    <i type="logical" name="NLSPLINE"> F  </i>
   </separator>
   <separator name="electronic startup" >
    <i type="int" name="ISTART">     0</i>
    <i type="int" name="ICHARG">     2</i>
    <i type="int" name="INIWAV">     1</i>
   </separator>
   <separator name="electronic spin" >
    <i type="int" name="ISPIN">     1</i>
    <i type="logical" name="LNONCOLLINEAR"> F  </i>
    <v name="MAGMOM">      1.00000000      1.00000000      1.00000000      1.00000000</v>
    <i name="NUPDOWN">     -1.00000000</i>
    <i type="logical" name="LSORBIT"> F  </i>
    <v name="SAXIS">      0.00000000      0.00000000      1.00000000</v>
    <i type="logical" name="LSPIRAL"> F  </i>
    <v name="QSPIRAL">      0.00000000      0.00000000      0.00000000</v>
    <i type="logical" name="LZEROZ"> F  </i>
   </separator>
   <separator name="electronic exchange-correlation" >
    <i type="logical" name="LASPH"> F  </i>
    <i type="logical" name="LMETAGGA"> F  </i>
   </separator>
   <separator name="electronic convergence" >
    <i type="int" name="NELM">   100</i>
    <i type="int" name="NELMDL">    -3</i>
    <i type="int" name="NELMIN">     5</i>
    <i name="ENINI">   2000.00000000</i>
    <separator name="electronic convergence detail" >
     <i type="logical" name="LDIAG"> T  </i>
     <i type="logical" name="LSUBROT"> F  </i>
     <i name="WEIMIN">      0.00100000</i>
     <i name="EBREAK">      0.00000000</i>
     <i name="DEPER">      0.30000000</i>
     <i type="int" name="NRMM">     4</i>
     <i name="TIME">      0.40000000</i>
    </separator>
   </separator>
   <separator name="electronic mixer" >
    <i name="AMIX">      0.40000000</i>
    <i name="BMIX">      1.00000000</i>
    <i name="AMIN">      0.10000000</i>
    <i name="AMIX_MAG">      1.60000000</i>
    <i name="BMIX_MAG">      1.00000000</i>
    <separator name="electronic mixer details" >
     <i type="int" name="IMIX">     4</i>
     <i type="int" name="MAXMIX">   -45</i>
     <i name="WC">    100.00000000</i>
     <i type="int" name="INIMIX">     1</i>
     <i type="int" name="MIXPRE">     1</i>
     <i type="int" name="MREMOVE">     5</i>
    </separator>
   </separator>
   <separator name="electronic dipolcorrection" >
    <i type="logical" name="LDIPOL"> F  </i>
    <i type="logical" name="LMONO"> F  </i>
    <i type="int" name="IDIPOL">     0</i>
    <i name="EPSILON">      1.00000000</i>
    <v name="DIPOL">   -100.00000000   -100.00000000   -100.00000000</v>
    <i name="EFIELD">      0.00000000</i>
   </separator>
  </separator>
  <separator name="grids" >
   <i type="int" name="NGX">    64</i>
   <i type="int" name="NGY">    36</i>
   <i type="int" name="NGZ">   294</i>
   <i type="int" name="NGXF">   128</i>
   <i type="int" name="NGYF">    72</i>
   <i type="int" name="NGZF">   588</i>
   <i type="logical" name="ADDGRID"> F  </i>
  </separator>
  <separator name="ionic" >
   <i type="int" name="NSW">   400</i>
   <i type="int" name="IBRION">     1</i>
   <i type="int" name="ISIF">     2</i>
   <i name="PSTRESS">      0.00000000</i>
   <i name="EDIFFG">     -0.00000100</i>
   <i type="int" name="NFREE">     0</i>
   <i name="POTIM">      0.50000000</i>
   <i name="SMASS">     -3.00000000</i>
   <i name="SCALEE">      1.00000000</i>
  </separator>
  <separator name="ionic md" >
   <i name="TEBEG">      0.00010000</i>
   <i name="TEEND">      0.00010000</i>
   <i type="int" name="NBLOCK">     1</i>
   <i type="int" name="KBLOCK">   400</i>
   <i type="int" name="NPACO">   256</i>
   <i name="APACO">     16.00000000</i>
  </separator>
  <separator name="symmetry" >
   <i type="int" name="ISYM">     2</i>
   <i name="SYMPREC">      0.00001000</i>
  </separator>
  <separator name="dos" >
   <i type="logical" name="LORBIT"> F  </i>
   <v name="RWIGS">     -1.00000000</v>
   <i type="int" name="NEDOS">   301</i>
   <i name="EMIN">     10.00000000</i>
   <i name="EMAX">    -10.00000000</i>
   <i name="EFERMI">      0.00000000</i>
  </separator>
  <separator name="writing" >
   <i type="int" name="NWRITE">     2</i>
   <i type="logical" name="LWAVE"> F  </i>
   <i type="logical" name="LCHARG"> F  </i>
   <i type="logical" name="LPARD"> F  </i>
   <i type="logical" name="LVTOT"> F  </i>
   <i type="logical" name="LVHAR"> F  </i>
   <i type="logical" name="LELF"> F  </i>
   <i type="logical" name="LOPTICS"> F  </i>
   <v name="STM">      0.00000000      0.00000000      0.00000000      0.00000000      0.00000000      0.00000000      0.00000000</v>
  </separator>
  <separator name="performance" >
   <i type="int" name="NPAR">     4</i>
   <i type="int" name="NSIM">     4</i>
   <i type="int" name="NBLK">    -1</i>
   <i type="logical" name="LPLANE"> T  </i>
   <i type="logical" name="LSCALAPACK"> F  </i>
   <i type="logical" name="LSCAAWARE"> F  </i>
   <i type="logical" name="LSCALU"> F  </i>
   <i type="logical" name="LASYNC"> F  </i>
   <i type="logical" name="LORBITALREAL"> F  </i>
  </separator>
  <separator name="miscellaneous" >
   <i type="int" name="IDIOT">     3</i>
   <i type="logical" name="LMUSIC"> F  </i>
   <v name="POMASS">     12.01100000</v>
   <v name="DARWINR">      0.00000000</v>
   <v name="DARWINV">      1.00000000</v>
   <i type="logical" name="LCORR"> T  </i>
  </separator>
  <i type="logical" name="GGA_COMPAT"> T  </i>
  <i type="logical" name="LBERRY"> F  </i>
  <i type="int" name="ICORELEVEL">     0</i>
  <i type="logical" name="LDAU"> F  </i>
  <i type="int" name="I_CONSTRAINED_M">     0</i>
  <separator name="electronic exchange-correlation" >
   <i type="string" name="GGA">--</i>
   <i type="int" name="VOSKOWN">     0</i>
   <i type="logical" name="LHFCALC"> F  </i>
   <i type="string" name="PRECFOCK"></i>
   <i type="logical" name="LSYMGRAD"> F  </i>
   <i type="logical" name="LHFONE"> F  </i>
   <i type="logical" name="LRHFCALC"> F  </i>
   <i type="logical" name="LTHOMAS"> F  </i>
   <i type="logical" name="LMODELHF"> F  </i>
   <i name="ENCUT4O">     -1.00000000</i>
   <i type="int" name="EXXOEP">     0</i>
   <i type="int" name="FOURORBIT">     0</i>
   <i name="AEXX">      0.00000000</i>
   <i name="HFALPHA">      0.00000000</i>
   <i name="MCALPHA">      0.00000000</i>
   <i name="ALDAX">      1.00000000</i>
   <i name="AGGAX">      1.00000000</i>
   <i name="ALDAC">      1.00000000</i>
   <i name="AGGAC">      1.00000000</i>
   <i type="int" name="NKREDX">     1</i>
   <i type="int" name="NKREDY">     1</i>
   <i type="int" name="NKREDZ">     1</i>
   <i type="logical" name="SHIFTRED"> F  </i>
   <i type="logical" name="ODDONLY"> F  </i>
   <i type="logical" name="EVENONLY"> F  </i>
   <i type="int" name="LMAXFOCK">     0</i>
   <i type="int" name="NMAXFOCKAE">     0</i>
   <i type="logical" name="LFOCKAEDFT"> F  </i>
   <i name="HFSCREEN">      0.00000000</i>
   <i name="HFSCREENC">      0.00000000</i>
   <i type="int" name="NBANDSGWLOW">     0</i>
  </separator>
  <separator name="vdW DFT" >
   <i type="logical" name="LUSE_VDW"> F  </i>
   <i name="Zab_VDW">     -0.84910000</i>
   <i name="PARAM1">      0.12340000</i>
   <i name="PARAM2">      1.00000000</i>
   <i name="PARAM3">      0.00000000</i>
  </separator>
  <separator name="model GW" >
   <i type="int" name="MODEL_GW">     0</i>
   <i name="MODEL_EPS0">     31.62568521</i>
   <i name="MODEL_ALPHA">      1.00000000</i>
  </separator>
  <separator name="linear response parameters" >
   <i type="logical" name="LEPSILON"> F  </i>
   <i type="logical" name="LRPA"> F  </i>
   <i type="logical" name="LNABLA"> F  </i>
   <i type="logical" name="LVEL"> F  </i>
   <i type="int" name="KINTER">     0</i>
   <i name="CSHIFT">      0.10000000</i>
   <i name="OMEGAMAX">     -1.00000000</i>
   <i name="DEG_THRESHOLD">      0.00200000</i>
  </separator>
  <separator name="orbital magnetization" >
   <i type="logical" name="NUCIND"> F  </i>
   <v name="MAGPOS">      0.00000000      0.00000000      0.00000000</v>
   <i type="logical" name="LNICSALL"> T  </i>
   <i type="logical" name="ORBITALMAG"> F  </i>
   <i type="logical" name="LMAGBLOCH"> F  </i>
   <i type="logical" name="LCHIMAG"> F  </i>
   <i type="logical" name="LGAUGE"> T  </i>
   <i type="int" name="MAGATOM">     0</i>
   <v name="MAGDIPOL">      0.00000000      0.00000000      0.00000000</v>
   <v name="AVECCONST">      0.00000000      0.00000000      0.00000000</v>
  </separator>
  <separator name="response functions" >
   <i type="logical" name="LADDER"> F  </i>
   <i type="logical" name="LFXC"> F  </i>
   <i type="logical" name="LHARTREE"> T  </i>
   <i type="int" name="IBSE">     0</i>
   <i type="logical" name="LTCTE"> F  </i>
   <i type="logical" name="LTETE"> F  </i>
   <i type="logical" name="LTRIPLET"> F  </i>
   <i type="logical" name="LFXCEPS"> F  </i>
   <i type="logical" name="LFXHEG"> F  </i>
   <i type="logical" name="L2ORDER"> F  </i>
   <i type="logical" name="LUSEW"> F  </i>
   <i name="ENCUTGW">     -2.00000000</i>
   <i name="ENCUTGWSOFT">     -2.00000000</i>
   <i name="ENCUTLF">     -1.00000000</i>
   <i type="int" name="LMAXMP2">    -1</i>
   <i name="SCISSOR">      0.00000000</i>
   <i type="int" name="NOMEGA">     0</i>
   <i type="int" name="NOMEGAR">     0</i>
   <i type="int" name="NBANDSGW">    -1</i>
   <i type="int" name="NBANDSO">    -1</i>
   <i type="int" name="NBANDSV">    -1</i>
   <i type="int" name="NELM">   100</i>
   <i type="int" name="DIM">     3</i>
   <i type="int" name="ANTIRES">     0</i>
   <i name="OMEGAMAX">    -30.00000000</i>
   <i name="OMEGAMIN">    -30.00000000</i>
   <i name="OMEGATL">   -200.00000000</i>
   <i type="int" name="OMEGAGRID">     0</i>
   <i name="CSHIFT">     -0.10000000</i>
   <i type="logical" name="SELFENERGY"> F  </i>
   <i type="logical" name="LSPECTRAL"> F  </i>
   <i type="logical" name="ODDONLYGW"> F  </i>
   <i type="logical" name="EVENONLYGW"> F  </i>
   <i type="int" name="NKREDLFX">     1</i>
   <i type="int" name="NKREDLFY">     1</i>
   <i type="int" name="NKREDLFZ">     1</i>
   <i type="int" name="MAXMEM">  1800</i>
   <i type="int" name="TELESCOPE">     0</i>
   <i type="int" name="TAUPAR">     1</i>
  </separator>
  <separator name="External order field" >
   <i name="OFIELD_KAPPA">      0.00000000</i>
   <v name="OFIELD_K">      0.00000000      0.00000000      0.00000000</v>
   <i name="OFIELD_Q6_NEAR">      0.00000000</i>
   <i name="OFIELD_Q6_FAR">      0.00000000</i>
   <i name="OFIELD_A">      0.00000000</i>
  </separator>
 </parameters>
 <atominfo>
  <atoms>       4 </atoms>
  <types>       1 </types>
  <array name="atoms" >
   <dimension dim="1">ion</dimension>
   <field type="string">element</field>
   <field type="int">atomtype</field>
   <set>
    <rc><c>C </c><c>   1</c></rc>
    <rc><c>C </c><c>   1</c></rc>
    <rc><c>C </c><c>   1</c></rc>
    <rc><c>C </c><c>   1</c></rc>
   </set>
  </array>
  <array name="atomtypes" >
   <dimension dim="1">type</dimension>
   <field type="int">atomspertype</field>
   <field type="string">element</field>
   <field>mass</field>
   <field>valence</field>
   <field type="string">pseudopotential</field>
   <set>
    <rc><c>   4</c><c>C </c><c>     12.01100000</c><c>      4.00000000</c><c> PAW_PBE C 08Apr2002                    </c></rc>
   </set>
  </array>
 </atominfo>
 <structure name="initialpos" >
  <crystal>
   <varray name="basis" >
    <v>       4.27304122       0.00000000       0.00000000 </v>
    <v>       0.00000000       2.46749785       0.00000000 </v>
    <v>       0.00000000       0.00000000      19.99653833 </v>
   </varray>
   <i name="volume">    210.83790140 </i>
   <varray name="rec_basis" >
    <v>       0.23402536       0.00000000       0.00000000 </v>
    <v>       0.00000000       0.40526884       0.00000000 </v>
    <v>       0.00000000       0.00000000       0.05000866 </v>
   </varray>
  </crystal>
  <varray name="positions" >
   <v>       0.99987391       0.00000000       0.00000000 </v>
   <v>       0.16679275       0.50000000       0.00000000 </v>
   <v>       0.49987391       0.50000000       0.00000000 </v>
   <v>       0.66679275       0.00000000       0.00000000 </v>
  </varray>
 </structure>
 <calculation>
  <scstep>
   <time name="dav">  300.36  302.17</time>
   <time name="total">  302.88  304.79</time>
   <energy>
    <i name="alphaZ">      6.18334092 </i>
    <i name="ewald">   2585.69089252 </i>
    <i name="hartreedc">  -3011.10635900 </i>
    <i name="XCdc">     55.09529374 </i>
    <i name="pawpsdc">    151.32577238 </i>
    <i name="pawaedc">   -155.92769107 </i>
    <i name="eentropy">     -0.00136231 </i>
    <i name="bandstr">    -29.95637283 </i>
    <i name="atom">    588.62352690 </i>
    <i name="e_fr_energy">    189.92704127 </i>
    <i name="e_wo_entrp">    189.92840357 </i>
    <i name="e_0_energy">    189.92772242 </i>
   </energy>
  </scstep>
  <scstep>
   <time name="dav">  459.12  459.42</time>
   <time name="total">  459.13  459.43</time>
   <energy>
    <i name="e_fr_energy">     -8.82782671 </i>
    <i name="e_wo_entrp">     -8.82770246 </i>
    <i name="e_0_energy">     -8.82776459 </i>
   </energy>
  </scstep>
  <scstep>
   <time name="dav">  349.57  349.75</time>
   <time name="total">  381.16  381.37</time>
   <energy>
    <i name="e_fr_energy">    -38.35783002 </i>
    <i name="e_wo_entrp">    -38.35776219 </i>
    <i name="e_0_energy">    -38.35779611 </i>
   </energy>
  </scstep>
  <scstep>
   <time name="diag">   82.62   82.64</time>
   <time name="diis">  348.39  349.24</time>
   <time name="orth">    3.07    3.07</time>
   <time name="total">  467.87  469.42</time>
   <energy>
    <i name="e_fr_energy">    -37.71108405 </i>
    <i name="e_wo_entrp">    -37.71096138 </i>
    <i name="e_0_energy">    -37.71102272 </i>
   </energy>
  </scstep>
  <scstep>
   <time name="diag">   82.50   82.59</time>
   <time name="diis">  344.74  345.28</time>
   <time name="orth">    3.07    3.07</time>
   <time name="total">  464.62  465.31</time>
   <energy>
    <i name="e_fr_energy">    -36.93708339 </i>
    <i name="e_wo_entrp">    -36.93695622 </i>
    <i name="e_0_energy">    -36.93701980 </i>
   </energy>
  </scstep>
  <scstep>
   <time name="diag">   82.66   82.68</time>
   <time name="diis">  374.53  374.81</time>
   <time name="orth">    3.07    3.08</time>
   <time name="total">  494.30  494.64</time>
   <energy>
    <i name="e_fr_energy">    -36.93804279 </i>
    <i name="e_wo_entrp">    -36.93791563 </i>
    <i name="e_0_energy">    -36.93797921 </i>
   </energy>
  </scstep>
  <scstep>
   <time name="diag">   82.63   82.66</time>
   <time name="diis">  344.24  345.27</time>
   <time name="orth">    3.07    3.07</time>
   <time name="total">  463.94  465.22</time>
   <energy>
    <i name="e_fr_energy">    -36.92836647 </i>
    <i name="e_wo_entrp">    -36.92823959 </i>
    <i name="e_0_energy">    -36.92830303 </i>
   </energy>
  </scstep>
  <scstep>
   <time name="diag">   82.21   82.63</time>
   <time name="diis">  345.50  347.12</time>
   <time name="orth">    3.07    3.10</time>
   <time name="total">  465.01  467.28</time>
   <energy>
    <i name="e_fr_energy">    -36.92254205 </i>
    <i name="e_wo_entrp">    -36.92241514 </i>
    <i name="e_0_energy">    -36.92247859 </i>
   </energy>
  </scstep>
  <scstep>
   <time name="diag">   82.19   82.50</time>
   <time name="diis">  337.81  338.56</time>
   <time name="orth">    3.10    3.10</time>
   <time name="total">  457.19  458.40</time>
   <energy>
    <i name="e_fr_energy">    -36.92215012 </i>
    <i name="e_wo_entrp">    -36.92202311 </i>
    <i name="e_0_energy">    -36.92208661 </i>
   </energy>
  </scstep>
  <scstep>
   <time name="diag">   82.49   82.53</time>
   <time name="diis">  338.97  339.05</time>
   <time name="orth">    3.08    3.08</time>
   <time name="total">  458.73  458.87</time>
   <energy>
    <i name="e_fr_energy">    -36.92199403 </i>
    <i name="e_wo_entrp">    -36.92186707 </i>
    <i name="e_0_energy">    -36.92193055 </i>
   </energy>
  </scstep>
  <scstep>
   <time name="diag">   82.47   82.53</time>
   <time name="diis">  340.16  340.44</time>
   <time name="orth">    3.08    3.08</time>
   <time name="total">  459.64  460.02</time>
   <energy>
    <i name="e_fr_energy">    -36.92458620 </i>
    <i name="e_wo_entrp">    -36.92445926 </i>
    <i name="e_0_energy">    -36.92452273 </i>
   </energy>
  </scstep>
  <scstep>
   <time name="diag">   82.52   82.55</time>
   <time name="diis">  339.71  340.17</time>
   <time name="orth">    3.08    3.08</time>
   <time name="total">  459.59  460.26</time>
   <energy>
    <i name="e_fr_energy">    -36.92504357 </i>
    <i name="e_wo_entrp">    -36.92491661 </i>
    <i name="e_0_energy">    -36.92498009 </i>
   </energy>
  </scstep>
  <scstep>
   <time name="diag">   82.12   82.54</time>
   <time name="diis">  347.26  347.79</time>
   <time name="orth">    3.12    3.12</time>
   <time name="total">  466.53  467.52</time>
   <energy>
    <i name="e_fr_energy">    -36.92530972 </i>
    <i name="e_wo_entrp">    -36.92518275 </i>
    <i name="e_0_energy">    -36.92524624 </i>
   </energy>
  </scstep>
  <scstep>
   <time name="diag">   82.35   82.38</time>
   <time name="diis">  337.74  337.94</time>
   <time name="orth">    3.07    3.07</time>
   <time name="total">  457.11  457.37</time>
   <energy>
    <i name="e_fr_energy">    -36.92539700 </i>
    <i name="e_wo_entrp">    -36.92527004 </i>
    <i name="e_0_energy">    -36.92533352 </i>
   </energy>
  </scstep>
  <scstep>
   <time name="diag">   82.45   82.49</time>
   <time name="diis">  342.24  343.89</time>
   <time name="orth">    3.07    3.07</time>
   <time name="total">  461.41  463.42</time>
   <energy>
    <i name="e_fr_energy">    -36.92540430 </i>
    <i name="e_wo_entrp">    -36.92527734 </i>
    <i name="e_0_energy">    -36.92534082 </i>
   </energy>
  </scstep>
  <scstep>
   <time name="diag">   82.36   82.40</time>
   <time name="diis">  348.70  348.82</time>
   <time name="orth">    3.09    3.09</time>
   <time name="total">  468.08  468.29</time>
   <energy>
    <i name="e_fr_energy">    -36.92541544 </i>
    <i name="e_wo_entrp">    -36.92528848 </i>
    <i name="e_0_energy">    -36.92535196 </i>
   </energy>
  </scstep>
  <scstep>
   <time name="diag">   82.36   82.39</time>
   <time name="diis">  344.26  344.36</time>
   <time name="orth">    3.09    3.09</time>
   <time name="total">  464.09  464.26</time>
   <energy>
    <i name="e_fr_energy">    -36.92541876 </i>
    <i name="e_wo_entrp">    -36.92529180 </i>
    <i name="e_0_energy">    -36.92535528 </i>
   </energy>
  </scstep>
  <scstep>
   <time name="diag">   82.35   82.37</time>
   <time name="diis">  336.81  336.86</time>
   <time name="orth">    3.09    3.09</time>
   <time name="total">  456.37  456.46</time>
   <energy>
    <i name="e_fr_energy">    -36.92542092 </i>
    <i name="e_wo_entrp">    -36.92529396 </i>
    <i name="e_0_energy">    -36.92535744 </i>
   </energy>
  </scstep>
  <scstep>
   <time name="diag">   82.48   82.49</time>
   <time name="diis">  353.40  353.46</time>
   <time name="orth">    3.09    3.09</time>
   <time name="total">  473.06  473.36</time>
   <energy>
    <i name="e_fr_energy">    -36.92542122 </i>
    <i name="e_wo_entrp">    -36.92529426 </i>
    <i name="e_0_energy">    -36.92535774 </i>
   </energy>
  </scstep>
  <scstep>
   <time name="diag">   82.43   82.44</time>
   <time name="diis">  265.78  265.82</time>
   <time name="orth">    3.09    3.09</time>
   <time name="total">  385.34  385.47</time>
   <energy>
    <i name="e_fr_energy">    -36.92542127 </i>
    <i name="e_wo_entrp">    -36.92529431 </i>
    <i name="e_0_energy">    -36.92535779 </i>
   </energy>
  </scstep>
  <scstep>
   <time name="diag">   82.43   82.44</time>
   <time name="diis">  245.87  246.90</time>
   <time name="orth">    3.12    3.14</time>
   <time name="total">  365.64  367.24</time>
   <energy>
    <i name="e_fr_energy">    -36.92542128 </i>
    <i name="e_wo_entrp">    -36.92529432 </i>
    <i name="e_0_energy">    -36.92535780 </i>
   </energy>
  </scstep>
  <scstep>
   <time name="diag">   82.31   82.38</time>
   <time name="diis">  231.77  231.91</time>
   <time name="orth">    3.07    3.07</time>
   <time name="total">  319.59  319.83</time>
   <energy>
    <i name="alphaZ">      6.18334092 </i>
    <i name="ewald">   2585.69089252 </i>
    <i name="hartreedc">  -3079.63892832 </i>
    <i name="XCdc">     57.51943834 </i>
    <i name="pawpsdc">    277.01086200 </i>
    <i name="pawaedc">   -282.15941341 </i>
    <i name="eentropy">     -0.00012696 </i>
    <i name="bandstr">   -190.15501327 </i>
    <i name="atom">    588.62352690 </i>
    <i name="e_fr_energy">    -36.92542128 </i>
    <i name="e_wo_entrp">    -36.92529432 </i>
    <i name="e_0_energy">    -36.92535780 </i>
   </energy>
  </scstep>
  <structure>
   <crystal>
    <varray name="basis" >
     <v>       4.27304122       0.00000000       0.00000000 </v>
     <v>       0.00000000       2.46749785       0.00000000 </v>
     <v>       0.00000000       0.00000000      19.99653833 </v>
    </varray>
    <i name="volume">    210.83790140 </i>
    <varray name="rec_basis" >
     <v>       0.23402536       0.00000000       0.00000000 </v>
     <v>       0.00000000       0.40526884       0.00000000 </v>
     <v>       0.00000000       0.00000000       0.05000866 </v>
    </varray>
   </crystal>
   <varray name="positions" >
    <v>       0.99987391       0.00000000       0.00000000 </v>
    <v>       0.16679275       0.50000000       0.00000000 </v>
    <v>       0.49987391       0.50000000       0.00000000 </v>
    <v>       0.66679275       0.00000000       0.00000000 </v>
   </varray>
  </structure>
  <varray name="forces" >
   <v>       0.05808182       0.00000000       0.00000000 </v>
   <v>      -0.05808182      -0.00000000       0.00000000 </v>
   <v>       0.05808182       0.00000000       0.00000000 </v>
   <v>      -0.05808182      -0.00000000       0.00000000 </v>
  </varray>
  <varray name="stress" >
   <v>       0.26201044       0.00000000       0.00000000 </v>
   <v>       0.00000000      -0.33945121       0.00000000 </v>
   <v>       0.00000000       0.00000000      -0.01016492 </v>
  </varray>
  <energy>
   <i name="e_fr_energy">    -36.92542128 </i>
   <i name="e_wo_entrp">    -36.92535780 </i>
   <i name="e_0_energy">     -0.00012696 </i>
  </energy>
  <time name="totalsc"> 9752.98 9770.40</time>
 </calculation>
 <calculation>
  <scstep>
   <time name="dav">  331.06  333.97</time>
   <time name="total">  364.59  367.82</time>
   <energy>
    <i name="alphaZ">      6.18334092 </i>
    <i name="ewald">   2585.69385181 </i>
    <i name="hartreedc">  -3079.63916079 </i>
    <i name="XCdc">     57.51945508 </i>
    <i name="pawpsdc">    277.01087678 </i>
    <i name="pawaedc">   -282.15942816 </i>
    <i name="eentropy">     -0.00008626 </i>
    <i name="bandstr">   -190.15682811 </i>
    <i name="atom">    588.62352690 </i>
    <i name="e_fr_energy">    -36.92445183 </i>
    <i name="e_wo_entrp">    -36.92436557 </i>
    <i name="e_0_energy">    -36.92440870 </i>
   </energy>
  </scstep>
  <scstep>
   <time name="diag">   81.60   82.44</time>
   <time name="diis">  334.31  338.10</time>
   <time name="orth">    3.08    3.09</time>
   <time name="total">  453.04  458.02</time>
   <energy>
    <i name="e_fr_energy">    -36.92449495 </i>
    <i name="e_wo_entrp">    -36.92440564 </i>
    <i name="e_0_energy">    -36.92445030 </i>
   </energy>
  </scstep>
  <scstep>
   <time name="diag">   81.91   82.42</time>
   <time name="diis">  339.00  341.93</time>
   <time name="orth">    3.07    3.10</time>
   <time name="total">  457.52  461.27</time>
   <energy>
    <i name="e_fr_energy">    -36.92444920 </i>
    <i name="e_wo_entrp">    -36.92435456 </i>
    <i name="e_0_energy">    -36.92440188 </i>
   </energy>
  </scstep>
  <scstep>
   <time name="diag">   82.20   82.50</time>
   <time name="diis">  347.92  348.79</time>
   <time name="orth">    3.09    3.10</time>
   <time name="total">  467.32  468.70</time>
   <energy>
    <i name="e_fr_energy">    -36.92444492 </i>
    <i name="e_wo_entrp">    -36.92435155 </i>
    <i name="e_0_energy">    -36.92439823 </i>
   </energy>
  </scstep>
  <scstep>
   <time name="diag">   82.32   82.47</time>
   <time name="diis">  358.63  359.14</time>
   <time name="orth">    3.07    3.07</time>
   <time name="total">  477.72  478.79</time>
   <energy>
    <i name="e_fr_energy">    -36.92444507 </i>
    <i name="e_wo_entrp">    -36.92435184 </i>
    <i name="e_0_energy">    -36.92439845 </i>
   </energy>
  </scstep>
  <scstep>
   <time name="diag">   82.38   82.49</time>
   <time name="diis">  349.05  350.70</time>
   <time name="orth">    3.07    3.07</time>
   <time name="total">  468.02  470.15</time>
   <energy>
    <i name="e_fr_energy">    -36.92444498 </i>
    <i name="e_wo_entrp">    -36.92435160 </i>
    <i name="e_0_energy">    -36.92439829 </i>
   </energy>
  </scstep>
  <scstep>
   <time name="diag">   81.70   82.47</time>
   <time name="diis">  346.21  349.40</time>
   <time name="orth">    3.07    3.07</time>
   <time name="total">  464.64  469.11</time>
   <energy>
    <i name="e_fr_energy">    -36.92444499 </i>
    <i name="e_wo_entrp">    -36.92435158 </i>
    <i name="e_0_energy">    -36.92439828 </i>
   </energy>
  </scstep>
  <scstep>
   <time name="diag">   82.23   82.51</time>
   <time name="diis">  316.87  317.59</time>
   <time name="orth">    3.08    3.09</time>
   <time name="total">  404.59  405.63</time>
   <energy>
    <i name="alphaZ">      6.18334092 </i>
    <i name="ewald">   2585.69385181 </i>
    <i name="hartreedc">  -3079.64090156 </i>
    <i name="XCdc">     57.51955022 </i>
    <i name="pawpsdc">    277.01667409 </i>
    <i name="pawaedc">   -282.16525849 </i>
    <i name="eentropy">     -0.00009339 </i>
    <i name="bandstr">   -190.15513549 </i>
    <i name="atom">    588.62352690 </i>
    <i name="e_fr_energy">    -36.92444499 </i>
    <i name="e_wo_entrp">    -36.92435159 </i>
    <i name="e_0_energy">    -36.92439829 </i>
   </energy>
  </scstep>
  <structure>
   <crystal>
    <varray name="basis" >
     <v>       4.27304122       0.00000000       0.00000000 </v>
     <v>       0.00000000       2.46749785       0.00000000 </v>
     <v>       0.00000000       0.00000000      19.99653833 </v>
    </varray>
    <i name="volume">    210.83790140 </i>
    <varray name="rec_basis" >
     <v>       0.23402536       0.00000000       0.00000000 </v>
     <v>       0.00000000       0.40526884       0.00000000 </v>
     <v>       0.00000000       0.00000000       0.05000866 </v>
    </varray>
   </crystal>
   <varray name="positions" >
    <v>       1.00052966       0.00000000       0.00000000 </v>
    <v>       0.16613701       0.50000000       0.00000000 </v>
    <v>       0.50052966       0.50000000       0.00000000 </v>
    <v>       0.66613701      -0.00000000       0.00000000 </v>
   </varray>
  </structure>
  <varray name="forces" >
   <v>      -0.23225292      -0.00000000       0.00000000 </v>
   <v>       0.23225292      -0.00000000       0.00000000 </v>
   <v>      -0.23225292       0.00000000       0.00000000 </v>
   <v>       0.23225292      -0.00000000       0.00000000 </v>
  </varray>
  <varray name="stress" >
   <v>      -0.55548190       0.00000000       0.00000000 </v>
   <v>       0.00000000       0.51679558       0.00000000 </v>
   <v>       0.00000000       0.00000000      -0.00981919 </v>
  </varray>
  <energy>
   <i name="e_fr_energy">    -36.92444499 </i>
   <i name="e_wo_entrp">    -36.92439829 </i>
   <i name="e_0_energy">     -0.00009339 </i>
  </energy>
  <time name="totalsc"> 3660.09 3683.17</time>
 </calculation>
 <calculation>
  <scstep>
   <time name="dav">  312.27  313.53</time>
   <time name="total">  345.98  347.44</time>
   <energy>
    <i name="alphaZ">      6.18334092 </i>
    <i name="ewald">   2585.69059552 </i>
    <i name="hartreedc">  -3079.63983034 </i>
    <i name="XCdc">     57.51946615 </i>
    <i name="pawpsdc">    277.01666605 </i>
    <i name="pawaedc">   -282.16525053 </i>
    <i name="eentropy">     -0.00012996 </i>
    <i name="bandstr">   -190.15387865 </i>
    <i name="atom">    588.62352690 </i>
    <i name="e_fr_energy">    -36.92549392 </i>
    <i name="e_wo_entrp">    -36.92536396 </i>
    <i name="e_0_energy">    -36.92542894 </i>
   </energy>
  </scstep>
  <scstep>
   <time name="diag">   82.14   82.52</time>
   <time name="diis">  334.33  337.40</time>
   <time name="orth">    3.08    3.09</time>
   <time name="total">  453.35  456.98</time>
   <energy>
    <i name="e_fr_energy">    -36.92551769 </i>
    <i name="e_wo_entrp">    -36.92538739 </i>
    <i name="e_0_energy">    -36.92545254 </i>
   </energy>
  </scstep>
  <scstep>
   <time name="diag">   82.25   82.48</time>
   <time name="diis">  337.69  340.13</time>
   <time name="orth">    3.09    3.09</time>
   <time name="total">  456.84  459.84</time>
   <energy>
    <i name="e_fr_energy">    -36.92548880 </i>
    <i name="e_wo_entrp">    -36.92535821 </i>
    <i name="e_0_energy">    -36.92542350 </i>
   </energy>
  </scstep>
  <scstep>
   <time name="diag">   81.59   82.46</time>
   <time name="diis">  347.91  350.85</time>
   <time name="orth">    3.06    3.08</time>
   <time name="total">  466.44  470.81</time>
   <energy>
    <i name="e_fr_energy">    -36.92548618 </i>
    <i name="e_wo_entrp">    -36.92535562 </i>
    <i name="e_0_energy">    -36.92542090 </i>
   </energy>
  </scstep>
  <scstep>
   <time name="diag">   82.29   82.37</time>
   <time name="diis">  352.30  354.19</time>
   <time name="orth">    3.08    3.08</time>
   <time name="total">  471.72  473.97</time>
   <energy>
    <i name="e_fr_energy">    -36.92548626 </i>
    <i name="e_wo_entrp">    -36.92535571 </i>
    <i name="e_0_energy">    -36.92542099 </i>
   </energy>
  </scstep>
  <scstep>
   <time name="diag">   81.64   82.46</time>
   <time name="diis">  348.03  351.73</time>
   <time name="orth">    3.07    3.07</time>
   <time name="total">  466.81  471.66</time>
   <energy>
    <i name="e_fr_energy">    -36.92548621 </i>
    <i name="e_wo_entrp">    -36.92535566 </i>
    <i name="e_0_energy">    -36.92542093 </i>
   </energy>
  </scstep>
  <scstep>
   <time name="diag">   82.19   82.41</time>
   <time name="diis">  349.38  350.72</time>
   <time name="orth">    3.07    3.07</time>
   <time name="total">  468.96  470.55</time>
   <energy>
    <i name="e_fr_energy">    -36.92548621 </i>
    <i name="e_wo_entrp">    -36.92535565 </i>
    <i name="e_0_energy">    -36.92542093 </i>
   </energy>
  </scstep>
  <scstep>
   <time name="diag">   82.37   82.39</time>
   <time name="diis">  282.94  282.99</time>
   <time name="orth">    3.09    3.09</time>
   <time name="total">  402.62  402.69</time>
   <energy>
    <i name="e_fr_energy">    -36.92548621 </i>
    <i name="e_wo_entrp">    -36.92535565 </i>
    <i name="e_0_energy">    -36.92542093 </i>
   </energy>
  </scstep>
  <scstep>
   <time name="diag">   82.32   82.33</time>
   <time name="diis">  230.76  230.80</time>
   <time name="orth">    3.09    3.09</time>
   <time name="total">  350.45  350.66</time>
   <energy>
    <i name="e_fr_energy">    -36.92548621 </i>
    <i name="e_wo_entrp">    -36.92535565 </i>
    <i name="e_0_energy">    -36.92542093 </i>
   </energy>
  </scstep>
  <scstep>
   <time name="diag">   82.33   82.39</time>
   <time name="diis">  228.47  228.63</time>
   <time name="orth">    3.09    3.09</time>
   <time name="total">  348.19  348.42</time>
   <energy>
    <i name="e_fr_energy">    -36.92548621 </i>
    <i name="e_wo_entrp">    -36.92535565 </i>
    <i name="e_0_energy">    -36.92542093 </i>
   </energy>
  </scstep>
  <scstep>
   <time name="diag">   82.39   82.46</time>
   <time name="diis">  219.88  219.92</time>
   <time name="orth">    3.09    3.09</time>
   <time name="total">  339.70  339.84</time>
   <energy>
    <i name="e_fr_energy">    -36.92548621 </i>
    <i name="e_wo_entrp">    -36.92535565 </i>
    <i name="e_0_energy">    -36.92542093 </i>
   </energy>
  </scstep>
  <scstep>
   <time name="diag">   82.39   82.41</time>
   <time name="diis">  212.13  212.17</time>
   <time name="orth">    3.09    3.09</time>
   <time name="total">  331.93  332.01</time>
   <energy>
    <i name="e_fr_energy">    -36.92548621 </i>
    <i name="e_wo_entrp">    -36.92535565 </i>
    <i name="e_0_energy">    -36.92542093 </i>
   </energy>
  </scstep>
  <scstep>
   <time name="diag">   82.36   82.38</time>
   <time name="diis">  207.23  207.27</time>
   <time name="orth">    3.07    3.07</time>
   <time name="total">  295.13  295.18</time>
   <energy>
    <i name="alphaZ">      6.18334092 </i>
    <i name="ewald">   2585.69059552 </i>
    <i name="hartreedc">  -3079.63870816 </i>
    <i name="XCdc">     57.51942685 </i>
    <i name="pawpsdc">    277.01034388 </i>
    <i name="pawaedc">   -282.15889279 </i>
    <i name="eentropy">     -0.00013056 </i>
    <i name="bandstr">   -190.15498878 </i>
    <i name="atom">    588.62352690 </i>
    <i name="e_fr_energy">    -36.92548621 </i>
    <i name="e_wo_entrp">    -36.92535565 </i>
    <i name="e_0_energy">    -36.92542093 </i>
   </energy>
  </scstep>
  <structure>
   <crystal>
    <varray name="basis" >
     <v>       4.27304122       0.00000000       0.00000000 </v>
     <v>       0.00000000       2.46749785       0.00000000 </v>
     <v>       0.00000000       0.00000000      19.99653833 </v>
    </varray>
    <i name="volume">    210.83790140 </i>
    <varray name="rec_basis" >
     <v>       0.23402536       0.00000000       0.00000000 </v>
     <v>       0.00000000       0.40526884       0.00000000 </v>
     <v>       0.00000000       0.00000000       0.05000866 </v>
    </varray>
   </crystal>
   <varray name="positions" >
    <v>       1.00000509       0.00000000       0.00000000 </v>
    <v>       0.16666157       0.50000000       0.00000000 </v>
    <v>       0.50000509       0.50000000       0.00000000 </v>
    <v>       0.66666157      -0.00000000       0.00000000 </v>
   </varray>
  </structure>
  <varray name="forces" >
   <v>      -0.00012357      -0.00000000      -0.00000000 </v>
   <v>       0.00012357       0.00000000       0.00000000 </v>
   <v>      -0.00012357      -0.00000000      -0.00000000 </v>
   <v>       0.00012357       0.00000000       0.00000000 </v>
  </varray>
  <varray name="stress" >
   <v>       0.09474782       0.00000000       0.00000000 </v>
   <v>       0.00000000      -0.17551020       0.00000000 </v>
   <v>       0.00000000       0.00000000      -0.01006120 </v>
  </varray>
  <energy>
   <i name="e_fr_energy">    -36.92548621 </i>
   <i name="e_wo_entrp">    -36.92542093 </i>
   <i name="e_0_energy">     -0.00013056 </i>
  </energy>
  <time name="totalsc"> 5300.21 5322.46</time>
 </calculation>
 <calculation>
  <scstep>
   <time name="dav">  319.88  319.95</time>
   <time name="total">  354.17  354.25</time>
   <energy>
    <i name="alphaZ">      6.18334092 </i>
    <i name="ewald">   2585.69059567 </i>
    <i name="hartreedc">  -3079.63870400 </i>
    <i name="XCdc">     57.51942689 </i>
    <i name="pawpsdc">    277.01034433 </i>
    <i name="pawaedc">   -282.15889324 </i>
    <i name="eentropy">     -0.00013055 </i>
    <i name="bandstr">   -190.15499313 </i>
    <i name="atom">    588.62352690 </i>
    <i name="e_fr_energy">    -36.92548621 </i>
    <i name="e_wo_entrp">    -36.92535566 </i>
    <i name="e_0_energy">    -36.92542093 </i>
   </energy>
  </scstep>
  <scstep>
   <time name="diag">   82.39   82.40</time>
   <time name="diis">  252.79  252.83</time>
   <time name="orth">    3.10    3.10</time>
   <time name="total">  372.55  372.62</time>
   <energy>
    <i name="e_fr_energy">    -36.92548621 </i>
    <i name="e_wo_entrp">    -36.92535566 </i>
    <i name="e_0_energy">    -36.92542093 </i>
   </energy>
  </scstep>
  <scstep>
   <time name="diag">   82.41   82.45</time>
   <time name="diis">  223.36  223.51</time>
   <time name="orth">    3.09    3.09</time>
   <time name="total">  343.13  343.34</time>
   <energy>
    <i name="e_fr_energy">    -36.92548621 </i>
    <i name="e_wo_entrp">    -36.92535566 </i>
    <i name="e_0_energy">    -36.92542093 </i>
   </energy>
  </scstep>
  <scstep>
   <time name="diag">   82.44   82.46</time>
   <time name="diis">  217.14  217.19</time>
   <time name="orth">    3.10    3.10</time>
   <time name="total">  337.03  337.10</time>
   <energy>
    <i name="e_fr_energy">    -36.92548621 </i>
    <i name="e_wo_entrp">    -36.92535566 </i>
    <i name="e_0_energy">    -36.92542093 </i>
   </energy>
  </scstep>
  <scstep>
   <time name="diag">   82.39   82.40</time>
   <time name="diis">  217.52  217.56</time>
   <time name="orth">    3.10    3.10</time>
   <time name="total">  337.30  337.40</time>
   <energy>
    <i name="e_fr_energy">    -36.92548621 </i>
    <i name="e_wo_entrp">    -36.92535566 </i>
    <i name="e_0_energy">    -36.92542093 </i>
   </energy>
  </scstep>
  <scstep>
   <time name="diag">   82.45   82.47</time>
   <time name="diis">  203.57  203.71</time>
   <time name="orth">    3.07    3.07</time>
   <time name="total">  323.31  323.76</time>
   <energy>
    <i name="e_fr_energy">    -36.92548621 </i>
    <i name="e_wo_entrp">    -36.92535566 </i>
    <i name="e_0_energy">    -36.92542093 </i>
   </energy>
  </scstep>
  <scstep>
   <time name="diag">   82.36   82.41</time>
   <time name="diis">  192.98  193.10</time>
   <time name="orth">    3.09    3.09</time>
   <time name="total">  312.66  313.05</time>
   <energy>
    <i name="e_fr_energy">    -36.92548621 </i>
    <i name="e_wo_entrp">    -36.92535566 </i>
    <i name="e_0_energy">    -36.92542093 </i>
   </energy>
  </scstep>
  <scstep>
   <time name="diag">   82.42   82.45</time>
   <time name="diis">  183.62  183.65</time>
   <time name="orth">    3.09    3.09</time>
   <time name="total">  303.40  303.48</time>
   <energy>
    <i name="e_fr_energy">    -36.92548621 </i>
    <i name="e_wo_entrp">    -36.92535566 </i>
    <i name="e_0_energy">    -36.92542093 </i>
   </energy>
  </scstep>
  <scstep>
   <time name="diag">   82.37   82.41</time>
   <time name="diis">  179.25  179.29</time>
   <time name="orth">    3.07    3.07</time>
   <time name="total">  298.80  299.01</time>
   <energy>
    <i name="e_fr_energy">    -36.92548621 </i>
    <i name="e_wo_entrp">    -36.92535566 </i>
    <i name="e_0_energy">    -36.92542093 </i>
   </energy>
  </scstep>
  <scstep>
   <time name="diag">   82.46   82.48</time>
   <time name="diis">  173.92  174.01</time>
   <time name="orth">    3.07    3.07</time>
   <time name="total">  293.62  293.93</time>
   <energy>
    <i name="e_fr_energy">    -36.92548621 </i>
    <i name="e_wo_entrp">    -36.92535566 </i>
    <i name="e_0_energy">    -36.92542093 </i>
   </energy>
  </scstep>
  <scstep>
   <time name="diag">   81.97   82.36</time>
   <time name="diis">  169.72  169.80</time>
   <time name="orth">    3.09    3.09</time>
   <time name="total">  289.00  289.55</time>
   <energy>
    <i name="e_fr_energy">    -36.92548621 </i>
    <i name="e_wo_entrp">    -36.92535566 </i>
    <i name="e_0_energy">    -36.92542093 </i>
   </energy>
  </scstep>
  <scstep>
   <time name="diag">   82.39   82.41</time>
   <time name="diis">  168.70  168.79</time>
   <time name="orth">    3.08    3.09</time>
   <time name="total">  288.44  288.59</time>
   <energy>
    <i name="e_fr_energy">    -36.92548621 </i>
    <i name="e_wo_entrp">    -36.92535566 </i>
    <i name="e_0_energy">    -36.92542093 </i>
   </energy>
  </scstep>
  <scstep>
   <time name="diag">   82.33   82.35</time>
   <time name="diis">  165.15  165.18</time>
   <time name="orth">    3.09    3.09</time>
   <time name="total">  284.81  290.25</time>
   <energy>
    <i name="e_fr_energy">    -36.92548621 </i>
    <i name="e_wo_entrp">    -36.92535566 </i>
    <i name="e_0_energy">    -36.92542093 </i>
   </energy>
  </scstep>
  <scstep>
   <time name="diag">   82.23   82.40</time>
   <time name="diis">  163.89  164.23</time>
   <time name="orth">    3.09    3.09</time>
   <time name="total">  283.56  284.07</time>
   <energy>
    <i name="e_fr_energy">    -36.92548621 </i>
    <i name="e_wo_entrp">    -36.92535566 </i>
    <i name="e_0_energy">    -36.92542093 </i>
   </energy>
  </scstep>
  <scstep>
   <time name="diag">   82.34   82.36</time>
   <time name="diis">  163.31  163.34</time>
   <time name="orth">    3.07    3.07</time>
   <time name="total">  283.02  283.08</time>
   <energy>
    <i name="e_fr_energy">    -36.92548621 </i>
    <i name="e_wo_entrp">    -36.92535566 </i>
    <i name="e_0_energy">    -36.92542093 </i>
   </energy>
  </scstep>
  <scstep>
   <time name="diag">   82.32   82.34</time>
   <time name="diis">  162.28  162.31</time>
   <time name="orth">    3.16    3.16</time>
   <time name="total">  282.06  282.12</time>
   <energy>
    <i name="e_fr_energy">    -36.92548621 </i>
    <i name="e_wo_entrp">    -36.92535566 </i>
    <i name="e_0_energy">    -36.92542093 </i>
   </energy>
  </scstep>
  <scstep>
   <time name="diag">   82.30   82.32</time>
   <time name="diis">  148.84  148.87</time>
   <time name="orth">    3.07    3.07</time>
   <time name="total">  236.65  236.86</time>
   <energy>
    <i name="alphaZ">      6.18334092 </i>
    <i name="ewald">   2585.69059567 </i>
    <i name="hartreedc">  -3079.63870893 </i>
    <i name="XCdc">     57.51942709 </i>
    <i name="pawpsdc">    277.01034923 </i>
    <i name="pawaedc">   -282.15889819 </i>
    <i name="eentropy">     -0.00013055 </i>
    <i name="bandstr">   -190.15498836 </i>
    <i name="atom">    588.62352690 </i>
    <i name="e_fr_energy">    -36.92548621 </i>
    <i name="e_wo_entrp">    -36.92535566 </i>
    <i name="e_0_energy">    -36.92542093 </i>
   </energy>
  </scstep>
  <structure>
   <crystal>
    <varray name="basis" >
     <v>       4.27304122       0.00000000       0.00000000 </v>
     <v>       0.00000000       2.46749785       0.00000000 </v>
     <v>       0.00000000       0.00000000      19.99653833 </v>
    </varray>
    <i name="volume">    210.83790140 </i>
    <varray name="rec_basis" >
     <v>       0.23402536       0.00000000       0.00000000 </v>
     <v>       0.00000000       0.40526884       0.00000000 </v>
     <v>       0.00000000       0.00000000       0.05000866 </v>
    </varray>
   </crystal>
   <varray name="positions" >
    <v>       1.00000481      -0.00000000      -0.00000000 </v>
    <v>       0.16666185       0.50000000       0.00000000 </v>
    <v>       0.50000481       0.50000000      -0.00000000 </v>
    <v>       0.66666185       0.00000000       0.00000000 </v>
   </varray>
  </structure>
  <varray name="forces" >
   <v>       0.00000002       0.00000000       0.00000000 </v>
   <v>      -0.00000002      -0.00000000      -0.00000000 </v>
   <v>       0.00000002      -0.00000000       0.00000000 </v>
   <v>      -0.00000002      -0.00000000      -0.00000000 </v>
  </varray>
  <varray name="stress" >
   <v>       0.09510369       0.00000000       0.00000000 </v>
   <v>       0.00000000      -0.17586758       0.00000000 </v>
   <v>       0.00000000       0.00000000      -0.01003685 </v>
  </varray>
  <energy>
   <i name="e_fr_energy">    -36.92548621 </i>
   <i name="e_wo_entrp">    -36.92542093 </i>
   <i name="e_0_energy">     -0.00013055 </i>
  </energy>
  <time name="totalsc"> 5319.07 5328.13</time>
  <eigenvalues>
   <array>
    <dimension dim="1">band</dimension>
    <dimension dim="2">kpoint</dimension>
    <dimension dim="3">spin</dimension>
    <field>eigene</field>
    <field>occ</field>
    <set>
     <set comment="spin 1">
      <set comment="kpoint 1">
       <r>  -22.2529    1.0000 </r>
       <r>  -17.0184    1.0000 </r>
       <r>  -15.9726    1.0000 </r>
       <r>  -10.3584    1.0000 </r>
       <r>   -9.1606    1.0000 </r>
       <r>   -5.7872    1.0000 </r>
       <r>   -5.7852    1.0000 </r>
       <r>   -5.1091    1.0000 </r>
       <r>   -1.0753    0.0000 </r>
       <r>    0.5240    0.0000 </r>
       <r>    1.3250    0.0000 </r>
       <r>    1.7080    0.0000 </r>
      </set>
      <set comment="kpoint 2">
       <r>  -22.2427    1.0000 </r>
       <r>  -17.1837    1.0000 </r>
       <r>  -15.7920    1.0000 </r>
       <r>  -10.3461    1.0000 </r>
       <r>   -9.1504    1.0000 </r>
       <r>   -5.8279    1.0000 </r>
       <r>   -5.8098    1.0000 </r>
       <r>   -5.1757    1.0000 </r>
       <r>   -0.9928    0.0000 </r>
       <r>    0.5379    0.0000 </r>
       <r>    1.3391    0.0000 </r>
       <r>    1.7223    0.0000 </r>
      </set>
      <set comment="kpoint 3">
       <r>  -22.2119    1.0000 </r>
       <r>  -17.5210    1.0000 </r>
       <r>  -15.4090    1.0000 </r>
       <r>  -10.3094    1.0000 </r>
       <r>   -9.1199    1.0000 </r>
       <r>   -5.9544    1.0000 </r>
       <r>   -5.8763    1.0000 </r>
       <r>   -5.3603    1.0000 </r>
       <r>   -0.7604    0.0000 </r>
       <r>    0.5796    0.0000 </r>
       <r>    1.3814    0.0000 </r>
       <r>    1.7650    0.0000 </r>
      </set>
      <set comment="kpoint 4">
       <r>  -22.1607    1.0000 </r>
       <r>  -17.8976    1.0000 </r>
       <r>  -14.9566    1.0000 </r>
       <r>  -10.2483    1.0000 </r>
       <r>   -9.0692    1.0000 </r>
       <r>   -6.1596    1.0000 </r>
       <r>   -5.9832    1.0000 </r>
       <r>   -5.6296    1.0000 </r>
       <r>   -0.4120    0.0000 </r>
       <r>    0.6491    0.0000 </r>
       <r>    1.4518    0.0000 </r>
       <r>    1.8363    0.0000 </r>
      </set>
      <set comment="kpoint 5">
       <r>  -22.0891    1.0000 </r>
       <r>  -18.2768    1.0000 </r>
       <r>  -14.4717    1.0000 </r>
       <r>  -10.1628    1.0000 </r>
       <r>   -8.9986    1.0000 </r>
       <r>   -6.4361    1.0000 </r>
       <r>   -6.1252    1.0000 </r>
       <r>   -5.9507    1.0000 </r>
       <r>    0.0185    0.0000 </r>
       <r>    0.7464    0.0000 </r>
       <r>    1.5503    0.0000 </r>
       <r>    1.9361    0.0000 </r>
      </set>
      <set comment="kpoint 6">
       <r>  -21.9970    1.0000 </r>
       <r>  -18.6472    1.0000 </r>
       <r>  -13.9665    1.0000 </r>
       <r>  -10.0532    1.0000 </r>
       <r>   -8.9085    1.0000 </r>
       <r>   -6.7750    1.0000 </r>
       <r>   -6.2989    1.0000 </r>
       <r>   -6.2960    1.0000 </r>
       <r>    0.5052    0.0000 </r>
       <r>    0.8716    0.0000 </r>
       <r>    1.6770    0.0000 </r>
       <r>    2.0644    0.0000 </r>
      </set>
      <set comment="kpoint 7">
       <r>  -21.8846    1.0000 </r>
       <r>  -19.0045    1.0000 </r>
       <r>  -13.4463    1.0000 </r>
       <r>   -9.9196    1.0000 </r>
       <r>   -8.7993    1.0000 </r>
       <r>   -7.1669    1.0000 </r>
       <r>   -6.6578    1.0000 </r>
       <r>   -6.4890    1.0000 </r>
       <r>    1.0246    0.0000 </r>
       <r>    1.0302    0.0000 </r>
       <r>    1.8317    0.0000 </r>
       <r>    2.2213    0.0000 </r>
      </set>
      <set comment="kpoint 8">
       <r>  -21.7520    1.0000 </r>
       <r>  -19.3462    1.0000 </r>
       <r>  -12.9144    1.0000 </r>
       <r>   -9.7622    1.0000 </r>
       <r>   -8.6718    1.0000 </r>
       <r>   -7.6027    1.0000 </r>
       <r>   -7.0168    1.0000 </r>
       <r>   -6.6978    1.0000 </r>
       <r>    1.2053    0.0000 </r>
       <r>    1.5806    0.0000 </r>
       <r>    2.0144    0.0000 </r>
       <r>    2.4066    0.0000 </r>
      </set>
      <set comment="kpoint 9">
       <r>  -21.5992    1.0000 </r>
       <r>  -19.6711    1.0000 </r>
       <r>  -12.3735    1.0000 </r>
       <r>   -9.5814    1.0000 </r>
       <r>   -8.5267    1.0000 </r>
       <r>   -8.0738    1.0000 </r>
       <r>   -7.3689    1.0000 </r>
       <r>   -6.9164    1.0000 </r>
       <r>    1.4138    0.0000 </r>
       <r>    2.1464    0.0000 </r>
       <r>    2.2249    0.0000 </r>
       <r>    2.6205    0.0000 </r>
      </set>
      <set comment="kpoint 10">
       <r>  -21.4264    1.0000 </r>
       <r>  -19.9784    1.0000 </r>
       <r>  -11.8260    1.0000 </r>
       <r>   -9.3776    1.0000 </r>
       <r>   -8.5725    1.0000 </r>
       <r>   -8.3651    1.0000 </r>
       <r>   -7.7094    1.0000 </r>
       <r>   -7.1396    1.0000 </r>
       <r>    1.6500    0.0000 </r>
       <r>    2.4630    0.0000 </r>
       <r>    2.7185    0.0000 </r>
       <r>    2.8629    0.0000 </r>
      </set>
      <set comment="kpoint 11">
       <r>  -21.2336    1.0000 </r>
       <r>  -20.2675    1.0000 </r>
       <r>  -11.2745    1.0000 </r>
       <r>   -9.1512    1.0000 </r>
       <r>   -9.0921    1.0000 </r>
       <r>   -8.1881    1.0000 </r>
       <r>   -8.0352    1.0000 </r>
       <r>   -7.3629    1.0000 </r>
       <r>    1.9139    0.0000 </r>
       <r>    2.7284    0.0000 </r>
       <r>    3.1338    0.0000 </r>
       <r>    3.2426    0.0000 </r>
      </set>
      <set comment="kpoint 12">
       <r>  -21.0211    1.0000 </r>
       <r>  -20.5378    1.0000 </r>
       <r>  -10.7220    1.0000 </r>
       <r>   -9.6267    1.0000 </r>
       <r>   -8.9029    1.0000 </r>
       <r>   -8.3437    1.0000 </r>
       <r>   -7.9974    1.0000 </r>
       <r>   -7.5823    1.0000 </r>
       <r>    2.2052    0.0000 </r>
       <r>    2.8699    0.0000 </r>
       <r>    3.0197    0.0000 </r>
       <r>    3.4330    0.0000 </r>
      </set>
      <set comment="kpoint 13">
       <r>  -20.7891    1.0000 </r>
       <r>  -20.7891    1.0000 </r>
       <r>  -10.1715    1.0000 </r>
       <r>  -10.1715    1.0000 </r>
       <r>   -8.6334    1.0000 </r>
       <r>   -8.6334    1.0000 </r>
       <r>   -7.7947    1.0000 </r>
       <r>   -7.7947    1.0000 </r>
       <r>    2.5239    0.0000 </r>
       <r>    2.5239    0.0000 </r>
       <r>    3.3325    0.0000 </r>
       <r>    3.3325    0.0000 </r>
      </set>
      <set comment="kpoint 14">
       <r>  -22.2393    1.0000 </r>
       <r>  -17.0067    1.0000 </r>
       <r>  -15.9610    1.0000 </r>
       <r>  -10.3421    1.0000 </r>
       <r>   -9.2222    1.0000 </r>
       <r>   -5.8440    1.0000 </r>
       <r>   -5.8154    1.0000 </r>
       <r>   -5.0925    1.0000 </r>
       <r>   -1.0792    0.0000 </r>
       <r>    0.5425    0.0000 </r>
       <r>    1.3438    0.0000 </r>
       <r>    1.7270    0.0000 </r>
      </set>
      <set comment="kpoint 15">
       <r>  -22.2290    1.0000 </r>
       <r>  -17.1718    1.0000 </r>
       <r>  -15.7807    1.0000 </r>
       <r>  -10.3298    1.0000 </r>
       <r>   -9.2120    1.0000 </r>
       <r>   -5.8856    1.0000 </r>
       <r>   -5.8384    1.0000 </r>
       <r>   -5.1592    1.0000 </r>
       <r>   -0.9967    0.0000 </r>
       <r>    0.5564    0.0000 </r>
       <r>    1.3579    0.0000 </r>
       <r>    1.7413    0.0000 </r>
      </set>
      <set comment="kpoint 16">
       <r>  -22.1983    1.0000 </r>
       <r>  -17.5088    1.0000 </r>
       <r>  -15.3981    1.0000 </r>
       <r>  -10.2931    1.0000 </r>
       <r>   -9.1814    1.0000 </r>
       <r>   -6.0084    1.0000 </r>
       <r>   -5.9066    1.0000 </r>
       <r>   -5.3441    1.0000 </r>
       <r>   -0.7643    0.0000 </r>
       <r>    0.5981    0.0000 </r>
       <r>    1.4001    0.0000 </r>
       <r>    1.7840    0.0000 </r>
      </set>
      <set comment="kpoint 17">
       <r>  -22.1471    1.0000 </r>
       <r>  -17.8852    1.0000 </r>
       <r>  -14.9461    1.0000 </r>
       <r>  -10.2320    1.0000 </r>
       <r>   -9.1306    1.0000 </r>
       <r>   -6.2082    1.0000 </r>
       <r>   -6.0162    1.0000 </r>
       <r>   -5.6138    1.0000 </r>
       <r>   -0.4162    0.0000 </r>
       <r>    0.6676    0.0000 </r>
       <r>    1.4705    0.0000 </r>
       <r>    1.8553    0.0000 </r>
      </set>
      <set comment="kpoint 18">
       <r>  -22.0754    1.0000 </r>
       <r>  -18.2642    1.0000 </r>
       <r>  -14.4619    1.0000 </r>
       <r>  -10.1466    1.0000 </r>
       <r>   -9.0599    1.0000 </r>
       <r>   -6.4781    1.0000 </r>
       <r>   -6.1614    1.0000 </r>
       <r>   -5.9352    1.0000 </r>
       <r>    0.0137    0.0000 </r>
       <r>    0.7650    0.0000 </r>
       <r>    1.5691    0.0000 </r>
       <r>    1.9551    0.0000 </r>
      </set>
      <set comment="kpoint 19">
       <r>  -21.9834    1.0000 </r>
       <r>  -18.6345    1.0000 </r>
       <r>  -13.9573    1.0000 </r>
       <r>  -10.0370    1.0000 </r>
       <r>   -8.9696    1.0000 </r>
       <r>   -6.8100    1.0000 </r>
       <r>   -6.3357    1.0000 </r>
       <r>   -6.2835    1.0000 </r>
       <r>    0.4995    0.0000 </r>
       <r>    0.8902    0.0000 </r>
       <r>    1.6957    0.0000 </r>
       <r>    2.0834    0.0000 </r>
      </set>
      <set comment="kpoint 20">
       <r>  -21.8710    1.0000 </r>
       <r>  -18.9916    1.0000 </r>
       <r>  -13.4379    1.0000 </r>
       <r>   -9.9034    1.0000 </r>
       <r>   -8.8602    1.0000 </r>
       <r>   -7.1952    1.0000 </r>
       <r>   -6.6424    1.0000 </r>
       <r>   -6.5322    1.0000 </r>
       <r>    1.0232    0.0000 </r>
       <r>    1.0431    0.0000 </r>
       <r>    1.8504    0.0000 </r>
       <r>    2.2403    0.0000 </r>
      </set>
      <set comment="kpoint 21">
       <r>  -21.7384    1.0000 </r>
       <r>  -19.3332    1.0000 </r>
       <r>  -12.9070    1.0000 </r>
       <r>   -9.7461    1.0000 </r>
       <r>   -8.7323    1.0000 </r>
       <r>   -7.6247    1.0000 </r>
       <r>   -7.0014    1.0000 </r>
       <r>   -6.7441    1.0000 </r>
       <r>    1.2239    0.0000 </r>
       <r>    1.5720    0.0000 </r>
       <r>    2.0331    0.0000 </r>
       <r>    2.4256    0.0000 </r>
      </set>
      <set comment="kpoint 22">
       <r>  -21.5856    1.0000 </r>
       <r>  -19.6580    1.0000 </r>
       <r>  -12.3672    1.0000 </r>
       <r>   -9.5654    1.0000 </r>
       <r>   -8.5867    1.0000 </r>
       <r>   -8.0902    1.0000 </r>
       <r>   -7.3535    1.0000 </r>
       <r>   -6.9656    1.0000 </r>
       <r>    1.4324    0.0000 </r>
       <r>    2.1362    0.0000 </r>
       <r>    2.2436    0.0000 </r>
       <r>    2.6395    0.0000 </r>
      </set>
      <set comment="kpoint 23">
       <r>  -21.4128    1.0000 </r>
       <r>  -19.9652    1.0000 </r>
       <r>  -11.8211    1.0000 </r>
[...]
       <r>   -9.2028    1.0000 </r>
       <r>   -5.5957    1.0000 </r>
       <r>   -5.5957    1.0000 </r>
       <r>   -0.4224    0.0000 </r>
       <r>   -0.4224    0.0000 </r>
       <r>    4.8405    0.0000 </r>
       <r>    4.8405    0.0000 </r>
      </set>
      <set comment="kpoint 209">
       <r>  -18.8397    1.0000 </r>
       <r>  -17.0492    1.0000 </r>
       <r>  -14.0476    1.0000 </r>
       <r>  -12.4202    1.0000 </r>
       <r>  -12.4183    1.0000 </r>
       <r>  -10.8854    1.0000 </r>
       <r>   -6.4201    1.0000 </r>
       <r>   -4.5294    1.0000 </r>
       <r>   -0.9839    0.0000 </r>
       <r>    1.1833    0.0000 </r>
       <r>    5.2476    0.0000 </r>
       <r>    6.0362    0.0000 </r>
      </set>
      <set comment="kpoint 210">
       <r>  -18.8300    1.0000 </r>
       <r>  -17.0414    1.0000 </r>
       <r>  -14.1341    1.0000 </r>
       <r>  -12.4997    1.0000 </r>
       <r>  -12.3241    1.0000 </r>
       <r>  -10.8082    1.0000 </r>
       <r>   -6.4112    1.0000 </r>
       <r>   -4.5323    1.0000 </r>
       <r>   -0.9935    0.0000 </r>
       <r>    1.1577    0.0000 </r>
       <r>    5.2612    0.0000 </r>
       <r>    6.0523    0.0000 </r>
      </set>
      <set comment="kpoint 211">
       <r>  -18.8009    1.0000 </r>
       <r>  -17.0184    1.0000 </r>
       <r>  -14.3488    1.0000 </r>
       <r>  -12.7012    1.0000 </r>
       <r>  -12.0862    1.0000 </r>
       <r>  -10.6143    1.0000 </r>
       <r>   -6.3848    1.0000 </r>
       <r>   -4.5416    1.0000 </r>
       <r>   -1.0207    0.0000 </r>
       <r>    1.0828    0.0000 </r>
       <r>    5.3019    0.0000 </r>
       <r>    6.1001    0.0000 </r>
      </set>
      <set comment="kpoint 212">
       <r>  -18.7524    1.0000 </r>
       <r>  -16.9814    1.0000 </r>
       <r>  -14.6232    1.0000 </r>
       <r>  -12.9659    1.0000 </r>
       <r>  -11.7735    1.0000 </r>
       <r>  -10.3644    1.0000 </r>
       <r>   -6.3412    1.0000 </r>
       <r>   -4.5587    1.0000 </r>
       <r>   -1.0603    0.0000 </r>
       <r>    0.9639    0.0000 </r>
       <r>    5.3694    0.0000 </r>
       <r>    6.1785    0.0000 </r>
      </set>
      <set comment="kpoint 213">
       <r>  -18.6848    1.0000 </r>
       <r>  -16.9329    1.0000 </r>
       <r>  -14.9152    1.0000 </r>
       <r>  -13.2577    1.0000 </r>
       <r>  -11.4275    1.0000 </r>
       <r>  -10.0980    1.0000 </r>
       <r>   -6.2808    1.0000 </r>
       <r>   -4.5860    1.0000 </r>
       <r>   -1.1046    0.0000 </r>
       <r>    0.8087    0.0000 </r>
       <r>    5.4625    0.0000 </r>
       <r>    6.2863    0.0000 </r>
      </set>
      <set comment="kpoint 214">
       <r>  -18.5981    1.0000 </r>
       <r>  -16.8782    1.0000 </r>
       <r>  -15.2011    1.0000 </r>
       <r>  -13.5583    1.0000 </r>
       <r>  -11.0702    1.0000 </r>
       <r>   -9.8380    1.0000 </r>
       <r>   -6.2043    1.0000 </r>
       <r>   -4.6262    1.0000 </r>
       <r>   -1.1446    0.0000 </r>
       <r>    0.6259    0.0000 </r>
       <r>    5.5760    0.0000 </r>
       <r>    6.1716    0.0000 </r>
      </set>
      <set comment="kpoint 215">
       <r>  -18.4928    1.0000 </r>
       <r>  -16.8276    1.0000 </r>
       <r>  -15.4610    1.0000 </r>
       <r>  -13.8580    1.0000 </r>
       <r>  -10.7155    1.0000 </r>
       <r>   -9.5999    1.0000 </r>
       <r>   -6.1129    1.0000 </r>
       <r>   -4.6818    1.0000 </r>
       <r>   -1.1713    0.0000 </r>
       <r>    0.4243    0.0000 </r>
       <r>    5.6172    0.0000 </r>
       <r>    5.8376    0.0000 </r>
      </set>
      <set comment="kpoint 216">
       <r>  -18.3692    1.0000 </r>
       <r>  -16.8020    1.0000 </r>
       <r>  -15.6692    1.0000 </r>
       <r>  -14.1511    1.0000 </r>
       <r>  -10.3736    1.0000 </r>
       <r>   -9.3956    1.0000 </r>
       <r>   -6.0076    1.0000 </r>
       <r>   -4.7548    1.0000 </r>
       <r>   -1.1768    0.0000 </r>
       <r>    0.2125    0.0000 </r>
       <r>    5.3092    0.0000 </r>
       <r>    5.9454    0.0000 </r>
      </set>
      <set comment="kpoint 217">
       <r>  -18.2279    1.0000 </r>
       <r>  -16.8336    1.0000 </r>
       <r>  -15.7904    1.0000 </r>
       <r>  -14.4335    1.0000 </r>
       <r>  -10.0541    1.0000 </r>
       <r>   -9.2356    1.0000 </r>
       <r>   -5.8902    1.0000 </r>
       <r>   -4.8455    1.0000 </r>
       <r>   -1.1553    0.0000 </r>
       <r>   -0.0022    0.0000 </r>
       <r>    5.0150    0.0000 </r>
       <r>    5.8445    0.0000 </r>
      </set>
      <set comment="kpoint 218">
       <r>  -18.0698    1.0000 </r>
       <r>  -16.9428    1.0000 </r>
       <r>  -15.8023    1.0000 </r>
       <r>  -14.7024    1.0000 </r>
       <r>   -9.7661    1.0000 </r>
       <r>   -9.1286    1.0000 </r>
       <r>   -5.7627    1.0000 </r>
       <r>   -4.9530    1.0000 </r>
       <r>   -1.1033    0.0000 </r>
       <r>   -0.2129    0.0000 </r>
       <r>    4.8001    0.0000 </r>
       <r>    5.4473    0.0000 </r>
      </set>
      <set comment="kpoint 219">
       <r>  -17.8960    1.0000 </r>
       <r>  -17.1115    1.0000 </r>
       <r>  -15.7219    1.0000 </r>
       <r>  -14.9550    1.0000 </r>
       <r>   -9.5186    1.0000 </r>
       <r>   -9.0813    1.0000 </r>
       <r>   -5.6274    1.0000 </r>
       <r>   -5.0747    1.0000 </r>
       <r>   -1.0200    0.0000 </r>
       <r>   -0.4137    0.0000 </r>
       <r>    4.6756    0.0000 </r>
       <r>    5.1201    0.0000 </r>
      </set>
      <set comment="kpoint 220">
       <r>  -17.7085    1.0000 </r>
       <r>  -17.3079    1.0000 </r>
       <r>  -15.5805    1.0000 </r>
       <r>  -15.1885    1.0000 </r>
       <r>   -9.3202    1.0000 </r>
       <r>   -9.0976    1.0000 </r>
       <r>   -5.4874    1.0000 </r>
       <r>   -5.2070    1.0000 </r>
       <r>   -0.9063    0.0000 </r>
       <r>   -0.5993    0.0000 </r>
       <r>    4.6461    0.0000 </r>
       <r>    4.8726    0.0000 </r>
      </set>
      <set comment="kpoint 221">
       <r>  -17.5106    1.0000 </r>
       <r>  -17.5106    1.0000 </r>
       <r>  -15.3990    1.0000 </r>
       <r>  -15.3990    1.0000 </r>
       <r>   -9.1780    1.0000 </r>
       <r>   -9.1780    1.0000 </r>
       <r>   -5.3459    1.0000 </r>
       <r>   -5.3459    1.0000 </r>
       <r>   -0.7649    0.0000 </r>
       <r>   -0.7649    0.0000 </r>
       <r>    4.7127    0.0000 </r>
       <r>    4.7127    0.0000 </r>
      </set>
      <set comment="kpoint 222">
       <r>  -18.4171    1.0000 </r>
       <r>  -17.5182    1.0000 </r>
       <r>  -13.6709    1.0000 </r>
       <r>  -12.8564    1.0000 </r>
       <r>  -12.0678    1.0000 </r>
       <r>  -11.2967    1.0000 </r>
       <r>   -5.9597    1.0000 </r>
       <r>   -5.0090    1.0000 </r>
       <r>   -0.4754    0.0000 </r>
       <r>    0.6102    0.0000 </r>
       <r>    5.8476    0.0000 </r>
       <r>    6.5994    0.0000 </r>
      </set>
      <set comment="kpoint 223">
       <r>  -18.4076    1.0000 </r>
       <r>  -17.5094    1.0000 </r>
       <r>  -13.7573    1.0000 </r>
       <r>  -12.9388    1.0000 </r>
       <r>  -11.9764    1.0000 </r>
       <r>  -11.2141    1.0000 </r>
       <r>   -5.9522    1.0000 </r>
       <r>   -5.0066    1.0000 </r>
       <r>   -0.4918    0.0000 </r>
       <r>    0.5867    0.0000 </r>
       <r>    5.8611    0.0000 </r>
       <r>    6.6163    0.0000 </r>
      </set>
      <set comment="kpoint 224">
       <r>  -18.3789    1.0000 </r>
       <r>  -17.4831    1.0000 </r>
       <r>  -13.9726    1.0000 </r>
       <r>  -13.1462    1.0000 </r>
       <r>  -11.7463    1.0000 </r>
       <r>  -11.0064    1.0000 </r>
       <r>   -5.9298    1.0000 </r>
       <r>   -4.9999    1.0000 </r>
       <r>   -0.5390    0.0000 </r>
       <r>    0.5180    0.0000 </r>
       <r>    5.9017    0.0000 </r>
       <r>    6.6666    0.0000 </r>
      </set>
      <set comment="kpoint 225">
       <r>  -18.3313    1.0000 </r>
       <r>  -17.4398    1.0000 </r>
       <r>  -14.2500    1.0000 </r>
       <r>  -13.4168    1.0000 </r>
       <r>  -11.4454    1.0000 </r>
       <r>  -10.7373    1.0000 </r>
       <r>   -5.8930    1.0000 </r>
       <r>   -4.9898    1.0000 </r>
       <r>   -0.6118    0.0000 </r>
       <r>    0.4093    0.0000 </r>
       <r>    5.9686    0.0000 </r>
       <r>    6.7488    0.0000 </r>
      </set>
      <set comment="kpoint 226">
       <r>  -18.2650    1.0000 </r>
       <r>  -17.3803    1.0000 </r>
       <r>  -14.5498    1.0000 </r>
       <r>  -13.7135    1.0000 </r>
       <r>  -11.1151    1.0000 </r>
       <r>  -10.4470    1.0000 </r>
       <r>   -5.8426    1.0000 </r>
       <r>   -4.9783    1.0000 </r>
       <r>   -0.7026    0.0000 </r>
       <r>    0.2682    0.0000 </r>
       <r>    6.0599    0.0000 </r>
       <r>    6.8610    0.0000 </r>
      </set>
      <set comment="kpoint 227">
       <r>  -18.1803    1.0000 </r>
       <r>  -17.3063    1.0000 </r>
       <r>  -14.8520    1.0000 </r>
       <r>  -14.0175    1.0000 </r>
       <r>  -10.7776    1.0000 </r>
       <r>  -10.1582    1.0000 </r>
       <r>   -5.7796    1.0000 </r>
       <r>   -4.9680    1.0000 </r>
       <r>   -0.8017    0.0000 </r>
       <r>    0.1036    0.0000 </r>
       <r>    6.1547    0.0000 </r>
       <r>    6.4531    0.0000 </r>
      </set>
      <set comment="kpoint 228">
       <r>  -18.0776    1.0000 </r>
       <r>  -17.2205    1.0000 </r>
       <r>  -15.1443    1.0000 </r>
       <r>  -14.3191    1.0000 </r>
       <r>  -10.4469    1.0000 </r>
       <r>   -9.8859    1.0000 </r>
       <r>   -5.7056    1.0000 </r>
       <r>   -4.9619    1.0000 </r>
       <r>   -0.8992    0.0000 </r>
       <r>   -0.0753    0.0000 </r>
       <r>    5.9099    0.0000 </r>
       <r>    6.3710    0.0000 </r>
      </set>
      <set comment="kpoint 229">
       <r>  -17.9578    1.0000 </r>
       <r>  -17.1284    1.0000 </r>
       <r>  -15.4165    1.0000 </r>
       <r>  -14.6122    1.0000 </r>
       <r>  -10.1340    1.0000 </r>
       <r>   -9.6419    1.0000 </r>
       <r>   -5.6225    1.0000 </r>
       <r>   -4.9635    1.0000 </r>
       <r>   -0.9852    0.0000 </r>
       <r>   -0.2596    0.0000 </r>
       <r>    5.5051    0.0000 </r>
       <r>    6.0019    0.0000 </r>
      </set>
      <set comment="kpoint 230">
       <r>  -17.8220    1.0000 </r>
       <r>  -17.0406    1.0000 </r>
       <r>  -15.6547    1.0000 </r>
       <r>  -14.8925    1.0000 </r>
       <r>   -9.8489    1.0000 </r>
       <r>   -9.4366    1.0000 </r>
       <r>   -5.5329    1.0000 </r>
       <r>   -4.9762    1.0000 </r>
       <r>   -1.0505    0.0000 </r>
       <r>   -0.4410    0.0000 </r>
       <r>    5.1602    0.0000 </r>
       <r>    5.5770    0.0000 </r>
      </set>
      <set comment="kpoint 231">
       <r>  -17.6719    1.0000 </r>
       <r>  -16.9783    1.0000 </r>
       <r>  -15.8359    1.0000 </r>
       <r>  -15.1562    1.0000 </r>
       <r>   -9.6008    1.0000 </r>
       <r>   -9.2794    1.0000 </r>
       <r>   -5.4396    1.0000 </r>
       <r>   -5.0027    1.0000 </r>
       <r>   -1.0879    0.0000 </r>
       <r>   -0.6117    0.0000 </r>
       <r>    4.8930    0.0000 </r>
       <r>    5.2185    0.0000 </r>
      </set>
      <set comment="kpoint 232">
       <r>  -17.5107    1.0000 </r>
       <r>  -16.9742    1.0000 </r>
       <r>  -15.9263    1.0000 </r>
       <r>  -15.3988    1.0000 </r>
       <r>   -9.3987    1.0000 </r>
       <r>   -9.1781    1.0000 </r>
       <r>   -5.3460    1.0000 </r>
       <r>   -5.0447    1.0000 </r>
       <r>   -1.0923    0.0000 </r>
       <r>   -0.7648    0.0000 </r>
       <r>    4.7127    0.0000 </r>
       <r>    4.9366    0.0000 </r>
      </set>
      <set comment="kpoint 233">
       <r>  -17.3441    1.0000 </r>
       <r>  -17.0488    1.0000 </r>
       <r>  -15.9046    1.0000 </r>
       <r>  -15.6138    1.0000 </r>
       <r>   -9.2505    1.0000 </r>
       <r>   -9.1382    1.0000 </r>
       <r>   -5.2560    1.0000 </r>
       <r>   -5.1021    1.0000 </r>
       <r>   -1.0610    0.0000 </r>
       <r>   -0.8941    0.0000 </r>
       <r>    4.6257    0.0000 </r>
       <r>    4.7398    0.0000 </r>
      </set>
      <set comment="kpoint 234">
       <r>  -17.1830    1.0000 </r>
       <r>  -17.1830    1.0000 </r>
       <r>  -15.7896    1.0000 </r>
       <r>  -15.7896    1.0000 </r>
       <r>   -9.1625    1.0000 </r>
       <r>   -9.1625    1.0000 </r>
       <r>   -5.1735    1.0000 </r>
       <r>   -5.1735    1.0000 </r>
       <r>   -0.9942    0.0000 </r>
       <r>   -0.9942    0.0000 </r>
       <r>    4.6349    0.0000 </r>
       <r>    4.6349    0.0000 </r>
      </set>
      <set comment="kpoint 235">
       <r>  -17.9756    1.0000 </r>
       <r>  -17.9756    1.0000 </r>
       <r>  -13.2736    1.0000 </r>
       <r>  -13.2736    1.0000 </r>
       <r>  -11.6922    1.0000 </r>
       <r>  -11.6922    1.0000 </r>
       <r>   -5.4878    1.0000 </r>
       <r>   -5.4878    1.0000 </r>
       <r>    0.0566    0.0000 </r>
       <r>    0.0566    0.0000 </r>
       <r>    6.4791    0.0000 </r>
       <r>    6.4791    0.0000 </r>
      </set>
      <set comment="kpoint 236">
       <r>  -17.9663    1.0000 </r>
       <r>  -17.9663    1.0000 </r>
       <r>  -13.3584    1.0000 </r>
       <r>  -13.3584    1.0000 </r>
       <r>  -11.6048    1.0000 </r>
       <r>  -11.6048    1.0000 </r>
       <r>   -5.4822    1.0000 </r>
       <r>   -5.4822    1.0000 </r>
       <r>    0.0360    0.0000 </r>
       <r>    0.0360    0.0000 </r>
       <r>    6.4926    0.0000 </r>
       <r>    6.4926    0.0000 </r>
      </set>
      <set comment="kpoint 237">
       <r>  -17.9385    1.0000 </r>
       <r>  -17.9385    1.0000 </r>
       <r>  -13.5706    1.0000 </r>
       <r>  -13.5706    1.0000 </r>
       <r>  -11.3849    1.0000 </r>
       <r>  -11.3849    1.0000 </r>
       <r>   -5.4659    1.0000 </r>
       <r>   -5.4659    1.0000 </r>
       <r>   -0.0241    0.0000 </r>
       <r>   -0.0241    0.0000 </r>
       <r>    6.5328    0.0000 </r>
       <r>    6.5328    0.0000 </r>
      </set>
      <set comment="kpoint 238">
       <r>  -17.8924    1.0000 </r>
       <r>  -17.8924    1.0000 </r>
       <r>  -13.8459    1.0000 </r>
       <r>  -13.8459    1.0000 </r>
       <r>  -11.0987    1.0000 </r>
       <r>  -11.0987    1.0000 </r>
       <r>   -5.4394    1.0000 </r>
       <r>   -5.4394    1.0000 </r>
       <r>   -0.1183    0.0000 </r>
       <r>   -0.1183    0.0000 </r>
       <r>    6.5990    0.0000 </r>
       <r>    6.5990    0.0000 </r>
      </set>
      <set comment="kpoint 239">
       <r>  -17.8284    1.0000 </r>
       <r>  -17.8284    1.0000 </r>
       <r>  -14.1457    1.0000 </r>
       <r>  -14.1457    1.0000 </r>
       <r>  -10.7871    1.0000 </r>
       <r>  -10.7871    1.0000 </r>
       <r>   -5.4041    1.0000 </r>
       <r>   -5.4041    1.0000 </r>
       <r>   -0.2392    0.0000 </r>
       <r>   -0.2392    0.0000 </r>
       <r>    6.6860    0.0000 </r>
       <r>    6.6860    0.0000 </r>
      </set>
      <set comment="kpoint 240">
       <r>  -17.7470    1.0000 </r>
       <r>  -17.7470    1.0000 </r>
       <r>  -14.4511    1.0000 </r>
       <r>  -14.4511    1.0000 </r>
       <r>  -10.4724    1.0000 </r>
       <r>  -10.4724    1.0000 </r>
       <r>   -5.3616    1.0000 </r>
       <r>   -5.3616    1.0000 </r>
       <r>   -0.3775    0.0000 </r>
       <r>   -0.3775    0.0000 </r>
       <r>    6.6481    0.0000 </r>
       <r>    6.6481    0.0000 </r>
      </set>
      <set comment="kpoint 241">
       <r>  -17.6495    1.0000 </r>
       <r>  -17.6495    1.0000 </r>
       <r>  -14.7517    1.0000 </r>
       <r>  -14.7517    1.0000 </r>
       <r>  -10.1693    1.0000 </r>
       <r>  -10.1693    1.0000 </r>
       <r>   -5.3144    1.0000 </r>
       <r>   -5.3144    1.0000 </r>
       <r>   -0.5236    0.0000 </r>
       <r>   -0.5236    0.0000 </r>
       <r>    6.1837    0.0000 </r>
       <r>    6.1837    0.0000 </r>
      </set>
      <set comment="kpoint 242">
       <r>  -17.5374    1.0000 </r>
       <r>  -17.5374    1.0000 </r>
       <r>  -15.0407    1.0000 </r>
       <r>  -15.0407    1.0000 </r>
       <r>   -9.8891    1.0000 </r>
       <r>   -9.8891    1.0000 </r>
       <r>   -5.2651    1.0000 </r>
       <r>   -5.2651    1.0000 </r>
       <r>   -0.6679    0.0000 </r>
       <r>   -0.6679    0.0000 </r>
       <r>    5.7358    0.0000 </r>
       <r>    5.7358    0.0000 </r>
      </set>
      <set comment="kpoint 243">
       <r>  -17.4138    1.0000 </r>
       <r>  -17.4138    1.0000 </r>
       <r>  -15.3119    1.0000 </r>
       <r>  -15.3119    1.0000 </r>
       <r>   -9.6420    1.0000 </r>
       <r>   -9.6420    1.0000 </r>
       <r>   -5.2173    1.0000 </r>
       <r>   -5.2173    1.0000 </r>
       <r>   -0.8011    0.0000 </r>
       <r>   -0.8011    0.0000 </r>
       <r>    5.3481    0.0000 </r>
       <r>    5.3481    0.0000 </r>
      </set>
      <set comment="kpoint 244">
       <r>  -17.2841    1.0000 </r>
       <r>  -17.2841    1.0000 </r>
       <r>  -15.5580    1.0000 </r>
       <r>  -15.5580    1.0000 </r>
       <r>   -9.4376    1.0000 </r>
       <r>   -9.4376    1.0000 </r>
       <r>   -5.1745    1.0000 </r>
       <r>   -5.1745    1.0000 </r>
       <r>   -0.9150    0.0000 </r>
       <r>   -0.9150    0.0000 </r>
       <r>    5.0330    0.0000 </r>
       <r>    5.0330    0.0000 </r>
      </set>
      <set comment="kpoint 245">
       <r>  -17.1593    1.0000 </r>
       <r>  -17.1593    1.0000 </r>
       <r>  -15.7667    1.0000 </r>
       <r>  -15.7667    1.0000 </r>
       <r>   -9.2844    1.0000 </r>
       <r>   -9.2844    1.0000 </r>
       <r>   -5.1406    1.0000 </r>
       <r>   -5.1406    1.0000 </r>
       <r>   -1.0022    0.0000 </r>
       <r>   -1.0022    0.0000 </r>
       <r>    4.8001    0.0000 </r>
       <r>    4.8001    0.0000 </r>
      </set>
      <set comment="kpoint 246">
       <r>  -17.0606    1.0000 </r>
       <r>  -17.0606    1.0000 </r>
       <r>  -15.9161    1.0000 </r>
       <r>  -15.9161    1.0000 </r>
       <r>   -9.1894    1.0000 </r>
       <r>   -9.1894    1.0000 </r>
       <r>   -5.1187    1.0000 </r>
       <r>   -5.1187    1.0000 </r>
       <r>   -1.0570    0.0000 </r>
       <r>   -1.0570    0.0000 </r>
       <r>    4.6571    0.0000 </r>
       <r>    4.6571    0.0000 </r>
      </set>
      <set comment="kpoint 247">
       <r>  -17.0211    1.0000 </r>
       <r>  -17.0211    1.0000 </r>
       <r>  -15.9725    1.0000 </r>
       <r>  -15.9725    1.0000 </r>
       <r>   -9.1572    1.0000 </r>
       <r>   -9.1572    1.0000 </r>
       <r>   -5.1112    1.0000 </r>
       <r>   -5.1112    1.0000 </r>
       <r>   -1.0757    0.0000 </r>
       <r>   -1.0757    0.0000 </r>
       <r>    4.6088    0.0000 </r>
       <r>    4.6088    0.0000 </r>
      </set>
     </set>
    </set>
   </array>
  </eigenvalues>
  <separator name="orbital magnetization" >
   <v name="MAGDIPOLOUT">      0.00000000      0.00000000      0.00000000</v>
  </separator>
 </calculation>
 <structure name="finalpos" >
  <crystal>
   <varray name="basis" >
    <v>       4.27304122       0.00000000       0.00000000 </v>
    <v>       0.00000000       2.46749785       0.00000000 </v>
    <v>       0.00000000       0.00000000      19.99653833 </v>
   </varray>
   <i name="volume">    210.83790140 </i>
   <varray name="rec_basis" >
    <v>       0.23402536       0.00000000       0.00000000 </v>
    <v>       0.00000000       0.40526884       0.00000000 </v>
    <v>       0.00000000       0.00000000       0.05000866 </v>
   </varray>
  </crystal>
  <varray name="positions" >
   <v>       1.00000481      -0.00000000      -0.00000000 </v>
   <v>       0.16666185       0.50000000       0.00000000 </v>
   <v>       0.50000481       0.50000000      -0.00000000 </v>
   <v>       0.66666185       0.00000000       0.00000000 </v>
  </varray>
 </structure>
</modeling>
