gr                                      
           1
     4.273041    0.000000    0.000000
     0.000000    2.467498    0.000000
     0.000000    0.000000   19.996538
   C 
   4
Direct configuration=     1
   0.99987391  0.00000000  0.00000000
   0.16679275  0.50000000  0.00000000
   0.49987391  0.50000000  0.00000000
   0.66679275  0.00000000  0.00000000
Direct configuration=     2
   1.00052966  0.00000000  0.00000000
   0.16613701  0.50000000  0.00000000
   0.50052966  0.50000000  0.00000000
   0.66613701 -0.00000000  0.00000000
Direct configuration=     3
   1.00000509  0.00000000  0.00000000
   0.16666157  0.50000000  0.00000000
   0.50000509  0.50000000  0.00000000
   0.66666157 -0.00000000  0.00000000
Direct configuration=     4
   1.00000481 -0.00000000 -0.00000000
   0.16666185  0.50000000  0.00000000
   0.50000481  0.50000000 -0.00000000
   0.66666185  0.00000000  0.00000000
