    4    4  400    1
  0.5270948E+02  0.4273255E-09  0.2467473E-09  0.1999574E-08  0.5000000E-15
  1.000000000000000E-004
  CAR 
 gr                                      
     16    247     12
 
  0.0000000E+00  0.0000000E+00  0.0000000E+00  0.1157407E-02
    1      -22.252605
    2      -17.018939
    3      -15.972305
    4      -10.358132
    5       -9.159884
    6       -5.787059
    7       -5.785637
    8       -5.109621
    9       -1.075524
   10        0.523996
   11        1.325061
   12        1.708077
 
  0.4166667E-01  0.0000000E+00  0.0000000E+00  0.2314815E-02
    1      -22.242356
    2      -17.184088
    3      -15.791893
    4      -10.345887
    5       -9.149696
    6       -5.828379
    7       -5.809640
    8       -5.176139
    9       -0.993026
   10        0.537898
   11        1.339146
   12        1.722332
 
  0.8333333E-01  0.0000000E+00  0.0000000E+00  0.2314815E-02
    1      -22.211613
    2      -17.521246
    3      -15.409032
    4      -10.309173
    5       -9.119183
    6       -5.954846
    7       -5.876135
    8       -5.360712
    9       -0.760689
   10        0.579607
   11        1.381398
   12        1.765099
 
  0.1250000E+00  0.0000000E+00  0.0000000E+00  0.2314815E-02
    1      -22.160396
    2      -17.897729
    3      -14.956662
    4      -10.248045
    5       -9.068500
    6       -6.160054
    7       -5.983003
    8       -5.630011
    9       -0.412355
   10        0.649127
   11        1.451805
   12        1.836378
 
  0.1666667E+00  0.0000000E+00  0.0000000E+00  0.2314815E-02
    1      -22.088738
    2      -18.276857
    3      -14.471911
    4      -10.162602
    5       -8.997907
    6       -6.436569
    7       -6.124976
    8       -5.951005
    9        0.018073
   10        0.746464
   11        1.550345
   12        1.936171
 
  0.2083333E+00  0.0000000E+00  0.0000000E+00  0.2314815E-02
    1      -21.996689
    2      -18.647298
    3      -13.966746
    4      -10.052985
    5       -8.907783
    6       -6.775506
    7       -6.299113
    8       -6.295769
    9        0.504763
   10        0.871618
   11        1.676983
   12        2.064479
 
  0.2500000E+00  0.0000000E+00  0.0000000E+00  0.2314815E-02
    1      -21.884312
    2      -19.004491
    3      -13.446572
    4       -9.919383
    5       -8.798635
    6       -7.167467
    7       -6.657954
    8       -6.488758
    9        1.024577
   10        1.029664
   11        1.831669
   12        2.221301
 
  0.2916667E+00  0.0000000E+00  0.0000000E+00  0.2314815E-02
    1      -21.751686
    2      -19.346182
    3      -12.914722
    4       -9.762040
    5       -8.671115
    6       -7.603254
    7       -7.016899
    8       -6.697501
    9        1.205316
   10        1.579972
   11        2.014325
   12        2.406635
 
  0.3333333E+00  0.0000000E+00  0.0000000E+00  0.2314815E-02
    1      -21.598910
    2      -19.671069
    3      -12.373837
    4       -9.581268
    5       -8.526042
    6       -8.074322
    7       -7.368975
    8       -6.916073
    9        1.413799
   10        2.145793
   11        2.224826
   12        2.620475
 
  0.3750000E+00  0.0000000E+00  0.0000000E+00  0.2314815E-02
    1      -21.426097
    2      -19.978312
    3      -11.826396
    4       -9.377456
    5       -8.573006
    6       -8.364426
    7       -7.709484
    8       -7.139222
    9        1.649974
   10        2.462955
   11        2.717794
   12        2.862813
 
  0.4166667E+00  0.0000000E+00  0.0000000E+00  0.2314815E-02
    1      -21.233384
    2      -20.267319
    3      -11.274981
    4       -9.151092
    5       -9.092583
    6       -8.187511
    7       -8.035165
    8       -7.362416
    9        1.913767
   10        2.728266
   11        3.133634
   12        3.242337
 
  0.4583333E+00  0.0000000E+00  0.0000000E+00  0.2314815E-02
    1      -21.020934
    2      -20.537644
    3      -10.722426
    4       -9.627230
    5       -8.902788
    6       -8.343683
    7       -7.996812
    8       -7.581807
    9        2.205083
   10        2.869655
   11        3.019598
   12        3.432914
 
  0.5000000E+00  0.0000000E+00  0.0000000E+00  0.1157407E-02
    1      -20.788944
    2      -20.788944
    3      -10.171943
    4      -10.171943
    5       -8.633321
    6       -8.633321
    7       -7.794168
    8       -7.794168
    9        2.523782
   10        2.523782
   11        3.332288
   12        3.332288
 
  0.0000000E+00  0.2777778E-01  0.0000000E+00  0.2314815E-02
    1      -22.238943
    2      -17.007217
    3      -15.960722
    4      -10.341811
    5       -9.221454
    6       -5.843854
    7       -5.815830
    8       -5.092995
    9       -1.079476
   10        0.542527
   11        1.343836
   12        1.727079
 
  0.4166667E-01  0.2777778E-01  0.0000000E+00  0.4629630E-02
    1      -22.228695
    2      -17.172197
    3      -15.780531
    4      -10.329570
    5       -9.211249
    6       -5.885664
    7       -5.838669
    8       -5.159660
    9       -0.996952
   10        0.556430
   11        1.357921
   12        1.741335
 
  0.8333333E-01  0.2777778E-01  0.0000000E+00  0.4629630E-02
    1      -22.197956
    2      -17.509094
    3      -15.398085
    4      -10.292868
    5       -9.180685
    6       -6.008733
    7       -5.906656
    8       -5.344567
    9       -0.764637
   10        0.598140
   11        1.400171
   12        1.784102
 
  0.1250000E+00  0.2777778E-01  0.0000000E+00  0.4629630E-02
    1      -22.146746
    2      -17.885349
    3      -14.946210
    4      -10.231762
    5       -9.129911
    6       -6.208539
    7       -6.016110
    8       -5.614209
    9       -0.416556
   10        0.667664
   11        1.470573
   12        1.855382
 
  0.1666667E+00  0.2777778E-01  0.0000000E+00  0.4629630E-02
    1      -22.075099
    2      -18.264283
    3      -14.462038
    4      -10.146348
    5       -9.059183
    6       -6.478507
    7       -6.161294
    8       -5.935456
    9        0.013288
   10        0.765008
   11        1.569107
   12        1.955176
 
  0.2083333E+00  0.2777778E-01  0.0000000E+00  0.4629630E-02
    1      -21.983065
    2      -18.634559
    3      -13.957556
    4      -10.036769
    5       -8.968870
    6       -6.810507
    7       -6.335536
    8       -6.283710
    9        0.499046
   10        0.890170
   11        1.695738
   12        2.083486
 
  0.2500000E+00  0.2777778E-01  0.0000000E+00  0.4629630E-02
    1      -21.870705
    2      -18.991611
    3      -13.438192
    4       -9.903213
    5       -8.859467
    6       -7.195697
    7       -6.642610
    8       -6.531922
    9        1.022692
   10        1.043139
   11        1.850416
   12        2.240310
 
  0.2916667E+00  0.2777778E-01  0.0000000E+00  0.4629630E-02
    1      -21.738102
    2      -19.333180
    3      -12.907306
    4       -9.745925
    5       -8.731610
    6       -7.625234
    7       -7.001551
    8       -6.743825
    9        1.223890
   10        1.571468
   11        2.033064
   12        2.425647
 
  0.3333333E+00  0.2777778E-01  0.0000000E+00  0.4629630E-02
    1      -21.585351
    2      -19.657963
    3      -12.367574
    4       -9.565215
    5       -8.586098
    6       -8.090745
    7       -7.353581
    8       -6.965214
    9        1.432386
   10        2.135557
   11        2.243560
   12        2.639491
 
  0.3750000E+00  0.2777778E-01  0.0000000E+00  0.4629630E-02
    1      -21.412570
    2      -19.965116
    3      -11.821517
    4       -9.361473
    5       -8.584616
    6       -8.423919
    7       -7.694020
    8       -7.190799
    9        1.668576
   10        2.481688
   11        2.705850
   12        2.881834
 
  0.4166667E+00  0.2777778E-01  0.0000000E+00  0.4629630E-02
    1      -21.219893
    2      -20.254045
    3      -11.271762
    4       -9.135187
    5       -9.100095
    6       -8.246288
    7       -8.019617
    8       -7.416052
    9        1.932387
   10        2.747010
   11        3.152663
   12        3.261158
 
  0.4583333E+00  0.2777778E-01  0.0000000E+00  0.4629630E-02
    1      -21.007486
    2      -20.524304
    3      -10.721204
    4       -9.631294
    5       -8.886969
    6       -8.328044
    7       -8.054684
    8       -7.637152
    9        2.223725
   10        2.888378
   11        3.038372
   12        3.451953
 
  0.5000000E+00  0.2777778E-01  0.0000000E+00  0.2314815E-02
    1      -20.775545
    2      -20.775545
    3      -10.173123
    4      -10.173123
    5       -8.617590
    6       -8.617590
    7       -7.850910
    8       -7.850910
    9        2.542455
   10        2.542455
   11        3.351038
   12        3.351038
 
  0.0000000E+00  0.5555556E-01  0.0000000E+00  0.2314815E-02
    1      -22.197967
    2      -16.972055
    3      -15.926124
    4      -10.292881
    5       -9.401237
    6       -6.009719
    7       -5.905677
    8       -5.043138
    9       -1.092168
   10        0.598125
   11        1.400156
   12        1.784087
 
  0.4166667E-01  0.5555556E-01  0.0000000E+00  0.4629630E-02
    1      -22.187723
    2      -17.136536
    3      -15.746590
    4      -10.280653
    5       -9.390977
    6       -6.052390
    7       -5.925679
    8       -5.110253
    9       -1.009554
   10        0.612029
   11        1.414238
   12        1.798343
 
  0.8333333E-01  0.5555556E-01  0.0000000E+00  0.4629630E-02
    1      -22.156997
    2      -17.472660
    3      -15.365397
    4      -10.243990
    5       -9.360241
    6       -6.172876
    7       -5.990660
    8       -5.296190
    9       -0.777299
   10        0.653743
   11        1.456480
   12        1.841111
 
  0.1250000E+00  0.5555556E-01  0.0000000E+00  0.4629630E-02
    1      -22.105809
    2      -17.848232
    3      -14.915025
    4      -10.182947
    5       -9.309169
    6       -6.362056
    7       -6.102430
    8       -5.566885
    9       -0.429985
   10        0.723275
   11        1.526869
   12        1.912393
 
  0.1666667E+00  0.5555556E-01  0.0000000E+00  0.4629630E-02
    1      -22.034195
    2      -18.226584
    3      -14.432622
    4      -10.097623
    5       -9.237995
    6       -6.614593
    7       -6.255162
    8       -5.888904
    9       -0.001925
   10        0.820632
   11        1.625384
   12        2.012190
 
  0.2083333E+00  0.5555556E-01  0.0000000E+00  0.4629630E-02
    1      -21.942203
    2      -18.596363
    3      -13.930238
    4       -9.988158
    5       -9.147059
    6       -6.925581
    7       -6.440028
    8       -6.237601
    9        0.480986
   10        0.945814
   11        1.751993
   12        2.140504
 
  0.2500000E+00  0.5555556E-01  0.0000000E+00  0.4629630E-02
    1      -21.829896
    2      -18.952990
    3      -13.413371
    4       -9.854743
    5       -9.036816
    6       -7.289094
    7       -6.648014
    8       -6.596675
    9        1.000797
   10        1.098807
   11        1.906645
   12        2.297335
 
  0.2916667E+00  0.5555556E-01  0.0000000E+00  0.4629630E-02
    1      -21.697360
    2      -19.294193
    3      -12.885473
    4       -9.697621
    5       -8.907849
    6       -7.698187
    7       -6.955599
    8       -6.871087
    9        1.279589
   10        1.544882
   11        2.089267
   12        2.482679
 
  0.3333333E+00  0.5555556E-01  0.0000000E+00  0.4629630E-02
    1      -21.544688
    2      -19.618661
    3      -12.349326
    4       -9.517102
    5       -8.760891
    6       -8.145443
    7       -7.307487
    8       -7.102492
    9        1.488120
   10        2.103649
   11        2.299743
   12        2.696533
 
  0.3750000E+00  0.5555556E-01  0.0000000E+00  0.4629630E-02
    1      -21.372000
    2      -19.925544
    3      -11.807587
    4       -9.313576
    5       -8.623551
    6       -8.596848
    7       -7.647708
    8       -7.336677
    9        1.724348
   10        2.537867
   11        2.668561
   12        2.938889
 
  0.4166667E+00  0.5555556E-01  0.0000000E+00  0.4629630E-02
    1      -21.179433
    2      -20.214239
    3      -11.263047
    4       -9.125699
    5       -9.087528
    6       -8.416832
    7       -7.973044
    8       -7.569111
    9        1.988202
   10        2.803221
   11        3.209736
   12        3.227394
 
  0.4583333E+00  0.5555556E-01  0.0000000E+00  0.4629630E-02
    1      -20.967154
    2      -20.484296
    3      -10.718798
    4       -9.645762
    5       -8.839566
    6       -8.281194
    7       -8.222202
    8       -7.796096
    9        2.279592
   10        2.944433
   11        3.094680
   12        3.509109
 
  0.5000000E+00  0.5555556E-01  0.0000000E+00  0.2314815E-02
    1      -20.735363
    2      -20.735363
    3      -10.178354
    4      -10.178354
    5       -8.570460
    6       -8.570460
    7       -8.014617
    8       -8.014617
    9        2.598395
   10        2.598395
   11        3.407266
   12        3.407266
 
  0.0000000E+00  0.8333333E-01  0.0000000E+00  0.2314815E-02
    1      -22.129711
    2      -16.913465
    3      -15.868995
    4      -10.211444
    5       -9.685813
    6       -6.272456
    7       -6.053020
    8       -4.960110
    9       -1.116093
   10        0.690802
   11        1.493999
   12        1.879104
 
  0.4166667E-01  0.8333333E-01  0.0000000E+00  0.4629630E-02
    1      -22.119474
    2      -17.077150
    3      -15.690536
    4      -10.199239
    5       -9.675442
    6       -6.316372
    7       -6.068631
    8       -5.028024
    9       -1.033306
   10        0.704705
   11        1.508076
   12        1.893360
 
  0.8333333E-01  0.8333333E-01  0.0000000E+00  0.4629630E-02
    1      -22.088770
    2      -17.412012
    3      -15.311451
    4      -10.162640
    5       -9.644367
    6       -6.437795
    7       -6.123748
    8       -5.215770
    9       -0.801115
   10        0.746420
   11        1.550302
   12        1.936128
 
  0.1250000E+00  0.8333333E-01  0.0000000E+00  0.4629630E-02
    1      -22.037621
    2      -17.786450
    3      -14.863658
    4      -10.101707
    5       -9.592703
    6       -6.621281
    7       -6.227849
    8       -5.488297
    9       -0.455102
   10        0.815956
   11        1.620666
   12        2.007412
 
  0.1666667E+00  0.8333333E-01  0.0000000E+00  0.4629630E-02
    1      -21.966061
    2      -18.163828
    3      -14.384332
    4      -10.016536
    5       -9.520644
    6       -6.857484
    7       -6.380867
    8       -5.811645
    9       -0.030111
   10        0.913323
   11        1.719147
   12        2.107212
 
  0.2083333E+00  0.8333333E-01  0.0000000E+00  0.4629630E-02
    1      -21.874140
    2      -18.532773
    3      -13.885624
    4       -9.907269
    5       -9.428472
    6       -7.141666
    7       -6.575516
    8       -6.161093
    9        0.447891
   10        1.038523
   11        1.845713
   12        2.235531
 
  0.2500000E+00  0.8333333E-01  0.0000000E+00  0.4629630E-02
    1      -21.761924
    2      -18.888686
    3      -13.373173
    4       -9.774095
    5       -9.316557
    6       -7.471337
    7       -6.800681
    8       -6.520451
    9        0.961090
   10        1.191544
   11        2.000317
   12        2.392369
 
  0.2916667E+00  0.8333333E-01  0.0000000E+00  0.4629630E-02
    1      -21.629498
    2      -19.229275
    3      -12.850602
    4       -9.617258
    5       -9.185375
    6       -7.844251
    7       -7.044491
    8       -6.879330
    9        1.372359
   10        1.497075
   11        2.182889
   12        2.577723
 
  0.3333333E+00  0.8333333E-01  0.0000000E+00  0.4629630E-02
    1      -21.476958
    2      -19.553215
    3      -12.320911
    4       -9.437069
    5       -9.035515
    6       -8.256930
    7       -7.296679
    8       -7.230961
    9        1.580929
   10        2.046582
   11        2.393322
   12        2.791590
 
  0.3750000E+00  0.8333333E-01  0.0000000E+00  0.4629630E-02
    1      -21.304425
    2      -19.859642
    3      -11.787029
    4       -9.233913
    5       -8.867699
    6       -8.704319
    7       -7.570795
    8       -7.549553
    9        1.817200
   10        2.601799
   11        2.631432
   12        3.033963
 
  0.4166667E+00  0.8333333E-01  0.0000000E+00  0.4629630E-02
    1      -21.112041
    2      -20.147945
    3      -11.252091
    4       -9.180355
    5       -9.008274
    6       -8.682806
    7       -7.895676
    8       -7.797752
    9        2.081101
   10        2.896838
   11        3.153780
   12        3.304831
 
  0.4583333E+00  0.8333333E-01  0.0000000E+00  0.4629630E-02
    1      -20.899978
    2      -20.417663
    3      -10.719612
    4       -9.678764
    5       -8.760756
    6       -8.481902
    7       -8.203341
    8       -8.037556
    9        2.372544
   10        3.037561
   11        3.188482
   12        3.604226
 
  0.5000000E+00  0.8333333E-01  0.0000000E+00  0.2314815E-02
    1      -20.668438
    2      -20.668438
    3      -10.193621
    4      -10.193621
    5       -8.492121
    6       -8.492121
    7       -8.266284
    8       -8.266284
    9        2.691416
   10        2.691416
   11        3.500877
   12        3.500877
 
  0.0000000E+00  0.1111111E+00  0.0000000E+00  0.2314815E-02
    1      -22.034238
    2      -16.831467
    3      -15.790254
    4      -10.097673
    5      -10.056468
    6       -6.615383
    7       -6.254397
    8       -4.844015
    9       -1.155376
   10        0.820572
   11        1.625327
   12        2.012133
 
  0.4166667E-01  0.1111111E+00  0.0000000E+00  0.4629630E-02
    1      -22.024012
    2      -16.994118
    3      -15.613254
    4      -10.085499
    5      -10.045901
    6       -6.660923
    7       -6.264284
    8       -4.913153
    9       -1.072278
   10        0.834472
   11        1.639396
   12        2.026388
 
  0.8333333E-01  0.1111111E+00  0.0000000E+00  0.4629630E-02
    1      -21.993340
    2      -17.327271
    3      -15.237173
    4      -10.048997
    5      -10.014226
    6       -6.785384
    7       -6.304653
    8       -5.103651
    9       -0.840081
   10        0.876179
   11        1.681598
   12        2.069156
 
  0.1250000E+00  0.1111111E+00  0.0000000E+00  0.4629630E-02
    1      -21.942244
    2      -17.700131
    3      -14.793183
    4       -9.988223
    5       -9.961515
    6       -6.968669
    7       -6.391236
    8       -5.378920
    9       -0.495908
   10        0.945705
   11        1.751921
   12        2.140438
 
  0.1666667E+00  0.1111111E+00  0.0000000E+00  0.4629630E-02
    1      -21.870759
    2      -18.076137
    3      -14.318479
    4       -9.903276
    5       -9.887887
    6       -7.196905
    7       -6.530666
    8       -5.704217
    9       -0.075391
   10        1.043065
   11        1.850345
   12        2.240239
 
  0.2083333E+00  0.1111111E+00  0.0000000E+00  0.4629630E-02
    1      -21.778939
    2      -18.443902
    3      -13.825379
    4       -9.794298
    5       -9.793508
    6       -7.462224
    7       -6.720992
    8       -6.054739
    9        0.395428
   10        1.168266
   11        1.976839
   12        2.368560
 
  0.2500000E+00  0.1111111E+00  0.0000000E+00  0.4629630E-02
    1      -21.666851
    2      -18.798801
    3      -13.319760
    4       -9.678591
    5       -9.661477
    6       -7.760916
    7       -6.954147
    8       -6.414476
    9        0.898954
   10        1.321297
   11        2.131358
   12        2.525404
 
  0.2916667E+00  0.1111111E+00  0.0000000E+00  0.4629630E-02
    1      -21.534578
    2      -19.138519
    3      -12.805557
    4       -9.543390
    5       -9.505058
    6       -8.092274
    7       -7.217977
    8       -6.773254
    9        1.423089
   10        1.502133
   11        2.313840
   12        2.710768
 
  0.3333333E+00  0.1111111E+00  0.0000000E+00  0.4629630E-02
    1      -21.382223
    2      -19.461710
    3      -12.286179
    4       -9.388194
    5       -9.325351
    6       -8.457214
    7       -7.498510
    8       -7.124474
    9        1.710730
   10        1.958965
   11        2.524190
   12        2.924647
 
  0.3750000E+00  0.1111111E+00  0.0000000E+00  0.4629630E-02
    1      -21.209910
    2      -19.767491
    3      -11.765086
    4       -9.213328
    5       -9.122740
    6       -8.856328
    7       -7.782645
    8       -7.463716
    9        1.947029
   10        2.499470
   11        2.762252
   12        3.167035
 
  0.4166667E+00  0.1111111E+00  0.0000000E+00  0.4629630E-02
    1      -21.017785
    2      -20.055238
    3      -11.246093
    4       -9.288156
    5       -9.019146
    6       -8.897704
    7       -8.060374
    8       -7.787909
    9        2.210958
   10        3.027718
   11        3.037948
   12        3.437924
 
  0.4583333E+00  0.1111111E+00  0.0000000E+00  0.4629630E-02
    1      -20.806026
    2      -20.324478
    3      -10.733573
    4       -9.748755
    5       -8.806045
    6       -8.650842
    7       -8.325443
    8       -8.094849
    9        2.502427
   10        3.167511
   11        3.319677
   12        3.561443
 
  0.5000000E+00  0.1111111E+00  0.0000000E+00  0.2314815E-02
    1      -20.574840
    2      -20.574840
    3      -10.232565
    4      -10.232565
    5       -8.574536
    6       -8.574536
    7       -8.382905
    8       -8.382905
    9        2.821326
   10        2.821326
   11        3.631475
   12        3.631475
 
  0.0000000E+00  0.1388889E+00  0.0000000E+00  0.2314815E-02
    1      -21.911636
    2      -16.726089
    3      -15.691454
    4      -10.492515
    5       -9.951817
    6       -7.020708
    7       -6.505252
    8       -4.694999
    9       -1.215654
   10        0.987444
   11        1.794084
   12        2.183177
 
  0.4166667E-01  0.1388889E+00  0.0000000E+00  0.4629630E-02
    1      -21.901423
    2      -16.887564
    3      -15.516256
    4      -10.481616
    5       -9.939686
    6       -7.068200
    7       -6.508383
    8       -4.765929
    9       -1.132002
   10        1.001336
   11        1.808140
   12        2.197431
 
  0.8333333E-01  0.1388889E+00  0.0000000E+00  0.4629630E-02
    1      -21.870792
    2      -17.218629
    3      -15.144174
    4      -10.448915
    5       -9.903314
    6       -7.196967
    7       -6.530636
    8       -4.960390
    9       -0.899556
   10        1.043020
   11        1.850303
   12        2.240196
 
  0.1250000E+00  0.1388889E+00  0.0000000E+00  0.4629630E-02
    1      -21.819764
    2      -17.589473
    3      -14.705496
    4      -10.394403
    5       -9.842757
    6       -7.383330
    7       -6.592986
    8       -5.239514
    9       -0.557715
   10        1.112514
   11        1.920560
   12        2.311473
 
  0.1666667E+00  0.1388889E+00  0.0000000E+00  0.4629630E-02
    1      -21.748379
    2      -17.963698
    3      -14.237439
    4      -10.318053
    5       -9.758115
    6       -7.610032
    7       -6.707791
    8       -5.567476
    9       -0.143186
   10        1.209839
   11        2.018892
   12        2.411270
 
  0.2083333E+00  0.1388889E+00  0.0000000E+00  0.4629630E-02
    1      -21.656690
    2      -18.329919
    3      -13.752590
    4      -10.219807
    5       -9.649530
    6       -7.866517
    7       -6.878316
    8       -5.919409
    9        0.317953
   10        1.335009
   11        2.145267
   12        2.539589
 
  0.2500000E+00  0.1388889E+00  0.0000000E+00  0.4629630E-02
    1      -21.544764
    2      -18.683490
    3      -13.257254
    4      -10.099547
    5       -9.517192
    6       -8.146675
    7       -7.101142
    8       -6.279589
    9        0.808465
   10        1.488018
   11        2.299641
   12        2.696433
 
  0.2916667E+00  0.1388889E+00  0.0000000E+00  0.4629630E-02
    1      -21.412691
    2      -19.022067
    3      -12.755956
    4       -9.957059
    5       -9.361345
    6       -8.447725
    7       -7.367849
    8       -6.638153
    9        1.316696
   10        1.668844
   11        2.481957
   12        2.881801
 
  0.3333333E+00  0.1388889E+00  0.0000000E+00  0.4629630E-02
    1      -21.260576
    2      -19.344275
    3      -12.252905
    4       -9.791982
    5       -9.182299
    6       -8.769780
    7       -7.666281
    8       -6.988751
    9        1.834263
   10        1.877438
   11        2.692134
   12        3.095689
 
  0.3750000E+00  0.1388889E+00  0.0000000E+00  0.4629630E-02
    1      -21.088547
    2      -19.649212
    3      -11.752621
    4       -9.603756
    5       -9.115359
    6       -8.980436
    7       -7.981855
    8       -7.327132
    9        2.113737
   10        2.354678
   11        2.930055
   12        3.338090
 
  0.4166667E+00  0.1388889E+00  0.0000000E+00  0.4629630E-02
    1      -20.896760
    2      -19.936233
    3      -11.260263
    4       -9.488165
    5       -9.391604
    6       -8.756231
    7       -8.299444
    8       -7.650345
    9        2.377659
   10        2.872525
   11        3.195518
   12        3.608995
 
  0.4583333E+00  0.1388889E+00  0.0000000E+00  0.4629630E-02
    1      -20.685396
    2      -20.204848
    3      -10.781727
    4       -9.890923
    5       -9.154657
    6       -8.605932
    7       -8.510275
    8       -7.956263
    9        2.669110
   10        3.334109
   11        3.382592
   12        3.487960
 
  0.5000000E+00  0.1388889E+00  0.0000000E+00  0.2314815E-02
    1      -20.454673
    2      -20.454673
    3      -10.323343
    4      -10.323343
    5       -8.892426
    6       -8.892426
    7       -8.243308
    8       -8.243308
    9        2.987974
   10        2.987974
   11        3.792276
   12        3.792276
 
  0.0000000E+00  0.1666667E+00  0.0000000E+00  0.2314815E-02
    1      -21.762022
    2      -16.597371
    3      -15.575214
    4      -10.973416
    5       -9.774208
    6       -7.471870
    7       -6.800191
    8       -4.513256
    9       -1.303783
   10        1.191410
   11        2.000190
   12        2.392240
 
  0.4166667E-01  0.1666667E+00  0.0000000E+00  0.4629630E-02
    1      -21.751826
    2      -16.757677
    3      -15.402114
    4      -10.961943
    5       -9.762134
    6       -7.521590
    7       -6.795853
    8       -4.586786
    9       -1.219123
   10        1.205290
   11        2.014224
   12        2.406492
 
  0.8333333E-01  0.1666667E+00  0.0000000E+00  0.4629630E-02
    1      -21.721246
    2      -17.086377
    3      -15.035250
    4      -10.927467
    5       -9.725932
    6       -7.655520
    7       -6.797766
    8       -4.786866
    9       -0.985825
   10        1.246936
   11        2.056325
   12        2.449250
 
  0.1250000E+00  0.1666667E+00  0.0000000E+00  0.4629630E-02
    1      -21.670304
    2      -17.454777
    3      -14.603986
    4      -10.869810
    5       -9.665661
    6       -7.846862
    7       -6.831566
    8       -5.071270
    9       -0.646628
   10        1.316372
   11        2.126476
   12        2.520518
 
  0.1666667E+00  0.1666667E+00  0.0000000E+00  0.4629630E-02
    1      -21.599040
    2      -17.826790
    3      -14.145582
    4      -10.788640
    5       -9.581420
    6       -8.075757
    7       -6.914512
    8       -5.402735
    9       -0.239634
   10        1.413624
   11        2.224654
   12        2.620303
 
  0.2083333E+00  0.1666667E+00  0.0000000E+00  0.4629630E-02
    1      -21.507509
    2      -18.191077
    3      -13.673133
    4      -10.683414
    5       -9.473353
    6       -8.329858
    7       -7.054294
    8       -5.756412
    9        0.209184
   10        1.538718
   11        2.350824
   12        2.748611
 
  0.2500000E+00  0.1666667E+00  0.0000000E+00  0.4629630E-02
    1      -21.395785
    2      -18.542977
    3      -13.193774
    4      -10.553288
    5       -9.341651
    6       -8.601505
    7       -7.251570
    8       -6.117032
    9        0.683178
   10        1.691658
   11        2.504936
   12        2.905447
 
  0.2916667E+00  0.1666667E+00  0.0000000E+00  0.4629630E-02
    1      -21.263958
    2      -18.880118
    3      -12.713232
    4      -10.397004
    5       -9.186560
    6       -8.886123
    7       -7.501763
    8       -6.475179
    9        1.171357
   10        1.872425
   11        2.686924
   12        3.090813
 
  0.3333333E+00  0.1666667E+00  0.0000000E+00  0.4629630E-02
    1      -21.112139
    2      -19.201094
    3      -12.237334
    4      -10.212772
    5       -9.181610
    6       -9.008389
    7       -7.796309
    8       -6.824837
    9        1.665983
   10        2.080972
   11        2.896703
   12        3.304703
 
  0.3750000E+00  0.1666667E+00  0.0000000E+00  0.4629630E-02
    1      -20.940464
    2      -19.504972
    3      -11.772584
    4       -9.998278
    5       -9.488240
    6       -8.807520
    7       -8.123598
    8       -7.161989
    9        2.161226
   10        2.317228
   11        3.134158
   12        3.547111
 
  0.4166667E+00  0.1666667E+00  0.0000000E+00  0.4629630E-02
    1      -20.749095
    2      -19.791084
    3      -11.326069
    4       -9.808725
    5       -9.751089
    6       -8.584424
    7       -8.469710
    8       -7.483837
    9        2.581101
   10        2.652417
   11        3.399132
   12        3.818027
 
  0.4583333E+00  0.1666667E+00  0.0000000E+00  0.4629630E-02
    1      -20.538223
    2      -20.058919
    3      -10.904423
    4      -10.147964
    5       -9.469916
    6       -8.819226
    7       -8.339683
    8       -7.788353
    9        2.872483
   10        3.135609
   11        3.537238
   12        3.691302
 
  0.5000000E+00  0.1666667E+00  0.0000000E+00  0.2314815E-02
    1      -20.308074
    2      -20.308074
    3      -10.511785
    4      -10.511785
    5       -9.156823
    6       -9.156823
    7       -8.074023
    8       -8.074023
    9        3.191246
   10        3.191246
   11        3.607180
   12        3.607180
 