       N       E                     dE             d eps       ncg     rms          rms(c)
DAV:   1     0.190138289604E+03    0.19014E+03   -0.10592E+04  5928   0.274E+03
DAV:   2    -0.961893229441E+01   -0.19976E+03   -0.17841E+03 10448   0.260E+02
DAV:   3    -0.384357467184E+02   -0.28817E+02   -0.28285E+02  7384   0.119E+02    0.738E+00
RMM:   4    -0.377056713487E+02    0.73008E+00   -0.91286E+00  5929   0.260E+01    0.425E+00
RMM:   5    -0.369360238610E+02    0.76965E+00   -0.28888E+00  5934   0.116E+01    0.734E-01
RMM:   6    -0.369380687888E+02   -0.20449E-02   -0.88031E-02  6361   0.204E+00    0.529E-01
RMM:   7    -0.369286066381E+02    0.94622E-02   -0.35030E-02  5940   0.162E+00    0.354E-01
RMM:   8    -0.369225365838E+02    0.60701E-02   -0.82036E-03  5933   0.598E-01    0.137E-01
RMM:   9    -0.369222568235E+02    0.27976E-03   -0.21917E-02  5928   0.879E-01    0.169E-01
RMM:  10    -0.369219756276E+02    0.28120E-03   -0.29276E-03  5928   0.389E-01    0.307E-02
RMM:  11    -0.369245907894E+02   -0.26152E-02   -0.79839E-04  5930   0.186E-01    0.488E-02
RMM:  12    -0.369250257235E+02   -0.43493E-03   -0.23937E-04  5942   0.103E-01    0.672E-03
RMM:  13    -0.369253107516E+02   -0.28503E-03   -0.66687E-05  5985   0.474E-02    0.517E-03
RMM:  14    -0.369253977513E+02   -0.87000E-04   -0.12581E-05  5932   0.213E-02    0.246E-03
RMM:  15    -0.369254061617E+02   -0.84104E-05   -0.15964E-06  6019   0.751E-03    0.704E-04
RMM:  16    -0.369254172624E+02   -0.11101E-04   -0.34078E-07  6049   0.320E-03    0.345E-04
RMM:  17    -0.369254206426E+02   -0.33802E-05   -0.40471E-08  6010   0.162E-03    0.742E-04
RMM:  18    -0.369254228002E+02   -0.21576E-05   -0.99950E-08  5928   0.214E-03    0.101E-04
RMM:  19    -0.369254231146E+02   -0.31442E-06   -0.43682E-09  6081   0.418E-04    0.190E-05
RMM:  20    -0.369254231719E+02   -0.57279E-07   -0.62637E-10  4472   0.125E-04    0.235E-05
RMM:  21    -0.369254231854E+02   -0.13545E-07   -0.15130E-10  4236   0.767E-05    0.788E-06
RMM:  22    -0.369254231853E+02    0.11528E-09   -0.19864E-11  3901   0.536E-05    0.197E-06
RMM:  23    -0.369254231862E+02   -0.88050E-09   -0.20983E-11  3507   0.381E-05    0.123E-06
RMM:  24    -0.369254231860E+02    0.17621E-09   -0.47867E-12  3123   0.296E-05    0.918E-07
RMM:  25    -0.369254231858E+02    0.17189E-09   -0.56682E-12  2801   0.259E-05    0.291E-07
RMM:  26    -0.369254231861E+02   -0.27205E-09   -0.29443E-12  2565   0.225E-05    0.927E-08
RMM:  27    -0.369254231858E+02    0.29763E-09   -0.20709E-12  2382   0.207E-05    0.931E-08
RMM:  28    -0.369254231861E+02   -0.24022E-09   -0.15377E-12  2262   0.194E-05    0.842E-08
RMM:  29    -0.369254231861E+02   -0.84128E-10   -0.18500E-12  2155   0.184E-05
   1 F= -.36925423E+02 E0= -.36925360E+02  d E =-.369254E+02
       N       E                     dE             d eps       ncg     rms          rms(c)
DAV:   1    -0.369244756926E+02    0.94749E-03   -0.86042E-02  6708   0.276E+00    0.597E-02
RMM:   2    -0.369245161147E+02   -0.40422E-04   -0.13694E-03  5929   0.332E-01    0.423E-02
RMM:   3    -0.369244712612E+02    0.44854E-04   -0.24467E-04  5975   0.126E-01    0.104E-02
RMM:   4    -0.369244671456E+02    0.41156E-05   -0.14156E-05  6091   0.297E-02    0.299E-03
RMM:   5    -0.369244672808E+02   -0.13519E-06   -0.10831E-06  6207   0.754E-03    0.145E-03
RMM:   6    -0.369244672027E+02    0.78123E-07   -0.17861E-07  6098   0.326E-03    0.110E-04
RMM:   7    -0.369244672040E+02   -0.13534E-08   -0.10723E-08  6092   0.746E-04    0.847E-05
RMM:   8    -0.369244672035E+02    0.49374E-09   -0.77333E-10  5425   0.219E-04    0.132E-05
RMM:   9    -0.369244672037E+02   -0.21384E-09   -0.46647E-11  3848   0.696E-05    0.286E-06
RMM:  10    -0.369244672038E+02   -0.49681E-10   -0.27262E-11  3819   0.550E-05
   2 F= -.36924467E+02 E0= -.36924421E+02  d E =0.955982E-03
       N       E                     dE             d eps       ncg     rms          rms(c)
DAV:   1    -0.369254945137E+02   -0.10273E-02   -0.54969E-02  6376   0.221E+00    0.479E-02
RMM:   2    -0.369255176296E+02   -0.23116E-04   -0.85466E-04  5928   0.263E-01    0.337E-02
RMM:   3    -0.369254893439E+02    0.28286E-04   -0.15605E-04  5953   0.101E-01    0.821E-03
RMM:   4    -0.369254867681E+02    0.25758E-05   -0.91013E-06  6097   0.241E-02    0.243E-03
RMM:   5    -0.369254868540E+02   -0.85855E-07   -0.70432E-07  6174   0.603E-03    0.118E-03
RMM:   6    -0.369254868036E+02    0.50421E-07   -0.12265E-07  6094   0.270E-03    0.852E-05
RMM:   7    -0.369254868023E+02    0.13116E-08   -0.67433E-09  6091   0.586E-04    0.666E-05
RMM:   8    -0.369254868018E+02    0.46589E-09   -0.47546E-10  4762   0.174E-04    0.111E-05
RMM:   9    -0.369254868015E+02    0.28444E-09   -0.27275E-11  3824   0.659E-05    0.217E-06
RMM:  10    -0.369254868018E+02   -0.31105E-09   -0.24840E-11  3799   0.540E-05    0.336E-06
RMM:  11    -0.369254868028E+02   -0.99249E-09   -0.16289E-11  3560   0.416E-05    0.463E-07
RMM:  12    -0.369254868032E+02   -0.37755E-09   -0.13378E-11  3250   0.334E-05    0.451E-07
RMM:  13    -0.369254868032E+02    0.18304E-10   -0.92542E-12  3102   0.294E-05
   3 F= -.36925487E+02 E0= -.36925422E+02  d E =-.101960E-02
       N       E                     dE             d eps       ncg     rms          rms(c)
DAV:   1    -0.369254868030E+02    0.15996E-09   -0.80632E-09  6648   0.111E-03    0.244E-05
RMM:   2    -0.369254868035E+02   -0.43588E-09   -0.19087E-10  4099   0.135E-04    0.172E-05
RMM:   3    -0.369254868035E+02   -0.66052E-10   -0.45750E-11  3740   0.767E-05    0.394E-06
RMM:   4    -0.369254868037E+02   -0.20304E-09   -0.18343E-11  3453   0.433E-05    0.140E-06
RMM:   5    -0.369254868038E+02   -0.98112E-10   -0.43084E-12  3356   0.376E-05
   4 F= -.36925487E+02 E0= -.36925422E+02  d E =-.661430E-09
       N       E                     dE             d eps       ncg     rms          rms(c)
DAV:   1    -0.369254868033E+02    0.40291E-09    0.57720E-09  4780   0.567E-05    0.746E-07
RMM:   2    -0.369254868039E+02   -0.57992E-09   -0.13647E-12  2340   0.207E-05    0.470E-07
RMM:   3    -0.369254868038E+02    0.15154E-09    0.43258E-14  2048   0.204E-05    0.245E-08
RMM:   4    -0.369254868039E+02   -0.13461E-09   -0.14365E-12  1839   0.202E-05    0.624E-08
RMM:   5    -0.369254868037E+02    0.14882E-09   -0.75051E-13  1678   0.193E-05    0.109E-07
RMM:   6    -0.369254868036E+02    0.18906E-09    0.53858E-13  1579   0.182E-05    0.132E-07
RMM:   7    -0.369254868039E+02   -0.31912E-09   -0.99788E-13  1455   0.178E-05    0.142E-07
RMM:   8    -0.369254868036E+02    0.26830E-09   -0.66112E-13  1570   0.175E-05    0.165E-07
RMM:   9    -0.369254868037E+02   -0.57526E-10   -0.12148E-12  1522   0.171E-05
   5 F= -.36925487E+02 E0= -.36925422E+02  d E =0.167574E-09
       N       E                     dE             d eps       ncg     rms          rms(c)
DAV:   1    -0.369254868030E+02    0.59288E-09    0.58044E-09  4780   0.239E-05    0.481E-07
RMM:   2    -0.369254868036E+02   -0.56741E-09   -0.40873E-14  1049   0.767E-06    0.295E-07
RMM:   3    -0.369254868034E+02    0.18747E-09    0.45930E-14  1040   0.760E-06    0.843E-09
RMM:   4    -0.369254868037E+02   -0.34925E-09   -0.92930E-14   780   0.760E-06    0.333E-09
RMM:   5    -0.369254868035E+02    0.19520E-09    0.93752E-15   995   0.750E-06    0.261E-09
RMM:   6    -0.369254868035E+02    0.49454E-10    0.22891E-13   619   0.748E-06
   6 F= -.36925487E+02 E0= -.36925422E+02  d E =0.165869E-09
