<?xml version="1.0" encoding="ISO-8859-1"?>
<modeling>
 <generator>
  <i name="program" type="string">vasp </i>
  <i name="version" type="string">5.3.5  </i>
  <i name="subversion" type="string">31Mar14 (build Mar 02 2015 18:14:16) complex                          parallel </i>
  <i name="platform" type="string">LinuxIFC </i>
  <i name="date" type="string">2018 08 10 </i>
  <i name="time" type="string">14:45:14 </i>
 </generator>
 <incar>
  <i type="string" name="SYSTEM">  gr</i>
  <i type="string" name="PREC">accurate : accuracy</i>
  <i type="string" name="ALGO"> FAST.</i>
  <i type="int" name="NELM">   100</i>
  <i type="int" name="NELMDL">    -3</i>
  <i type="int" name="NELMIN">     5</i>
  <i type="int" name="IBRION">     1</i>
  <i name="EDIFF">      0.00000000</i>
  <i name="EDIFFG">     -0.00000100</i>
  <i type="int" name="NSW">   400</i>
  <i type="int" name="ISIF">     2</i>
  <i name="ENCUT">   2000.00000000</i>
  <i type="int" name="ISMEAR">     0</i>
  <i name="SIGMA">      0.05000000</i>
  <i type="int" name="NWRITE">     2</i>
  <i type="logical" name="LWAVE"> F  </i>
  <i type="logical" name="LCHARG"> F  </i>
  <i type="int" name="NELM">   100</i>
 </incar>
 <kpoints>
  <generation param="Gamma">
   <v type="int" name="divisions">      24       36        1 </v>
   <v name="usershift">      0.00000000       0.00000000       0.00000000 </v>
   <v name="genvec1">      0.04166667       0.00000000       0.00000000 </v>
   <v name="genvec2">      0.00000000       0.02777778       0.00000000 </v>
   <v name="genvec3">      0.00000000       0.00000000       1.00000000 </v>
   <v name="shift">      0.00000000       0.00000000       0.00000000 </v>
  </generation>
  <varray name="kpointlist" >
   <v>       0.00000000       0.00000000       0.00000000 </v>
   <v>       0.04166667       0.00000000       0.00000000 </v>
   <v>       0.08333333       0.00000000       0.00000000 </v>
   <v>       0.12500000       0.00000000       0.00000000 </v>
   <v>       0.16666667       0.00000000       0.00000000 </v>
   <v>       0.20833333       0.00000000       0.00000000 </v>
   <v>       0.25000000       0.00000000       0.00000000 </v>
   <v>       0.29166667       0.00000000       0.00000000 </v>
   <v>       0.33333333       0.00000000       0.00000000 </v>
   <v>       0.37500000       0.00000000       0.00000000 </v>
   <v>       0.41666667       0.00000000       0.00000000 </v>
   <v>       0.45833333       0.00000000       0.00000000 </v>
   <v>       0.50000000       0.00000000       0.00000000 </v>
   <v>       0.00000000       0.02777778       0.00000000 </v>
   <v>       0.04166667       0.02777778       0.00000000 </v>
   <v>       0.08333333       0.02777778       0.00000000 </v>
   <v>       0.12500000       0.02777778       0.00000000 </v>
   <v>       0.16666667       0.02777778       0.00000000 </v>
   <v>       0.20833333       0.02777778       0.00000000 </v>
   <v>       0.25000000       0.02777778       0.00000000 </v>
   <v>       0.29166667       0.02777778       0.00000000 </v>
   <v>       0.33333333       0.02777778       0.00000000 </v>
   <v>       0.37500000       0.02777778       0.00000000 </v>
   <v>       0.41666667       0.02777778       0.00000000 </v>
   <v>       0.45833333       0.02777778       0.00000000 </v>
   <v>       0.50000000       0.02777778       0.00000000 </v>
   <v>       0.00000000       0.05555556       0.00000000 </v>
   <v>       0.04166667       0.05555556       0.00000000 </v>
   <v>       0.08333333       0.05555556       0.00000000 </v>
   <v>       0.12500000       0.05555556       0.00000000 </v>
   <v>       0.16666667       0.05555556       0.00000000 </v>
   <v>       0.20833333       0.05555556       0.00000000 </v>
   <v>       0.25000000       0.05555556       0.00000000 </v>
   <v>       0.29166667       0.05555556       0.00000000 </v>
   <v>       0.33333333       0.05555556       0.00000000 </v>
   <v>       0.37500000       0.05555556       0.00000000 </v>
   <v>       0.41666667       0.05555556       0.00000000 </v>
   <v>       0.45833333       0.05555556       0.00000000 </v>
   <v>       0.50000000       0.05555556       0.00000000 </v>
   <v>       0.00000000       0.08333333       0.00000000 </v>
   <v>       0.04166667       0.08333333       0.00000000 </v>
   <v>       0.08333333       0.08333333       0.00000000 </v>
   <v>       0.12500000       0.08333333       0.00000000 </v>
   <v>       0.16666667       0.08333333       0.00000000 </v>
   <v>       0.20833333       0.08333333       0.00000000 </v>
   <v>       0.25000000       0.08333333       0.00000000 </v>
   <v>       0.29166667       0.08333333       0.00000000 </v>
   <v>       0.33333333       0.08333333       0.00000000 </v>
   <v>       0.37500000       0.08333333       0.00000000 </v>
   <v>       0.41666667       0.08333333       0.00000000 </v>
   <v>       0.45833333       0.08333333       0.00000000 </v>
   <v>       0.50000000       0.08333333       0.00000000 </v>
   <v>       0.00000000       0.11111111       0.00000000 </v>
   <v>       0.04166667       0.11111111       0.00000000 </v>
   <v>       0.08333333       0.11111111       0.00000000 </v>
   <v>       0.12500000       0.11111111       0.00000000 </v>
   <v>       0.16666667       0.11111111       0.00000000 </v>
   <v>       0.20833333       0.11111111       0.00000000 </v>
   <v>       0.25000000       0.11111111       0.00000000 </v>
   <v>       0.29166667       0.11111111       0.00000000 </v>
   <v>       0.33333333       0.11111111       0.00000000 </v>
   <v>       0.37500000       0.11111111       0.00000000 </v>
   <v>       0.41666667       0.11111111       0.00000000 </v>
   <v>       0.45833333       0.11111111       0.00000000 </v>
   <v>       0.50000000       0.11111111       0.00000000 </v>
   <v>       0.00000000       0.13888889       0.00000000 </v>
   <v>       0.04166667       0.13888889       0.00000000 </v>
   <v>       0.08333333       0.13888889       0.00000000 </v>
   <v>       0.12500000       0.13888889       0.00000000 </v>
   <v>       0.16666667       0.13888889       0.00000000 </v>
   <v>       0.20833333       0.13888889       0.00000000 </v>
   <v>       0.25000000       0.13888889       0.00000000 </v>
   <v>       0.29166667       0.13888889       0.00000000 </v>
   <v>       0.33333333       0.13888889       0.00000000 </v>
   <v>       0.37500000       0.13888889       0.00000000 </v>
   <v>       0.41666667       0.13888889       0.00000000 </v>
   <v>       0.45833333       0.13888889       0.00000000 </v>
   <v>       0.50000000       0.13888889       0.00000000 </v>
   <v>       0.00000000       0.16666667       0.00000000 </v>
   <v>       0.04166667       0.16666667       0.00000000 </v>
   <v>       0.08333333       0.16666667       0.00000000 </v>
   <v>       0.12500000       0.16666667       0.00000000 </v>
   <v>       0.16666667       0.16666667       0.00000000 </v>
   <v>       0.20833333       0.16666667       0.00000000 </v>
   <v>       0.25000000       0.16666667       0.00000000 </v>
   <v>       0.29166667       0.16666667       0.00000000 </v>
   <v>       0.33333333       0.16666667       0.00000000 </v>
   <v>       0.37500000       0.16666667       0.00000000 </v>
   <v>       0.41666667       0.16666667       0.00000000 </v>
   <v>       0.45833333       0.16666667       0.00000000 </v>
   <v>       0.50000000       0.16666667       0.00000000 </v>
   <v>       0.00000000       0.19444444       0.00000000 </v>
   <v>       0.04166667       0.19444444       0.00000000 </v>
   <v>       0.08333333       0.19444444       0.00000000 </v>
   <v>       0.12500000       0.19444444       0.00000000 </v>
   <v>       0.16666667       0.19444444       0.00000000 </v>
   <v>       0.20833333       0.19444444       0.00000000 </v>
   <v>       0.25000000       0.19444444       0.00000000 </v>
   <v>       0.29166667       0.19444444       0.00000000 </v>
   <v>       0.33333333       0.19444444       0.00000000 </v>
   <v>       0.37500000       0.19444444       0.00000000 </v>
   <v>       0.41666667       0.19444444       0.00000000 </v>
   <v>       0.45833333       0.19444444       0.00000000 </v>
   <v>       0.50000000       0.19444444       0.00000000 </v>
   <v>       0.00000000       0.22222222       0.00000000 </v>
   <v>       0.04166667       0.22222222       0.00000000 </v>
   <v>       0.08333333       0.22222222       0.00000000 </v>
   <v>       0.12500000       0.22222222       0.00000000 </v>
   <v>       0.16666667       0.22222222       0.00000000 </v>
   <v>       0.20833333       0.22222222       0.00000000 </v>
   <v>       0.25000000       0.22222222       0.00000000 </v>
   <v>       0.29166667       0.22222222       0.00000000 </v>
   <v>       0.33333333       0.22222222       0.00000000 </v>
   <v>       0.37500000       0.22222222       0.00000000 </v>
   <v>       0.41666667       0.22222222       0.00000000 </v>
   <v>       0.45833333       0.22222222       0.00000000 </v>
   <v>       0.50000000       0.22222222       0.00000000 </v>
   <v>       0.00000000       0.25000000       0.00000000 </v>
   <v>       0.04166667       0.25000000       0.00000000 </v>
   <v>       0.08333333       0.25000000       0.00000000 </v>
   <v>       0.12500000       0.25000000       0.00000000 </v>
   <v>       0.16666667       0.25000000       0.00000000 </v>
   <v>       0.20833333       0.25000000       0.00000000 </v>
   <v>       0.25000000       0.25000000       0.00000000 </v>
   <v>       0.29166667       0.25000000       0.00000000 </v>
   <v>       0.33333333       0.25000000       0.00000000 </v>
   <v>       0.37500000       0.25000000       0.00000000 </v>
   <v>       0.41666667       0.25000000       0.00000000 </v>
   <v>       0.45833333       0.25000000       0.00000000 </v>
   <v>       0.50000000       0.25000000       0.00000000 </v>
   <v>       0.00000000       0.27777778       0.00000000 </v>
   <v>       0.04166667       0.27777778       0.00000000 </v>
   <v>       0.08333333       0.27777778       0.00000000 </v>
   <v>       0.12500000       0.27777778       0.00000000 </v>
   <v>       0.16666667       0.27777778       0.00000000 </v>
   <v>       0.20833333       0.27777778       0.00000000 </v>
   <v>       0.25000000       0.27777778       0.00000000 </v>
   <v>       0.29166667       0.27777778       0.00000000 </v>
   <v>       0.33333333       0.27777778       0.00000000 </v>
   <v>       0.37500000       0.27777778       0.00000000 </v>
   <v>       0.41666667       0.27777778       0.00000000 </v>
   <v>       0.45833333       0.27777778       0.00000000 </v>
   <v>       0.50000000       0.27777778       0.00000000 </v>
   <v>       0.00000000       0.30555556       0.00000000 </v>
   <v>       0.04166667       0.30555556       0.00000000 </v>
   <v>       0.08333333       0.30555556       0.00000000 </v>
   <v>       0.12500000       0.30555556       0.00000000 </v>
   <v>       0.16666667       0.30555556       0.00000000 </v>
   <v>       0.20833333       0.30555556       0.00000000 </v>
   <v>       0.25000000       0.30555556       0.00000000 </v>
   <v>       0.29166667       0.30555556       0.00000000 </v>
   <v>       0.33333333       0.30555556       0.00000000 </v>
   <v>       0.37500000       0.30555556       0.00000000 </v>
   <v>       0.41666667       0.30555556       0.00000000 </v>
   <v>       0.45833333       0.30555556       0.00000000 </v>
   <v>       0.50000000       0.30555556       0.00000000 </v>
   <v>       0.00000000       0.33333333       0.00000000 </v>
   <v>       0.04166667       0.33333333       0.00000000 </v>
   <v>       0.08333333       0.33333333       0.00000000 </v>
   <v>       0.12500000       0.33333333       0.00000000 </v>
   <v>       0.16666667       0.33333333       0.00000000 </v>
   <v>       0.20833333       0.33333333       0.00000000 </v>
   <v>       0.25000000       0.33333333       0.00000000 </v>
   <v>       0.29166667       0.33333333       0.00000000 </v>
   <v>       0.33333333       0.33333333       0.00000000 </v>
   <v>       0.37500000       0.33333333       0.00000000 </v>
   <v>       0.41666667       0.33333333       0.00000000 </v>
   <v>       0.45833333       0.33333333       0.00000000 </v>
   <v>       0.50000000       0.33333333       0.00000000 </v>
   <v>       0.00000000       0.36111111       0.00000000 </v>
   <v>       0.04166667       0.36111111       0.00000000 </v>
   <v>       0.08333333       0.36111111       0.00000000 </v>
   <v>       0.12500000       0.36111111       0.00000000 </v>
   <v>       0.16666667       0.36111111       0.00000000 </v>
   <v>       0.20833333       0.36111111       0.00000000 </v>
   <v>       0.25000000       0.36111111       0.00000000 </v>
   <v>       0.29166667       0.36111111       0.00000000 </v>
   <v>       0.33333333       0.36111111       0.00000000 </v>
   <v>       0.37500000       0.36111111       0.00000000 </v>
   <v>       0.41666667       0.36111111       0.00000000 </v>
   <v>       0.45833333       0.36111111       0.00000000 </v>
   <v>       0.50000000       0.36111111       0.00000000 </v>
   <v>       0.00000000       0.38888889       0.00000000 </v>
   <v>       0.04166667       0.38888889       0.00000000 </v>
   <v>       0.08333333       0.38888889       0.00000000 </v>
   <v>       0.12500000       0.38888889       0.00000000 </v>
   <v>       0.16666667       0.38888889       0.00000000 </v>
   <v>       0.20833333       0.38888889       0.00000000 </v>
   <v>       0.25000000       0.38888889       0.00000000 </v>
   <v>       0.29166667       0.38888889       0.00000000 </v>
   <v>       0.33333333       0.38888889       0.00000000 </v>
   <v>       0.37500000       0.38888889       0.00000000 </v>
   <v>       0.41666667       0.38888889       0.00000000 </v>
   <v>       0.45833333       0.38888889       0.00000000 </v>
   <v>       0.50000000       0.38888889       0.00000000 </v>
   <v>       0.00000000       0.41666667       0.00000000 </v>
   <v>       0.04166667       0.41666667       0.00000000 </v>
   <v>       0.08333333       0.41666667       0.00000000 </v>
   <v>       0.12500000       0.41666667       0.00000000 </v>
   <v>       0.16666667       0.41666667       0.00000000 </v>
   <v>       0.20833333       0.41666667       0.00000000 </v>
   <v>       0.25000000       0.41666667       0.00000000 </v>
   <v>       0.29166667       0.41666667       0.00000000 </v>
   <v>       0.33333333       0.41666667       0.00000000 </v>
   <v>       0.37500000       0.41666667       0.00000000 </v>
   <v>       0.41666667       0.41666667       0.00000000 </v>
   <v>       0.45833333       0.41666667       0.00000000 </v>
   <v>       0.50000000       0.41666667       0.00000000 </v>
   <v>       0.00000000       0.44444444       0.00000000 </v>
   <v>       0.04166667       0.44444444       0.00000000 </v>
   <v>       0.08333333       0.44444444       0.00000000 </v>
   <v>       0.12500000       0.44444444       0.00000000 </v>
   <v>       0.16666667       0.44444444       0.00000000 </v>
   <v>       0.20833333       0.44444444       0.00000000 </v>
   <v>       0.25000000       0.44444444       0.00000000 </v>
   <v>       0.29166667       0.44444444       0.00000000 </v>
   <v>       0.33333333       0.44444444       0.00000000 </v>
   <v>       0.37500000       0.44444444       0.00000000 </v>
   <v>       0.41666667       0.44444444       0.00000000 </v>
   <v>       0.45833333       0.44444444       0.00000000 </v>
   <v>       0.50000000       0.44444444       0.00000000 </v>
   <v>       0.00000000       0.47222222       0.00000000 </v>
   <v>       0.04166667       0.47222222       0.00000000 </v>
   <v>       0.08333333       0.47222222       0.00000000 </v>
   <v>       0.12500000       0.47222222       0.00000000 </v>
   <v>       0.16666667       0.47222222       0.00000000 </v>
   <v>       0.20833333       0.47222222       0.00000000 </v>
   <v>       0.25000000       0.47222222       0.00000000 </v>
   <v>       0.29166667       0.47222222       0.00000000 </v>
   <v>       0.33333333       0.47222222       0.00000000 </v>
   <v>       0.37500000       0.47222222       0.00000000 </v>
   <v>       0.41666667       0.47222222       0.00000000 </v>
   <v>       0.45833333       0.47222222       0.00000000 </v>
   <v>       0.50000000       0.47222222       0.00000000 </v>
   <v>       0.00000000       0.50000000       0.00000000 </v>
   <v>       0.04166667       0.50000000       0.00000000 </v>
   <v>       0.08333333       0.50000000       0.00000000 </v>
   <v>       0.12500000       0.50000000       0.00000000 </v>
   <v>       0.16666667       0.50000000       0.00000000 </v>
   <v>       0.20833333       0.50000000       0.00000000 </v>
   <v>       0.25000000       0.50000000       0.00000000 </v>
   <v>       0.29166667       0.50000000       0.00000000 </v>
   <v>       0.33333333       0.50000000       0.00000000 </v>
   <v>       0.37500000       0.50000000       0.00000000 </v>
   <v>       0.41666667       0.50000000       0.00000000 </v>
   <v>       0.45833333       0.50000000       0.00000000 </v>
   <v>       0.50000000       0.50000000       0.00000000 </v>
  </varray>
  <varray name="weights" >
   <v>       0.00115741 </v>
   <v>       0.00231481 </v>
   <v>       0.00231481 </v>
   <v>       0.00231481 </v>
   <v>       0.00231481 </v>
   <v>       0.00231481 </v>
   <v>       0.00231481 </v>
   <v>       0.00231481 </v>
   <v>       0.00231481 </v>
   <v>       0.00231481 </v>
   <v>       0.00231481 </v>
   <v>       0.00231481 </v>
   <v>       0.00115741 </v>
   <v>       0.00231481 </v>
   <v>       0.00462963 </v>
   <v>       0.00462963 </v>
   <v>       0.00462963 </v>
   <v>       0.00462963 </v>
   <v>       0.00462963 </v>
   <v>       0.00462963 </v>
   <v>       0.00462963 </v>
   <v>       0.00462963 </v>
   <v>       0.00462963 </v>
   <v>       0.00462963 </v>
   <v>       0.00462963 </v>
   <v>       0.00231481 </v>
   <v>       0.00231481 </v>
   <v>       0.00462963 </v>
   <v>       0.00462963 </v>
   <v>       0.00462963 </v>
   <v>       0.00462963 </v>
   <v>       0.00462963 </v>
   <v>       0.00462963 </v>
   <v>       0.00462963 </v>
   <v>       0.00462963 </v>
   <v>       0.00462963 </v>
   <v>       0.00462963 </v>
   <v>       0.00462963 </v>
   <v>       0.00231481 </v>
   <v>       0.00231481 </v>
   <v>       0.00462963 </v>
   <v>       0.00462963 </v>
   <v>       0.00462963 </v>
   <v>       0.00462963 </v>
   <v>       0.00462963 </v>
   <v>       0.00462963 </v>
   <v>       0.00462963 </v>
   <v>       0.00462963 </v>
   <v>       0.00462963 </v>
   <v>       0.00462963 </v>
   <v>       0.00462963 </v>
   <v>       0.00231481 </v>
   <v>       0.00231481 </v>
   <v>       0.00462963 </v>
   <v>       0.00462963 </v>
   <v>       0.00462963 </v>
   <v>       0.00462963 </v>
   <v>       0.00462963 </v>
   <v>       0.00462963 </v>
   <v>       0.00462963 </v>
   <v>       0.00462963 </v>
   <v>       0.00462963 </v>
   <v>       0.00462963 </v>
   <v>       0.00462963 </v>
   <v>       0.00231481 </v>
   <v>       0.00231481 </v>
   <v>       0.00462963 </v>
   <v>       0.00462963 </v>
   <v>       0.00462963 </v>
   <v>       0.00462963 </v>
   <v>       0.00462963 </v>
   <v>       0.00462963 </v>
   <v>       0.00462963 </v>
   <v>       0.00462963 </v>
   <v>       0.00462963 </v>
   <v>       0.00462963 </v>
   <v>       0.00462963 </v>
   <v>       0.00231481 </v>
   <v>       0.00231481 </v>
   <v>       0.00462963 </v>
   <v>       0.00462963 </v>
   <v>       0.00462963 </v>
   <v>       0.00462963 </v>
   <v>       0.00462963 </v>
   <v>       0.00462963 </v>
   <v>       0.00462963 </v>
   <v>       0.00462963 </v>
   <v>       0.00462963 </v>
   <v>       0.00462963 </v>
   <v>       0.00462963 </v>
   <v>       0.00231481 </v>
   <v>       0.00231481 </v>
   <v>       0.00462963 </v>
   <v>       0.00462963 </v>
   <v>       0.00462963 </v>
   <v>       0.00462963 </v>
   <v>       0.00462963 </v>
   <v>       0.00462963 </v>
   <v>       0.00462963 </v>
   <v>       0.00462963 </v>
   <v>       0.00462963 </v>
   <v>       0.00462963 </v>
   <v>       0.00462963 </v>
   <v>       0.00231481 </v>
   <v>       0.00231481 </v>
   <v>       0.00462963 </v>
   <v>       0.00462963 </v>
   <v>       0.00462963 </v>
   <v>       0.00462963 </v>
   <v>       0.00462963 </v>
   <v>       0.00462963 </v>
   <v>       0.00462963 </v>
   <v>       0.00462963 </v>
   <v>       0.00462963 </v>
   <v>       0.00462963 </v>
   <v>       0.00462963 </v>
   <v>       0.00231481 </v>
   <v>       0.00231481 </v>
   <v>       0.00462963 </v>
   <v>       0.00462963 </v>
   <v>       0.00462963 </v>
   <v>       0.00462963 </v>
   <v>       0.00462963 </v>
   <v>       0.00462963 </v>
   <v>       0.00462963 </v>
   <v>       0.00462963 </v>
   <v>       0.00462963 </v>
   <v>       0.00462963 </v>
   <v>       0.00462963 </v>
   <v>       0.00231481 </v>
   <v>       0.00231481 </v>
   <v>       0.00462963 </v>
   <v>       0.00462963 </v>
   <v>       0.00462963 </v>
   <v>       0.00462963 </v>
   <v>       0.00462963 </v>
   <v>       0.00462963 </v>
   <v>       0.00462963 </v>
   <v>       0.00462963 </v>
   <v>       0.00462963 </v>
   <v>       0.00462963 </v>
   <v>       0.00462963 </v>
   <v>       0.00231481 </v>
   <v>       0.00231481 </v>
   <v>       0.00462963 </v>
   <v>       0.00462963 </v>
   <v>       0.00462963 </v>
   <v>       0.00462963 </v>
   <v>       0.00462963 </v>
   <v>       0.00462963 </v>
   <v>       0.00462963 </v>
   <v>       0.00462963 </v>
   <v>       0.00462963 </v>
   <v>       0.00462963 </v>
   <v>       0.00462963 </v>
   <v>       0.00231481 </v>
   <v>       0.00231481 </v>
   <v>       0.00462963 </v>
   <v>       0.00462963 </v>
   <v>       0.00462963 </v>
   <v>       0.00462963 </v>
   <v>       0.00462963 </v>
   <v>       0.00462963 </v>
   <v>       0.00462963 </v>
   <v>       0.00462963 </v>
   <v>       0.00462963 </v>
   <v>       0.00462963 </v>
   <v>       0.00462963 </v>
   <v>       0.00231481 </v>
   <v>       0.00231481 </v>
   <v>       0.00462963 </v>
   <v>       0.00462963 </v>
   <v>       0.00462963 </v>
   <v>       0.00462963 </v>
   <v>       0.00462963 </v>
   <v>       0.00462963 </v>
   <v>       0.00462963 </v>
   <v>       0.00462963 </v>
   <v>       0.00462963 </v>
   <v>       0.00462963 </v>
   <v>       0.00462963 </v>
   <v>       0.00231481 </v>
   <v>       0.00231481 </v>
   <v>       0.00462963 </v>
   <v>       0.00462963 </v>
   <v>       0.00462963 </v>
   <v>       0.00462963 </v>
   <v>       0.00462963 </v>
   <v>       0.00462963 </v>
   <v>       0.00462963 </v>
   <v>       0.00462963 </v>
   <v>       0.00462963 </v>
   <v>       0.00462963 </v>
   <v>       0.00462963 </v>
   <v>       0.00231481 </v>
   <v>       0.00231481 </v>
   <v>       0.00462963 </v>
   <v>       0.00462963 </v>
   <v>       0.00462963 </v>
   <v>       0.00462963 </v>
   <v>       0.00462963 </v>
   <v>       0.00462963 </v>
   <v>       0.00462963 </v>
   <v>       0.00462963 </v>
   <v>       0.00462963 </v>
   <v>       0.00462963 </v>
   <v>       0.00462963 </v>
   <v>       0.00231481 </v>
   <v>       0.00231481 </v>
   <v>       0.00462963 </v>
   <v>       0.00462963 </v>
   <v>       0.00462963 </v>
   <v>       0.00462963 </v>
   <v>       0.00462963 </v>
   <v>       0.00462963 </v>
   <v>       0.00462963 </v>
   <v>       0.00462963 </v>
   <v>       0.00462963 </v>
   <v>       0.00462963 </v>
   <v>       0.00462963 </v>
   <v>       0.00231481 </v>
   <v>       0.00231481 </v>
   <v>       0.00462963 </v>
   <v>       0.00462963 </v>
   <v>       0.00462963 </v>
   <v>       0.00462963 </v>
   <v>       0.00462963 </v>
   <v>       0.00462963 </v>
   <v>       0.00462963 </v>
   <v>       0.00462963 </v>
   <v>       0.00462963 </v>
   <v>       0.00462963 </v>
   <v>       0.00462963 </v>
   <v>       0.00231481 </v>
   <v>       0.00115741 </v>
   <v>       0.00231481 </v>
   <v>       0.00231481 </v>
   <v>       0.00231481 </v>
   <v>       0.00231481 </v>
   <v>       0.00231481 </v>
   <v>       0.00231481 </v>
   <v>       0.00231481 </v>
   <v>       0.00231481 </v>
   <v>       0.00231481 </v>
   <v>       0.00231481 </v>
   <v>       0.00231481 </v>
   <v>       0.00115741 </v>
  </varray>
 </kpoints>
 <parameters>
  <separator name="general" >
   <i type="string" name="SYSTEM">gr</i>
   <i type="logical" name="LCOMPAT"> F  </i>
  </separator>
  <separator name="electronic" >
   <i type="string" name="PREC">accura</i>
   <i name="ENMAX">   2000.00000000</i>
   <i name="ENAUG">    644.87300000</i>
   <i name="EDIFF">      0.00000000</i>
   <i type="int" name="IALGO">    68</i>
   <i type="int" name="IWAVPR">    11</i>
   <i type="int" name="NBANDS">    12</i>
   <i name="NELECT">     16.00000000</i>
   <i type="int" name="TURBO">     0</i>
   <i type="int" name="IRESTART">     0</i>
   <i type="int" name="NREBOOT">     0</i>
   <i type="int" name="NMIN">     0</i>
   <i name="EREF">      0.00000000</i>
   <separator name="electronic smearing" >
    <i type="int" name="ISMEAR">     0</i>
    <i name="SIGMA">      0.05000000</i>
    <i name="KSPACING">      0.50000000</i>
    <i type="logical" name="KGAMMA"> T  </i>
   </separator>
   <separator name="electronic projectors" >
    <i type="logical" name="LREAL"> F  </i>
    <v name="ROPT">      0.00000000</v>
    <i type="int" name="LMAXPAW">  -100</i>
    <i type="int" name="LMAXMIX">     2</i>
    <i type="logical" name="NLSPLINE"> F  </i>
   </separator>
   <separator name="electronic startup" >
    <i type="int" name="ISTART">     0</i>
    <i type="int" name="ICHARG">     2</i>
    <i type="int" name="INIWAV">     1</i>
   </separator>
   <separator name="electronic spin" >
    <i type="int" name="ISPIN">     1</i>
    <i type="logical" name="LNONCOLLINEAR"> F  </i>
    <v name="MAGMOM">      1.00000000      1.00000000      1.00000000      1.00000000</v>
    <i name="NUPDOWN">     -1.00000000</i>
    <i type="logical" name="LSORBIT"> F  </i>
    <v name="SAXIS">      0.00000000      0.00000000      1.00000000</v>
    <i type="logical" name="LSPIRAL"> F  </i>
    <v name="QSPIRAL">      0.00000000      0.00000000      0.00000000</v>
    <i type="logical" name="LZEROZ"> F  </i>
   </separator>
   <separator name="electronic exchange-correlation" >
    <i type="logical" name="LASPH"> F  </i>
    <i type="logical" name="LMETAGGA"> F  </i>
   </separator>
   <separator name="electronic convergence" >
    <i type="int" name="NELM">   100</i>
    <i type="int" name="NELMDL">    -3</i>
    <i type="int" name="NELMIN">     5</i>
    <i name="ENINI">   2000.00000000</i>
    <separator name="electronic convergence detail" >
     <i type="logical" name="LDIAG"> T  </i>
     <i type="logical" name="LSUBROT"> F  </i>
     <i name="WEIMIN">      0.00100000</i>
     <i name="EBREAK">      0.00000000</i>
     <i name="DEPER">      0.30000000</i>
     <i type="int" name="NRMM">     4</i>
     <i name="TIME">      0.40000000</i>
    </separator>
   </separator>
   <separator name="electronic mixer" >
    <i name="AMIX">      0.40000000</i>
    <i name="BMIX">      1.00000000</i>
    <i name="AMIN">      0.10000000</i>
    <i name="AMIX_MAG">      1.60000000</i>
    <i name="BMIX_MAG">      1.00000000</i>
    <separator name="electronic mixer details" >
     <i type="int" name="IMIX">     4</i>
     <i type="int" name="MAXMIX">   -45</i>
     <i name="WC">    100.00000000</i>
     <i type="int" name="INIMIX">     1</i>
     <i type="int" name="MIXPRE">     1</i>
     <i type="int" name="MREMOVE">     5</i>
    </separator>
   </separator>
   <separator name="electronic dipolcorrection" >
    <i type="logical" name="LDIPOL"> F  </i>
    <i type="logical" name="LMONO"> F  </i>
    <i type="int" name="IDIPOL">     0</i>
    <i name="EPSILON">      1.00000000</i>
    <v name="DIPOL">   -100.00000000   -100.00000000   -100.00000000</v>
    <i name="EFIELD">      0.00000000</i>
   </separator>
  </separator>
  <separator name="grids" >
   <i type="int" name="NGX">    64</i>
   <i type="int" name="NGY">    36</i>
   <i type="int" name="NGZ">   294</i>
   <i type="int" name="NGXF">   128</i>
   <i type="int" name="NGYF">    72</i>
   <i type="int" name="NGZF">   588</i>
   <i type="logical" name="ADDGRID"> F  </i>
  </separator>
  <separator name="ionic" >
   <i type="int" name="NSW">   400</i>
   <i type="int" name="IBRION">     1</i>
   <i type="int" name="ISIF">     2</i>
   <i name="PSTRESS">      0.00000000</i>
   <i name="EDIFFG">     -0.00000100</i>
   <i type="int" name="NFREE">     0</i>
   <i name="POTIM">      0.50000000</i>
   <i name="SMASS">     -3.00000000</i>
   <i name="SCALEE">      1.00000000</i>
  </separator>
  <separator name="ionic md" >
   <i name="TEBEG">      0.00010000</i>
   <i name="TEEND">      0.00010000</i>
   <i type="int" name="NBLOCK">     1</i>
   <i type="int" name="KBLOCK">   400</i>
   <i type="int" name="NPACO">   256</i>
   <i name="APACO">     16.00000000</i>
  </separator>
  <separator name="symmetry" >
   <i type="int" name="ISYM">     2</i>
   <i name="SYMPREC">      0.00001000</i>
  </separator>
  <separator name="dos" >
   <i type="logical" name="LORBIT"> F  </i>
   <v name="RWIGS">     -1.00000000</v>
   <i type="int" name="NEDOS">   301</i>
   <i name="EMIN">     10.00000000</i>
   <i name="EMAX">    -10.00000000</i>
   <i name="EFERMI">      0.00000000</i>
  </separator>
  <separator name="writing" >
   <i type="int" name="NWRITE">     2</i>
   <i type="logical" name="LWAVE"> F  </i>
   <i type="logical" name="LCHARG"> F  </i>
   <i type="logical" name="LPARD"> F  </i>
   <i type="logical" name="LVTOT"> F  </i>
   <i type="logical" name="LVHAR"> F  </i>
   <i type="logical" name="LELF"> F  </i>
   <i type="logical" name="LOPTICS"> F  </i>
   <v name="STM">      0.00000000      0.00000000      0.00000000      0.00000000      0.00000000      0.00000000      0.00000000</v>
  </separator>
  <separator name="performance" >
   <i type="int" name="NPAR">     4</i>
   <i type="int" name="NSIM">     4</i>
   <i type="int" name="NBLK">    -1</i>
   <i type="logical" name="LPLANE"> T  </i>
   <i type="logical" name="LSCALAPACK"> F  </i>
   <i type="logical" name="LSCAAWARE"> F  </i>
   <i type="logical" name="LSCALU"> F  </i>
   <i type="logical" name="LASYNC"> F  </i>
   <i type="logical" name="LORBITALREAL"> F  </i>
  </separator>
  <separator name="miscellaneous" >
   <i type="int" name="IDIOT">     3</i>
   <i type="logical" name="LMUSIC"> F  </i>
   <v name="POMASS">     12.01100000</v>
   <v name="DARWINR">      0.00000000</v>
   <v name="DARWINV">      1.00000000</v>
   <i type="logical" name="LCORR"> T  </i>
  </separator>
  <i type="logical" name="GGA_COMPAT"> T  </i>
  <i type="logical" name="LBERRY"> F  </i>
  <i type="int" name="ICORELEVEL">     0</i>
  <i type="logical" name="LDAU"> F  </i>
  <i type="int" name="I_CONSTRAINED_M">     0</i>
  <separator name="electronic exchange-correlation" >
   <i type="string" name="GGA">--</i>
   <i type="int" name="VOSKOWN">     0</i>
   <i type="logical" name="LHFCALC"> F  </i>
   <i type="string" name="PRECFOCK"></i>
   <i type="logical" name="LSYMGRAD"> F  </i>
   <i type="logical" name="LHFONE"> F  </i>
   <i type="logical" name="LRHFCALC"> F  </i>
   <i type="logical" name="LTHOMAS"> F  </i>
   <i type="logical" name="LMODELHF"> F  </i>
   <i name="ENCUT4O">     -1.00000000</i>
   <i type="int" name="EXXOEP">     0</i>
   <i type="int" name="FOURORBIT">     0</i>
   <i name="AEXX">      0.00000000</i>
   <i name="HFALPHA">      0.00000000</i>
   <i name="MCALPHA">      0.00000000</i>
   <i name="ALDAX">      1.00000000</i>
   <i name="AGGAX">      1.00000000</i>
   <i name="ALDAC">      1.00000000</i>
   <i name="AGGAC">      1.00000000</i>
   <i type="int" name="NKREDX">     1</i>
   <i type="int" name="NKREDY">     1</i>
   <i type="int" name="NKREDZ">     1</i>
   <i type="logical" name="SHIFTRED"> F  </i>
   <i type="logical" name="ODDONLY"> F  </i>
   <i type="logical" name="EVENONLY"> F  </i>
   <i type="int" name="LMAXFOCK">     0</i>
   <i type="int" name="NMAXFOCKAE">     0</i>
   <i type="logical" name="LFOCKAEDFT"> F  </i>
   <i name="HFSCREEN">      0.00000000</i>
   <i name="HFSCREENC">      0.00000000</i>
   <i type="int" name="NBANDSGWLOW">     0</i>
  </separator>
  <separator name="vdW DFT" >
   <i type="logical" name="LUSE_VDW"> F  </i>
   <i name="Zab_VDW">     -0.84910000</i>
   <i name="PARAM1">      0.12340000</i>
   <i name="PARAM2">      1.00000000</i>
   <i name="PARAM3">      0.00000000</i>
  </separator>
  <separator name="model GW" >
   <i type="int" name="MODEL_GW">     0</i>
   <i name="MODEL_EPS0">     31.62568521</i>
   <i name="MODEL_ALPHA">      1.00000000</i>
  </separator>
  <separator name="linear response parameters" >
   <i type="logical" name="LEPSILON"> F  </i>
   <i type="logical" name="LRPA"> F  </i>
   <i type="logical" name="LNABLA"> F  </i>
   <i type="logical" name="LVEL"> F  </i>
   <i type="int" name="KINTER">     0</i>
   <i name="CSHIFT">      0.10000000</i>
   <i name="OMEGAMAX">     -1.00000000</i>
   <i name="DEG_THRESHOLD">      0.00200000</i>
  </separator>
  <separator name="orbital magnetization" >
   <i type="logical" name="NUCIND"> F  </i>
   <v name="MAGPOS">      0.00000000      0.00000000      0.00000000</v>
   <i type="logical" name="LNICSALL"> T  </i>
   <i type="logical" name="ORBITALMAG"> F  </i>
   <i type="logical" name="LMAGBLOCH"> F  </i>
   <i type="logical" name="LCHIMAG"> F  </i>
   <i type="logical" name="LGAUGE"> T  </i>
   <i type="int" name="MAGATOM">     0</i>
   <v name="MAGDIPOL">      0.00000000      0.00000000      0.00000000</v>
   <v name="AVECCONST">      0.00000000      0.00000000      0.00000000</v>
  </separator>
  <separator name="response functions" >
   <i type="logical" name="LADDER"> F  </i>
   <i type="logical" name="LFXC"> F  </i>
   <i type="logical" name="LHARTREE"> T  </i>
   <i type="int" name="IBSE">     0</i>
   <i type="logical" name="LTCTE"> F  </i>
   <i type="logical" name="LTETE"> F  </i>
   <i type="logical" name="LTRIPLET"> F  </i>
   <i type="logical" name="LFXCEPS"> F  </i>
   <i type="logical" name="LFXHEG"> F  </i>
   <i type="logical" name="L2ORDER"> F  </i>
   <i type="logical" name="LUSEW"> F  </i>
   <i name="ENCUTGW">     -2.00000000</i>
   <i name="ENCUTGWSOFT">     -2.00000000</i>
   <i name="ENCUTLF">     -1.00000000</i>
   <i type="int" name="LMAXMP2">    -1</i>
   <i name="SCISSOR">      0.00000000</i>
   <i type="int" name="NOMEGA">     0</i>
   <i type="int" name="NOMEGAR">     0</i>
   <i type="int" name="NBANDSGW">    -1</i>
   <i type="int" name="NBANDSO">    -1</i>
   <i type="int" name="NBANDSV">    -1</i>
   <i type="int" name="NELM">   100</i>
   <i type="int" name="DIM">     3</i>
   <i type="int" name="ANTIRES">     0</i>
   <i name="OMEGAMAX">    -30.00000000</i>
   <i name="OMEGAMIN">    -30.00000000</i>
   <i name="OMEGATL">   -200.00000000</i>
   <i type="int" name="OMEGAGRID">     0</i>
   <i name="CSHIFT">     -0.10000000</i>
   <i type="logical" name="SELFENERGY"> F  </i>
   <i type="logical" name="LSPECTRAL"> F  </i>
   <i type="logical" name="ODDONLYGW"> F  </i>
   <i type="logical" name="EVENONLYGW"> F  </i>
   <i type="int" name="NKREDLFX">     1</i>
   <i type="int" name="NKREDLFY">     1</i>
   <i type="int" name="NKREDLFZ">     1</i>
   <i type="int" name="MAXMEM">  1800</i>
   <i type="int" name="TELESCOPE">     0</i>
   <i type="int" name="TAUPAR">     1</i>
  </separator>
  <separator name="External order field" >
   <i name="OFIELD_KAPPA">      0.00000000</i>
   <v name="OFIELD_K">      0.00000000      0.00000000      0.00000000</v>
   <i name="OFIELD_Q6_NEAR">      0.00000000</i>
   <i name="OFIELD_Q6_FAR">      0.00000000</i>
   <i name="OFIELD_A">      0.00000000</i>
  </separator>
 </parameters>
 <atominfo>
  <atoms>       4 </atoms>
  <types>       1 </types>
  <array name="atoms" >
   <dimension dim="1">ion</dimension>
   <field type="string">element</field>
   <field type="int">atomtype</field>
   <set>
    <rc><c>C </c><c>   1</c></rc>
    <rc><c>C </c><c>   1</c></rc>
    <rc><c>C </c><c>   1</c></rc>
    <rc><c>C </c><c>   1</c></rc>
   </set>
  </array>
  <array name="atomtypes" >
   <dimension dim="1">type</dimension>
   <field type="int">atomspertype</field>
   <field type="string">element</field>
   <field>mass</field>
   <field>valence</field>
   <field type="string">pseudopotential</field>
   <set>
    <rc><c>   4</c><c>C </c><c>     12.01100000</c><c>      4.00000000</c><c> PAW_PBE C 08Apr2002                    </c></rc>
   </set>
  </array>
 </atominfo>
 <structure name="initialpos" >
  <crystal>
   <varray name="basis" >
    <v>       4.27325491       0.00000000       0.00000000 </v>
    <v>       0.00000000       2.46747278       0.00000000 </v>
    <v>       0.00000000       0.00000000      19.99574156 </v>
   </varray>
   <i name="volume">    210.83790140 </i>
   <varray name="rec_basis" >
    <v>       0.23401366       0.00000000       0.00000000 </v>
    <v>       0.00000000       0.40527296       0.00000000 </v>
    <v>       0.00000000       0.00000000       0.05001065 </v>
   </varray>
  </crystal>
  <varray name="positions" >
   <v>       0.99987391       0.00000000       0.00000000 </v>
   <v>       0.16679275       0.50000000       0.00000000 </v>
   <v>       0.49987391       0.50000000       0.00000000 </v>
   <v>       0.66679275       0.00000000       0.00000000 </v>
  </varray>
 </structure>
 <calculation>
  <scstep>
   <time name="dav">  295.79  297.53</time>
   <time name="total">  298.33  300.15</time>
   <energy>
    <i name="alphaZ">      6.18334092 </i>
    <i name="ewald">   2585.42056741 </i>
    <i name="hartreedc">  -3010.84412800 </i>
    <i name="XCdc">     55.09474992 </i>
    <i name="pawpsdc">    151.32577238 </i>
    <i name="pawaedc">   -155.92769107 </i>
    <i name="eentropy">     -0.00127343 </i>
    <i name="bandstr">    -29.73657544 </i>
    <i name="atom">    588.62352690 </i>
    <i name="e_fr_energy">    190.13828960 </i>
    <i name="e_wo_entrp">    190.13956304 </i>
    <i name="e_0_energy">    190.13892632 </i>
   </energy>
  </scstep>
  <scstep>
   <time name="dav">  448.79  450.90</time>
   <time name="total">  448.80  450.91</time>
   <energy>
    <i name="e_fr_energy">     -9.61893229 </i>
    <i name="e_wo_entrp">     -9.61873192 </i>
    <i name="e_0_energy">     -9.61883211 </i>
   </energy>
  </scstep>
  <scstep>
   <time name="dav">  344.50  345.91</time>
   <time name="total">  375.71  377.52</time>
   <energy>
    <i name="e_fr_energy">    -38.43574672 </i>
    <i name="e_wo_entrp">    -38.43570458 </i>
    <i name="e_0_energy">    -38.43572565 </i>
   </energy>
  </scstep>
  <scstep>
   <time name="diag">   81.14   81.93</time>
   <time name="diis">  345.08  347.80</time>
   <time name="orth">    3.08    3.08</time>
   <time name="total">  462.68  466.64</time>
   <energy>
    <i name="e_fr_energy">    -37.70567135 </i>
    <i name="e_wo_entrp">    -37.70554471 </i>
    <i name="e_0_energy">    -37.70560803 </i>
   </energy>
  </scstep>
  <scstep>
   <time name="diag">   81.22   81.93</time>
   <time name="diis">  343.68  345.19</time>
   <time name="orth">    3.08    3.08</time>
   <time name="total">  461.75  464.11</time>
   <energy>
    <i name="e_fr_energy">    -36.93602386 </i>
    <i name="e_wo_entrp">    -36.93589633 </i>
    <i name="e_0_energy">    -36.93596010 </i>
   </energy>
  </scstep>
  <scstep>
   <time name="diag">   81.61   81.99</time>
   <time name="diis">  371.33  373.54</time>
   <time name="orth">    3.08    3.10</time>
   <time name="total">  489.66  492.51</time>
   <energy>
    <i name="e_fr_energy">    -36.93806879 </i>
    <i name="e_wo_entrp">    -36.93794122 </i>
    <i name="e_0_energy">    -36.93800501 </i>
   </energy>
  </scstep>
  <scstep>
   <time name="diag">   81.31   81.95</time>
   <time name="diis">  341.92  344.80</time>
   <time name="orth">    3.08    3.10</time>
   <time name="total">  459.82  463.78</time>
   <energy>
    <i name="e_fr_energy">    -36.92860664 </i>
    <i name="e_wo_entrp">    -36.92847940 </i>
    <i name="e_0_energy">    -36.92854302 </i>
   </energy>
  </scstep>
  <scstep>
   <time name="diag">   81.08   81.93</time>
   <time name="diis">  343.73  345.93</time>
   <time name="orth">    3.08    3.11</time>
   <time name="total">  461.50  465.05</time>
   <energy>
    <i name="e_fr_energy">    -36.92253658 </i>
    <i name="e_wo_entrp">    -36.92240933 </i>
    <i name="e_0_energy">    -36.92247296 </i>
   </energy>
  </scstep>
  <scstep>
   <time name="diag">   81.35   81.93</time>
   <time name="diis">  329.71  333.16</time>
   <time name="orth">    3.08    3.09</time>
   <time name="total">  447.58  452.02</time>
   <energy>
    <i name="e_fr_energy">    -36.92225682 </i>
    <i name="e_wo_entrp">    -36.92212950 </i>
    <i name="e_0_energy">    -36.92219316 </i>
   </energy>
  </scstep>
  <scstep>
   <time name="diag">   81.01   81.88</time>
   <time name="diis">  330.01  333.72</time>
   <time name="orth">    3.07    3.07</time>
   <time name="total">  447.71  452.59</time>
   <energy>
    <i name="e_fr_energy">    -36.92197563 </i>
    <i name="e_wo_entrp">    -36.92184834 </i>
    <i name="e_0_energy">    -36.92191198 </i>
   </energy>
  </scstep>
  <scstep>
   <time name="diag">   81.72   81.86</time>
   <time name="diis">  333.33  335.81</time>
   <time name="orth">    3.07    3.07</time>
   <time name="total">  451.55  454.67</time>
   <energy>
    <i name="e_fr_energy">    -36.92459079 </i>
    <i name="e_wo_entrp">    -36.92446352 </i>
    <i name="e_0_energy">    -36.92452716 </i>
   </energy>
  </scstep>
  <scstep>
   <time name="diag">   81.09   81.90</time>
   <time name="diis">  331.37  335.00</time>
   <time name="orth">    3.07    3.07</time>
   <time name="total">  449.13  453.84</time>
   <energy>
    <i name="e_fr_energy">    -36.92502572 </i>
    <i name="e_wo_entrp">    -36.92489844 </i>
    <i name="e_0_energy">    -36.92496208 </i>
   </energy>
  </scstep>
  <scstep>
   <time name="diag">   81.29   81.91</time>
   <time name="diis">  336.25  339.29</time>
   <time name="orth">    3.08    3.09</time>
   <time name="total">  454.13  458.22</time>
   <energy>
    <i name="e_fr_energy">    -36.92531075 </i>
    <i name="e_wo_entrp">    -36.92518346 </i>
    <i name="e_0_energy">    -36.92524711 </i>
   </energy>
  </scstep>
  <scstep>
   <time name="diag">   81.86   81.90</time>
   <time name="diis">  334.13  334.38</time>
   <time name="orth">    3.08    3.08</time>
   <time name="total">  452.91  453.25</time>
   <energy>
    <i name="e_fr_energy">    -36.92539775 </i>
    <i name="e_wo_entrp">    -36.92527047 </i>
    <i name="e_0_energy">    -36.92533411 </i>
   </energy>
  </scstep>
  <scstep>
   <time name="diag">   81.90   81.93</time>
   <time name="diis">  338.85  338.94</time>
   <time name="orth">    3.10    3.10</time>
   <time name="total">  457.66  457.95</time>
   <energy>
    <i name="e_fr_energy">    -36.92540616 </i>
    <i name="e_wo_entrp">    -36.92527888 </i>
    <i name="e_0_energy">    -36.92534252 </i>
   </energy>
  </scstep>
  <scstep>
   <time name="diag">   81.85   81.86</time>
   <time name="diis">  341.80  341.92</time>
   <time name="orth">    3.08    3.08</time>
   <time name="total">  460.54  460.69</time>
   <energy>
    <i name="e_fr_energy">    -36.92541726 </i>
    <i name="e_wo_entrp">    -36.92528997 </i>
    <i name="e_0_energy">    -36.92535362 </i>
   </energy>
  </scstep>
  <scstep>
   <time name="diag">   81.82   81.84</time>
   <time name="diis">  336.93  337.00</time>
   <time name="orth">    3.09    3.09</time>
   <time name="total">  455.78  456.04</time>
   <energy>
    <i name="e_fr_energy">    -36.92542064 </i>
    <i name="e_wo_entrp">    -36.92529336 </i>
    <i name="e_0_energy">    -36.92535700 </i>
   </energy>
  </scstep>
  <scstep>
   <time name="diag">   81.81   81.83</time>
   <time name="diis">  333.30  333.37</time>
   <time name="orth">    3.10    3.10</time>
   <time name="total">  452.07  452.36</time>
   <energy>
    <i name="e_fr_energy">    -36.92542280 </i>
    <i name="e_wo_entrp">    -36.92529552 </i>
    <i name="e_0_energy">    -36.92535916 </i>
   </energy>
  </scstep>
  <scstep>
   <time name="diag">   81.75   81.79</time>
   <time name="diis">  346.93  348.60</time>
   <time name="orth">    3.08    3.08</time>
   <time name="total">  465.48  467.41</time>
   <energy>
    <i name="e_fr_energy">    -36.92542311 </i>
    <i name="e_wo_entrp">    -36.92529583 </i>
    <i name="e_0_energy">    -36.92535947 </i>
   </energy>
  </scstep>
  <scstep>
   <time name="diag">   81.40   81.77</time>
   <time name="diis">  259.32  260.29</time>
   <time name="orth">    3.07    3.08</time>
   <time name="total">  377.46  379.00</time>
   <energy>
    <i name="e_fr_energy">    -36.92542317 </i>
    <i name="e_wo_entrp">    -36.92529589 </i>
    <i name="e_0_energy">    -36.92535953 </i>
   </energy>
  </scstep>
  <scstep>
   <time name="diag">   80.95   81.74</time>
   <time name="diis">  246.55  248.91</time>
   <time name="orth">    3.09    3.09</time>
   <time name="total">  364.43  367.67</time>
   <energy>
    <i name="e_fr_energy">    -36.92542319 </i>
    <i name="e_wo_entrp">    -36.92529590 </i>
    <i name="e_0_energy">    -36.92535954 </i>
   </energy>
  </scstep>
  <scstep>
   <time name="diag">   81.77   81.90</time>
   <time name="diis">  229.53  229.99</time>
   <time name="orth">    3.07    3.07</time>
   <time name="total">  348.16  348.89</time>
   <energy>
    <i name="e_fr_energy">    -36.92542319 </i>
    <i name="e_wo_entrp">    -36.92529590 </i>
    <i name="e_0_energy">    -36.92535954 </i>
   </energy>
  </scstep>
  <scstep>
   <time name="diag">   81.56   81.80</time>
   <time name="diis">  216.62  218.86</time>
   <time name="orth">    3.08    3.10</time>
   <time name="total">  334.71  337.59</time>
   <energy>
    <i name="e_fr_energy">    -36.92542319 </i>
    <i name="e_wo_entrp">    -36.92529590 </i>
    <i name="e_0_energy">    -36.92535954 </i>
   </energy>
  </scstep>
  <scstep>
   <time name="diag">   81.12   81.85</time>
   <time name="diis">  204.52  205.43</time>
   <time name="orth">    3.09    3.09</time>
   <time name="total">  322.63  324.61</time>
   <energy>
    <i name="e_fr_energy">    -36.92542319 </i>
    <i name="e_wo_entrp">    -36.92529590 </i>
    <i name="e_0_energy">    -36.92535954 </i>
   </energy>
  </scstep>
  <scstep>
   <time name="diag">   81.75   81.84</time>
   <time name="diis">  194.52  195.70</time>
   <time name="orth">    3.07    3.09</time>
   <time name="total">  312.74  314.62</time>
   <energy>
    <i name="e_fr_energy">    -36.92542319 </i>
    <i name="e_wo_entrp">    -36.92529590 </i>
    <i name="e_0_energy">    -36.92535954 </i>
   </energy>
  </scstep>
  <scstep>
   <time name="diag">   81.34   81.77</time>
   <time name="diis">  187.58  188.38</time>
   <time name="orth">    3.07    3.07</time>
   <time name="total">  305.34  307.09</time>
   <energy>
    <i name="e_fr_energy">    -36.92542319 </i>
    <i name="e_wo_entrp">    -36.92529590 </i>
    <i name="e_0_energy">    -36.92535954 </i>
   </energy>
  </scstep>
  <scstep>
   <time name="diag">   81.38   81.80</time>
   <time name="diis">  181.12  182.73</time>
   <time name="orth">    3.08    3.10</time>
   <time name="total">  299.08  301.61</time>
   <energy>
    <i name="e_fr_energy">    -36.92542319 </i>
    <i name="e_wo_entrp">    -36.92529590 </i>
    <i name="e_0_energy">    -36.92535954 </i>
   </energy>
  </scstep>
  <scstep>
   <time name="diag">   81.49   81.77</time>
   <time name="diis">  178.82  178.90</time>
   <time name="orth">    3.09    3.09</time>
   <time name="total">  297.01  297.71</time>
   <energy>
    <i name="e_fr_energy">    -36.92542319 </i>
    <i name="e_wo_entrp">    -36.92529590 </i>
    <i name="e_0_energy">    -36.92535954 </i>
   </energy>
  </scstep>
  <scstep>
   <time name="diag">   81.22   81.73</time>
   <time name="diis">  178.27  179.16</time>
   <time name="orth">    3.09    3.09</time>
   <time name="total">  264.98  266.44</time>
   <energy>
    <i name="alphaZ">      6.18334092 </i>
    <i name="ewald">   2585.42056741 </i>
    <i name="hartreedc">  -3079.36929682 </i>
    <i name="XCdc">     57.51870066 </i>
    <i name="pawpsdc">    276.99459978 </i>
    <i name="pawaedc">   -282.14307718 </i>
    <i name="eentropy">     -0.00012729 </i>
    <i name="bandstr">   -190.15365758 </i>
    <i name="atom">    588.62352690 </i>
    <i name="e_fr_energy">    -36.92542319 </i>
    <i name="e_wo_entrp">    -36.92529590 </i>
    <i name="e_0_energy">    -36.92535954 </i>
   </energy>
  </scstep>
  <structure>
   <crystal>
    <varray name="basis" >
     <v>       4.27325491       0.00000000       0.00000000 </v>
     <v>       0.00000000       2.46747278       0.00000000 </v>
     <v>       0.00000000       0.00000000      19.99574156 </v>
    </varray>
    <i name="volume">    210.83790140 </i>
    <varray name="rec_basis" >
     <v>       0.23401366       0.00000000       0.00000000 </v>
     <v>       0.00000000       0.40527296       0.00000000 </v>
     <v>       0.00000000       0.00000000       0.05001065 </v>
    </varray>
   </crystal>
   <varray name="positions" >
    <v>       0.99987391       0.00000000       0.00000000 </v>
    <v>       0.16679275       0.50000000       0.00000000 </v>
    <v>       0.49987391       0.50000000       0.00000000 </v>
    <v>       0.66679275       0.00000000       0.00000000 </v>
   </varray>
  </structure>
  <varray name="forces" >
   <v>       0.05748346       0.00000000       0.00000000 </v>
   <v>      -0.05748346      -0.00000000      -0.00000000 </v>
   <v>       0.05748346      -0.00000000       0.00000000 </v>
   <v>      -0.05748346       0.00000000      -0.00000000 </v>
  </varray>
  <varray name="stress" >
   <v>       0.17608512       0.00000000       0.00000000 </v>
   <v>       0.00000000      -0.33647050       0.00000000 </v>
   <v>       0.00000000       0.00000000      -0.01002312 </v>
  </varray>
  <energy>
   <i name="e_fr_energy">    -36.92542319 </i>
   <i name="e_wo_entrp">    -36.92535954 </i>
   <i name="e_0_energy">     -0.00012729 </i>
  </energy>
  <time name="totalsc">11781.2311847.25</time>
 </calculation>
 <calculation>
  <scstep>
   <time name="dav">  321.29  323.42</time>
   <time name="total">  354.95  357.37</time>
   <energy>
    <i name="alphaZ">      6.18334092 </i>
    <i name="ewald">   2585.42358568 </i>
    <i name="hartreedc">  -3079.36958348 </i>
    <i name="XCdc">     57.51872060 </i>
    <i name="pawpsdc">    276.99460011 </i>
    <i name="pawaedc">   -282.14307752 </i>
    <i name="eentropy">     -0.00008633 </i>
    <i name="bandstr">   -190.15550258 </i>
    <i name="atom">    588.62352690 </i>
    <i name="e_fr_energy">    -36.92447569 </i>
    <i name="e_wo_entrp">    -36.92438937 </i>
    <i name="e_0_energy">    -36.92443253 </i>
   </energy>
  </scstep>
  <scstep>
   <time name="diag">   81.68   81.93</time>
   <time name="diis">  329.41  331.69</time>
   <time name="orth">    3.07    3.08</time>
   <time name="total">  447.67  450.56</time>
   <energy>
    <i name="e_fr_energy">    -36.92451611 </i>
    <i name="e_wo_entrp">    -36.92442676 </i>
    <i name="e_0_energy">    -36.92447144 </i>
   </energy>
  </scstep>
  <scstep>
   <time name="diag">   81.83   81.93</time>
   <time name="diis">  338.90  340.70</time>
   <time name="orth">    3.07    3.10</time>
   <time name="total">  457.39  460.76</time>
   <energy>
    <i name="e_fr_energy">    -36.92447126 </i>
    <i name="e_wo_entrp">    -36.92437665 </i>
    <i name="e_0_energy">    -36.92442395 </i>
   </energy>
  </scstep>
  <scstep>
   <time name="diag">   81.03   81.87</time>
   <time name="diis">  345.61  349.26</time>
   <time name="orth">    3.08    3.08</time>
   <time name="total">  463.31  468.23</time>
   <energy>
    <i name="e_fr_energy">    -36.92446715 </i>
    <i name="e_wo_entrp">    -36.92437378 </i>
    <i name="e_0_energy">    -36.92442046 </i>
   </energy>
  </scstep>
  <scstep>
   <time name="diag">   81.16   81.88</time>
   <time name="diis">  352.12  354.96</time>
   <time name="orth">    3.08    3.10</time>
   <time name="total">  469.98  473.87</time>
   <energy>
    <i name="e_fr_energy">    -36.92446728 </i>
    <i name="e_wo_entrp">    -36.92437406 </i>
    <i name="e_0_energy">    -36.92442067 </i>
   </energy>
  </scstep>
  <scstep>
   <time name="diag">   81.20   81.95</time>
   <time name="diis">  346.40  349.73</time>
   <time name="orth">    3.10    3.10</time>
   <time name="total">  464.34  468.68</time>
   <energy>
    <i name="e_fr_energy">    -36.92446720 </i>
    <i name="e_wo_entrp">    -36.92437382 </i>
    <i name="e_0_energy">    -36.92442051 </i>
   </energy>
  </scstep>
  <scstep>
   <time name="diag">   81.57   81.86</time>
   <time name="diis">  340.31  343.25</time>
   <time name="orth">    3.07    3.07</time>
   <time name="total">  458.65  462.17</time>
   <energy>
    <i name="e_fr_energy">    -36.92446720 </i>
    <i name="e_wo_entrp">    -36.92437381 </i>
    <i name="e_0_energy">    -36.92442051 </i>
   </energy>
  </scstep>
  <scstep>
   <time name="diag">   81.56   81.84</time>
   <time name="diis">  306.89  308.24</time>
   <time name="orth">    3.08    3.09</time>
   <time name="total">  425.33  427.08</time>
   <energy>
    <i name="e_fr_energy">    -36.92446720 </i>
    <i name="e_wo_entrp">    -36.92437382 </i>
    <i name="e_0_energy">    -36.92442051 </i>
   </energy>
  </scstep>
  <scstep>
   <time name="diag">   81.56   81.82</time>
   <time name="diis">  224.11  225.40</time>
   <time name="orth">    3.07    3.07</time>
   <time name="total">  342.30  344.49</time>
   <energy>
    <i name="e_fr_energy">    -36.92446720 </i>
    <i name="e_wo_entrp">    -36.92437382 </i>
    <i name="e_0_energy">    -36.92442051 </i>
   </energy>
  </scstep>
  <scstep>
   <time name="diag">   81.17   81.90</time>
   <time name="diis">  223.77  224.59</time>
   <time name="orth">    3.07    3.08</time>
   <time name="total">  310.44  311.99</time>
   <energy>
    <i name="alphaZ">      6.18334092 </i>
    <i name="ewald">   2585.42358568 </i>
    <i name="hartreedc">  -3079.37145436 </i>
    <i name="XCdc">     57.51881646 </i>
    <i name="pawpsdc">    277.00044574 </i>
    <i name="pawaedc">   -282.14895605 </i>
    <i name="eentropy">     -0.00009338 </i>
    <i name="bandstr">   -190.15367912 </i>
    <i name="atom">    588.62352690 </i>
    <i name="e_fr_energy">    -36.92446720 </i>
    <i name="e_wo_entrp">    -36.92437382 </i>
    <i name="e_0_energy">    -36.92442051 </i>
   </energy>
  </scstep>
  <structure>
   <crystal>
    <varray name="basis" >
     <v>       4.27325491       0.00000000       0.00000000 </v>
     <v>       0.00000000       2.46747278       0.00000000 </v>
     <v>       0.00000000       0.00000000      19.99574156 </v>
    </varray>
    <i name="volume">    210.83790140 </i>
    <varray name="rec_basis" >
     <v>       0.23401366       0.00000000       0.00000000 </v>
     <v>       0.00000000       0.40527296       0.00000000 </v>
     <v>       0.00000000       0.00000000       0.05001065 </v>
    </varray>
   </crystal>
   <varray name="positions" >
    <v>       1.00052287       0.00000000       0.00000000 </v>
    <v>       0.16614380       0.50000000      -0.00000000 </v>
    <v>       0.50052287       0.50000000       0.00000000 </v>
    <v>       0.66614380       0.00000000      -0.00000000 </v>
   </varray>
  </structure>
  <varray name="forces" >
   <v>      -0.22981521       0.00000000      -0.00000000 </v>
   <v>       0.22981521       0.00000000       0.00000000 </v>
   <v>      -0.22981521      -0.00000000      -0.00000000 </v>
   <v>       0.22981521       0.00000000       0.00000000 </v>
  </varray>
  <varray name="stress" >
   <v>      -0.63201792       0.00000000       0.00000000 </v>
   <v>       0.00000000       0.51051351       0.00000000 </v>
   <v>       0.00000000       0.00000000      -0.00991264 </v>
  </varray>
  <energy>
   <i name="e_fr_energy">    -36.92446720 </i>
   <i name="e_wo_entrp">    -36.92442051 </i>
   <i name="e_0_energy">     -0.00009338 </i>
  </energy>
  <time name="totalsc"> 4298.40 4329.79</time>
 </calculation>
 <calculation>
  <scstep>
   <time name="dav">  308.71  309.85</time>
   <time name="total">  342.68  343.88</time>
   <energy>
    <i name="alphaZ">      6.18334092 </i>
    <i name="ewald">   2585.42030044 </i>
    <i name="hartreedc">  -3079.37037999 </i>
    <i name="XCdc">     57.51873116 </i>
    <i name="pawpsdc">    277.00043759 </i>
    <i name="pawaedc">   -282.14894778 </i>
    <i name="eentropy">     -0.00013008 </i>
    <i name="bandstr">   -190.15237368 </i>
    <i name="atom">    588.62352690 </i>
    <i name="e_fr_energy">    -36.92549451 </i>
    <i name="e_wo_entrp">    -36.92536444 </i>
    <i name="e_0_energy">    -36.92542948 </i>
   </energy>
  </scstep>
  <scstep>
   <time name="diag">   81.64   81.90</time>
   <time name="diis">  330.44  330.95</time>
   <time name="orth">    3.13    3.14</time>
   <time name="total">  449.19  450.01</time>
   <energy>
    <i name="e_fr_energy">    -36.92551763 </i>
    <i name="e_wo_entrp">    -36.92538725 </i>
    <i name="e_0_energy">    -36.92545244 </i>
   </energy>
  </scstep>
  <scstep>
   <time name="diag">   81.74   81.86</time>
   <time name="diis">  332.71  334.13</time>
   <time name="orth">    3.08    3.09</time>
   <time name="total">  451.18  453.03</time>
   <energy>
    <i name="e_fr_energy">    -36.92548934 </i>
    <i name="e_wo_entrp">    -36.92535875 </i>
    <i name="e_0_energy">    -36.92542404 </i>
   </energy>
  </scstep>
  <scstep>
   <time name="diag">   80.94   81.82</time>
   <time name="diis">  340.10  344.03</time>
   <time name="orth">    3.07    3.09</time>
   <time name="total">  457.67  462.90</time>
   <energy>
    <i name="e_fr_energy">    -36.92548677 </i>
    <i name="e_wo_entrp">    -36.92535619 </i>
    <i name="e_0_energy">    -36.92542148 </i>
   </energy>
  </scstep>
  <scstep>
   <time name="diag">   81.03   81.80</time>
   <time name="diis">  343.77  347.32</time>
   <time name="orth">    3.08    3.09</time>
   <time name="total">  461.46  466.42</time>
   <energy>
    <i name="e_fr_energy">    -36.92548685 </i>
    <i name="e_wo_entrp">    -36.92535628 </i>
    <i name="e_0_energy">    -36.92542157 </i>
   </energy>
  </scstep>
  <scstep>
   <time name="diag">   81.01   81.86</time>
   <time name="diis">  341.20  344.94</time>
   <time name="orth">    3.07    3.09</time>
   <time name="total">  458.87  463.89</time>
   <energy>
    <i name="e_fr_energy">    -36.92548680 </i>
    <i name="e_wo_entrp">    -36.92535622 </i>
    <i name="e_0_energy">    -36.92542151 </i>
   </energy>
  </scstep>
  <scstep>
   <time name="diag">   81.06   81.86</time>
   <time name="diis">  339.72  343.47</time>
   <time name="orth">    3.08    3.08</time>
   <time name="total">  457.34  462.49</time>
   <energy>
    <i name="e_fr_energy">    -36.92548680 </i>
    <i name="e_wo_entrp">    -36.92535622 </i>
    <i name="e_0_energy">    -36.92542151 </i>
   </energy>
  </scstep>
  <scstep>
   <time name="diag">   81.00   81.83</time>
   <time name="diis">  271.05  274.24</time>
   <time name="orth">    3.10    3.10</time>
   <time name="total">  389.03  393.13</time>
   <energy>
    <i name="e_fr_energy">    -36.92548680 </i>
    <i name="e_wo_entrp">    -36.92535622 </i>
    <i name="e_0_energy">    -36.92542151 </i>
   </energy>
  </scstep>
  <scstep>
   <time name="diag">   81.73   81.84</time>
   <time name="diis">  222.17  224.10</time>
   <time name="orth">    3.08    3.10</time>
   <time name="total">  340.54  343.02</time>
   <energy>
    <i name="e_fr_energy">    -36.92548680 </i>
    <i name="e_wo_entrp">    -36.92535622 </i>
    <i name="e_0_energy">    -36.92542151 </i>
   </energy>
  </scstep>
  <scstep>
   <time name="diag">   81.41   81.90</time>
   <time name="diis">  221.55  223.60</time>
   <time name="orth">    3.08    3.10</time>
   <time name="total">  339.71  342.59</time>
   <energy>
    <i name="e_fr_energy">    -36.92548680 </i>
    <i name="e_wo_entrp">    -36.92535622 </i>
    <i name="e_0_energy">    -36.92542151 </i>
   </energy>
  </scstep>
  <scstep>
   <time name="diag">   81.62   81.83</time>
   <time name="diis">  215.14  216.33</time>
   <time name="orth">    3.09    3.10</time>
   <time name="total">  333.37  335.25</time>
   <energy>
    <i name="e_fr_energy">    -36.92548680 </i>
    <i name="e_wo_entrp">    -36.92535622 </i>
    <i name="e_0_energy">    -36.92542151 </i>
   </energy>
  </scstep>
  <scstep>
   <time name="diag">   81.39   81.97</time>
   <time name="diis">  206.61  208.24</time>
   <time name="orth">    3.09    3.09</time>
   <time name="total">  324.70  327.32</time>
   <energy>
    <i name="e_fr_energy">    -36.92548680 </i>
    <i name="e_wo_entrp">    -36.92535622 </i>
    <i name="e_0_energy">    -36.92542151 </i>
   </energy>
  </scstep>
  <scstep>
   <time name="diag">   81.41   81.89</time>
   <time name="diis">  203.34  203.65</time>
   <time name="orth">    3.07    3.07</time>
   <time name="total">  290.17  292.01</time>
   <energy>
    <i name="alphaZ">      6.18334092 </i>
    <i name="ewald">   2585.42030044 </i>
    <i name="hartreedc">  -3079.36908592 </i>
    <i name="XCdc">     57.51868960 </i>
    <i name="pawpsdc">    276.99408921 </i>
    <i name="pawaedc">   -282.14256397 </i>
    <i name="eentropy">     -0.00013058 </i>
    <i name="bandstr">   -190.15365341 </i>
    <i name="atom">    588.62352690 </i>
    <i name="e_fr_energy">    -36.92548680 </i>
    <i name="e_wo_entrp">    -36.92535622 </i>
    <i name="e_0_energy">    -36.92542151 </i>
   </energy>
  </scstep>
  <structure>
   <crystal>
    <varray name="basis" >
     <v>       4.27325491       0.00000000       0.00000000 </v>
     <v>       0.00000000       2.46747278       0.00000000 </v>
     <v>       0.00000000       0.00000000      19.99574156 </v>
    </varray>
    <i name="volume">    210.83790140 </i>
    <varray name="rec_basis" >
     <v>       0.23401366       0.00000000       0.00000000 </v>
     <v>       0.00000000       0.40527296       0.00000000 </v>
     <v>       0.00000000       0.00000000       0.05001065 </v>
    </varray>
   </crystal>
   <varray name="positions" >
    <v>       1.00000376       0.00000000       0.00000000 </v>
    <v>       0.16666291       0.50000000      -0.00000000 </v>
    <v>       0.50000376       0.50000000       0.00000000 </v>
    <v>       0.66666291       0.00000000      -0.00000000 </v>
   </varray>
  </structure>
  <varray name="forces" >
   <v>      -0.00011485      -0.00000000      -0.00000000 </v>
   <v>       0.00011485       0.00000000       0.00000000 </v>
   <v>      -0.00011485       0.00000000      -0.00000000 </v>
   <v>       0.00011485      -0.00000000       0.00000000 </v>
  </varray>
  <varray name="stress" >
   <v>       0.01081611       0.00000000       0.00000000 </v>
   <v>       0.00000000      -0.17426829       0.00000000 </v>
   <v>       0.00000000       0.00000000      -0.01004484 </v>
  </varray>
  <energy>
   <i name="e_fr_energy">    -36.92548680 </i>
   <i name="e_wo_entrp">    -36.92542151 </i>
   <i name="e_0_energy">     -0.00013058 </i>
  </energy>
  <time name="totalsc"> 5198.55 5239.18</time>
 </calculation>
 <calculation>
  <scstep>
   <time name="dav">  317.19  318.60</time>
   <time name="total">  351.03  352.54</time>
   <energy>
    <i name="alphaZ">      6.18334092 </i>
    <i name="ewald">   2585.42030054 </i>
    <i name="hartreedc">  -3079.36908283 </i>
    <i name="XCdc">     57.51868966 </i>
    <i name="pawpsdc">    276.99409042 </i>
    <i name="pawaedc">   -282.14256518 </i>
    <i name="eentropy">     -0.00013058 </i>
    <i name="bandstr">   -190.15365666 </i>
    <i name="atom">    588.62352690 </i>
    <i name="e_fr_energy">    -36.92548680 </i>
    <i name="e_wo_entrp">    -36.92535622 </i>
    <i name="e_0_energy">    -36.92542151 </i>
   </energy>
  </scstep>
  <scstep>
   <time name="diag">   81.81   81.90</time>
   <time name="diis">  240.10  240.78</time>
   <time name="orth">    3.09    3.09</time>
   <time name="total">  358.89  359.74</time>
   <energy>
    <i name="e_fr_energy">    -36.92548680 </i>
    <i name="e_wo_entrp">    -36.92535622 </i>
    <i name="e_0_energy">    -36.92542151 </i>
   </energy>
  </scstep>
  <scstep>
   <time name="diag">   81.63   81.89</time>
   <time name="diis">  219.46  220.53</time>
   <time name="orth">    3.08    3.09</time>
   <time name="total">  337.95  339.48</time>
   <energy>
    <i name="e_fr_energy">    -36.92548680 </i>
    <i name="e_wo_entrp">    -36.92535622 </i>
    <i name="e_0_energy">    -36.92542151 </i>
   </energy>
  </scstep>
  <scstep>
   <time name="diag">   81.46   81.86</time>
   <time name="diis">  211.36  212.47</time>
   <time name="orth">    3.07    3.07</time>
   <time name="total">  329.69  331.42</time>
   <energy>
    <i name="e_fr_energy">    -36.92548680 </i>
    <i name="e_wo_entrp">    -36.92535622 </i>
    <i name="e_0_energy">    -36.92542151 </i>
   </energy>
  </scstep>
  <scstep>
   <time name="diag">   81.82   81.85</time>
   <time name="diis">  208.52  208.69</time>
   <time name="orth">    3.09    3.10</time>
   <time name="total">  295.84  296.05</time>
   <energy>
    <i name="alphaZ">      6.18334092 </i>
    <i name="ewald">   2585.42030054 </i>
    <i name="hartreedc">  -3079.36908614 </i>
    <i name="XCdc">     57.51868978 </i>
    <i name="pawpsdc">    276.99410088 </i>
    <i name="pawaedc">   -282.14257571 </i>
    <i name="eentropy">     -0.00013058 </i>
    <i name="bandstr">   -190.15365340 </i>
    <i name="atom">    588.62352690 </i>
    <i name="e_fr_energy">    -36.92548680 </i>
    <i name="e_wo_entrp">    -36.92535622 </i>
    <i name="e_0_energy">    -36.92542151 </i>
   </energy>
  </scstep>
  <structure>
   <crystal>
    <varray name="basis" >
     <v>       4.27325491       0.00000000       0.00000000 </v>
     <v>       0.00000000       2.46747278       0.00000000 </v>
     <v>       0.00000000       0.00000000      19.99574156 </v>
    </varray>
    <i name="volume">    210.83790140 </i>
    <varray name="rec_basis" >
     <v>       0.23401366       0.00000000       0.00000000 </v>
     <v>       0.00000000       0.40527296       0.00000000 </v>
     <v>       0.00000000       0.00000000       0.05001065 </v>
    </varray>
   </crystal>
   <varray name="positions" >
    <v>       1.00000350       0.00000000      -0.00000000 </v>
    <v>       0.16666317       0.50000000       0.00000000 </v>
    <v>       0.50000350       0.50000000      -0.00000000 </v>
    <v>       0.66666317       0.00000000       0.00000000 </v>
   </varray>
  </structure>
  <varray name="forces" >
   <v>      -0.00000403       0.00000000       0.00000000 </v>
   <v>       0.00000403      -0.00000000       0.00000000 </v>
   <v>      -0.00000403      -0.00000000       0.00000000 </v>
   <v>       0.00000403       0.00000000       0.00000000 </v>
  </varray>
  <varray name="stress" >
   <v>       0.01117940       0.00000000       0.00000000 </v>
   <v>       0.00000000      -0.17463122       0.00000000 </v>
   <v>       0.00000000       0.00000000      -0.01002411 </v>
  </varray>
  <energy>
   <i name="e_fr_energy">    -36.92548680 </i>
   <i name="e_wo_entrp">    -36.92542151 </i>
   <i name="e_0_energy">     -0.00013058 </i>
  </energy>
  <time name="totalsc"> 1777.39 1783.42</time>
 </calculation>
 <calculation>
  <scstep>
   <time name="dav">  257.06  257.51</time>
   <time name="total">  290.89  291.49</time>
   <energy>
    <i name="alphaZ">      6.18334092 </i>
    <i name="ewald">   2585.42030054 </i>
    <i name="hartreedc">  -3079.36908642 </i>
    <i name="XCdc">     57.51868981 </i>
    <i name="pawpsdc">    276.99409688 </i>
    <i name="pawaedc">   -282.14257169 </i>
    <i name="eentropy">     -0.00013058 </i>
    <i name="bandstr">   -190.15365318 </i>
    <i name="atom">    588.62352690 </i>
    <i name="e_fr_energy">    -36.92548680 </i>
    <i name="e_wo_entrp">    -36.92535622 </i>
    <i name="e_0_energy">    -36.92542151 </i>
   </energy>
  </scstep>
  <scstep>
   <time name="diag">   81.43   81.84</time>
   <time name="diis">  177.65  178.58</time>
   <time name="orth">    3.11    3.15</time>
   <time name="total">  296.13  297.52</time>
   <energy>
    <i name="e_fr_energy">    -36.92548680 </i>
    <i name="e_wo_entrp">    -36.92535622 </i>
    <i name="e_0_energy">    -36.92542151 </i>
   </energy>
  </scstep>
  <scstep>
   <time name="diag">   81.86   81.87</time>
   <time name="diis">  170.34  170.37</time>
   <time name="orth">    3.09    3.10</time>
   <time name="total">  289.19  289.48</time>
   <energy>
    <i name="e_fr_energy">    -36.92548680 </i>
    <i name="e_wo_entrp">    -36.92535622 </i>
    <i name="e_0_energy">    -36.92542151 </i>
   </energy>
  </scstep>
  <scstep>
   <time name="diag">   81.84   81.88</time>
   <time name="diis">  164.10  164.22</time>
   <time name="orth">    3.11    3.11</time>
   <time name="total">  283.03  283.20</time>
   <energy>
    <i name="e_fr_energy">    -36.92548680 </i>
    <i name="e_wo_entrp">    -36.92535622 </i>
    <i name="e_0_energy">    -36.92542151 </i>
   </energy>
  </scstep>
  <scstep>
   <time name="diag">   81.86   81.87</time>
   <time name="diis">  159.24  159.27</time>
   <time name="orth">    3.07    3.07</time>
   <time name="total">  278.11  278.18</time>
   <energy>
    <i name="e_fr_energy">    -36.92548680 </i>
    <i name="e_wo_entrp">    -36.92535622 </i>
    <i name="e_0_energy">    -36.92542151 </i>
   </energy>
  </scstep>
  <scstep>
   <time name="diag">   81.87   81.88</time>
   <time name="diis">  156.39  156.42</time>
   <time name="orth">    3.08    3.08</time>
   <time name="total">  275.21  275.39</time>
   <energy>
    <i name="e_fr_energy">    -36.92548680 </i>
    <i name="e_wo_entrp">    -36.92535622 </i>
    <i name="e_0_energy">    -36.92542151 </i>
   </energy>
  </scstep>
  <scstep>
   <time name="diag">   81.82   81.86</time>
   <time name="diis">  151.10  151.13</time>
   <time name="orth">    3.07    3.07</time>
   <time name="total">  269.95  270.03</time>
   <energy>
    <i name="e_fr_energy">    -36.92548680 </i>
    <i name="e_wo_entrp">    -36.92535622 </i>
    <i name="e_0_energy">    -36.92542151 </i>
   </energy>
  </scstep>
  <scstep>
   <time name="diag">   81.62   81.88</time>
   <time name="diis">  157.27  157.37</time>
   <time name="orth">    3.10    3.10</time>
   <time name="total">  275.89  276.49</time>
   <energy>
    <i name="e_fr_energy">    -36.92548680 </i>
    <i name="e_wo_entrp">    -36.92535622 </i>
    <i name="e_0_energy">    -36.92542151 </i>
   </energy>
  </scstep>
  <scstep>
   <time name="diag">   81.82   81.85</time>
   <time name="diis">  155.79  155.92</time>
   <time name="orth">    3.09    3.10</time>
   <time name="total">  243.15  243.32</time>
   <energy>
    <i name="alphaZ">      6.18334092 </i>
    <i name="ewald">   2585.42030054 </i>
    <i name="hartreedc">  -3079.36908636 </i>
    <i name="XCdc">     57.51868983 </i>
    <i name="pawpsdc">    276.99409502 </i>
    <i name="pawaedc">   -282.14256983 </i>
    <i name="eentropy">     -0.00013058 </i>
    <i name="bandstr">   -190.15365325 </i>
    <i name="atom">    588.62352690 </i>
    <i name="e_fr_energy">    -36.92548680 </i>
    <i name="e_wo_entrp">    -36.92535622 </i>
    <i name="e_0_energy">    -36.92542151 </i>
   </energy>
  </scstep>
  <structure>
   <crystal>
    <varray name="basis" >
     <v>       4.27325491       0.00000000       0.00000000 </v>
     <v>       0.00000000       2.46747278       0.00000000 </v>
     <v>       0.00000000       0.00000000      19.99574156 </v>
    </varray>
    <i name="volume">    210.83790140 </i>
    <varray name="rec_basis" >
     <v>       0.23401366       0.00000000       0.00000000 </v>
     <v>       0.00000000       0.40527296       0.00000000 </v>
     <v>       0.00000000       0.00000000       0.05001065 </v>
    </varray>
   </crystal>
   <varray name="positions" >
    <v>       1.00000349       0.00000000      -0.00000000 </v>
    <v>       0.16666318       0.50000000       0.00000000 </v>
    <v>       0.50000349       0.50000000      -0.00000000 </v>
    <v>       0.66666318       0.00000000       0.00000000 </v>
   </varray>
  </structure>
  <varray name="forces" >
   <v>       0.00000403       0.00000000       0.00000000 </v>
   <v>      -0.00000403       0.00000000      -0.00000000 </v>
   <v>       0.00000403       0.00000000       0.00000000 </v>
   <v>      -0.00000403      -0.00000000      -0.00000000 </v>
  </varray>
  <varray name="stress" >
   <v>       0.01115938       0.00000000       0.00000000 </v>
   <v>       0.00000000      -0.17461317       0.00000000 </v>
   <v>       0.00000000       0.00000000      -0.01002481 </v>
  </varray>
  <energy>
   <i name="e_fr_energy">    -36.92548680 </i>
   <i name="e_wo_entrp">    -36.92542151 </i>
   <i name="e_0_energy">     -0.00013058 </i>
  </energy>
  <time name="totalsc"> 2605.20 2609.02</time>
 </calculation>
 <calculation>
  <scstep>
   <time name="dav">  257.69  257.74</time>
   <time name="total">  291.64  291.70</time>
   <energy>
    <i name="alphaZ">      6.18334092 </i>
    <i name="ewald">   2585.42030054 </i>
    <i name="hartreedc">  -3079.36908636 </i>
    <i name="XCdc">     57.51868983 </i>
    <i name="pawpsdc">    276.99409499 </i>
    <i name="pawaedc">   -282.14256979 </i>
    <i name="eentropy">     -0.00013058 </i>
    <i name="bandstr">   -190.15365325 </i>
    <i name="atom">    588.62352690 </i>
    <i name="e_fr_energy">    -36.92548680 </i>
    <i name="e_wo_entrp">    -36.92535622 </i>
    <i name="e_0_energy">    -36.92542151 </i>
   </energy>
  </scstep>
  <scstep>
   <time name="diag">   81.92   81.95</time>
   <time name="diis">  137.97  138.00</time>
   <time name="orth">    3.09    3.10</time>
   <time name="total">  256.94  257.00</time>
   <energy>
    <i name="e_fr_energy">    -36.92548680 </i>
    <i name="e_wo_entrp">    -36.92535622 </i>
    <i name="e_0_energy">    -36.92542151 </i>
   </energy>
  </scstep>
  <scstep>
   <time name="diag">   81.85   81.87</time>
   <time name="diis">  137.78  137.81</time>
   <time name="orth">    3.07    3.08</time>
   <time name="total">  256.66  256.76</time>
   <energy>
    <i name="e_fr_energy">    -36.92548680 </i>
    <i name="e_wo_entrp">    -36.92535622 </i>
    <i name="e_0_energy">    -36.92542151 </i>
   </energy>
  </scstep>
  <scstep>
   <time name="diag">   81.84   81.86</time>
   <time name="diis">  125.13  125.17</time>
   <time name="orth">    3.10    3.10</time>
   <time name="total">  244.06  244.12</time>
   <energy>
    <i name="e_fr_energy">    -36.92548680 </i>
    <i name="e_wo_entrp">    -36.92535622 </i>
    <i name="e_0_energy">    -36.92542151 </i>
   </energy>
  </scstep>
  <scstep>
   <time name="diag">   81.86   81.88</time>
   <time name="diis">  135.68  135.70</time>
   <time name="orth">    3.10    3.10</time>
   <time name="total">  254.61  254.88</time>
   <energy>
    <i name="e_fr_energy">    -36.92548680 </i>
    <i name="e_wo_entrp">    -36.92535622 </i>
    <i name="e_0_energy">    -36.92542151 </i>
   </energy>
  </scstep>
  <scstep>
   <time name="diag">   81.88   81.91</time>
   <time name="diis">  121.35  121.37</time>
   <time name="orth">    3.09    3.09</time>
   <time name="total">  208.79  208.84</time>
   <energy>
    <i name="alphaZ">      6.18334092 </i>
    <i name="ewald">   2585.42030054 </i>
    <i name="hartreedc">  -3079.36908585 </i>
    <i name="XCdc">     57.51868981 </i>
    <i name="pawpsdc">    276.99409348 </i>
    <i name="pawaedc">   -282.14256828 </i>
    <i name="eentropy">     -0.00013058 </i>
    <i name="bandstr">   -190.15365376 </i>
    <i name="atom">    588.62352690 </i>
    <i name="e_fr_energy">    -36.92548680 </i>
    <i name="e_wo_entrp">    -36.92535622 </i>
    <i name="e_0_energy">    -36.92542151 </i>
   </energy>
  </scstep>
  <structure>
   <crystal>
    <varray name="basis" >
     <v>       4.27325491       0.00000000       0.00000000 </v>
     <v>       0.00000000       2.46747278       0.00000000 </v>
     <v>       0.00000000       0.00000000      19.99574156 </v>
    </varray>
    <i name="volume">    210.83790140 </i>
    <varray name="rec_basis" >
     <v>       0.23401366       0.00000000       0.00000000 </v>
     <v>       0.00000000       0.40527296       0.00000000 </v>
     <v>       0.00000000       0.00000000       0.05001065 </v>
    </varray>
   </crystal>
   <varray name="positions" >
    <v>       1.00000349       0.00000000      -0.00000000 </v>
    <v>       0.16666317       0.50000000       0.00000000 </v>
    <v>       0.50000349       0.50000000      -0.00000000 </v>
    <v>       0.66666317       0.00000000       0.00000000 </v>
   </varray>
  </structure>
  <varray name="forces" >
   <v>      -0.00000010       0.00000000      -0.00000000 </v>
   <v>       0.00000010      -0.00000000       0.00000000 </v>
   <v>      -0.00000010       0.00000000      -0.00000000 </v>
   <v>       0.00000010      -0.00000000       0.00000000 </v>
  </varray>
  <varray name="stress" >
   <v>       0.01114526       0.00000000       0.00000000 </v>
   <v>       0.00000000      -0.17459676       0.00000000 </v>
   <v>       0.00000000       0.00000000      -0.01002661 </v>
  </varray>
  <energy>
   <i name="e_fr_energy">    -36.92548680 </i>
   <i name="e_wo_entrp">    -36.92542151 </i>
   <i name="e_0_energy">     -0.00013058 </i>
  </energy>
  <time name="totalsc"> 1609.89 1610.56</time>
  <eigenvalues>
   <array>
    <dimension dim="1">band</dimension>
    <dimension dim="2">kpoint</dimension>
    <dimension dim="3">spin</dimension>
    <field>eigene</field>
    <field>occ</field>
    <set>
     <set comment="spin 1">
      <set comment="kpoint 1">
       <r>  -22.2526    1.0000 </r>
       <r>  -17.0189    1.0000 </r>
       <r>  -15.9723    1.0000 </r>
       <r>  -10.3581    1.0000 </r>
       <r>   -9.1599    1.0000 </r>
       <r>   -5.7871    1.0000 </r>
       <r>   -5.7856    1.0000 </r>
       <r>   -5.1096    1.0000 </r>
       <r>   -1.0755    0.0000 </r>
       <r>    0.5240    0.0000 </r>
       <r>    1.3251    0.0000 </r>
       <r>    1.7081    0.0000 </r>
      </set>
      <set comment="kpoint 2">
       <r>  -22.2424    1.0000 </r>
       <r>  -17.1841    1.0000 </r>
       <r>  -15.7919    1.0000 </r>
       <r>  -10.3459    1.0000 </r>
       <r>   -9.1497    1.0000 </r>
       <r>   -5.8284    1.0000 </r>
       <r>   -5.8096    1.0000 </r>
       <r>   -5.1761    1.0000 </r>
       <r>   -0.9930    0.0000 </r>
       <r>    0.5379    0.0000 </r>
       <r>    1.3391    0.0000 </r>
       <r>    1.7223    0.0000 </r>
      </set>
      <set comment="kpoint 3">
       <r>  -22.2116    1.0000 </r>
       <r>  -17.5212    1.0000 </r>
       <r>  -15.4090    1.0000 </r>
       <r>  -10.3092    1.0000 </r>
       <r>   -9.1192    1.0000 </r>
       <r>   -5.9548    1.0000 </r>
       <r>   -5.8761    1.0000 </r>
       <r>   -5.3607    1.0000 </r>
       <r>   -0.7607    0.0000 </r>
       <r>    0.5796    0.0000 </r>
       <r>    1.3814    0.0000 </r>
       <r>    1.7651    0.0000 </r>
      </set>
      <set comment="kpoint 4">
       <r>  -22.1604    1.0000 </r>
       <r>  -17.8977    1.0000 </r>
[...]
       <r>   -9.2032    1.0000 </r>
       <r>   -5.5955    1.0000 </r>
       <r>   -5.5955    1.0000 </r>
       <r>   -0.4225    0.0000 </r>
       <r>   -0.4225    0.0000 </r>
       <r>    4.8390    0.0000 </r>
       <r>    4.8390    0.0000 </r>
      </set>
      <set comment="kpoint 209">
       <r>  -18.8393    1.0000 </r>
       <r>  -17.0487    1.0000 </r>
       <r>  -14.0480    1.0000 </r>
       <r>  -12.4205    1.0000 </r>
       <r>  -12.4180    1.0000 </r>
       <r>  -10.8852    1.0000 </r>
       <r>   -6.4198    1.0000 </r>
       <r>   -4.5291    1.0000 </r>
       <r>   -0.9843    0.0000 </r>
       <r>    1.1828    0.0000 </r>
       <r>    5.2477    0.0000 </r>
       <r>    6.0363    0.0000 </r>
      </set>
      <set comment="kpoint 210">
       <r>  -18.8296    1.0000 </r>
       <r>  -17.0409    1.0000 </r>
       <r>  -14.1344    1.0000 </r>
       <r>  -12.5000    1.0000 </r>
       <r>  -12.3239    1.0000 </r>
       <r>  -10.8081    1.0000 </r>
       <r>   -6.4109    1.0000 </r>
       <r>   -4.5320    1.0000 </r>
       <r>   -0.9940    0.0000 </r>
       <r>    1.1572    0.0000 </r>
       <r>    5.2613    0.0000 </r>
       <r>    6.0524    0.0000 </r>
      </set>
      <set comment="kpoint 211">
       <r>  -18.8005    1.0000 </r>
       <r>  -17.0179    1.0000 </r>
       <r>  -14.3490    1.0000 </r>
       <r>  -12.7013    1.0000 </r>
       <r>  -12.0861    1.0000 </r>
       <r>  -10.6142    1.0000 </r>
       <r>   -6.3846    1.0000 </r>
       <r>   -4.5413    1.0000 </r>
       <r>   -1.0211    0.0000 </r>
       <r>    1.0824    0.0000 </r>
       <r>    5.3020    0.0000 </r>
       <r>    6.1002    0.0000 </r>
      </set>
      <set comment="kpoint 212">
       <r>  -18.7520    1.0000 </r>
       <r>  -16.9809    1.0000 </r>
       <r>  -14.6233    1.0000 </r>
       <r>  -12.9660    1.0000 </r>
       <r>  -11.7735    1.0000 </r>
       <r>  -10.3644    1.0000 </r>
       <r>   -6.3409    1.0000 </r>
       <r>   -4.5584    1.0000 </r>
       <r>   -1.0607    0.0000 </r>
       <r>    0.9635    0.0000 </r>
       <r>    5.3695    0.0000 </r>
       <r>    6.1786    0.0000 </r>
      </set>
      <set comment="kpoint 213">
       <r>  -18.6844    1.0000 </r>
       <r>  -16.9324    1.0000 </r>
       <r>  -14.9153    1.0000 </r>
       <r>  -13.2577    1.0000 </r>
       <r>  -11.4275    1.0000 </r>
       <r>  -10.0981    1.0000 </r>
       <r>   -6.2805    1.0000 </r>
       <r>   -4.5858    1.0000 </r>
       <r>   -1.1049    0.0000 </r>
       <r>    0.8083    0.0000 </r>
       <r>    5.4627    0.0000 </r>
       <r>    6.2864    0.0000 </r>
      </set>
      <set comment="kpoint 214">
       <r>  -18.5977    1.0000 </r>
       <r>  -16.8777    1.0000 </r>
       <r>  -15.2011    1.0000 </r>
       <r>  -13.5583    1.0000 </r>
       <r>  -11.0704    1.0000 </r>
       <r>   -9.8382    1.0000 </r>
       <r>   -6.2041    1.0000 </r>
       <r>   -4.6260    1.0000 </r>
       <r>   -1.1449    0.0000 </r>
       <r>    0.6255    0.0000 </r>
       <r>    5.5761    0.0000 </r>
       <r>    6.1701    0.0000 </r>
      </set>
      <set comment="kpoint 215">
       <r>  -18.4924    1.0000 </r>
       <r>  -16.8272    1.0000 </r>
       <r>  -15.4610    1.0000 </r>
       <r>  -13.8580    1.0000 </r>
       <r>  -10.7157    1.0000 </r>
       <r>   -9.6001    1.0000 </r>
       <r>   -6.1126    1.0000 </r>
       <r>   -4.6816    1.0000 </r>
       <r>   -1.1716    0.0000 </r>
       <r>    0.4241    0.0000 </r>
       <r>    5.6164    0.0000 </r>
       <r>    5.8370    0.0000 </r>
      </set>
      <set comment="kpoint 216">
       <r>  -18.3688    1.0000 </r>
       <r>  -16.8016    1.0000 </r>
       <r>  -15.6691    1.0000 </r>
       <r>  -14.1509    1.0000 </r>
       <r>  -10.3739    1.0000 </r>
       <r>   -9.3958    1.0000 </r>
       <r>   -6.0074    1.0000 </r>
       <r>   -4.7546    1.0000 </r>
       <r>   -1.1771    0.0000 </r>
       <r>    0.2122    0.0000 </r>
       <r>    5.3078    0.0000 </r>
       <r>    5.9454    0.0000 </r>
      </set>
      <set comment="kpoint 217">
       <r>  -18.2276    1.0000 </r>
       <r>  -16.8332    1.0000 </r>
       <r>  -15.7902    1.0000 </r>
       <r>  -14.4334    1.0000 </r>
       <r>  -10.0544    1.0000 </r>
       <r>   -9.2359    1.0000 </r>
       <r>   -5.8900    1.0000 </r>
       <r>   -4.8453    1.0000 </r>
       <r>   -1.1555    0.0000 </r>
       <r>   -0.0024    0.0000 </r>
       <r>    5.0135    0.0000 </r>
       <r>    5.8430    0.0000 </r>
      </set>
      <set comment="kpoint 218">
       <r>  -18.0694    1.0000 </r>
       <r>  -16.9425    1.0000 </r>
       <r>  -15.8021    1.0000 </r>
       <r>  -14.7022    1.0000 </r>
       <r>   -9.7664    1.0000 </r>
       <r>   -9.1290    1.0000 </r>
       <r>   -5.7624    1.0000 </r>
       <r>   -4.9528    1.0000 </r>
       <r>   -1.1035    0.0000 </r>
       <r>   -0.2131    0.0000 </r>
       <r>    4.7987    0.0000 </r>
       <r>    5.4458    0.0000 </r>
      </set>
      <set comment="kpoint 219">
       <r>  -17.8957    1.0000 </r>
       <r>  -17.1112    1.0000 </r>
       <r>  -15.7216    1.0000 </r>
       <r>  -14.9548    1.0000 </r>
       <r>   -9.5190    1.0000 </r>
       <r>   -9.0817    1.0000 </r>
       <r>   -5.6272    1.0000 </r>
       <r>   -5.0745    1.0000 </r>
       <r>   -1.0201    0.0000 </r>
       <r>   -0.4139    0.0000 </r>
       <r>    4.6741    0.0000 </r>
       <r>    5.1186    0.0000 </r>
      </set>
      <set comment="kpoint 220">
       <r>  -17.7082    1.0000 </r>
       <r>  -17.3076    1.0000 </r>
       <r>  -15.5802    1.0000 </r>
       <r>  -15.1882    1.0000 </r>
       <r>   -9.3205    1.0000 </r>
       <r>   -9.0979    1.0000 </r>
       <r>   -5.4872    1.0000 </r>
       <r>   -5.2068    1.0000 </r>
       <r>   -0.9065    0.0000 </r>
       <r>   -0.5995    0.0000 </r>
       <r>    4.6446    0.0000 </r>
       <r>    4.8711    0.0000 </r>
      </set>
      <set comment="kpoint 221">
       <r>  -17.5103    1.0000 </r>
       <r>  -17.5103    1.0000 </r>
       <r>  -15.3987    1.0000 </r>
       <r>  -15.3987    1.0000 </r>
       <r>   -9.1784    1.0000 </r>
       <r>   -9.1784    1.0000 </r>
       <r>   -5.3458    1.0000 </r>
       <r>   -5.3458    1.0000 </r>
       <r>   -0.7651    0.0000 </r>
       <r>   -0.7651    0.0000 </r>
       <r>    4.7112    0.0000 </r>
       <r>    4.7112    0.0000 </r>
      </set>
      <set comment="kpoint 222">
       <r>  -18.4167    1.0000 </r>
       <r>  -17.5177    1.0000 </r>
       <r>  -13.6713    1.0000 </r>
       <r>  -12.8567    1.0000 </r>
       <r>  -12.0676    1.0000 </r>
       <r>  -11.2965    1.0000 </r>
       <r>   -5.9594    1.0000 </r>
       <r>   -5.0087    1.0000 </r>
       <r>   -0.4759    0.0000 </r>
       <r>    0.6098    0.0000 </r>
       <r>    5.8477    0.0000 </r>
       <r>    6.5995    0.0000 </r>
      </set>
      <set comment="kpoint 223">
       <r>  -18.4071    1.0000 </r>
       <r>  -17.5089    1.0000 </r>
       <r>  -13.7576    1.0000 </r>
       <r>  -12.9390    1.0000 </r>
       <r>  -11.9762    1.0000 </r>
       <r>  -11.2139    1.0000 </r>
       <r>   -5.9519    1.0000 </r>
       <r>   -5.0063    1.0000 </r>
       <r>   -0.4922    0.0000 </r>
       <r>    0.5863    0.0000 </r>
       <r>    5.8613    0.0000 </r>
       <r>    6.6164    0.0000 </r>
      </set>
      <set comment="kpoint 224">
       <r>  -18.3785    1.0000 </r>
       <r>  -17.4826    1.0000 </r>
       <r>  -13.9728    1.0000 </r>
       <r>  -13.1463    1.0000 </r>
       <r>  -11.7462    1.0000 </r>
       <r>  -11.0063    1.0000 </r>
       <r>   -5.9295    1.0000 </r>
       <r>   -4.9996    1.0000 </r>
       <r>   -0.5394    0.0000 </r>
       <r>    0.5176    0.0000 </r>
       <r>    5.9018    0.0000 </r>
       <r>    6.6667    0.0000 </r>
      </set>
      <set comment="kpoint 225">
       <r>  -18.3309    1.0000 </r>
       <r>  -17.4393    1.0000 </r>
       <r>  -14.2501    1.0000 </r>
       <r>  -13.4169    1.0000 </r>
       <r>  -11.4454    1.0000 </r>
       <r>  -10.7373    1.0000 </r>
       <r>   -5.8927    1.0000 </r>
       <r>   -4.9895    1.0000 </r>
       <r>   -0.6122    0.0000 </r>
       <r>    0.4089    0.0000 </r>
       <r>    5.9688    0.0000 </r>
       <r>    6.7489    0.0000 </r>
      </set>
      <set comment="kpoint 226">
       <r>  -18.2646    1.0000 </r>
       <r>  -17.3798    1.0000 </r>
       <r>  -14.5499    1.0000 </r>
       <r>  -13.7135    1.0000 </r>
       <r>  -11.1152    1.0000 </r>
       <r>  -10.4471    1.0000 </r>
       <r>   -5.8423    1.0000 </r>
       <r>   -4.9781    1.0000 </r>
       <r>   -0.7029    0.0000 </r>
       <r>    0.2678    0.0000 </r>
       <r>    6.0601    0.0000 </r>
       <r>    6.8611    0.0000 </r>
      </set>
      <set comment="kpoint 227">
       <r>  -18.1798    1.0000 </r>
       <r>  -17.3058    1.0000 </r>
       <r>  -14.8520    1.0000 </r>
       <r>  -14.0175    1.0000 </r>
       <r>  -10.7777    1.0000 </r>
       <r>  -10.1583    1.0000 </r>
       <r>   -5.7793    1.0000 </r>
       <r>   -4.9677    1.0000 </r>
       <r>   -0.8021    0.0000 </r>
       <r>    0.1033    0.0000 </r>
       <r>    6.1546    0.0000 </r>
       <r>    6.4517    0.0000 </r>
      </set>
      <set comment="kpoint 228">
       <r>  -18.0772    1.0000 </r>
       <r>  -17.2201    1.0000 </r>
       <r>  -15.1443    1.0000 </r>
       <r>  -14.3190    1.0000 </r>
       <r>  -10.4471    1.0000 </r>
       <r>   -9.8860    1.0000 </r>
       <r>   -5.7053    1.0000 </r>
       <r>   -4.9617    1.0000 </r>
       <r>   -0.8995    0.0000 </r>
       <r>   -0.0756    0.0000 </r>
       <r>    5.9084    0.0000 </r>
       <r>    6.3710    0.0000 </r>
      </set>
      <set comment="kpoint 229">
       <r>  -17.9574    1.0000 </r>
       <r>  -17.1280    1.0000 </r>
       <r>  -15.4164    1.0000 </r>
       <r>  -14.6121    1.0000 </r>
       <r>  -10.1343    1.0000 </r>
       <r>   -9.6421    1.0000 </r>
       <r>   -5.6223    1.0000 </r>
       <r>   -4.9633    1.0000 </r>
       <r>   -0.9854    0.0000 </r>
       <r>   -0.2599    0.0000 </r>
       <r>    5.5036    0.0000 </r>
       <r>    6.0004    0.0000 </r>
      </set>
      <set comment="kpoint 230">
       <r>  -17.8216    1.0000 </r>
       <r>  -17.0402    1.0000 </r>
       <r>  -15.6545    1.0000 </r>
       <r>  -14.8924    1.0000 </r>
       <r>   -9.8491    1.0000 </r>
       <r>   -9.4369    1.0000 </r>
       <r>   -5.5327    1.0000 </r>
       <r>   -4.9760    1.0000 </r>
       <r>   -1.0507    0.0000 </r>
       <r>   -0.4412    0.0000 </r>
       <r>    5.1587    0.0000 </r>
       <r>    5.5755    0.0000 </r>
      </set>
      <set comment="kpoint 231">
       <r>  -17.6715    1.0000 </r>
       <r>  -16.9779    1.0000 </r>
       <r>  -15.8358    1.0000 </r>
       <r>  -15.1560    1.0000 </r>
       <r>   -9.6011    1.0000 </r>
       <r>   -9.2797    1.0000 </r>
       <r>   -5.4394    1.0000 </r>
       <r>   -5.0025    1.0000 </r>
       <r>   -1.0881    0.0000 </r>
       <r>   -0.6119    0.0000 </r>
       <r>    4.8915    0.0000 </r>
       <r>    5.2170    0.0000 </r>
      </set>
      <set comment="kpoint 232">
       <r>  -17.5104    1.0000 </r>
       <r>  -16.9738    1.0000 </r>
       <r>  -15.9261    1.0000 </r>
       <r>  -15.3986    1.0000 </r>
       <r>   -9.3990    1.0000 </r>
       <r>   -9.1784    1.0000 </r>
       <r>   -5.3458    1.0000 </r>
       <r>   -5.0445    1.0000 </r>
       <r>   -1.0924    0.0000 </r>
       <r>   -0.7650    0.0000 </r>
       <r>    4.7112    0.0000 </r>
       <r>    4.9351    0.0000 </r>
      </set>
      <set comment="kpoint 233">
       <r>  -17.3437    1.0000 </r>
       <r>  -17.0484    1.0000 </r>
       <r>  -15.9044    1.0000 </r>
       <r>  -15.6135    1.0000 </r>
       <r>   -9.2509    1.0000 </r>
       <r>   -9.1385    1.0000 </r>
       <r>   -5.2558    1.0000 </r>
       <r>   -5.1019    1.0000 </r>
       <r>   -1.0612    0.0000 </r>
       <r>   -0.8943    0.0000 </r>
       <r>    4.6242    0.0000 </r>
       <r>    4.7383    0.0000 </r>
      </set>
      <set comment="kpoint 234">
       <r>  -17.1826    1.0000 </r>
       <r>  -17.1826    1.0000 </r>
       <r>  -15.7893    1.0000 </r>
       <r>  -15.7893    1.0000 </r>
       <r>   -9.1629    1.0000 </r>
       <r>   -9.1629    1.0000 </r>
       <r>   -5.1733    1.0000 </r>
       <r>   -5.1733    1.0000 </r>
       <r>   -0.9943    0.0000 </r>
       <r>   -0.9943    0.0000 </r>
       <r>    4.6334    0.0000 </r>
       <r>    4.6334    0.0000 </r>
      </set>
      <set comment="kpoint 235">
       <r>  -17.9752    1.0000 </r>
       <r>  -17.9752    1.0000 </r>
       <r>  -13.2740    1.0000 </r>
       <r>  -13.2740    1.0000 </r>
       <r>  -11.6920    1.0000 </r>
       <r>  -11.6920    1.0000 </r>
       <r>   -5.4875    1.0000 </r>
       <r>   -5.4875    1.0000 </r>
       <r>    0.0561    0.0000 </r>
       <r>    0.0561    0.0000 </r>
       <r>    6.4793    0.0000 </r>
       <r>    6.4793    0.0000 </r>
      </set>
      <set comment="kpoint 236">
       <r>  -17.9659    1.0000 </r>
       <r>  -17.9659    1.0000 </r>
       <r>  -13.3586    1.0000 </r>
       <r>  -13.3586    1.0000 </r>
       <r>  -11.6046    1.0000 </r>
       <r>  -11.6046    1.0000 </r>
       <r>   -5.4819    1.0000 </r>
       <r>   -5.4819    1.0000 </r>
       <r>    0.0355    0.0000 </r>
       <r>    0.0355    0.0000 </r>
       <r>    6.4928    0.0000 </r>
       <r>    6.4928    0.0000 </r>
      </set>
      <set comment="kpoint 237">
       <r>  -17.9381    1.0000 </r>
       <r>  -17.9381    1.0000 </r>
       <r>  -13.5708    1.0000 </r>
       <r>  -13.5708    1.0000 </r>
       <r>  -11.3849    1.0000 </r>
       <r>  -11.3849    1.0000 </r>
       <r>   -5.4656    1.0000 </r>
       <r>   -5.4656    1.0000 </r>
       <r>   -0.0245    0.0000 </r>
       <r>   -0.0245    0.0000 </r>
       <r>    6.5330    0.0000 </r>
       <r>    6.5330    0.0000 </r>
      </set>
      <set comment="kpoint 238">
       <r>  -17.8919    1.0000 </r>
       <r>  -17.8919    1.0000 </r>
       <r>  -13.8460    1.0000 </r>
       <r>  -13.8460    1.0000 </r>
       <r>  -11.0988    1.0000 </r>
       <r>  -11.0988    1.0000 </r>
       <r>   -5.4392    1.0000 </r>
       <r>   -5.4392    1.0000 </r>
       <r>   -0.1187    0.0000 </r>
       <r>   -0.1187    0.0000 </r>
       <r>    6.5991    0.0000 </r>
       <r>    6.5991    0.0000 </r>
      </set>
      <set comment="kpoint 239">
       <r>  -17.8279    1.0000 </r>
       <r>  -17.8279    1.0000 </r>
       <r>  -14.1458    1.0000 </r>
       <r>  -14.1458    1.0000 </r>
       <r>  -10.7872    1.0000 </r>
       <r>  -10.7872    1.0000 </r>
       <r>   -5.4038    1.0000 </r>
       <r>   -5.4038    1.0000 </r>
       <r>   -0.2395    0.0000 </r>
       <r>   -0.2395    0.0000 </r>
       <r>    6.6861    0.0000 </r>
       <r>    6.6861    0.0000 </r>
      </set>
      <set comment="kpoint 240">
       <r>  -17.7466    1.0000 </r>
       <r>  -17.7466    1.0000 </r>
       <r>  -14.4511    1.0000 </r>
       <r>  -14.4511    1.0000 </r>
       <r>  -10.4726    1.0000 </r>
       <r>  -10.4726    1.0000 </r>
       <r>   -5.3614    1.0000 </r>
       <r>   -5.3614    1.0000 </r>
       <r>   -0.3778    0.0000 </r>
       <r>   -0.3778    0.0000 </r>
       <r>    6.6469    0.0000 </r>
       <r>    6.6469    0.0000 </r>
      </set>
      <set comment="kpoint 241">
       <r>  -17.6491    1.0000 </r>
       <r>  -17.6491    1.0000 </r>
       <r>  -14.7517    1.0000 </r>
       <r>  -14.7517    1.0000 </r>
       <r>  -10.1695    1.0000 </r>
       <r>  -10.1695    1.0000 </r>
       <r>   -5.3141    1.0000 </r>
       <r>   -5.3141    1.0000 </r>
       <r>   -0.5239    0.0000 </r>
       <r>   -0.5239    0.0000 </r>
       <r>    6.1822    0.0000 </r>
       <r>    6.1822    0.0000 </r>
      </set>
      <set comment="kpoint 242">
       <r>  -17.5370    1.0000 </r>
       <r>  -17.5370    1.0000 </r>
       <r>  -15.0406    1.0000 </r>
       <r>  -15.0406    1.0000 </r>
       <r>   -9.8893    1.0000 </r>
       <r>   -9.8893    1.0000 </r>
       <r>   -5.2649    1.0000 </r>
       <r>   -5.2649    1.0000 </r>
       <r>   -0.6681    0.0000 </r>
       <r>   -0.6681    0.0000 </r>
       <r>    5.7343    0.0000 </r>
       <r>    5.7343    0.0000 </r>
      </set>
      <set comment="kpoint 243">
       <r>  -17.4134    1.0000 </r>
       <r>  -17.4134    1.0000 </r>
       <r>  -15.3118    1.0000 </r>
       <r>  -15.3118    1.0000 </r>
       <r>   -9.6423    1.0000 </r>
       <r>   -9.6423    1.0000 </r>
       <r>   -5.2170    1.0000 </r>
       <r>   -5.2170    1.0000 </r>
       <r>   -0.8013    0.0000 </r>
       <r>   -0.8013    0.0000 </r>
       <r>    5.3466    0.0000 </r>
       <r>    5.3466    0.0000 </r>
      </set>
      <set comment="kpoint 244">
       <r>  -17.2837    1.0000 </r>
       <r>  -17.2837    1.0000 </r>
       <r>  -15.5578    1.0000 </r>
       <r>  -15.5578    1.0000 </r>
       <r>   -9.4379    1.0000 </r>
       <r>   -9.4379    1.0000 </r>
       <r>   -5.1743    1.0000 </r>
       <r>   -5.1743    1.0000 </r>
       <r>   -0.9152    0.0000 </r>
       <r>   -0.9152    0.0000 </r>
       <r>    5.0315    0.0000 </r>
       <r>    5.0315    0.0000 </r>
      </set>
      <set comment="kpoint 245">
       <r>  -17.1589    1.0000 </r>
       <r>  -17.1589    1.0000 </r>
       <r>  -15.7665    1.0000 </r>
       <r>  -15.7665    1.0000 </r>
       <r>   -9.2848    1.0000 </r>
       <r>   -9.2848    1.0000 </r>
       <r>   -5.1404    1.0000 </r>
       <r>   -5.1404    1.0000 </r>
       <r>   -1.0023    0.0000 </r>
       <r>   -1.0023    0.0000 </r>
       <r>    4.7986    0.0000 </r>
       <r>    4.7986    0.0000 </r>
      </set>
      <set comment="kpoint 246">
       <r>  -17.0603    1.0000 </r>
       <r>  -17.0603    1.0000 </r>
       <r>  -15.9158    1.0000 </r>
       <r>  -15.9158    1.0000 </r>
       <r>   -9.1898    1.0000 </r>
       <r>   -9.1898    1.0000 </r>
       <r>   -5.1185    1.0000 </r>
       <r>   -5.1185    1.0000 </r>
       <r>   -1.0571    0.0000 </r>
       <r>   -1.0571    0.0000 </r>
       <r>    4.6556    0.0000 </r>
       <r>    4.6556    0.0000 </r>
      </set>
      <set comment="kpoint 247">
       <r>  -17.0207    1.0000 </r>
       <r>  -17.0207    1.0000 </r>
       <r>  -15.9723    1.0000 </r>
       <r>  -15.9723    1.0000 </r>
       <r>   -9.1576    1.0000 </r>
       <r>   -9.1576    1.0000 </r>
       <r>   -5.1110    1.0000 </r>
       <r>   -5.1110    1.0000 </r>
       <r>   -1.0758    0.0000 </r>
       <r>   -1.0758    0.0000 </r>
       <r>    4.6074    0.0000 </r>
       <r>    4.6074    0.0000 </r>
      </set>
     </set>
    </set>
   </array>
  </eigenvalues>
  <separator name="orbital magnetization" >
   <v name="MAGDIPOLOUT">      0.00000000      0.00000000      0.00000000</v>
  </separator>
 </calculation>
 <structure name="finalpos" >
  <crystal>
   <varray name="basis" >
    <v>       4.27325491       0.00000000       0.00000000 </v>
    <v>       0.00000000       2.46747278       0.00000000 </v>
    <v>       0.00000000       0.00000000      19.99574156 </v>
   </varray>
   <i name="volume">    210.83790140 </i>
   <varray name="rec_basis" >
    <v>       0.23401366       0.00000000       0.00000000 </v>
    <v>       0.00000000       0.40527296       0.00000000 </v>
    <v>       0.00000000       0.00000000       0.05001065 </v>
   </varray>
  </crystal>
  <varray name="positions" >
   <v>       1.00000349       0.00000000      -0.00000000 </v>
   <v>       0.16666317       0.50000000       0.00000000 </v>
   <v>       0.50000349       0.50000000      -0.00000000 </v>
   <v>       0.66666317       0.00000000       0.00000000 </v>
  </varray>
 </structure>
</modeling>
