gr                                      
           1
     4.273255    0.000000    0.000000
     0.000000    2.467473    0.000000
     0.000000    0.000000   19.995742
   C 
   4
Direct configuration=     1
   0.99987391  0.00000000  0.00000000
   0.16679275  0.50000000  0.00000000
   0.49987391  0.50000000  0.00000000
   0.66679275  0.00000000  0.00000000
Direct configuration=     2
   1.00052287  0.00000000  0.00000000
   0.16614380  0.50000000 -0.00000000
   0.50052287  0.50000000  0.00000000
   0.66614380  0.00000000 -0.00000000
Direct configuration=     3
   1.00000376  0.00000000  0.00000000
   0.16666291  0.50000000 -0.00000000
   0.50000376  0.50000000  0.00000000
   0.66666291  0.00000000 -0.00000000
Direct configuration=     4
   1.00000350  0.00000000 -0.00000000
   0.16666317  0.50000000  0.00000000
   0.50000350  0.50000000 -0.00000000
   0.66666317  0.00000000  0.00000000
Direct configuration=     5
   1.00000349  0.00000000 -0.00000000
   0.16666318  0.50000000  0.00000000
   0.50000349  0.50000000 -0.00000000
   0.66666318  0.00000000  0.00000000
Direct configuration=     6
   1.00000349  0.00000000 -0.00000000
   0.16666317  0.50000000  0.00000000
   0.50000349  0.50000000 -0.00000000
   0.66666317  0.00000000  0.00000000
