    4    4  400    1
  0.5270948E+02  0.4255331E-09  0.2528491E-09  0.1959539E-08  0.5000000E-15
  1.000000000000000E-004
  CAR 
 gr                                      
     16    247     12
 
  0.0000000E+00  0.0000000E+00  0.0000000E+00  0.1157407E-02
    1      -22.082924
    2      -16.707251
    3      -15.865462
    4      -10.227129
    5       -9.471522
    6       -5.989601
    7       -5.742456
    8       -4.906608
    9       -1.142314
   10        0.544511
   11        1.342644
   12        1.735925
 
  0.4166667E-01  0.0000000E+00  0.0000000E+00  0.2314815E-02
    1      -22.072552
    2      -16.903217
    3      -15.654483
    4      -10.214820
    5       -9.461112
    6       -6.013327
    7       -5.782662
    8       -4.976734
    9       -1.057376
   10        0.558565
   11        1.356840
   12        1.750301
 
  0.8333333E-01  0.0000000E+00  0.0000000E+00  0.2314815E-02
    1      -22.041441
    2      -17.269538
    3      -15.243217
    4      -10.177911
    5       -9.429930
    6       -6.083134
    7       -5.901825
    8       -5.169953
    9       -0.819899
   10        0.600722
   11        1.399425
   12        1.793429
 
  0.1250000E+00  0.0000000E+00  0.0000000E+00  0.2314815E-02
    1      -21.989610
    2      -17.662321
    3      -14.775837
    4      -10.116458
    5       -9.378127
    6       -6.195159
    7       -6.095788
    8       -5.449141
    9       -0.467541
   10        0.670980
   11        1.470387
   12        1.865310
 
  0.1666667E+00  0.0000000E+00  0.0000000E+00  0.2314815E-02
    1      -21.917095
    2      -18.051899
    3      -14.282489
    4      -10.030560
    5       -9.305960
    6       -6.358261
    7       -6.343683
    8       -5.779021
    9       -0.036472
   10        0.769327
   11        1.569706
   12        1.965942
 
  0.2083333E+00  0.0000000E+00  0.0000000E+00  0.2314815E-02
    1      -21.823945
    2      -18.429986
    3      -13.772152
    4       -9.920356
    5       -9.213799
    6       -6.681579
    7       -6.521943
    8       -6.134405
    9        0.446857
   10        0.895750
   11        1.697354
   12        2.095322
 
  0.2500000E+00  0.0000000E+00  0.0000000E+00  0.2314815E-02
    1      -21.710224
    2      -18.793293
    3      -13.249024
    4       -9.786034
    5       -9.102141
    6       -7.057451
    7       -6.722878
    8       -6.499036
    9        0.964554
   10        1.050224
   11        1.853287
   12        2.253449
 
  0.2916667E+00  0.0000000E+00  0.0000000E+00  0.2314815E-02
    1      -21.576013
    2      -19.140158
    3      -12.715925
    4       -9.627836
    5       -8.971627
    6       -7.477563
    7       -6.939696
    8       -6.862595
    9        1.232716
   10        1.504252
   11        2.037441
   12        2.440317
 
  0.3333333E+00  0.0000000E+00  0.0000000E+00  0.2314815E-02
    1      -21.421408
    2      -19.469583
    3      -12.175289
    4       -9.446069
    5       -8.823061
    6       -7.934005
    7       -7.218400
    8       -7.166208
    9        1.443180
   10        2.056726
   11        2.249720
   12        2.655916
 
  0.3750000E+00  0.0000000E+00  0.0000000E+00  0.2314815E-02
    1      -21.246524
    2      -19.780895
    3      -11.629538
    4       -9.241115
    5       -8.657443
    6       -8.419515
    7       -7.561982
    8       -7.396983
    9        1.681554
   10        2.489967
   11        2.614122
   12        2.900227
 
  0.4166667E+00  0.0000000E+00  0.0000000E+00  0.2314815E-02
    1      -21.051495
    2      -20.073593
    3      -11.081275
    4       -9.013450
    5       -8.927589
    6       -8.476000
    7       -7.890246
    8       -7.627371
    9        1.947748
   10        2.757867
   11        3.166749
   12        3.173214
 
  0.4583333E+00  0.0000000E+00  0.0000000E+00  0.2314815E-02
    1      -20.836481
    2      -20.347289
    3      -10.533402
    4       -9.452492
    5       -8.763671
    6       -8.280235
    7       -8.200973
    8       -7.853456
    9        2.241625
   10        2.911268
   11        3.052605
   12        3.474782
 
  0.5000000E+00  0.0000000E+00  0.0000000E+00  0.1157407E-02
    1      -20.601673
    2      -20.601673
    3       -9.989214
    4       -9.989214
    5       -8.492527
    6       -8.492527
    7       -8.071978
    8       -8.071978
    9        2.562958
   10        2.562958
   11        3.370510
   12        3.370510
 
  0.0000000E+00  0.2777778E-01  0.0000000E+00  0.2314815E-02
    1      -22.069906
    2      -16.696014
    3      -15.855075
    4      -10.211680
    5       -9.529737
    6       -6.043224
    7       -5.774612
    8       -4.890849
    9       -1.148454
   10        0.562117
   11        1.360505
   12        1.754009
 
  0.4166667E-01  0.2777778E-01  0.0000000E+00  0.4629630E-02
    1      -22.059535
    2      -16.891880
    3      -15.644258
    4      -10.199375
    5       -9.519296
    6       -6.069942
    7       -5.811093
    8       -4.961152
    9       -1.063470
   10        0.576171
   11        1.374700
   12        1.768386
 
  0.8333333E-01  0.2777778E-01  0.0000000E+00  0.4629630E-02
    1      -22.028428
    2      -17.257999
    3      -15.233380
    4      -10.162479
    5       -9.488020
    6       -6.149904
    7       -5.918039
    8       -5.154769
    9       -0.825992
   10        0.618333
   11        1.417282
   12        1.811515
 
  0.1250000E+00  0.2777778E-01  0.0000000E+00  0.4629630E-02
    1      -21.976605
    2      -17.650577
    3      -14.766526
    4      -10.101049
    5       -9.436054
    6       -6.284692
    7       -6.086192
    8       -5.434346
    9       -0.473904
   10        0.688598
   11        1.488238
   12        1.883397
 
  0.1666667E+00  0.2777778E-01  0.0000000E+00  0.4629630E-02
    1      -21.904100
    2      -18.039969
    3      -14.273831
    4      -10.015183
    5       -9.363644
    6       -6.484533
    7       -6.293754
    8       -5.764501
    9       -0.043488
   10        0.786955
   11        1.587550
   12        1.984031
 
  0.2083333E+00  0.2777778E-01  0.0000000E+00  0.4629630E-02
    1      -21.810964
    2      -18.417892
    3      -13.764288
    4       -9.905020
    5       -9.271148
    6       -6.763712
    7       -6.512414
    8       -6.120033
    9        0.438798
   10        0.913389
   11        1.715188
   12        2.113414
 
  0.2500000E+00  0.2777778E-01  0.0000000E+00  0.4629630E-02
    1      -21.697261
    2      -18.781058
    3      -13.242123
    4       -9.770748
    5       -9.159043
    6       -7.114221
    7       -6.735126
    8       -6.484712
    9        0.955092
   10        1.067876
   11        1.871109
   12        2.271544
 
  0.2916667E+00  0.2777778E-01  0.0000000E+00  0.4629630E-02
    1      -21.563071
    2      -19.127800
    3      -12.710196
    4       -9.612609
    5       -9.027941
    6       -7.518433
    7       -6.964587
    8       -6.848251
    9        1.250383
   10        1.493076
   11        2.055250
   12        2.458416
 
  0.3333333E+00  0.2777778E-01  0.0000000E+00  0.4629630E-02
    1      -21.408492
    2      -19.457121
    3      -12.170989
    4       -9.430911
    5       -8.878615
    6       -7.963690
    7       -7.203994
    8       -7.199431
    9        1.460863
   10        2.043589
   11        2.267518
   12        2.674020
 
  0.3750000E+00  0.2777778E-01  0.0000000E+00  0.4629630E-02
    1      -21.233638
    2      -19.768341
    3      -11.626987
    4       -9.226034
    5       -8.712018
    6       -8.440801
    7       -7.547490
    8       -7.436161
    9        1.699256
   10        2.507757
   11        2.598912
   12        2.918340
 
  0.4166667E+00  0.2777778E-01  0.0000000E+00  0.4629630E-02
    1      -21.038646
    2      -20.060962
    3      -11.080871
    4       -8.998456
    5       -8.942359
    6       -8.529321
    7       -7.875653
    8       -7.670997
    9        1.965473
   10        2.775662
   11        3.149949
   12        3.191342
 
  0.4583333E+00  0.2777778E-01  0.0000000E+00  0.4629630E-02
    1      -20.823675
    2      -20.334591
    3      -10.535648
    4       -9.462121
    5       -8.748770
    6       -8.331951
    7       -8.186276
    8       -7.900485
    9        2.259385
   10        2.929226
   11        3.070435
   12        3.492946
 
  0.5000000E+00  0.2777778E-01  0.0000000E+00  0.2314815E-02
    1      -20.588916
    2      -20.588916
    3       -9.994747
    4       -9.994747
    5       -8.477726
    6       -8.477726
    7       -8.121641
    8       -8.121641
    9        2.580779
   10        2.580779
   11        3.388378
   12        3.388378
 
  0.0000000E+00  0.5555556E-01  0.0000000E+00  0.2314815E-02
    1      -22.030864
    2      -16.662308
    3      -15.824121
    4      -10.165363
    5       -9.699584
    6       -6.199920
    7       -5.870051
    8       -4.843591
    9       -1.167660
   10        0.614941
   11        1.414083
   12        1.808265
 
  0.4166667E-01  0.5555556E-01  0.0000000E+00  0.4629630E-02
    1      -22.020497
    2      -16.857892
    3      -15.613777
    4      -10.153072
    5       -9.689043
    6       -6.232927
    7       -5.898114
    8       -4.914444
    9       -1.082526
   10        0.628999
   11        1.428275
   12        1.822642
 
  0.8333333E-01  0.5555556E-01  0.0000000E+00  0.4629630E-02
    1      -21.989402
    2      -17.223415
    3      -15.204076
    4      -10.116217
    5       -9.657464
    6       -6.329953
    7       -5.981977
    8       -5.109283
    9       -0.845028
   10        0.671172
   11        1.470845
   12        1.865773
 
  0.1250000E+00  0.5555556E-01  0.0000000E+00  0.4629630E-02
    1      -21.937601
    2      -17.615376
    3      -14.738832
    4      -10.054856
    5       -9.604973
    6       -6.486447
    7       -6.119492
    8       -5.390059
    9       -0.493751
   10        0.741454
   11        1.541784
   12        1.937659
 
  0.1666667E+00  0.5555556E-01  0.0000000E+00  0.4629630E-02
    1      -21.865128
    2      -18.004209
    3      -14.248147
    4       -9.969086
    5       -9.531783
    6       -6.698194
    7       -6.304549
    8       -5.721047
    9       -0.065317
   10        0.839835
   11        1.641071
   12        2.038297
 
  0.2083333E+00  0.5555556E-01  0.0000000E+00  0.4629630E-02
    1      -21.772034
    2      -18.381639
    3      -13.741066
    4       -9.859047
    5       -9.438204
    6       -6.963161
    7       -6.526332
    8       -6.077023
    9        0.413794
   10        0.966300
   11        1.768678
   12        2.167688
 
  0.2500000E+00  0.5555556E-01  0.0000000E+00  0.4629630E-02
    1      -21.658383
    2      -18.744378
    3      -13.221904
    4       -9.724928
    5       -9.324645
    6       -7.280681
    7       -6.771339
    8       -6.441845
    9        0.925824
   10        1.120821
   11        1.924561
   12        2.325826
 
  0.2916667E+00  0.5555556E-01  0.0000000E+00  0.4629630E-02
    1      -21.524259
    2      -19.090751
    3      -12.693645
    4       -9.566970
    5       -9.191631
    6       -7.648572
    7       -7.027362
    8       -6.805320
    9        1.303366
   10        1.458595
   11        2.108662
   12        2.512709
 
  0.3333333E+00  0.5555556E-01  0.0000000E+00  0.4629630E-02
    1      -21.369757
    2      -19.419754
    3      -12.158936
    4       -9.385480
    5       -9.039815
    6       -8.061484
    7       -7.285967
    8       -7.160870
    9        1.513888
   10        2.003135
   11        2.320890
   12        2.728328
 
  0.3750000E+00  0.5555556E-01  0.0000000E+00  0.4629630E-02
    1      -21.194996
    2      -19.730700
    3      -11.620475
    4       -9.180840
    5       -8.869993
    6       -8.511965
    7       -7.541954
    8       -7.504096
    9        1.752327
   10        2.552074
   11        2.561102
   12        2.972668
 
  0.4166667E+00  0.5555556E-01  0.0000000E+00  0.4629630E-02
    1      -21.000112
    2      -20.023085
    3      -11.081218
    4       -8.992220
    5       -8.953524
    6       -8.683132
    7       -7.831952
    8       -7.791849
    9        2.018601
   10        2.829018
   11        3.097697
   12        3.245706
 
  0.4583333E+00  0.5555556E-01  0.0000000E+00  0.4629630E-02
    1      -20.785269
    2      -20.296510
    3      -10.544529
    4       -9.495080
    5       -8.704124
    6       -8.480385
    7       -8.142254
    8       -8.032983
    9        2.312596
   10        2.982885
   11        3.123900
   12        3.547392
 
  0.5000000E+00  0.5555556E-01  0.0000000E+00  0.2314815E-02
    1      -20.550660
    2      -20.550660
    3      -10.014298
    4      -10.014298
    5       -8.433385
    6       -8.433385
    7       -8.263128
    8       -8.263128
    9        2.634132
   10        2.634132
   11        3.441971
   12        3.441971
 
  0.0000000E+00  0.8333333E-01  0.0000000E+00  0.2314815E-02
    1      -21.965833
    2      -16.606146
    3      -15.773268
    4      -10.088275
    5       -9.967959
    6       -6.448391
    7       -6.025796
    8       -4.764892
    9       -1.202263
   10        0.703010
   11        1.503356
   12        1.898696
 
  0.4166667E-01  0.8333333E-01  0.0000000E+00  0.4629630E-02
    1      -21.955473
    2      -16.801328
    3      -15.563666
    4      -10.076008
    5       -9.957230
    6       -6.487661
    7       -6.044252
    8       -4.836722
    9       -1.116838
   10        0.717071
   11        1.517541
   12        1.913074
 
  0.8333333E-01  0.8333333E-01  0.0000000E+00  0.4629630E-02
    1      -21.924400
    2      -17.165891
    3      -15.155962
    4      -10.039224
    5       -9.925072
    6       -6.599248
    7       -6.104059
    8       -5.033714
    9       -0.879244
   10        0.759253
   11        1.560092
   12        1.956207
 
  0.1250000E+00  0.8333333E-01  0.0000000E+00  0.4629630E-02
    1      -21.872637
    2      -17.556824
    3      -14.693529
    4       -9.977981
    5       -9.871574
    6       -6.770366
    7       -6.212733
    8       -5.316573
    9       -0.529314
   10        0.829553
   11        1.630998
   12        2.028096
 
  0.1666667E+00  0.8333333E-01  0.0000000E+00  0.4629630E-02
    1      -21.800218
    2      -17.944713
    3      -14.206398
    4       -9.892376
    5       -9.796885
    6       -6.989535
    7       -6.373312
    8       -5.648992
    9       -0.104256
   10        0.927961
   11        1.730239
   12        2.128740
 
  0.2083333E+00  0.8333333E-01  0.0000000E+00  0.4629630E-02
    1      -21.707193
    2      -18.321312
    3      -13.703712
    4       -9.782550
    5       -9.701214
    6       -7.249142
    7       -6.582400
    8       -6.005716
    9        0.369432
   10        1.054460
   11        1.857786
   12        2.258139
 
  0.2500000E+00  0.8333333E-01  0.0000000E+00  0.4629630E-02
    1      -21.593632
    2      -18.683329
    3      -13.189969
    4       -9.648692
    5       -9.584829
    6       -7.545465
    7       -6.831007
    8       -6.370761
    9        0.874182
   10        1.209023
   11        2.013599
   12        2.416289
 
  0.2916667E+00  0.8333333E-01  0.0000000E+00  0.4629630E-02
    1      -21.459615
    2      -19.029079
    3      -12.668405
    4       -9.491045
    5       -9.448061
    6       -7.877944
    7       -7.106235
    8       -6.734108
    9        1.391615
   10        1.398062
   11        2.197620
   12        2.603186
 
  0.3333333E+00  0.8333333E-01  0.0000000E+00  0.4629630E-02
    1      -21.305244
    2      -19.357544
    3      -12.142008
    4       -9.309914
    5       -9.291300
    6       -8.247512
    7       -7.393829
    8       -7.089308
    9        1.602189
   10        1.932389
   11        2.409767
   12        2.818823
 
  0.3750000E+00  0.8333333E-01  0.0000000E+00  0.4629630E-02
    1      -21.130637
    2      -19.668027
    3      -11.613928
    4       -9.114989
    5       -9.105680
    6       -8.654143
    7       -7.681272
    8       -7.432059
    9        1.840683
   10        2.470254
   11        2.649915
   12        3.063189
 
  0.4166667E+00  0.8333333E-01  0.0000000E+00  0.4629630E-02
    1      -20.935937
    2      -19.960014
    3      -11.087714
    4       -9.095123
    5       -8.919620
    6       -8.878815
    7       -7.959905
    8       -7.759377
    9        2.107022
   10        2.917832
   11        3.005326
   12        3.336267
 
  0.4583333E+00  0.8333333E-01  0.0000000E+00  0.4629630E-02
    1      -20.721310
    2      -20.233098
    3      -10.567497
    4       -9.565237
    5       -8.705728
    6       -8.629909
    7       -8.224903
    8       -8.069119
    9        2.401104
   10        3.071822
   11        3.212902
   12        3.525440
 
  0.5000000E+00  0.8333333E-01  0.0000000E+00  0.2314815E-02
    1      -20.486953
    2      -20.486953
    3      -10.058125
    4      -10.058125
    5       -8.473907
    6       -8.473907
    7       -8.359699
    8       -8.359699
    9        2.722782
   10        2.722782
   11        3.531243
   12        3.531243
 
  0.0000000E+00  0.1111111E+00  0.0000000E+00  0.2314815E-02
    1      -21.874878
    2      -16.527548
    3      -15.703780
    4      -10.316499
    5       -9.980582
    6       -6.773126
    7       -6.237230
    8       -4.654850
    9       -1.256056
   10        0.826354
   11        1.628286
   12        2.025309
 
  0.4166667E-01  0.1111111E+00  0.0000000E+00  0.4629630E-02
    1      -21.864528
    2      -16.722327
    3      -15.495115
    4      -10.305449
    5       -9.968348
    6       -6.817701
    7       -6.246086
    8       -4.728188
    9       -1.170117
   10        0.840415
   11        1.642460
   12        2.039687
 
  0.8333333E-01  0.1111111E+00  0.0000000E+00  0.4629630E-02
    1      -21.833487
    2      -17.085620
    3      -15.090308
    4      -10.272303
    5       -9.931667
    6       -6.941035
    7       -6.281871
    8       -4.928461
    9       -0.932220
   10        0.882597
   11        1.684979
   12        2.082820
 
  0.1250000E+00  0.1111111E+00  0.0000000E+00  0.4629630E-02
    1      -21.781776
    2      -17.475109
    3      -14.632128
    4      -10.217079
    5       -9.870595
    6       -7.123514
    7       -6.360591
    8       -5.214436
    9       -0.584138
   10        0.952901
   11        1.755832
   12        2.154711
 
  0.1666667E+00  0.1111111E+00  0.0000000E+00  0.4629630E-02
    1      -21.709432
    2      -17.861654
    3      -14.150486
    4      -10.139799
    5       -9.785232
    6       -7.349151
    7       -6.492058
    8       -5.548943
    9       -0.163928
   10        1.051322
   11        1.854997
   12        2.255359
 
  0.2083333E+00  0.1111111E+00  0.0000000E+00  0.4629630E-02
    1      -21.616507
    2      -18.237063
    3      -13.654702
    4      -10.040476
    5       -9.675717
    6       -7.607444
    7       -6.678104
    8       -5.906721
    9        0.301931
   10        1.177843
   11        1.982445
   12        2.384764
 
  0.2500000E+00  0.1111111E+00  0.0000000E+00  0.4629630E-02
    1      -21.503071
    2      -18.598045
    3      -13.149613
    4       -9.919099
    5       -9.542242
    6       -7.892157
    7       -6.914213
    8       -6.272046
    9        0.796189
   10        1.332439
   11        2.138135
   12        2.542924
 
  0.2916667E+00  0.1111111E+00  0.0000000E+00  0.4629630E-02
    1      -21.369207
    2      -18.942903
    3      -12.638943
    4       -9.775599
    5       -9.385049
    6       -8.200521
    7       -7.191060
    8       -6.635157
    9        1.307288
   10        1.515072
   11        2.322012
   12        2.729835
 
  0.3333333E+00  0.1111111E+00  0.0000000E+00  0.4629630E-02
    1      -21.215020
    2      -19.270599
    3      -12.126341
    4       -9.609815
    5       -9.204443
    6       -8.532782
    7       -7.495820
    8       -6.989806
    9        1.725689
   10        1.826939
   11        2.534002
   12        2.945490
 
  0.3750000E+00  0.1111111E+00  0.0000000E+00  0.4629630E-02
    1      -21.040633
    2      -19.580421
    3      -11.615845
    4       -9.421447
    5       -9.000806
    6       -8.891472
    7       -7.813677
    8       -7.331829
    9        1.964230
   10        2.348726
   11        2.774001
   12        3.189880
 
  0.4166667E+00  0.1111111E+00  0.0000000E+00  0.4629630E-02
    1      -20.846192
    2      -19.871840
    3      -11.112143
    4       -9.279755
    5       -9.210022
    6       -8.774606
    7       -8.130028
    8       -7.658335
    9        2.230616
   10        2.867279
   11        3.041845
   12        3.462992
 
  0.4583333E+00  0.1111111E+00  0.0000000E+00  0.4629630E-02
    1      -20.631871
    2      -20.144437
    3      -10.620706
    4       -9.699088
    5       -8.974945
    6       -8.526428
    7       -8.433136
    8       -7.967242
    9        2.524753
   10        3.195721
   11        3.337155
   12        3.377305
 
  0.5000000E+00  0.1111111E+00  0.0000000E+00  0.2314815E-02
    1      -20.397873
    2      -20.397873
    3      -10.147651
    4      -10.147651
    5       -8.715794
    6       -8.715794
    7       -8.257000
    8       -8.257000
    9        2.846515
   10        2.846515
   11        3.655913
   12        3.655913
 
  0.0000000E+00  0.1388889E+00  0.0000000E+00  0.2314815E-02
    1      -21.758091
    2      -16.426545
    3      -15.617812
    4      -10.724703
    5       -9.842518
    6       -7.157477
    7       -6.498516
    8       -4.513606
    9       -1.334091
   10        0.984995
   11        1.788817
   12        2.188110
 
  0.4166667E-01  0.1388889E+00  0.0000000E+00  0.4629630E-02
    1      -21.747755
    2      -16.621116
    3      -15.410162
    4      -10.713116
    5       -9.830331
    6       -7.206549
    7       -6.497929
    8       -4.589166
    9       -1.247255
   10        0.999051
   11        1.802975
   12        2.202487
 
  0.8333333E-01  0.1388889E+00  0.0000000E+00  0.4629630E-02
    1      -21.716754
    2      -16.982914
    3      -15.009328
    4      -10.678317
    5       -9.793789
    6       -7.339823
    7       -6.509536
    8       -4.794184
    9       -1.008585
   10        1.041218
   11        1.845444
   12        2.245618
 
  0.1250000E+00  0.1388889E+00  0.0000000E+00  0.4629630E-02
    1      -21.665110
    2      -17.370535
    3      -14.557322
    4      -10.620183
    5       -9.732951
    6       -7.532138
    7       -6.556551
    8       -5.084532
    9       -0.662731
   10        1.111504
   11        1.916210
   12        2.317505
 
  0.1666667E+00  0.1388889E+00  0.0000000E+00  0.4629630E-02
    1      -21.592865
    2      -17.755302
    3      -14.083881
    4      -10.538485
    5       -9.647915
    6       -7.764197
    7       -6.654488
    8       -5.421871
    9       -0.248886
   10        1.209908
   11        2.015252
   12        2.418151
 
  0.2083333E+00  0.1388889E+00  0.0000000E+00  0.4629630E-02
    1      -21.500070
    2      -18.129130
    3      -13.598668
    4      -10.432844
    5       -9.538824
    6       -8.023697
    7       -6.809589
    8       -5.781003
    9        0.206603
   10        1.336423
   11        2.142534
   12        2.547558
 
  0.2500000E+00  0.1388889E+00  0.0000000E+00  0.4629630E-02
    1      -21.386795
    2      -18.488736
    3      -13.107164
    4      -10.302670
    5       -9.405870
    6       -8.302955
    7       -7.021156
    8       -6.146608
    9        0.687006
   10        1.491025
   11        2.298013
   12        2.705724
 
  0.2916667E+00  0.1388889E+00  0.0000000E+00  0.4629630E-02
    1      -21.253131
    2      -18.832407
    3      -12.614033
    4      -10.147074
    5       -9.249297
    6       -8.597489
    7       -7.283360
    8       -6.509305
    9        1.181320
   10        1.673674
   11        2.481625
   12        2.892645
 
  0.3333333E+00  0.1388889E+00  0.0000000E+00  0.4629630E-02
    1      -21.099185
    2      -19.159083
    3      -12.124196
    4       -9.964779
    5       -9.069411
    6       -8.905475
    7       -7.586546
    8       -6.863126
    9        1.681795
   10        1.884313
   11        2.693294
   12        3.108315
 
  0.3750000E+00  0.1388889E+00  0.0000000E+00  0.4629630E-02
    1      -20.925085
    2      -19.468030
    3      -11.643274
    4       -9.754092
    5       -9.227616
    6       -8.866591
    7       -7.918214
    8       -7.204095
    9        2.122875
   10        2.182568
   11        2.932915
   12        3.352724
 
  0.4166667E+00  0.1388889E+00  0.0000000E+00  0.4629630E-02
    1      -20.730985
    2      -19.758698
    3      -11.177617
    4       -9.567023
    5       -9.513110
    6       -8.641306
    7       -8.263863
    8       -7.529447
    9        2.389278
   10        2.678913
   11        3.200355
   12        3.625862
 
  0.4583333E+00  0.1388889E+00  0.0000000E+00  0.4629630E-02
    1      -20.517066
    2      -20.030653
    3      -10.733710
    4       -9.928492
    5       -9.240506
    6       -8.608194
    7       -8.394133
    8       -7.837177
    9        2.683424
   10        3.166809
   11        3.354426
   12        3.495423
 
  0.5000000E+00  0.1388889E+00  0.0000000E+00  0.2314815E-02
    1      -20.283540
    2      -20.283540
    3      -10.316696
    4      -10.316696
    5       -8.937160
    6       -8.937160
    7       -8.125790
    8       -8.125790
    9        3.005193
   10        3.005193
   11        3.642517
   12        3.642517
 
  0.0000000E+00  0.1666667E+00  0.0000000E+00  0.2314815E-02
    1      -21.615593
    2      -16.303178
    3      -15.518985
    4      -11.171780
    5       -9.674399
    6       -7.585849
    7       -6.803069
    8       -4.341343
    9       -1.442288
   10        1.178938
   11        1.984871
   12        2.387104
 
  0.4166667E-01  0.1666667E+00  0.0000000E+00  0.4629630E-02
    1      -21.605273
    2      -16.498073
    3      -15.312258
    4      -11.159281
    5       -9.662273
    6       -7.638911
    7       -6.793189
    8       -4.420165
    9       -1.353865
   10        1.192982
   11        1.999002
   12        2.401478
 
  0.8333333E-01  0.1666667E+00  0.0000000E+00  0.4629630E-02
    1      -21.574323
    2      -16.858275
    3      -14.916861
    4      -11.121656
    5       -9.625914
    6       -7.781088
    7       -6.780501
    8       -4.631947
    9       -1.113440
   10        1.235117
   11        2.041390
   12        2.444603
 
  0.1250000E+00  0.1666667E+00  0.0000000E+00  0.4629630E-02
    1      -21.522766
    2      -17.243574
    3      -14.473927
    4      -11.058495
    5       -9.565381
    6       -7.982510
    7       -6.794430
    8       -4.928264
    9       -0.769918
   10        1.305355
   11        2.112017
   12        2.516481
 
  0.1666667E+00  0.1666667E+00  0.0000000E+00  0.4629630E-02
    1      -21.450641
    2      -17.626073
    3      -14.012985
    4      -10.969048
    5       -9.480776
    6       -8.221191
    7       -6.855435
    8       -5.269274
    9       -0.363902
   10        1.403706
   11        2.210851
   12        2.617118
 
  0.2083333E+00  0.1666667E+00  0.0000000E+00  0.4629630E-02
    1      -21.358005
    2      -17.997870
    3      -13.544406
    4      -10.852117
    5       -9.372242
    6       -8.483578
    7       -6.973670
    8       -5.630018
    9        0.078644
   10        1.530170
   11        2.337847
   12        2.746516
 
  0.2500000E+00  0.1666667E+00  0.0000000E+00  0.4629630E-02
    1      -21.244933
    2      -18.355708
    3      -13.074935
    4      -10.705920
    5       -9.239974
    6       -8.761189
    7       -7.151841
    8       -5.995803
    9        0.541826
   10        1.684734
   11        2.492937
   12        2.904679
 
  0.2916667E+00  0.1666667E+00  0.0000000E+00  0.4629630E-02
    1      -21.111518
    2      -18.697857
    3      -12.610986
    4      -10.527971
    5       -9.084219
    6       -9.048643
    7       -7.387185
    8       -6.357784
    9        1.015476
   10        1.867359
   11        2.676021
   12        3.091602
 
  0.3333333E+00  0.1666667E+00  0.0000000E+00  0.4629630E-02
    1      -20.957872
    2      -19.023230
    3      -12.159513
    4      -10.315158
    5       -9.342798
    6       -8.905283
    7       -7.672858
    8       -6.710373
    9        1.492605
   10        2.077985
   11        2.886945
   12        3.307281
 
  0.3750000E+00  0.1666667E+00  0.0000000E+00  0.4629630E-02
    1      -20.784132
    2      -19.331063
    3      -11.727766
    4      -10.064405
    5       -9.642475
    6       -8.703548
    7       -7.999044
    8       -7.049844
    9        1.968058
   10        2.316535
   11        3.125419
   12        3.551706
 
  0.4166667E+00  0.1666667E+00  0.0000000E+00  0.4629630E-02
    1      -20.590460
    2      -19.620778
    3      -11.321858
    4       -9.948494
    5       -9.774349
    6       -8.479481
    7       -8.353776
    8       -7.373591
    9        2.437757
   10        2.582916
   11        3.390532
   12        3.824863
 
  0.4583333E+00  0.1666667E+00  0.0000000E+00  0.4629630E-02
    1      -20.377045
    2      -19.891920
    3      -10.944510
    4      -10.263856
    5       -9.447769
    6       -8.723416
    7       -8.233652
    8       -7.679711
    9        2.877022
   10        2.898166
   11        3.547865
   12        3.664153
 
  0.5000000E+00  0.1666667E+00  0.0000000E+00  0.2314815E-02
    1      -20.144112
    2      -20.144112
    3      -10.593709
    4      -10.593709
    5       -9.093101
    6       -9.093101
    7       -7.966769
    8       -7.966769
    9        3.198724
   10        3.198724
   11        3.345071
   12        3.345071
 