       N       E                     dE             d eps       ncg     rms          rms(c)
DAV:   1     0.185308340702E+03    0.18531E+03   -0.10604E+04  5928   0.275E+03
DAV:   2    -0.975070977883E+01   -0.19506E+03   -0.17364E+03 10508   0.262E+02
DAV:   3    -0.381322084785E+02   -0.28381E+02   -0.27900E+02  7392   0.118E+02    0.710E+00
RMM:   4    -0.375713996763E+02    0.56081E+00   -0.91969E+00  5928   0.260E+01    0.411E+00
RMM:   5    -0.368682448541E+02    0.70315E+00   -0.26663E+00  5932   0.111E+01    0.704E-01
RMM:   6    -0.368703844824E+02   -0.21396E-02   -0.84793E-02  6384   0.201E+00    0.505E-01
RMM:   7    -0.368617351532E+02    0.86493E-02   -0.32250E-02  5941   0.155E+00    0.330E-01
RMM:   8    -0.368566671626E+02    0.50680E-02   -0.66987E-03  5933   0.542E-01    0.134E-01
RMM:   9    -0.368565437179E+02    0.12344E-03   -0.20066E-02  5928   0.838E-01    0.157E-01
RMM:  10    -0.368563198541E+02    0.22386E-03   -0.22119E-03  5928   0.339E-01    0.264E-02
RMM:  11    -0.368586504999E+02   -0.23306E-02   -0.77563E-04  5929   0.189E-01    0.451E-02
RMM:  12    -0.368591000807E+02   -0.44958E-03   -0.18674E-04  5944   0.914E-02    0.809E-03
RMM:  13    -0.368593914251E+02   -0.29134E-03   -0.67231E-05  5994   0.460E-02    0.383E-03
RMM:  14    -0.368594712636E+02   -0.79839E-04   -0.10293E-05  5980   0.166E-02    0.117E-03
RMM:  15    -0.368594849046E+02   -0.13641E-04   -0.21530E-06  5986   0.803E-03    0.198E-03
RMM:  16    -0.368594984024E+02   -0.13498E-04   -0.14926E-06  5928   0.787E-03    0.105E-03
RMM:  17    -0.368595043883E+02   -0.59860E-05   -0.83147E-08  6081   0.181E-03    0.841E-04
RMM:  18    -0.368595055572E+02   -0.11689E-05   -0.80483E-08  5928   0.208E-03    0.844E-05
RMM:  19    -0.368595062797E+02   -0.72252E-06   -0.99717E-09  6008   0.483E-04    0.225E-05
RMM:  20    -0.368595063468E+02   -0.67107E-07   -0.96680E-10  4465   0.140E-04    0.223E-05
RMM:  21    -0.368595063600E+02   -0.13221E-07   -0.21094E-10  4337   0.893E-05    0.623E-06
RMM:  22    -0.368595063603E+02   -0.27956E-09   -0.13630E-11  3895   0.472E-05    0.120E-06
RMM:  23    -0.368595063608E+02   -0.49465E-09   -0.14768E-11  3548   0.376E-05    0.119E-06
RMM:  24    -0.368595063607E+02    0.84924E-10   -0.44683E-12  3167   0.297E-05
   1 F= -.36859506E+02 E0= -.36859506E+02  d E =-.368595E+02
       N       E                     dE             d eps       ncg     rms          rms(c)
DAV:   1    -0.368595043987E+02    0.19621E-05   -0.17155E-04  6340   0.123E-01    0.250E-03
RMM:   2    -0.368595045306E+02   -0.13186E-06   -0.28534E-06  5948   0.148E-02    0.184E-03
RMM:   3    -0.368595044732E+02    0.57425E-07   -0.45439E-07  5983   0.546E-03    0.452E-04
RMM:   4    -0.368595044619E+02    0.11272E-07   -0.27439E-08  6065   0.131E-03    0.134E-04
RMM:   5    -0.368595044649E+02   -0.29843E-08   -0.23081E-09  6030   0.342E-04    0.604E-05
RMM:   6    -0.368595044645E+02    0.36687E-09   -0.31209E-10  4501   0.143E-04    0.633E-06
RMM:   7    -0.368595044649E+02   -0.37846E-09   -0.20202E-11  3762   0.616E-05    0.430E-06
RMM:   8    -0.368595044646E+02    0.30570E-09   -0.18229E-11  3456   0.437E-05    0.198E-06
RMM:   9    -0.368595044648E+02   -0.18224E-09   -0.74856E-12  3459   0.340E-05    0.331E-06
RMM:  10    -0.368595044646E+02    0.17837E-09   -0.58809E-12  3068   0.298E-05    0.253E-06
RMM:  11    -0.368595044648E+02   -0.24977E-09   -0.46225E-12  2827   0.268E-05    0.931E-07
RMM:  12    -0.368595044648E+02   -0.15234E-10   -0.32786E-12  2806   0.255E-05
   2 F= -.36859504E+02 E0= -.36859504E+02  d E =0.189589E-05
       N       E                     dE             d eps       ncg     rms          rms(c)
DAV:   1    -0.368595064983E+02   -0.20334E-05   -0.10966E-04  6632   0.987E-02    0.201E-03
RMM:   2    -0.368595065655E+02   -0.67204E-07   -0.17754E-06  5944   0.118E-02    0.147E-03
RMM:   3    -0.368595064980E+02    0.67465E-07   -0.28588E-07  5982   0.433E-03    0.349E-04
RMM:   4    -0.368595064959E+02    0.20823E-08   -0.16689E-08  6061   0.102E-03    0.107E-04
RMM:   5    -0.368595064943E+02    0.16037E-08   -0.14018E-09  5666   0.271E-04    0.481E-05
RMM:   6    -0.368595064944E+02   -0.51728E-10   -0.19407E-10  3981   0.114E-04
   3 F= -.36859506E+02 E0= -.36859506E+02  d E =-.202954E-05
       N       E                     dE             d eps       ncg     rms          rms(c)
DAV:   1    -0.368595064937E+02    0.62369E-09    0.59329E-09  4748   0.740E-05    0.440E-06
RMM:   2    -0.368595064943E+02   -0.61902E-09    0.28537E-12  2974   0.282E-05    0.275E-06
RMM:   3    -0.368595064943E+02    0.54683E-10   -0.25569E-12  3139   0.305E-05    0.284E-07
RMM:   4    -0.368595064944E+02   -0.10095E-09   -0.44800E-12  2942   0.286E-05    0.292E-07
RMM:   5    -0.368595064945E+02   -0.91632E-10   -0.24441E-12  2882   0.270E-05
   4 F= -.36859506E+02 E0= -.36859506E+02  d E =-.815135E-10
       N       E                     dE             d eps       ncg     rms          rms(c)
DAV:   1    -0.368595064942E+02    0.14813E-09    0.59616E-09  4544   0.475E-05    0.443E-07
RMM:   2    -0.368595064949E+02   -0.67246E-09    0.67395E-13  1647   0.149E-05    0.277E-07
RMM:   3    -0.368595064947E+02    0.17599E-09    0.88966E-13  1594   0.149E-05    0.381E-08
RMM:   4    -0.368595064947E+02   -0.20236E-10   -0.29071E-13  1545   0.148E-05    0.142E-08
RMM:   5    -0.368595064944E+02    0.36846E-09   -0.49968E-13  1501   0.148E-05    0.169E-08
RMM:   6    -0.368595064948E+02   -0.39074E-09   -0.10839E-13  1423   0.144E-05    0.172E-08
RMM:   7    -0.368595064947E+02    0.10436E-09    0.24411E-13  1436   0.142E-05    0.248E-08
RMM:   8    -0.368595064946E+02    0.27512E-10   -0.16185E-13  1272   0.140E-05
   5 F= -.36859506E+02 E0= -.36859506E+02  d E =-.167347E-09
       N       E                     dE             d eps       ncg     rms          rms(c)
DAV:   1    -0.368595064941E+02    0.52012E-09    0.59855E-09  5068   0.166E-05    0.438E-07
RMM:   2    -0.368595064947E+02   -0.54854E-09    0.14013E-13  1085   0.623E-06    0.270E-07
RMM:   3    -0.368595064947E+02   -0.28422E-10   -0.97864E-14  1125   0.613E-06    0.798E-09
RMM:   4    -0.368595064947E+02   -0.28763E-10   -0.10362E-13  1066   0.614E-06    0.361E-09
RMM:   5    -0.368595064948E+02   -0.29672E-10   -0.37007E-14  1103   0.613E-06
   6 F= -.36859506E+02 E0= -.36859506E+02  d E =-.142791E-09
       N       E                     dE             d eps       ncg     rms          rms(c)
DAV:   1    -0.368595064942E+02    0.56559E-09    0.59792E-09  4796   0.297E-05    0.457E-07
RMM:   2    -0.368595064948E+02   -0.58594E-09   -0.65791E-15   630   0.800E-06    0.282E-07
RMM:   3    -0.368595064948E+02   -0.11823E-10    0.87173E-14   543   0.788E-06    0.620E-09
RMM:   4    -0.368595064948E+02    0.93223E-11    0.50001E-14   407   0.788E-06    0.226E-09
RMM:   5    -0.368595064948E+02    0.10004E-10    0.26974E-14   483   0.788E-06
   7 F= -.36859506E+02 E0= -.36859506E+02  d E =0.168257E-10
       N       E                     dE             d eps       ncg     rms          rms(c)
DAV:   1    -0.368595064941E+02    0.66620E-09    0.59673E-09  4324   0.401E-05    0.643E-07
RMM:   2    -0.368595064947E+02   -0.61596E-09    0.00000E+00   411   0.105E-05    0.398E-07
RMM:   3    -0.368595064947E+02    0.11369E-11    0.00000E+00   379   0.102E-05    0.904E-09
RMM:   4    -0.368595064947E+02    0.17053E-11    0.00000E+00   319   0.102E-05    0.291E-09
RMM:   5    -0.368595064947E+02    0.46612E-11    0.00000E+00   321   0.102E-05
   8 F= -.36859506E+02 E0= -.36859506E+02  d E =0.477485E-10
