gr                                      
           1
     4.255331    0.000000    0.000000
     0.000000    2.528491    0.000000
     0.000000    0.000000   19.595389
   C 
   4
Direct configuration=     1
   0.00063729  0.00000000  0.00000000
   0.16602938  0.50000000  0.00000000
   0.50063729  0.50000000  0.00000000
   0.66602938  0.00000000  0.00000000
Direct configuration=     2
   0.00060805 -0.00000000  0.00000000
   0.16605861  0.50000000 -0.00000000
   0.50060805  0.50000000  0.00000000
   0.66605861  0.00000000 -0.00000000
Direct configuration=     3
   0.00063144 -0.00000000  0.00000000
   0.16603523  0.50000000 -0.00000000
   0.50063144  0.50000000  0.00000000
   0.66603523 -0.00000000 -0.00000000
Direct configuration=     4
   0.00063146 -0.00000000 -0.00000000
   0.16603521  0.50000000  0.00000000
   0.50063146  0.50000000 -0.00000000
   0.66603521  0.00000000  0.00000000
Direct configuration=     5
   0.00063145 -0.00000000 -0.00000000
   0.16603522  0.50000000  0.00000000
   0.50063145  0.50000000 -0.00000000
   0.66603522  0.00000000  0.00000000
Direct configuration=     6
   0.00063145 -0.00000000 -0.00000000
   0.16603522  0.50000000  0.00000000
   0.50063145  0.50000000 -0.00000000
   0.66603522 -0.00000000  0.00000000
Direct configuration=     7
   0.00063145 -0.00000000 -0.00000000
   0.16603521  0.50000000  0.00000000
   0.50063145  0.50000000 -0.00000000
   0.66603521 -0.00000000  0.00000000
Direct configuration=     8
   0.00063144  0.00000000  0.00000000
   0.16603522  0.50000000 -0.00000000
   0.50063144  0.50000000  0.00000000
   0.66603522  0.00000000 -0.00000000
