    4    4  400    1
  0.5270948E+02  0.4272828E-09  0.2467523E-09  0.1999734E-08  0.5000000E-15
  1.000000000000000E-004
  CAR 
 gr                                      
     16    247     12
 
  0.0000000E+00  0.0000000E+00  0.0000000E+00  0.1157407E-02
    1      -22.253278
    2      -17.017898
    3      -15.972818
    4      -10.358651
    5       -9.161379
    6       -5.787324
    7       -5.784705
    8       -5.108663
    9       -1.075055
   10        0.523917
   11        1.324992
   12        1.707962
 
  0.4166667E-01  0.0000000E+00  0.0000000E+00  0.2314815E-02
    1      -22.243026
    2      -17.183289
    3      -15.792164
    4      -10.346404
    5       -9.151188
    6       -5.827441
    7       -5.809916
    8       -5.175214
    9       -0.992524
   10        0.537822
   11        1.339080
   12        1.722220
 
  0.8333333E-01  0.0000000E+00  0.0000000E+00  0.2314815E-02
    1      -22.212277
    2      -17.520722
    3      -15.409024
    4      -10.309681
    5       -9.120666
    6       -5.953889
    7       -5.876442
    8       -5.359873
    9       -0.760098
   10        0.579539
   11        1.381341
   12        1.764995
 
  0.1250000E+00  0.0000000E+00  0.0000000E+00  0.2314815E-02
    1      -22.161050
    2      -17.897388
    3      -14.956467
    4      -10.248540
    5       -9.069967
    6       -6.159070
    7       -5.983359
    8       -5.629284
    9       -0.411650
   10        0.649074
   11        1.451762
   12        1.836289
 
  0.1666667E+00  0.0000000E+00  0.0000000E+00  0.2314815E-02
    1      -22.089378
    2      -18.276649
    3      -14.471576
    4      -10.163078
    5       -8.999353
    6       -6.435553
    7       -6.125396
    8       -5.950396
    9        0.018900
   10        0.746431
   11        1.550322
   12        1.936103
 
  0.2083333E+00  0.0000000E+00  0.0000000E+00  0.2314815E-02
    1      -21.997311
    2      -18.647197
    3      -13.966296
    4      -10.053436
    5       -8.909201
    6       -6.774461
    7       -6.298618
    8       -6.296262
    9        0.505708
   10        0.871611
   11        1.676986
   12        2.064436
 
  0.2500000E+00  0.0000000E+00  0.0000000E+00  0.2314815E-02
    1      -21.884912
    2      -19.004482
    3      -13.446021
    4       -9.919803
    5       -8.800020
    6       -7.166400
    7       -6.657567
    8       -6.489332
    9        1.024601
   10        1.030721
   11        1.831704
   12        2.221290
 
  0.2916667E+00  0.0000000E+00  0.0000000E+00  0.2314815E-02
    1      -21.752260
    2      -19.346253
    3      -12.914080
    4       -9.762425
    5       -8.672460
    6       -7.602173
    7       -7.016614
    8       -6.698159
    9        1.205377
   10        1.581134
   11        2.014398
   12        2.406661
 
  0.3333333E+00  0.0000000E+00  0.0000000E+00  0.2314815E-02
    1      -21.599453
    2      -19.671214
    3      -12.373112
    4       -9.581612
    5       -8.527341
    6       -8.073239
    7       -7.368785
    8       -6.916816
    9        1.413902
   10        2.147051
   11        2.224943
   12        2.620544
 
  0.3750000E+00  0.0000000E+00  0.0000000E+00  0.2314815E-02
    1      -21.426606
    2      -19.978523
    3      -11.825597
    4       -9.377753
    5       -8.571932
    6       -8.365674
    7       -7.709381
    8       -7.140049
    9        1.650124
   10        2.463122
   11        2.719141
   12        2.862931
 
  0.4166667E+00  0.0000000E+00  0.0000000E+00  0.2314815E-02
    1      -21.233854
    2      -20.267591
    3      -11.274114
    4       -9.151336
    5       -9.091530
    6       -8.188702
    7       -8.035144
    8       -7.363324
    9        1.913971
   10        2.728491
   11        3.133806
   12        3.242805
 
  0.4583333E+00  0.0000000E+00  0.0000000E+00  0.2314815E-02
    1      -21.021361
    2      -20.537973
    3      -10.721499
    4       -9.626209
    5       -8.902975
    6       -8.343737
    7       -7.997939
    8       -7.582793
    9        2.205345
   10        2.870050
   11        3.019892
   12        3.433146
 
  0.5000000E+00  0.0000000E+00  0.0000000E+00  0.1157407E-02
    1      -20.789324
    2      -20.789324
    3      -10.170964
    4      -10.170964
    5       -8.633445
    6       -8.633445
    7       -7.795227
    8       -7.795227
    9        2.524108
   10        2.524108
   11        3.332676
   12        3.332676
 
  0.0000000E+00  0.2777778E-01  0.0000000E+00  0.2314815E-02
    1      -22.239616
    2      -17.006178
    3      -15.961236
    4      -10.342331
    5       -9.222941
    6       -5.844110
    7       -5.814916
    8       -5.092037
    9       -1.079014
   10        0.542447
   11        1.343767
   12        1.726963
 
  0.4166667E-01  0.2777778E-01  0.0000000E+00  0.4629630E-02
    1      -22.229366
    2      -17.171398
    3      -15.780803
    4      -10.330087
    5       -9.212734
    6       -5.885468
    7       -5.838209
    8       -5.158735
    9       -0.996456
   10        0.556353
   11        1.357854
   12        1.741222
 
  0.8333333E-01  0.2777778E-01  0.0000000E+00  0.4629630E-02
    1      -22.198621
    2      -17.508571
    3      -15.398079
    4      -10.293377
    5       -9.182160
    6       -6.008144
    7       -5.906602
    8       -5.343728
    9       -0.764053
   10        0.598071
   11        1.400112
   12        1.783997
 
  0.1250000E+00  0.2777778E-01  0.0000000E+00  0.4629630E-02
    1      -22.147401
    2      -17.885009
    3      -14.946016
    4      -10.232257
    5       -9.131370
    6       -6.207764
    7       -6.016261
    8       -5.613483
    9       -0.415858
   10        0.667610
   11        1.470529
   12        1.855292
 
  0.1666667E+00  0.2777778E-01  0.0000000E+00  0.4629630E-02
    1      -22.075740
    2      -18.264076
    3      -14.461705
    4      -10.146824
    5       -9.060621
    6       -6.477628
    7       -6.161581
    8       -5.934848
    9        0.014107
   10        0.764974
   11        1.569083
   12        1.955107
 
  0.2083333E+00  0.2777778E-01  0.0000000E+00  0.4629630E-02
    1      -21.983687
    2      -18.634459
    3      -13.957107
    4      -10.037220
    5       -8.970280
    6       -6.809556
    7       -6.335937
    8       -6.283216
    9        0.499983
   10        0.890162
   11        1.695740
   12        2.083442
 
  0.2500000E+00  0.2777778E-01  0.0000000E+00  0.4629630E-02
    1      -21.871305
    2      -18.991602
    3      -13.437643
    4       -9.903634
    5       -8.860843
    6       -7.194698
    7       -6.642224
    8       -6.532429
    9        1.023740
   10        1.043161
   11        1.850450
   12        2.240298
 
  0.2916667E+00  0.2777778E-01  0.0000000E+00  0.4629630E-02
    1      -21.738676
    2      -19.333252
    3      -12.906668
    4       -9.746310
    5       -8.732946
    6       -7.624203
    7       -7.001267
    8       -6.744432
    9        1.223950
   10        1.572619
   11        2.033136
   12        2.425672
 
  0.3333333E+00  0.2777778E-01  0.0000000E+00  0.4629630E-02
    1      -21.585895
    2      -19.658108
    3      -12.366854
    4       -9.565559
    5       -8.587387
    6       -8.089699
    7       -7.353392
    8       -6.965917
    9        1.432489
   10        2.136805
   11        2.243675
   12        2.639559
 
  0.3750000E+00  0.2777778E-01  0.0000000E+00  0.4629630E-02
    1      -21.413079
    2      -19.965328
    3      -11.820722
    4       -9.361771
    5       -8.583570
    6       -8.425156
    7       -7.693918
    8       -7.191595
    9        1.668726
   10        2.481854
   11        2.707185
   12        2.881951
 
  0.4166667E+00  0.2777778E-01  0.0000000E+00  0.4629630E-02
    1      -21.220364
    2      -20.254318
    3      -11.270902
    4       -9.135433
    5       -9.099063
    6       -8.247466
    7       -8.019596
    8       -7.416935
    9        1.932591
   10        2.747234
   11        3.152834
   12        3.261632
 
  0.4583333E+00  0.2777778E-01  0.0000000E+00  0.4629630E-02
    1      -21.007914
    2      -20.524633
    3      -10.720286
    4       -9.630288
    5       -8.887156
    6       -8.328099
    7       -8.055797
    8       -7.638117
    9        2.223987
   10        2.888773
   11        3.038664
   12        3.452185
 
  0.5000000E+00  0.2777778E-01  0.0000000E+00  0.2314815E-02
    1      -20.775926
    2      -20.775926
    3      -10.172156
    4      -10.172156
    5       -8.617714
    6       -8.617714
    7       -7.851953
    8       -7.851953
    9        2.542781
   10        2.542781
   11        3.351426
   12        3.351426
 
  0.0000000E+00  0.5555556E-01  0.0000000E+00  0.2314815E-02
    1      -22.198642
    2      -16.971019
    3      -15.926640
    4      -10.293402
    5       -9.402703
    6       -6.009946
    7       -5.904813
    8       -5.042181
    9       -1.091726
   10        0.598042
   11        1.400084
   12        1.783969
 
  0.4166667E-01  0.5555556E-01  0.0000000E+00  0.4629630E-02
    1      -22.188396
    2      -17.135740
    3      -15.746866
    4      -10.281172
    5       -9.392439
    6       -6.052478
    7       -5.924957
    8       -5.109331
    9       -1.009078
   10        0.611948
   11        1.414169
   12        1.798228
 
  0.8333333E-01  0.5555556E-01  0.0000000E+00  0.4629630E-02
    1      -22.157664
    2      -17.472139
    3      -15.365395
    4      -10.244500
    5       -9.361694
    6       -6.172738
    7       -5.990172
    8       -5.295354
    9       -0.776735
   10        0.653671
   11        1.456419
   12        1.841004
 
  0.1250000E+00  0.5555556E-01  0.0000000E+00  0.4629630E-02
    1      -22.106466
    2      -17.847894
    3      -14.914836
    4      -10.183443
    5       -9.310606
    6       -6.361719
    7       -6.102159
    8       -5.566161
    9       -0.429307
   10        0.723218
   11        1.526823
   12        1.912301
 
  0.1666667E+00  0.5555556E-01  0.0000000E+00  0.4629630E-02
    1      -22.034838
    2      -18.226379
    3      -14.432295
    4      -10.098100
    5       -9.239409
    6       -6.614083
    7       -6.255090
    8       -5.888299
    9       -0.001127
   10        0.820595
   11        1.625358
   12        2.012118
 
  0.2083333E+00  0.5555556E-01  0.0000000E+00  0.4629630E-02
    1      -21.942828
    2      -18.596265
    3      -13.929797
    4       -9.988611
    5       -9.148445
    6       -6.924924
    7       -6.440142
    8       -6.237111
    9        0.481899
   10        0.945803
   11        1.751992
   12        2.140458
 
  0.2500000E+00  0.5555556E-01  0.0000000E+00  0.4629630E-02
    1      -21.830499
    2      -18.952983
    3      -13.412831
    4       -9.855166
    5       -9.038167
    6       -7.288320
    7       -6.648297
    8       -6.596293
    9        1.001819
   10        1.098828
   11        1.906677
   12        2.297320
 
  0.2916667E+00  0.5555556E-01  0.0000000E+00  0.4629630E-02
    1      -21.697936
    2      -19.294268
    3      -12.884845
    4       -9.698008
    5       -8.909157
    6       -7.697326
    7       -6.955318
    8       -6.871522
    9        1.279646
   10        1.546005
   11        2.089337
   12        2.482702
 
  0.3333333E+00  0.5555556E-01  0.0000000E+00  0.4629630E-02
    1      -21.545234
    2      -19.618809
    3      -12.348620
    4       -9.517449
    5       -8.762150
    6       -8.144523
    7       -7.307301
    8       -7.103064
    9        1.488219
   10        2.104864
   11        2.299856
   12        2.696599
 
  0.3750000E+00  0.5555556E-01  0.0000000E+00  0.4629630E-02
    1      -21.372511
    2      -19.925758
    3      -11.806810
    4       -9.313876
    5       -8.622599
    6       -8.598051
    7       -7.647609
    8       -7.337371
    9        1.724495
   10        2.538030
   11        2.669860
   12        2.939004
 
  0.4166667E+00  0.5555556E-01  0.0000000E+00  0.4629630E-02
    1      -21.179906
    2      -20.214514
    3      -11.262210
    4       -9.124738
    5       -9.087775
    6       -8.417972
    7       -7.973026
    8       -7.569914
    9        1.988403
   10        2.803442
   11        3.209905
   12        3.228757
 
  0.4583333E+00  0.5555556E-01  0.0000000E+00  0.4629630E-02
    1      -20.967584
    2      -20.484627
    3      -10.717910
    4       -9.644809
    5       -8.839756
    6       -8.281251
    7       -8.223271
    8       -7.796997
    9        2.279852
   10        2.944827
   11        3.094970
   12        3.509288
 
  0.5000000E+00  0.5555556E-01  0.0000000E+00  0.2314815E-02
    1      -20.735746
    2      -20.735746
    3      -10.177427
    4      -10.177427
    5       -8.570586
    6       -8.570586
    7       -8.015606
    8       -8.015606
    9        2.598718
   10        2.598718
   11        3.407654
   12        3.407654
 
  0.0000000E+00  0.8333333E-01  0.0000000E+00  0.2314815E-02
    1      -22.130391
    2      -16.912436
    3      -15.869517
    4      -10.211968
    5       -9.687245
    6       -6.272641
    7       -6.052234
    8       -4.959155
    9       -1.115685
   10        0.690714
   11        1.493924
   12        1.878982
 
  0.4166667E-01  0.8333333E-01  0.0000000E+00  0.4629630E-02
    1      -22.120152
    2      -17.076359
    3      -15.690819
    4      -10.199759
    5       -9.676870
    6       -6.316510
    7       -6.067894
    8       -5.027103
    9       -1.032863
   10        0.704620
   11        1.508003
   12        1.893241
 
  0.8333333E-01  0.8333333E-01  0.0000000E+00  0.4629630E-02
    1      -22.089442
    2      -17.411496
    3      -15.311457
    4      -10.163153
    5       -9.645785
    6       -6.437848
    7       -6.123101
    8       -5.214939
    9       -0.800584
   10        0.746343
   11        1.550238
   12        1.936018
 
  0.1250000E+00  0.8333333E-01  0.0000000E+00  0.4629630E-02
    1      -22.038282
    2      -17.786116
    3      -14.863479
    4      -10.102206
    5       -9.594104
    6       -6.621249
    7       -6.227299
    8       -5.487579
    9       -0.454458
   10        0.815894
   11        1.620617
   12        2.007315
 
  0.1666667E+00  0.8333333E-01  0.0000000E+00  0.4629630E-02
    1      -21.966708
    2      -18.163627
    3      -14.384016
    4      -10.017016
    5       -9.522022
    6       -6.857353
    7       -6.380436
    8       -5.811046
    9       -0.029349
   10        0.913282
   11        1.719118
   12        2.107136
 
  0.2083333E+00  0.8333333E-01  0.0000000E+00  0.4629630E-02
    1      -21.874769
    2      -18.532679
    3      -13.885196
    4       -9.907724
    5       -9.429819
    6       -7.141412
    7       -6.575240
    8       -6.160609
    9        0.448765
   10        1.038507
   11        1.845709
   12        2.235481
 
  0.2500000E+00  0.8333333E-01  0.0000000E+00  0.4629630E-02
    1      -21.762531
    2      -18.888683
    3      -13.372650
    4       -9.774520
    5       -9.317866
    6       -7.470942
    7       -6.800591
    8       -6.520074
    9        0.962067
   10        1.191559
   11        2.000345
   12        2.392350
 
  0.2916667E+00  0.8333333E-01  0.0000000E+00  0.4629630E-02
    1      -21.630078
    2      -19.229353
    3      -12.849995
    4       -9.617648
    5       -9.186638
    6       -7.843713
    7       -7.044603
    8       -6.879055
    9        1.372412
   10        1.498148
   11        2.182955
   12        2.577742
 
  0.3333333E+00  0.8333333E-01  0.0000000E+00  0.4629630E-02
    1      -21.477507
    2      -19.553366
    3      -12.320231
    4       -9.437418
    5       -9.036723
    6       -8.256269
    7       -7.296987
    8       -7.230779
    9        1.581025
   10        2.047740
   11        2.393431
   12        2.791652
 
  0.3750000E+00  0.8333333E-01  0.0000000E+00  0.4629630E-02
    1      -21.304940
    2      -19.859859
    3      -11.786287
    4       -9.234215
    5       -8.868845
    6       -8.703564
    7       -7.570701
    8       -7.550039
    9        1.817344
   10        2.603035
   11        2.631591
   12        3.034074
 
  0.4166667E+00  0.8333333E-01  0.0000000E+00  0.4629630E-02
    1      -21.112518
    2      -20.148223
    3      -11.251299
    4       -9.179541
    5       -9.008524
    6       -8.683879
    7       -7.895662
    8       -7.798393
    9        2.081298
   10        2.897055
   11        3.155087
   12        3.304997
 
  0.4583333E+00  0.8333333E-01  0.0000000E+00  0.4629630E-02
    1      -20.900412
    2      -20.417998
    3      -10.718784
    4       -9.677921
    5       -8.760949
    6       -8.482889
    7       -8.203402
    8       -8.038331
    9        2.372800
   10        3.037951
   11        3.188768
   12        3.604734
 
  0.5000000E+00  0.8333333E-01  0.0000000E+00  0.2314815E-02
    1      -20.668824
    2      -20.668824
    3      -10.192775
    4      -10.192775
    5       -8.492251
    6       -8.492251
    7       -8.267173
    8       -8.267173
    9        2.691736
   10        2.691736
   11        3.501266
   12        3.501266
 
  0.0000000E+00  0.1111111E+00  0.0000000E+00  0.2314815E-02
    1      -22.034923
    2      -16.830446
    3      -15.790783
    4      -10.098200
    5      -10.057856
    6       -6.615515
    7       -6.253712
    8       -4.843062
    9       -1.155017
   10        0.820478
   11        1.625247
   12        2.012005
 
  0.4166667E-01  0.1111111E+00  0.0000000E+00  0.4629630E-02
    1      -22.024695
    2      -16.993335
    3      -15.613546
    4      -10.086024
    5      -10.047286
    6       -6.661046
    7       -6.263609
    8       -4.912237
    9       -1.071883
   10        0.834381
   11        1.639318
   12        2.026264
 
  0.8333333E-01  0.1111111E+00  0.0000000E+00  0.4629630E-02
    1      -21.994017
    2      -17.326761
    3      -15.237190
    4      -10.049513
    5      -10.015600
    6       -6.785494
    7       -6.303992
    8       -5.102826
    9       -0.839597
   10        0.876096
   11        1.681528
   12        2.069040
 
  0.1250000E+00  0.1111111E+00  0.0000000E+00  0.4629630E-02
    1      -21.942910
    2      -17.699802
    3      -14.793017
    4       -9.988726
    5       -9.962870
    6       -6.968772
    7       -6.390588
    8       -5.378210
    9       -0.495312
   10        0.945637
   11        1.751866
   12        2.140337
 
  0.1666667E+00  0.1111111E+00  0.0000000E+00  0.4629630E-02
    1      -21.871411
    2      -18.075941
    3      -14.318179
    4       -9.903760
    5       -9.889216
    6       -7.196994
    7       -6.530045
    8       -5.703627
    9       -0.074681
   10        1.043017
   11        1.850310
   12        2.240157
 
  0.2083333E+00  0.1111111E+00  0.0000000E+00  0.4629630E-02
    1      -21.779573
    2      -18.443813
    3      -13.824972
    4       -9.794803
    5       -9.794757
    6       -7.462275
    7       -6.720431
    8       -6.054264
    9        0.396246
   10        1.168244
   11        1.976830
   12        2.368505
 
  0.2500000E+00  0.1111111E+00  0.0000000E+00  0.4629630E-02
    1      -21.667462
    2      -18.798803
    3      -13.319263
    4       -9.679843
    5       -9.661906
    6       -7.760896
    7       -6.953694
    8       -6.414108
    9        0.899869
   10        1.321307
   11        2.131381
   12        2.525380
 
  0.2916667E+00  0.1111111E+00  0.0000000E+00  0.4629630E-02
    1      -21.535163
    2      -19.138602
    3      -12.804983
    4       -9.544589
    5       -9.505452
    6       -8.092145
    7       -7.217685
    8       -6.772986
    9        1.424091
   10        1.502180
   11        2.313900
   12        2.710781
 
  0.3333333E+00  0.1111111E+00  0.0000000E+00  0.4629630E-02
    1      -21.382778
    2      -19.461866
    3      -12.285544
    4       -9.389329
    5       -9.325704
    6       -8.456946
    7       -7.498422
    8       -7.124300
    9        1.710820
   10        1.960045
   11        2.524293
   12        2.924703
 
  0.3750000E+00  0.1111111E+00  0.0000000E+00  0.4629630E-02
    1      -21.210430
    2      -19.767714
    3      -11.764404
    4       -9.214387
    5       -9.123047
    6       -8.855914
    7       -7.782782
    8       -7.463629
    9        1.947167
   10        2.500618
   11        2.762405
   12        3.167141
 
  0.4166667E+00  0.1111111E+00  0.0000000E+00  0.4629630E-02
    1      -21.018267
    2      -20.055522
    3      -11.245382
    4       -9.287613
    5       -9.020111
    6       -8.897959
    7       -8.060730
    8       -7.787902
    9        2.211150
   10        3.027928
   11        3.039158
   12        3.438084
 
  0.4583333E+00  0.1111111E+00  0.0000000E+00  0.4629630E-02
    1      -20.806465
    2      -20.324818
    3      -10.732856
    4       -9.748118
    5       -8.806897
    6       -8.651040
    7       -8.325994
    8       -8.094916
    9        2.502678
   10        3.167897
   11        3.319955
   12        3.562706
 
  0.5000000E+00  0.1111111E+00  0.0000000E+00  0.2314815E-02
    1      -20.575232
    2      -20.575232
    3      -10.231871
    4      -10.231871
    5       -8.575253
    6       -8.575253
    7       -8.383041
    8       -8.383041
    9        2.821641
   10        2.821641
   11        3.631873
   12        3.631873
 
  0.0000000E+00  0.1388889E+00  0.0000000E+00  0.2314815E-02
    1      -21.912328
    2      -16.725080
    3      -15.691995
    4      -10.493852
    5       -9.952348
    6       -7.020781
    7       -6.504681
    8       -4.694050
    9       -1.215357
   10        0.987341
   11        1.793997
   12        2.183043
 
  0.4166667E-01  0.1388889E+00  0.0000000E+00  0.4629630E-02
    1      -21.902113
    2      -16.886790
    3      -15.516560
    4      -10.482949
    5       -9.940215
    6       -7.068283
    7       -6.507803
    8       -4.765018
    9       -1.131668
   10        1.001237
   11        1.808055
   12        2.197300
 
  0.8333333E-01  0.1388889E+00  0.0000000E+00  0.4629630E-02
    1      -21.871475
    2      -17.218128
    3      -15.144206
    4      -10.450236
    5       -9.903834
    6       -7.197077
    7       -6.530027
    8       -4.959574
    9       -0.899131
   10        1.042929
   11        1.850227
   12        2.240073
 
  0.1250000E+00  0.1388889E+00  0.0000000E+00  0.4629630E-02
    1      -21.820438
    2      -17.589153
    3      -14.705349
    4      -10.395703
    5       -9.843264
    6       -7.383477
    7       -6.592338
    8       -5.238816
    9       -0.557179
   10        1.112438
   11        1.920499
   12        2.311365
 
  0.1666667E+00  0.1388889E+00  0.0000000E+00  0.4629630E-02
    1      -21.749039
    2      -17.963510
    3      -14.237162
    4      -10.319323
    5       -9.758603
    6       -7.610216
    7       -6.707112
    8       -5.566898
    9       -0.142541
   10        1.209783
   11        2.018851
   12        2.411182
 
  0.2083333E+00  0.1388889E+00  0.0000000E+00  0.4629630E-02
    1      -21.657330
    2      -18.329838
    3      -13.752214
    4      -10.221036
    5       -9.649993
    6       -7.866726
    7       -6.877627
    8       -5.918946
    9        0.318700
   10        1.334979
   11        2.145251
   12        2.539527
 
  0.2500000E+00  0.1388889E+00  0.0000000E+00  0.4629630E-02
    1      -21.545383
    2      -18.683499
    3      -13.256798
    4      -10.100725
    5       -9.517625
    6       -8.146887
    7       -7.100478
    8       -6.279233
    9        0.809300
   10        1.488020
   11        2.299657
   12        2.696403
 
  0.2916667E+00  0.1388889E+00  0.0000000E+00  0.4629630E-02
    1      -21.413283
    2      -19.022156
    3      -12.755438
    4       -9.958170
    5       -9.361744
    6       -8.447908
    7       -7.367255
    8       -6.637897
    9        1.317609
   10        1.668883
   11        2.482010
   12        2.881808
 
  0.3333333E+00  0.1388889E+00  0.0000000E+00  0.4629630E-02
    1      -21.261137
    2      -19.344438
    3      -12.252346
    4       -9.793010
    5       -9.182657
    6       -8.769894
    7       -7.665812
    8       -6.988586
    9        1.835243
   10        1.877520
   11        2.692230
   12        3.095739
 
  0.3750000E+00  0.1388889E+00  0.0000000E+00  0.4629630E-02
    1      -21.089075
    2      -19.649442
    3      -11.752045
    4       -9.604679
    5       -9.115362
    6       -8.980748
    7       -7.981568
    8       -7.327053
    9        2.113867
   10        2.355716
   11        2.930200
   12        3.338189
 
  0.4166667E+00  0.1388889E+00  0.0000000E+00  0.4629630E-02
    1      -20.897248
    2      -19.936523
    3      -11.259699
    4       -9.488025
    5       -9.392396
    6       -8.756492
    7       -8.299385
    8       -7.650345
    9        2.377844
   10        2.873611
   11        3.195719
   12        3.609148
 
  0.4583333E+00  0.1388889E+00  0.0000000E+00  0.4629630E-02
    1      -20.685842
    2      -20.205195
    3      -10.781213
    4       -9.890633
    5       -9.155282
    6       -8.606119
    7       -8.510479
    8       -7.956337
    9        2.669354
   10        3.334488
   11        3.383724
   12        3.488226
 
  0.5000000E+00  0.1388889E+00  0.0000000E+00  0.2314815E-02
    1      -20.455071
    2      -20.455071
    3      -10.322921
    4      -10.322921
    5       -8.892847
    6       -8.892847
    7       -8.243450
    8       -8.243450
    9        2.988283
   10        2.988283
   11        3.792832
   12        3.792832
 
  0.0000000E+00  0.1666667E+00  0.0000000E+00  0.2314815E-02
    1      -21.762722
    2      -16.596375
    3      -15.575770
    4      -10.974695
    5       -9.774744
    6       -7.471882
    7       -6.799743
    8       -4.512310
    9       -1.303562
   10        1.191298
   11        2.000094
   12        2.392097
 
  0.4166667E-01  0.1666667E+00  0.0000000E+00  0.4629630E-02
    1      -21.752524
    2      -16.756916
    3      -15.402435
    4      -10.963217
    5       -9.762667
    6       -7.521623
    7       -6.795382
    8       -4.585881
    9       -1.218863
   10        1.205180
   11        2.014132
   12        2.406352
 
  0.8333333E-01  0.1666667E+00  0.0000000E+00  0.4629630E-02
    1      -21.721938
    2      -17.085888
    3      -15.035303
    4      -10.928726
    5       -9.726457
    6       -7.655605
    7       -6.797237
    8       -4.786062
    9       -0.985472
   10        1.246835
   11        2.056241
   12        2.449119
 
  0.1250000E+00  0.1666667E+00  0.0000000E+00  0.4629630E-02
    1      -21.670986
    2      -17.454468
    3      -14.603866
    4      -10.871044
    5       -9.666173
    6       -7.847012
    7       -6.830967
    8       -5.070587
    9       -0.646165
   10        1.316285
   11        2.126407
   12        2.520401
 
  0.1666667E+00  0.1666667E+00  0.0000000E+00  0.4629630E-02
    1      -21.599708
    2      -17.826611
    3      -14.145342
    4      -10.789836
    5       -9.581913
    6       -8.075972
    7       -6.913846
    8       -5.402173
    9       -0.239066
   10        1.413558
   11        2.224605
   12        2.620207
 
  0.2083333E+00  0.1666667E+00  0.0000000E+00  0.4629630E-02
    1      -21.508159
    2      -18.191004
    3      -13.672805
    4      -10.684559
    5       -9.473821
    6       -8.330132
    7       -7.053575
    8       -5.755965
    9        0.209845
   10        1.538678
   11        2.350800
   12        2.748541
 
  0.2500000E+00  0.1666667E+00  0.0000000E+00  0.4629630E-02
    1      -21.396412
    2      -18.542995
    3      -13.193385
    4      -10.554363
    5       -9.342090
    6       -8.601825
    7       -7.250823
    8       -6.116691
    9        0.683919
   10        1.691650
   11        2.504942
   12        2.905409
 
  0.2916667E+00  0.1666667E+00  0.0000000E+00  0.4629630E-02
    1      -21.264558
    2      -18.880216
    3      -12.712810
    4      -10.397987
    5       -9.186965
    6       -8.886470
    7       -7.501022
    8       -6.474936
    9        1.172165
   10        1.872455
   11        2.686967
   12        3.090811
 
  0.3333333E+00  0.1666667E+00  0.0000000E+00  0.4629630E-02
    1      -21.112709
    2      -19.201265
    3      -12.236911
    4      -10.213633
    5       -9.181959
    6       -9.008754
    7       -7.795613
    8       -6.824685
    9        1.666846
   10        2.081045
   11        2.896788
   12        3.304745
 
  0.3750000E+00  0.1666667E+00  0.0000000E+00  0.4629630E-02
    1      -20.940999
    2      -19.505210
    3      -11.772200
    4       -9.998980
    5       -9.488559
    6       -8.807839
    7       -8.122996
    8       -7.161921
    9        2.162134
   10        2.317350
   11        3.134291
   12        3.547202
 
  0.4166667E+00  0.1666667E+00  0.0000000E+00  0.4629630E-02
    1      -20.749592
    2      -19.791382
    3      -11.325770
    4       -9.808972
    5       -9.751589
    6       -8.584692
    7       -8.469256
    8       -7.483847
    9        2.581277
   10        2.653363
   11        3.399318
   12        3.818172
 
  0.4583333E+00  0.1666667E+00  0.0000000E+00  0.4629630E-02
    1      -20.538676
    2      -20.059274
    3      -10.904253
    4      -10.148095
    5       -9.470174
    6       -8.818977
    7       -8.339895
    8       -7.788436
    9        2.872719
   10        3.136584
   11        3.537609
   12        3.691542
 
  0.5000000E+00  0.1666667E+00  0.0000000E+00  0.2314815E-02
    1      -20.308481
    2      -20.308481
    3      -10.511768
    4      -10.511768
    5       -9.156820
    6       -9.156820
    7       -8.074173
    8       -8.074173
    9        3.191547
   10        3.191547
   11        3.608176
   12        3.608176
 