       N       E                     dE             d eps       ncg     rms          rms(c)
DAV:   1     0.189929293948E+03    0.18993E+03   -0.10565E+04  5928   0.274E+03
DAV:   2    -0.913965508938E+01   -0.19907E+03   -0.17602E+03 10380   0.264E+02
DAV:   3    -0.383597953840E+02   -0.29220E+02   -0.28676E+02  7376   0.120E+02    0.734E+00
RMM:   4    -0.376759542892E+02    0.68384E+00   -0.93809E+00  5928   0.263E+01    0.425E+00
RMM:   5    -0.369331808649E+02    0.74277E+00   -0.29813E+00  5930   0.116E+01    0.734E-01
RMM:   6    -0.369379433207E+02   -0.47625E-02   -0.88966E-02  6353   0.204E+00    0.527E-01
RMM:   7    -0.369280598470E+02    0.98835E-02   -0.34449E-02  5944   0.159E+00    0.341E-01
RMM:   8    -0.369224685755E+02    0.55913E-02   -0.76112E-03  5929   0.579E-01    0.134E-01
RMM:   9    -0.369221153222E+02    0.35325E-03   -0.20530E-02  5928   0.849E-01    0.163E-01
RMM:  10    -0.369219913551E+02    0.12397E-03   -0.27648E-03  5928   0.380E-01    0.312E-02
RMM:  11    -0.369246108014E+02   -0.26194E-02   -0.75370E-04  5929   0.178E-01    0.491E-02
RMM:  12    -0.369250359721E+02   -0.42517E-03   -0.19626E-04  5948   0.926E-02    0.106E-02
RMM:  13    -0.369253087859E+02   -0.27281E-03   -0.85044E-05  5962   0.564E-02    0.551E-03
RMM:  14    -0.369253935363E+02   -0.84750E-04   -0.12600E-05  5950   0.216E-02    0.209E-03
RMM:  15    -0.369254019327E+02   -0.83964E-05   -0.14889E-06  6028   0.704E-03    0.716E-04
RMM:  16    -0.369254130553E+02   -0.11123E-04   -0.37664E-07  5996   0.356E-03    0.447E-04
RMM:  17    -0.369254164064E+02   -0.33511E-05   -0.25262E-08  6115   0.135E-03    0.753E-04
RMM:  18    -0.369254185073E+02   -0.21009E-05   -0.12452E-07  5928   0.240E-03    0.175E-04
RMM:  19    -0.369254187548E+02   -0.24749E-06   -0.44453E-09  5989   0.457E-04    0.415E-05
RMM:  20    -0.369254188160E+02   -0.61156E-07   -0.55009E-10  4485   0.143E-04    0.697E-06
RMM:  21    -0.369254188210E+02   -0.50684E-08   -0.36114E-11  3953   0.591E-05    0.246E-06
RMM:  22    -0.369254188218E+02   -0.79910E-09   -0.32162E-11  3836   0.502E-05    0.717E-07
RMM:  23    -0.369254188219E+02   -0.11471E-09   -0.10429E-11  3376   0.351E-05    0.621E-07
RMM:  24    -0.369254188223E+02   -0.38722E-09   -0.46153E-12  3072   0.285E-05    0.330E-07
RMM:  25    -0.369254188222E+02    0.17235E-09   -0.54835E-12  2797   0.252E-05    0.212E-07
RMM:  26    -0.369254188223E+02   -0.14609E-09   -0.32726E-12  2582   0.220E-05    0.306E-07
RMM:  27    -0.369254188220E+02    0.33333E-09   -0.18956E-12  2442   0.205E-05    0.427E-08
RMM:  28    -0.369254188224E+02   -0.39756E-09   -0.18310E-12  2311   0.194E-05    0.735E-08
RMM:  29    -0.369254188223E+02    0.11471E-09   -0.18667E-12  2194   0.184E-05    0.931E-08
RMM:  30    -0.369254188222E+02    0.54683E-10   -0.91132E-13  2126   0.176E-05
   1 F= -.36925419E+02 E0= -.36925356E+02  d E =-.369254E+02
       N       E                     dE             d eps       ncg     rms          rms(c)
DAV:   1    -0.369244286622E+02    0.99016E-03   -0.89610E-02  6704   0.282E+00    0.609E-02
RMM:   2    -0.369244729523E+02   -0.44290E-04   -0.14477E-03  5928   0.339E-01    0.432E-02
RMM:   3    -0.369244262993E+02    0.46653E-04   -0.25657E-04  5976   0.129E-01    0.107E-02
RMM:   4    -0.369244219392E+02    0.43601E-05   -0.15017E-05  6086   0.305E-02    0.306E-03
RMM:   5    -0.369244220811E+02   -0.14188E-06   -0.11277E-06  6205   0.770E-03    0.147E-03
RMM:   6    -0.369244220006E+02    0.80474E-07   -0.18300E-07  6097   0.330E-03    0.114E-04
RMM:   7    -0.369244220017E+02   -0.10648E-08   -0.11151E-08  6099   0.759E-04    0.852E-05
RMM:   8    -0.369244220018E+02   -0.12619E-09   -0.79054E-10  5462   0.221E-04    0.132E-05
RMM:   9    -0.369244220020E+02   -0.19270E-09   -0.42569E-11  3870   0.687E-05    0.339E-06
RMM:  10    -0.369244220019E+02    0.64233E-10   -0.31829E-11  3833   0.569E-05
   2 F= -.36924422E+02 E0= -.36924375E+02  d E =0.996820E-03
       N       E                     dE             d eps       ncg     rms          rms(c)
DAV:   1    -0.369254930215E+02   -0.10710E-02   -0.57265E-02  6316   0.225E+00    0.489E-02
RMM:   2    -0.369255172354E+02   -0.24214E-04   -0.89227E-04  5929   0.269E-01    0.344E-02
RMM:   3    -0.369254877218E+02    0.29514E-04   -0.16247E-04  5952   0.103E-01    0.838E-03
RMM:   4    -0.369254850387E+02    0.26831E-05   -0.94398E-06  6097   0.246E-02    0.247E-03
RMM:   5    -0.369254851267E+02   -0.87955E-07   -0.72747E-07  6171   0.615E-03    0.121E-03
RMM:   6    -0.369254850738E+02    0.52865E-07   -0.12819E-07  6097   0.276E-03    0.871E-05
RMM:   7    -0.369254850728E+02    0.95520E-09   -0.69943E-09  6095   0.597E-04    0.669E-05
RMM:   8    -0.369254850717E+02    0.11687E-08   -0.48839E-10  4749   0.176E-04    0.114E-05
RMM:   9    -0.369254850717E+02   -0.23192E-10   -0.27577E-11  3832   0.664E-05
   3 F= -.36925485E+02 E0= -.36925420E+02  d E =-.106307E-02
       N       E                     dE             d eps       ncg     rms          rms(c)
DAV:   1    -0.369254850718E+02   -0.15200E-09   -0.11225E-08  6832   0.123E-03    0.301E-05
RMM:   2    -0.369254850725E+02   -0.71657E-09   -0.26606E-10  4315   0.155E-04    0.207E-05
RMM:   3    -0.369254850733E+02   -0.73237E-09   -0.65705E-11  3766   0.830E-05    0.452E-06
RMM:   4    -0.369254850732E+02    0.88335E-10   -0.16841E-11  3657   0.434E-05    0.148E-06
RMM:   5    -0.369254850738E+02   -0.62414E-09   -0.78622E-12  3705   0.420E-05    0.768E-06
RMM:   6    -0.369254850739E+02   -0.11994E-09   -0.99472E-12  3125   0.332E-05    0.562E-06
RMM:   7    -0.369254850741E+02   -0.12267E-09   -0.40477E-12  2807   0.270E-05    0.448E-06
RMM:   8    -0.369254850741E+02   -0.92882E-10   -0.15477E-12  3145   0.278E-05
   4 F= -.36925485E+02 E0= -.36925420E+02  d E =-.244904E-08
       N       E                     dE             d eps       ncg     rms          rms(c)
DAV:   1    -0.369254850732E+02    0.88437E-09    0.55086E-09  6512   0.163E-04    0.251E-06
RMM:   2    -0.369254850740E+02   -0.87505E-09    0.16260E-13  2655   0.227E-05    0.159E-06
RMM:   3    -0.369254850738E+02    0.22567E-09   -0.49950E-13  2488   0.232E-05    0.816E-08
RMM:   4    -0.369254850739E+02   -0.59572E-10   -0.10685E-12  2259   0.221E-05    0.890E-08
RMM:   5    -0.369254850738E+02    0.56275E-10   -0.17064E-12  2064   0.208E-05
   5 F= -.36925485E+02 E0= -.36925420E+02  d E =0.324576E-09
       N       E                     dE             d eps       ncg     rms          rms(c)
DAV:   1    -0.369254850732E+02    0.67553E-09    0.57799E-09  4704   0.480E-05    0.949E-07
RMM:   2    -0.369254850739E+02   -0.73805E-09    0.36539E-13  1373   0.120E-05    0.589E-07
RMM:   3    -0.369254850739E+02    0.56161E-10   -0.45355E-14  1359   0.117E-05    0.146E-08
RMM:   4    -0.369254850740E+02   -0.82423E-10   -0.28784E-13  1333   0.115E-05    0.604E-09
RMM:   5    -0.369254850738E+02    0.21009E-09    0.13166E-13  1325   0.115E-05    0.287E-09
RMM:   6    -0.369254850740E+02   -0.28137E-09   -0.21382E-14  1278   0.115E-05    0.199E-09
RMM:   7    -0.369254850739E+02    0.17201E-09    0.27386E-14  1318   0.114E-05    0.231E-09
RMM:   8    -0.369254850739E+02    0.14552E-10    0.63324E-15  1083   0.114E-05
   6 F= -.36925485E+02 E0= -.36925420E+02  d E =-.297860E-10
       N       E                     dE             d eps       ncg     rms          rms(c)
DAV:   1    -0.369254850735E+02    0.33197E-09    0.57905E-09  4348   0.428E-05    0.780E-07
RMM:   2    -0.369254850739E+02   -0.37630E-09   -0.51975E-14   697   0.982E-06    0.481E-07
RMM:   3    -0.369254850738E+02    0.73101E-10    0.62666E-14  1028   0.981E-06    0.895E-09
RMM:   4    -0.369254850742E+02   -0.36209E-09   -0.55100E-14   684   0.982E-06    0.367E-09
RMM:   5    -0.369254850739E+02    0.33208E-09   -0.34869E-14   598   0.981E-06    0.826E-10
RMM:   6    -0.369254850740E+02   -0.15802E-09    0.16941E-14   571   0.981E-06    0.649E-10
RMM:   7    -0.369254850740E+02    0.16371E-10    0.80594E-15   520   0.981E-06
   7 F= -.36925485E+02 E0= -.36925420E+02  d E =-.157456E-09
       N       E                     dE             d eps       ncg     rms          rms(c)
DAV:   1    -0.369254850735E+02    0.51648E-09    0.58029E-09  3820   0.176E-05    0.317E-07
RMM:   2    -0.369254850739E+02   -0.35129E-09    0.00000E+00   352   0.467E-06    0.196E-07
RMM:   3    -0.369254850741E+02   -0.25352E-09    0.00000E+00   515   0.452E-06    0.484E-09
RMM:   4    -0.369254850740E+02    0.12926E-09    0.00000E+00   450   0.451E-06    0.161E-09
RMM:   5    -0.369254850739E+02    0.77989E-10    0.00000E+00   501   0.451E-06
   8 F= -.36925485E+02 E0= -.36925420E+02  d E =0.102546E-09
