gr                                      
           1
     4.272828    0.000000    0.000000
     0.000000    2.467523    0.000000
     0.000000    0.000000   19.997335
   C 
   4
Direct configuration=     1
   0.99987391  0.00000000  0.00000000
   0.16679275  0.50000000  0.00000000
   0.49987391  0.50000000  0.00000000
   0.66679275  0.00000000  0.00000000
Direct configuration=     2
   1.00053644 -0.00000000 -0.00000000
   0.16613022  0.50000000  0.00000000
   0.50053644  0.50000000 -0.00000000
   0.66613022 -0.00000000  0.00000000
Direct configuration=     3
   1.00000643 -0.00000000 -0.00000000
   0.16666023  0.50000000  0.00000000
   0.50000643  0.50000000 -0.00000000
   0.66666023 -0.00000000  0.00000000
Direct configuration=     4
   1.00000615 -0.00000000 -0.00000000
   0.16666051  0.50000000  0.00000000
   0.50000615  0.50000000 -0.00000000
   0.66666051 -0.00000000  0.00000000
Direct configuration=     5
   1.00000611  0.00000000 -0.00000000
   0.16666055  0.50000000  0.00000000
   0.50000611  0.50000000 -0.00000000
   0.66666055  0.00000000  0.00000000
Direct configuration=     6
   1.00000612  0.00000000 -0.00000000
   0.16666054  0.50000000  0.00000000
   0.50000612  0.50000000 -0.00000000
   0.66666054  0.00000000  0.00000000
Direct configuration=     7
   1.00000613 -0.00000000 -0.00000000
   0.16666054  0.50000000  0.00000000
   0.50000613  0.50000000 -0.00000000
   0.66666054  0.00000000  0.00000000
Direct configuration=     8
   1.00000613 -0.00000000  0.00000000
   0.16666054  0.50000000 -0.00000000
   0.50000613  0.50000000  0.00000000
   0.66666054  0.00000000 -0.00000000
