 running on    8 total cores
 distrk:  each k-point on    8 cores,    1 groups
 distr:  one band on    2 cores,    4 groups
 using from now: INCAR     
 vasp.5.3.5 31Mar14 (build Mar 02 2015 18:14:16) complex                        
  
 POSCAR found type information on POSCAR  C 
 POSCAR found :  1 types and       4 ions
 LDA part: xc-table for Pade appr. of Perdew
 POSCAR, INCAR and KPOINTS ok, starting setup
 WARNING: small aliasing (wrap around) errors must be expected
 FFT: planning ...
 WAVECAR not read
 entering main loop
       N       E                     dE             d eps       ncg     rms          rms(c)
DAV:   1     0.189615560889E+03    0.18962E+03   -0.10594E+04  5928   0.274E+03
DAV:   2    -0.914652411265E+01   -0.19876E+03   -0.17682E+03 10444   0.260E+02
DAV:   3    -0.383479361341E+02   -0.29201E+02   -0.28671E+02  7228   0.120E+02    0.731E+00
RMM:   4    -0.376907892454E+02    0.65715E+00   -0.94161E+00  5928   0.262E+01    0.423E+00
RMM:   5    -0.369331160296E+02    0.75767E+00   -0.28371E+00  5936   0.115E+01    0.726E-01
RMM:   6    -0.369347165199E+02   -0.16005E-02   -0.83077E-02  6360   0.202E+00    0.519E-01
RMM:   7    -0.369251817093E+02    0.95348E-02   -0.33124E-02  5945   0.159E+00    0.343E-01
RMM:   8    -0.369194657827E+02    0.57159E-02   -0.78267E-03  5930   0.586E-01    0.132E-01
RMM:   9    -0.369191912844E+02    0.27450E-03   -0.20307E-02  5928   0.843E-01    0.161E-01
RMM:  10    -0.369190503411E+02    0.14094E-03   -0.27261E-03  5928   0.376E-01    0.311E-02
RMM:  11    -0.369215912180E+02   -0.25409E-02   -0.70185E-04  5930   0.172E-01    0.457E-02
RMM:  12    -0.369220463714E+02   -0.45515E-03   -0.23639E-04  5941   0.101E-01    0.480E-03
RMM:  13    -0.369223084385E+02   -0.26207E-03   -0.52699E-05  6006   0.405E-02    0.467E-03
RMM:  14    -0.369223934648E+02   -0.85026E-04   -0.12087E-05  5935   0.202E-02    0.237E-03
RMM:  15    -0.369224013139E+02   -0.78491E-05   -0.14843E-06  6005   0.736E-03    0.818E-04
RMM:  16    -0.369224130252E+02   -0.11711E-04   -0.38647E-07  6025   0.358E-03    0.420E-04
RMM:  17    -0.369224169063E+02   -0.38811E-05   -0.33015E-08  6100   0.145E-03    0.721E-04
RMM:  18    -0.369224185340E+02   -0.16277E-05   -0.64079E-08  5928   0.180E-03    0.734E-05
WARNING in EDDRMM: call to ZHEGV failed, returncode =   6  3  1
WARNING in EDDRMM: call to ZHEGV failed, returncode =   6  3  1
WARNING in EDDRMM: call to ZHEGV failed, returncode =   6  3  1
WARNING in EDDRMM: call to ZHEGV failed, returncode =   6  3  1
WARNING in EDDRMM: call to ZHEGV failed, returncode =   6  3  1
WARNING in EDDRMM: call to ZHEGV failed, returncode =   6  3  1
WARNING in EDDRMM: call to ZHEGV failed, returncode =   6  3  1
WARNING in EDDRMM: call to ZHEGV failed, returncode =   6  3  1
WARNING in EDDRMM: call to ZHEGV failed, returncode =   6  3  1
RMM:  19    -0.369224191262E+02   -0.59222E-06   -0.80037E-09  6029   0.451E-04    0.169E-05
WARNING in EDDRMM: call to ZHEGV failed, returncode =   6  3  1
RMM:  20    -0.369224191730E+02   -0.46776E-07   -0.82730E-10  4519   0.151E-04    0.283E-05
RMM:  21    -0.369224191938E+02   -0.20829E-07   -0.29830E-10  4422   0.999E-05    0.588E-06
RMM:  22    -0.369224191935E+02    0.29900E-09   -0.52961E-12  3885   0.438E-05    0.155E-06
RMM:  23    -0.369224191941E+02   -0.56184E-09   -0.15950E-11  3559   0.386E-05    0.155E-06
RMM:  24    -0.369224191941E+02    0.20464E-10   -0.87775E-12  3148   0.292E-05
   1 F= -.36922419E+02 E0= -.36922377E+02  d E =-.369224E+02
 BRION: g(F)=  0.109E-05 g(S)=  0.000E+00
 bond charge predicted
       N       E                     dE             d eps       ncg     rms          rms(c)
DAV:   1    -0.369224175486E+02    0.16455E-05   -0.14622E-04  6300   0.114E-01    0.243E-03
RMM:   2    -0.369224176327E+02   -0.84059E-07   -0.24135E-06  5935   0.137E-02    0.174E-03
RMM:   3    -0.369224175525E+02    0.80190E-07   -0.41825E-07  5968   0.521E-03    0.441E-04
RMM:   4    -0.369224175463E+02    0.62402E-08   -0.25538E-08  6068   0.126E-03    0.125E-04
RMM:   5    -0.369224175454E+02    0.88846E-09   -0.18893E-09  5936   0.315E-04    0.584E-05
RMM:   6    -0.369224175452E+02    0.22692E-09   -0.28342E-10  4333   0.136E-04    0.530E-06
RMM:   7    -0.369224175457E+02   -0.52364E-09   -0.15441E-11  3750   0.560E-05    0.259E-06
RMM:   8    -0.369224175453E+02    0.34424E-09   -0.16812E-11  3423   0.429E-05    0.134E-06
RMM:   9    -0.369224175452E+02    0.94815E-10   -0.46636E-12  3140   0.331E-05
   2 F= -.36922418E+02 E0= -.36922374E+02  d E =0.164885E-05
 BRION: g(F)=  0.176E-04 g(S)=  0.000E+00 retain N=  1 mean eig= 0.20
 eig:   0.199
 bond charge predicted
       N       E                     dE             d eps       ncg     rms          rms(c)
DAV:   1    -0.369224193024E+02   -0.17571E-05   -0.93755E-05  6600   0.912E-02    0.196E-03
RMM:   2    -0.369224193476E+02   -0.45252E-07   -0.14790E-06  5930   0.109E-02    0.139E-03
RMM:   3    -0.369224193052E+02    0.42452E-07   -0.26176E-07  5968   0.413E-03    0.336E-04
RMM:   4    -0.369224193002E+02    0.49486E-08   -0.15127E-08  6051   0.978E-04    0.995E-05
WARNING in EDDRMM: call to ZHEGV failed, returncode =   6  3  1
RMM:   5    -0.369224193009E+02   -0.66507E-09   -0.11795E-09  5502   0.250E-04    0.471E-05
RMM:   6    -0.369224193006E+02    0.27580E-09   -0.18137E-10  3925   0.111E-04    0.433E-06
RMM:   7    -0.369224193007E+02   -0.10891E-09   -0.91163E-12  3724   0.526E-05    0.226E-06
RMM:   8    -0.369224193009E+02   -0.14870E-09   -0.14059E-11  3387   0.418E-05    0.121E-06
RMM:   9    -0.369224193008E+02    0.47521E-10   -0.95789E-12  3018   0.326E-05
   3 F= -.36922419E+02 E0= -.36922377E+02  d E =-.175560E-05
 BRION: g(F)=  0.266E-11 g(S)=  0.000E+00 retain N=  1 mean eig= 0.20
 eig:   0.199
 bond charge predicted
       N       E                     dE             d eps       ncg     rms          rms(c)
DAV:   1    -0.369224193004E+02    0.53274E-09    0.57480E-09  5016   0.443E-05    0.619E-07
RMM:   2    -0.369224193008E+02   -0.48146E-09    0.29073E-12  1781   0.158E-05    0.382E-07
RMM:   3    -0.369224193007E+02    0.16360E-09   -0.10166E-12  1662   0.156E-05    0.147E-08
RMM:   4    -0.369224193011E+02   -0.42860E-09   -0.95076E-13  1610   0.154E-05    0.165E-08
RMM:   5    -0.369224193011E+02    0.37517E-10   -0.14030E-12  1516   0.150E-05
   4 F= -.36922419E+02 E0= -.36922377E+02  d E =-.223736E-09
 BRION: g(F)=  0.221E-11 g(S)=  0.000E+00 retain N=  1 mean eig= 0.10
 eig:   0.104
 bond charge predicted
       N       E                     dE             d eps       ncg     rms          rms(c)
DAV:   1    -0.369224193002E+02    0.94701E-09    0.57639E-09  4284   0.204E-05    0.301E-07
RMM:   2    -0.369224193008E+02   -0.67325E-09    0.34018E-13  1331   0.731E-06    0.186E-07
RMM:   3    -0.369224193007E+02    0.10891E-09   -0.20963E-13  1324   0.720E-06    0.721E-09
RMM:   4    -0.369224193011E+02   -0.34925E-09    0.18216E-13  1321   0.719E-06    0.405E-09
RMM:   5    -0.369224193006E+02    0.42451E-09    0.35938E-14  1315   0.724E-06    0.444E-09
RMM:   6    -0.369224193007E+02   -0.70941E-10   -0.19976E-13  1311   0.714E-06
   5 F= -.36922419E+02 E0= -.36922377E+02  d E =0.349473E-09
 BRION: g(F)=  0.326E-14 g(S)=  0.000E+00 retain N=  1 mean eig= 0.10
 eig:   0.100
 reached required accuracy - stopping structural energy minimisation
