    4    4  400    1
  0.5270948E+02  0.4269166E-09  0.2480253E-09  0.1991176E-08  0.5000000E-15
  1.000000000000000E-004
  CAR 
 gr                                      
     16    247     12
 
  0.0000000E+00  0.0000000E+00  0.0000000E+00  0.1157407E-02
    1      -22.217135
    2      -16.952622
    3      -15.949380
    4      -10.330737
    5       -9.230301
    6       -5.833895
    7       -5.773516
    8       -5.066061
    9       -1.087542
   10        0.528199
   11        1.328678
   12        1.713744
 
  0.4166667E-01  0.0000000E+00  0.0000000E+00  0.2314815E-02
    1      -22.206858
    2      -17.123696
    3      -15.763092
    4      -10.318477
    5       -9.220064
    6       -5.856719
    7       -5.815727
    8       -5.133321
    9       -1.004536
   10        0.542137
   11        1.342789
   12        1.728027
 
  0.8333333E-01  0.0000000E+00  0.0000000E+00  0.2314815E-02
    1      -22.176031
    2      -17.467076
    3      -15.374152
    4      -10.281714
    5       -9.189404
    6       -5.940664
    7       -5.923915
    8       -5.319691
    9       -0.771099
   10        0.583950
   11        1.385118
   12        1.770877
 
  0.1250000E+00  0.0000000E+00  0.0000000E+00  0.2314815E-02
    1      -22.124676
    2      -17.847220
    3      -14.918369
    4      -10.220506
    5       -9.138474
    6       -6.143527
    7       -6.031878
    8       -5.591085
    9       -0.421840
   10        0.653642
   11        1.455653
   12        1.842293
 
  0.1666667E+00  0.0000000E+00  0.0000000E+00  0.2314815E-02
    1      -22.052824
    2      -18.228736
    3      -14.431585
    4      -10.134951
    5       -9.067534
    6       -6.417129
    7       -6.175245
    8       -5.914001
    9        0.008865
   10        0.751213
   11        1.554373
   12        1.942278
 
  0.2083333E+00  0.0000000E+00  0.0000000E+00  0.2314815E-02
    1      -21.960526
    2      -18.600937
    3      -13.925136
    4      -10.025189
    5       -8.976963
    6       -6.752850
    7       -6.347631
    8       -6.263716
    9        0.495038
   10        0.876660
   11        1.681245
   12        2.070830
 
  0.2500000E+00  0.0000000E+00  0.0000000E+00  0.2314815E-02
    1      -21.847845
    2      -18.959539
    3      -13.404163
    4       -9.891408
    5       -8.867263
    6       -7.141524
    7       -6.623861
    8       -6.542321
    9        1.018646
   10        1.029966
   11        1.836219
   12        2.227950
 
  0.2916667E+00  0.0000000E+00  0.0000000E+00  0.2314815E-02
    1      -21.714860
    2      -19.302422
    3      -12.871881
    4       -9.733854
    5       -8.739086
    6       -7.574137
    7       -6.983865
    8       -6.752798
    9        1.211107
   10        1.566973
   11        2.019222
   12        2.413633
 
  0.3333333E+00  0.0000000E+00  0.0000000E+00  0.2314815E-02
    1      -21.561669
    2      -19.628353
    3      -12.330882
    4       -9.552836
    5       -8.593246
    6       -8.042273
    7       -7.336812
    8       -6.973079
    9        1.420042
   10        2.130269
   11        2.230135
   12        2.627874
 
  0.3750000E+00  0.0000000E+00  0.0000000E+00  0.2314815E-02
    1      -21.388387
    2      -19.936530
    3      -11.783632
    4       -9.348741
    5       -8.538345
    6       -8.430754
    7       -7.678050
    8       -7.197876
    9        1.656717
   10        2.468753
   11        2.699559
   12        2.870664
 
  0.4166667E+00  0.0000000E+00  0.0000000E+00  0.2314815E-02
    1      -21.195147
    2      -20.226382
    3      -11.232713
    4       -9.122056
    5       -9.055669
    6       -8.252848
    7       -8.004351
    8       -7.422628
    9        1.921058
   10        2.734660
   11        3.141985
   12        3.251995
 
  0.4583333E+00  0.0000000E+00  0.0000000E+00  0.2314815E-02
    1      -20.982114
    2      -20.497478
    3      -10.680974
    4       -9.588439
    5       -8.873389
    6       -8.313404
    7       -8.061042
    8       -7.643472
    9        2.212961
   10        2.878765
   11        3.026767
   12        3.441832
 
  0.5000000E+00  0.0000000E+00  0.0000000E+00  0.1157407E-02
    1      -20.749481
    2      -20.749481
    3      -10.131643
    4      -10.131643
    5       -8.603510
    6       -8.603510
    7       -7.857174
    8       -7.857174
    9        2.532277
   10        2.532277
   11        3.340609
   12        3.340609
 
  0.0000000E+00  0.2777778E-01  0.0000000E+00  0.2314815E-02
    1      -22.203611
    2      -16.941005
    3      -15.938041
    4      -10.314604
    5       -9.291150
    6       -5.889963
    7       -5.804173
    8       -5.049622
    9       -1.091971
   10        0.546532
   11        1.347256
   12        1.732549
 
  0.4166667E-01  0.2777778E-01  0.0000000E+00  0.4629630E-02
    1      -22.193335
    2      -17.111919
    3      -15.751966
    4      -10.302348
    5       -9.280893
    6       -5.920559
    7       -5.837924
    8       -5.117033
    9       -1.008934
   10        0.560470
   11        1.361366
   12        1.746832
 
  0.8333333E-01  0.2777778E-01  0.0000000E+00  0.4629630E-02
    1      -22.162513
    2      -17.455050
    3      -15.363437
    4      -10.265598
    5       -9.250174
    6       -6.021310
    7       -5.927368
    8       -5.303751
    9       -0.775516
   10        0.602285
   11        1.403693
   12        1.789682
 
  0.1250000E+00  0.2777778E-01  0.0000000E+00  0.4629630E-02
    1      -22.111164
    2      -17.834972
    3      -14.908152
    4      -10.204411
    5       -9.199139
    6       -6.205829
    7       -6.050809
    8       -5.575497
    9       -0.426514
   10        0.671981
   11        1.474223
   12        1.861100
 
  0.1666667E+00  0.2777778E-01  0.0000000E+00  0.4629630E-02
    1      -22.039323
    2      -18.216297
    3      -14.421959
    4      -10.118886
    5       -9.128045
    6       -6.467247
    7       -6.202971
    8       -5.898671
    9        0.003592
   10        0.769559
   11        1.572937
   12        1.961085
 
  0.2083333E+00  0.2777778E-01  0.0000000E+00  0.4629630E-02
    1      -21.947040
    2      -18.588333
    3      -13.916213
    4      -10.009162
    5       -9.037257
    6       -6.793262
    7       -6.381521
    8       -6.248533
    9        0.488808
   10        0.895015
   11        1.699801
   12        2.089640
 
  0.2500000E+00  0.2777778E-01  0.0000000E+00  0.4629630E-02
    1      -21.834376
    2      -18.946795
    3      -13.396077
    4       -9.875429
    5       -8.927267
    6       -7.173574
    7       -6.608735
    8       -6.581154
    9        1.011129
   10        1.048332
   11        1.854767
   12        2.246762
 
  0.2916667E+00  0.2777778E-01  0.0000000E+00  0.4629630E-02
    1      -21.701413
    2      -19.289557
    3      -12.864797
    4       -9.717930
    5       -8.798706
    6       -7.598917
    7       -6.968732
    8       -6.795774
    9        1.229485
   10        1.557883
   11        2.037761
   12        2.432448
 
  0.3333333E+00  0.2777778E-01  0.0000000E+00  0.4629630E-02
    1      -21.548248
    2      -19.615383
    3      -12.325000
    4       -9.536976
    5       -8.652370
    6       -8.060800
    7       -7.321630
    8       -7.019545
    9        1.438434
   10        2.119395
   11        2.248667
   12        2.646694
 
  0.3750000E+00  0.2777778E-01  0.0000000E+00  0.4629630E-02
    1      -21.374996
    2      -19.923470
    3      -11.779198
    4       -9.332953
    5       -8.551565
    6       -8.489239
    7       -7.662794
    8       -7.247257
    9        1.675125
   10        2.487283
   11        2.686892
   12        2.889489
 
  0.4166667E+00  0.2777778E-01  0.0000000E+00  0.4629630E-02
    1      -21.181794
    2      -20.213245
    3      -11.230024
    4       -9.106347
    5       -9.064433
    6       -8.310522
    7       -7.989007
    8       -7.474420
    9        1.939484
   10        2.753200
   11        3.160817
   12        3.246904
 
  0.4583333E+00  0.2777778E-01  0.0000000E+00  0.4629630E-02
    1      -20.968803
    2      -20.484275
    3      -10.680393
    4       -9.593489
    5       -8.857767
    6       -8.297967
    7       -8.117691
    8       -7.697237
    9        2.231412
   10        2.897312
   11        3.045339
   12        3.460685
 
  0.5000000E+00  0.2777778E-01  0.0000000E+00  0.2314815E-02
    1      -20.736220
    2      -20.736220
    3      -10.133613
    4      -10.133613
    5       -8.587979
    6       -8.587979
    7       -7.912538
    8       -7.912538
    9        2.550762
   10        2.550762
   11        3.359169
   12        3.359169
 
  0.0000000E+00  0.5555556E-01  0.0000000E+00  0.2314815E-02
    1      -22.163050
    2      -16.906159
    3      -15.904187
    4      -10.266238
    5       -9.468800
    6       -6.053731
    7       -5.895345
    8       -5.000324
    9       -1.106081
   10        0.601534
   11        1.402985
   12        1.788965
 
  0.4166667E-01  0.5555556E-01  0.0000000E+00  0.4629630E-02
    1      -22.152778
    2      -17.076604
    3      -15.718744
    4      -10.253995
    5       -9.458480
    6       -6.091403
    7       -5.920011
    8       -5.068205
    9       -1.022945
   10        0.615473
   11        1.417093
   12        1.803248
 
  0.8333333E-01  0.5555556E-01  0.0000000E+00  0.4629630E-02
    1      -22.121969
    2      -17.418997
    3      -15.331452
    4      -10.217283
    5       -9.427564
    6       -6.201905
    7       -5.994025
    8       -5.255990
    9       -0.789574
   10        0.657294
   11        1.459410
   12        1.846099
 
  0.1250000E+00  0.5555556E-01  0.0000000E+00  0.4629630E-02
    1      -22.070642
    2      -17.798252
    3      -14.877686
    4      -10.156162
    5       -9.376189
    6       -6.380441
    7       -6.115007
    8       -5.528819
    9       -0.441350
   10        0.726999
   11        1.529927
   12        1.917518
 
  0.1666667E+00  0.5555556E-01  0.0000000E+00  0.4629630E-02
    1      -21.998834
    2      -18.179002
    3      -14.393304
    4      -10.070727
    5       -9.304586
    6       -6.622652
    7       -6.276339
    8       -5.852778
    9       -0.013072
   10        0.824593
   11        1.628621
   12        2.017508
 
  0.2083333E+00  0.5555556E-01  0.0000000E+00  0.4629630E-02
    1      -21.906592
    2      -18.550545
    3      -13.889719
    4       -9.961120
    5       -9.213090
    6       -6.924112
    7       -6.468908
    8       -6.203084
    9        0.469225
   10        0.950069
   11        1.755461
   12        2.146067
 
  0.2500000E+00  0.5555556E-01  0.0000000E+00  0.4629630E-02
    1      -21.793981
    2      -18.908583
    3      -13.372170
    4       -9.827530
    5       -9.102146
    6       -7.279251
    7       -6.683504
    8       -6.563455
    9        0.987615
   10        1.103413
   11        1.910399
   12        2.303195
 
  0.2916667E+00  0.5555556E-01  0.0000000E+00  0.4629630E-02
    1      -21.661085
    2      -19.250979
    3      -12.843999
    4       -9.670201
    5       -8.972329
    6       -7.681249
    7       -6.923427
    8       -6.912092
    9        1.284598
   10        1.529561
   11        2.093364
   12        2.488890
 
  0.3333333E+00  0.5555556E-01  0.0000000E+00  0.4629630E-02
    1      -21.507998
    2      -19.576492
    3      -12.307949
    4       -9.489441
    5       -8.824358
    6       -8.122630
    7       -7.276173
    8       -7.148049
    9        1.493582
   10        2.085601
   11        2.304246
   12        2.703147
 
  0.3750000E+00  0.5555556E-01  0.0000000E+00  0.4629630E-02
    1      -21.334839
    2      -19.884308
    3      -11.766680
    4       -9.285638
    5       -8.659120
    6       -8.595946
    7       -7.617108
    8       -7.386000
    9        1.730313
   10        2.542855
   11        2.647481
   12        2.945956
 
  0.4166667E+00  0.5555556E-01  0.0000000E+00  0.4629630E-02
    1      -21.141745
    2      -20.173850
    3      -11.223006
    4       -9.094233
    5       -9.059275
    6       -8.477707
    7       -7.943052
    8       -7.621571
    9        1.994718
   10        2.808802
   11        3.204190
   12        3.217305
 
  0.4583333E+00  0.5555556E-01  0.0000000E+00  0.4629630E-02
    1      -20.928882
    2      -20.444677
    3      -10.680065
    4       -9.611228
    5       -8.810957
    6       -8.281445
    7       -8.251725
    8       -7.851195
    9        2.286703
   10        2.952824
   11        3.101042
   12        3.517271
 
  0.5000000E+00  0.5555556E-01  0.0000000E+00  0.2314815E-02
    1      -20.696449
    2      -20.696449
    3      -10.141430
    4      -10.141430
    5       -8.541449
    6       -8.541449
    7       -8.071952
    8       -8.071952
    9        2.606136
   10        2.606136
   11        3.414832
   12        3.414832
 
  0.0000000E+00  0.8333333E-01  0.0000000E+00  0.2314815E-02
    1      -22.095487
    2      -16.848095
    3      -15.848338
    4      -10.185739
    5       -9.749911
    6       -6.313221
    7       -6.044696
    8       -4.918227
    9       -1.132341
   10        0.693221
   11        1.495844
   12        1.882994
 
  0.4166667E-01  0.8333333E-01  0.0000000E+00  0.4629630E-02
    1      -22.085223
    2      -17.017800
    3      -15.663925
    4      -10.173518
    5       -9.739466
    6       -6.355053
    7       -6.062012
    8       -4.986941
    9       -1.049010
   10        0.707161
   11        1.509945
   12        1.897278
 
  0.8333333E-01  0.8333333E-01  0.0000000E+00  0.4629630E-02
    1      -22.054435
    2      -17.358991
    3      -15.278716
    4      -10.136873
    5       -9.708165
    6       -6.472411
    7       -6.120121
    8       -5.176604
    9       -0.815676
   10        0.748983
   11        1.552247
   12        1.940129
 
  0.1250000E+00  0.8333333E-01  0.0000000E+00  0.4629630E-02
    1      -22.003147
    2      -17.737138
    3      -14.827565
    4      -10.075863
    5       -9.656121
    6       -6.651352
    7       -6.227151
    8       -5.451316
    9       -0.468768
   10        0.818695
   11        1.622737
   12        2.011550
 
  0.1666667E+00  0.8333333E-01  0.0000000E+00  0.4629630E-02
    1      -21.931392
    2      -18.116926
    3      -14.346341
    4       -9.990584
    5       -9.583519
    6       -6.882049
    7       -6.383734
    8       -5.776627
    9       -0.043627
   10        0.916302
   11        1.721394
   12        2.111543
 
  0.2083333E+00  0.8333333E-01  0.0000000E+00  0.4629630E-02
    1      -21.839221
    2      -18.487639
    3      -13.846560
    4       -9.881178
    5       -9.490628
    6       -7.159209
    7       -6.583356
    8       -6.127685
    9        0.433646
   10        1.041799
   11        1.848188
   12        2.240107
 
  0.2500000E+00  0.8333333E-01  0.0000000E+00  0.4629630E-02
    1      -21.726700
    2      -18.844964
    3      -13.333606
    4       -9.747833
    5       -9.377801
    6       -7.480428
    7       -6.815006
    8       -6.488329
    9        0.945274
   10        1.195172
   11        2.003074
   12        2.397244
 
  0.2916667E+00  0.8333333E-01  0.0000000E+00  0.4629630E-02
    1      -21.593913
    2      -19.186747
    3      -12.811004
    4       -9.590794
    5       -9.245489
    6       -7.844220
    7       -7.066190
    8       -6.848240
    9        1.376392
   10        1.478937
   11        2.185984
   12        2.582950
 
  0.3333333E+00  0.8333333E-01  0.0000000E+00  0.4629630E-02
    1      -21.440957
    2      -19.511731
    3      -12.281740
    4       -9.410370
    5       -9.094249
    6       -8.248117
    7       -7.325715
    8       -7.200710
    9        1.585419
   10        2.025493
   11        2.396817
   12        2.797220
 
  0.3750000E+00  0.8333333E-01  0.0000000E+00  0.4629630E-02
    1      -21.267953
    2      -19.819092
    3      -11.748771
    4       -9.206944
    5       -8.924757
    6       -8.687795
    7       -7.585189
    8       -7.541241
    9        1.822195
   10        2.577343
   11        2.635403
   12        3.040047
 
  0.4166667E+00  0.8333333E-01  0.0000000E+00  0.4629630E-02
    1      -21.075042
    2      -20.108242
    3      -11.215297
    4       -9.157480
    5       -8.981000
    6       -8.737831
    7       -7.866713
    8       -7.838970
    9        2.086650
   10        2.901395
   11        3.126265
   12        3.311421
 
  0.4583333E+00  0.8333333E-01  0.0000000E+00  0.4629630E-02
    1      -20.862394
    2      -20.378731
    3      -10.684936
    4       -9.650864
    5       -8.733136
    6       -8.534451
    7       -8.174887
    8       -8.083356
    9        2.378694
   10        3.045026
   11        3.193827
   12        3.611419
 
  0.5000000E+00  0.8333333E-01  0.0000000E+00  0.2314815E-02
    1      -20.630211
    2      -20.630211
    3      -10.161853
    4      -10.161853
    5       -8.464111
    6       -8.464111
    7       -8.315806
    8       -8.315806
    9        2.698207
   10        2.698207
   11        3.507509
   12        3.507509
 
  0.0000000E+00  0.1111111E+00  0.0000000E+00  0.2314815E-02
    1      -22.000985
    2      -16.766834
    3      -15.771478
    4      -10.115856
    5      -10.073278
    6       -6.652026
    7       -6.248507
    8       -4.803433
    9       -1.174812
   10        0.821611
   11        1.625793
   12        2.014642
 
  0.4166667E-01  0.1111111E+00  0.0000000E+00  0.4629630E-02
    1      -21.990731
    2      -16.935595
    3      -15.588455
    4      -10.105191
    5      -10.061090
    6       -6.696920
    7       -6.258621
    8       -4.873427
    9       -1.091133
   10        0.835548
   11        1.639886
   12        2.028925
 
  0.8333333E-01  0.1111111E+00  0.0000000E+00  0.4629630E-02
    1      -21.959975
    2      -17.275164
    3      -15.206224
    4      -10.073219
    5      -10.024542
    6       -6.820305
    7       -6.298868
    8       -5.065945
    9       -0.857741
   10        0.877363
   11        1.682162
   12        2.071775
 
  0.1250000E+00  0.1111111E+00  0.0000000E+00  0.4629630E-02
    1      -21.908739
    2      -17.651769
    3      -14.758947
    4      -10.020002
    5       -9.963694
    6       -7.002564
    7       -6.384670
    8       -5.343476
    9       -0.512683
   10        0.947067
   11        1.752608
   12        2.143196
 
  0.1666667E+00  0.1111111E+00  0.0000000E+00  0.4629630E-02
    1      -21.837060
    2      -18.030198
    3      -14.282495
    4       -9.945642
    5       -9.878643
    6       -7.229321
    7       -6.523398
    8       -5.670767
    9       -0.092103
   10        1.044670
   11        1.851205
   12        2.243189
 
  0.2083333E+00  0.1111111E+00  0.0000000E+00  0.4629630E-02
    1      -21.744989
    2      -18.399735
    3      -13.788552
    4       -9.850280
    5       -9.769530
    6       -7.492020
    7       -6.714036
    8       -6.022899
    9        0.377842
   10        1.170172
   11        1.977922
   12        2.371757
 
  0.2500000E+00  0.1111111E+00  0.0000000E+00  0.4629630E-02
    1      -21.632595
    2      -18.756047
    3      -13.282754
    4       -9.734088
    5       -9.636545
    6       -7.786359
    7       -6.949332
    8       -6.383904
    9        0.879608
   10        1.323560
   11        2.132716
   12        2.528900
 
  0.2916667E+00  0.1111111E+00  0.0000000E+00  0.4629630E-02
    1      -21.499961
    2      -19.096957
    3      -12.768971
    4       -9.597267
    5       -9.479931
    6       -8.111291
    7       -7.217629
    8       -6.743687
    9        1.401201
   10        1.504804
   11        2.315526
   12        2.714616
 
  0.3333333E+00  0.1111111E+00  0.0000000E+00  0.4629630E-02
    1      -21.347189
    2      -19.421191
    3      -12.250639
    4       -9.440031
    5       -9.299998
    6       -8.467918
    7       -7.504861
    8       -7.095720
    9        1.713861
   10        1.933868
   11        2.526263
   12        2.928899
 
  0.3750000E+00  0.1111111E+00  0.0000000E+00  0.4629630E-02
    1      -21.174404
    2      -19.727906
    3      -11.731307
    4       -9.262598
    5       -9.097129
    6       -8.857685
    7       -7.797116
    8       -7.435632
    9        1.950669
   10        2.470657
   11        2.764786
   12        3.171744
 
  0.4166667E+00  0.1111111E+00  0.0000000E+00  0.4629630E-02
    1      -20.981751
    2      -20.016500
    3      -11.214944
    4       -9.280328
    5       -9.065178
    6       -8.871800
    7       -8.083189
    8       -7.760390
    9        2.215156
   10        3.005261
   11        3.030819
   12        3.443140
 
  0.4583333E+00  0.1111111E+00  0.0000000E+00  0.4629630E-02
    1      -20.769407
    2      -20.286511
    3      -10.706127
    4       -9.732861
    5       -8.847986
    6       -8.624607
    7       -8.355847
    8       -8.067817
    9        2.507231
   10        3.173659
   11        3.323569
   12        3.527418
 
  0.5000000E+00  0.1111111E+00  0.0000000E+00  0.2314815E-02
    1      -20.537578
    2      -20.537578
    3      -10.210136
    4      -10.210136
    5       -8.611325
    6       -8.611325
    7       -8.356297
    8       -8.356297
    9        2.826781
   10        2.826781
   11        3.636822
   12        3.636822
 
  0.0000000E+00  0.1388889E+00  0.0000000E+00  0.2314815E-02
    1      -21.879632
    2      -16.662404
    3      -15.675282
    4      -10.546008
    5       -9.929102
    6       -7.052626
    7       -6.501936
    8       -4.656088
    9       -1.239019
   10        0.986714
   11        1.792777
   12        2.183911
 
  0.4166667E-01  0.1388889E+00  0.0000000E+00  0.4629630E-02
    1      -21.869392
    2      -16.830128
    3      -15.493955
    4      -10.534972
    5       -9.916958
    6       -7.100257
    7       -6.504477
    8       -4.727956
    9       -1.154724
   10        1.000643
   11        1.806857
   12        2.198193
 
  0.8333333E-01  0.1388889E+00  0.0000000E+00  0.4629630E-02
    1      -21.838676
    2      -17.167729
    3      -15.115707
    4      -10.501858
    5       -9.880542
    6       -7.229597
    7       -6.524861
    8       -4.924591
    9       -0.920989
   10        1.042437
   11        1.849091
   12        2.241040
 
  0.1250000E+00  0.1388889E+00  0.0000000E+00  0.4629630E-02
    1      -21.787509
    2      -17.542361
    3      -14.673885
    4      -10.446635
    5       -9.819915
    6       -7.416847
    7       -6.584354
    8       -5.206084
    9       -0.578252
   10        1.112111
   11        1.919468
   12        2.312456
 
  0.1666667E+00  0.1388889E+00  0.0000000E+00  0.4629630E-02
    1      -21.715929
    2      -17.919022
    3      -14.204351
    4      -10.369242
    5       -9.735173
    6       -7.644303
    7       -6.696009
    8       -5.536079
    9       -0.163750
   10        1.209682
   11        2.017967
   12        2.412446
 
  0.2083333E+00  0.1388889E+00  0.0000000E+00  0.4629630E-02
    1      -21.623987
    2      -18.287015
    3      -13.719075
    4      -10.269563
    5       -9.626460
    6       -7.900963
    7       -6.863806
    8       -5.889614
    9        0.296354
   10        1.335157
   11        2.144556
   12        2.541012
 
  0.2500000E+00  0.1388889E+00  0.0000000E+00  0.4629630E-02
    1      -21.511755
    2      -18.641995
    3      -13.224153
    4      -10.147400
    5       -9.493965
    6       -8.180294
    7       -7.084991
    8       -6.251033
    9        0.784906
   10        1.488528
   11        2.299193
   12        2.698156
 
  0.2916667E+00  0.1388889E+00  0.0000000E+00  0.4629630E-02
    1      -21.379320
    2      -18.981760
    3      -12.724110
    4      -10.002420
    5       -9.337934
    6       -8.479068
    7       -7.351778
    8       -6.610564
    9        1.290374
   10        1.669768
   11        2.481820
   12        2.883878
 
  0.3333333E+00  0.1388889E+00  0.0000000E+00  0.4629630E-02
    1      -21.226787
    2      -19.305009
    3      -12.223271
    4       -9.834095
    5       -9.158674
    6       -8.796940
    7       -7.652583
    8       -6.961933
    9        1.804502
   10        1.878826
   11        2.692358
   12        3.098171
 
  0.3750000E+00  0.1388889E+00  0.0000000E+00  0.4629630E-02
    1      -21.054286
    2      -19.610876
    3      -11.726363
    4       -9.641649
    5       -9.136119
    6       -8.956567
    7       -7.973183
    8       -7.300946
    9        2.115638
   10        2.320932
   11        2.930701
   12        3.341029
 
  0.4166667E+00  0.1388889E+00  0.0000000E+00  0.4629630E-02
    1      -20.861970
    2      -19.898740
    3      -11.238814
    4       -9.500475
    5       -9.424049
    6       -8.732087
    7       -8.298283
    8       -7.624689
    9        2.380123
   10        2.834416
   11        3.196678
   12        3.612442
 
  0.4583333E+00  0.1388889E+00  0.0000000E+00  0.4629630E-02
    1      -20.650021
    2      -20.168126
    3      -10.766767
    4       -9.893620
    5       -9.180201
    6       -8.613849
    7       -8.485821
    8       -7.931062
    9        2.672186
   10        3.338549
   11        3.340170
   12        3.489864
 
  0.5000000E+00  0.1388889E+00  0.0000000E+00  0.2314815E-02
    1      -20.418655
    2      -20.418655
    3      -10.316587
    4      -10.316587
    5       -8.909623
    6       -8.909623
    7       -8.218504
    8       -8.218504
    9        2.991709
   10        2.991709
   11        3.790920
   12        3.790925
 
  0.0000000E+00  0.1666667E+00  0.0000000E+00  0.2314815E-02
    1      -21.731548
    2      -16.534846
    3      -15.562567
    4      -11.019790
    5       -9.753539
    6       -7.498683
    7       -6.799313
    8       -4.476383
    9       -1.331631
   10        1.188524
   11        1.996717
   12        2.390804
 
  0.4166667E-01  0.1666667E+00  0.0000000E+00  0.4629630E-02
    1      -21.721324
    2      -16.701617
    3      -15.383182
    4      -11.008118
    5       -9.741452
    6       -7.549010
    7       -6.793900
    8       -4.550977
    9       -1.246223
   10        1.202441
   11        2.010774
   12        2.405084
 
  0.8333333E-01  0.1666667E+00  0.0000000E+00  0.4629630E-02
    1      -21.690659
    2      -17.037011
    3      -15.010175
    4      -10.973034
    5       -9.705210
    6       -7.684501
    7       -6.792903
    8       -4.753455
    9       -1.011470
   10        1.244198
   11        2.052943
   12        2.447925
 
  0.1250000E+00  0.1666667E+00  0.0000000E+00  0.4629630E-02
    1      -21.639577
    2      -17.409246
    3      -14.576048
    4      -10.914318
    5       -9.644872
    6       -7.877822
    7       -6.822656
    8       -5.040371
    9       -0.671326
   10        1.313815
   11        2.123207
   12        2.519332
 
  0.1666667E+00  0.1666667E+00  0.0000000E+00  0.4629630E-02
    1      -21.568117
    2      -17.783699
    3      -14.116678
    4      -10.831565
    5       -9.560538
    6       -8.108659
    7       -6.901110
    8       -5.373911
    9       -0.264434
   10        1.411317
   11        2.221542
   12        2.619310
 
  0.2083333E+00  0.1666667E+00  0.0000000E+00  0.4629630E-02
    1      -21.476335
    2      -18.149750
    3      -13.644569
    4      -10.724111
    5       -9.452351
    6       -8.364373
    7       -7.036525
    8       -5.729171
    9        0.183199
   10        1.536721
   11        2.347911
   12        2.747866
 
  0.2500000E+00  0.1666667E+00  0.0000000E+00  0.4629630E-02
    1      -21.364303
    2      -18.503049
    3      -13.166739
    4      -10.590941
    5       -9.320503
    6       -8.637082
    7       -7.230044
    8       -6.090981
    9        0.655056
   10        1.690029
   11        2.502262
   12        2.905003
 
  0.2916667E+00  0.1666667E+00  0.0000000E+00  0.4629630E-02
    1      -21.232113
    2      -18.841368
    3      -12.689030
    4      -10.430556
    5       -9.165241
    6       -8.921986
    7       -7.477527
    8       -6.450037
    9        1.140304
   10        1.871217
   11        2.684525
   12        3.090723
 
  0.3333333E+00  0.1666667E+00  0.0000000E+00  0.4629630E-02
    1      -21.079877
    2      -19.163375
    3      -12.217518
    4      -10.240870
    5       -9.216696
    6       -8.986872
    7       -7.770834
    8       -6.800409
    9        1.631351
   10        2.080235
   11        2.894608
   12        3.305020
 
  0.3750000E+00  0.1666667E+00  0.0000000E+00  0.4629630E-02
    1      -20.907729
    2      -19.468177
    3      -11.758981
    4      -10.019287
    5       -9.521101
    6       -8.785778
    7       -8.098808
    8       -7.138139
    9        2.122503
   10        2.317011
   11        3.132382
   12        3.547886
 
  0.4166667E+00  0.1666667E+00  0.0000000E+00  0.4629630E-02
    1      -20.715832
    2      -19.755127
    3      -11.320575
    4       -9.837451
    5       -9.763325
    6       -8.562429
    7       -8.447993
    8       -7.460468
    9        2.581452
   10        2.609217
   11        3.397638
   12        3.819312
 
  0.4583333E+00  0.1666667E+00  0.0000000E+00  0.4629630E-02
    1      -20.504376
    2      -20.023729
    3      -10.908456
    4      -10.170292
    5       -9.472203
    6       -8.803298
    7       -8.317405
    8       -7.765397
    9        2.873452
   10        3.087643
   11        3.539588
   12        3.689553
 
  0.5000000E+00  0.1666667E+00  0.0000000E+00  0.2314815E-02
    1      -20.273585
    2      -20.273585
    3      -10.525574
    4      -10.525574
    5       -9.149222
    6       -9.149222
    7       -8.051426
    8       -8.051426
    9        3.192881
   10        3.192881
   11        3.554038
   12        3.554038
 