gr                                      
           1
     4.269166    0.000000    0.000000
     0.000000    2.480253    0.000000
     0.000000    0.000000   19.911757
   C 
   4
Direct configuration=     1
   0.00013158  0.00000000  0.00000000
   0.16653509  0.50000000  0.00000000
   0.50013158  0.50000000  0.00000000
   0.66653509  0.00000000  0.00000000
Direct configuration=     2
   0.00015838 -0.00000000 -0.00000000
   0.16650829  0.50000000  0.00000000
   0.50015838  0.50000000 -0.00000000
   0.66650829  0.00000000  0.00000000
Direct configuration=     3
   0.00013691  0.00000000 -0.00000000
   0.16652976  0.50000000  0.00000000
   0.50013691  0.50000000 -0.00000000
   0.66652976  0.00000000  0.00000000
Direct configuration=     4
   0.00013690 -0.00000000 -0.00000000
   0.16652976  0.50000000  0.00000000
   0.50013690  0.50000000 -0.00000000
   0.66652976  0.00000000  0.00000000
Direct configuration=     5
   0.00013691 -0.00000000 -0.00000000
   0.16652976  0.50000000  0.00000000
   0.50013691  0.50000000 -0.00000000
   0.66652976 -0.00000000  0.00000000
