    4    4  400    1
  0.5270948E+02  0.4359583E-09  0.2458902E-09  0.1966811E-08  0.5000000E-15
  1.000000000000000E-004
  CAR 
 gr                                      
     16    247     12
 
  0.0000000E+00  0.0000000E+00  0.0000000E+00  0.1157407E-02
    1      -22.113905
    2      -17.214384
    3      -15.861299
    4      -10.251033
    5       -8.869988
    6       -5.966913
    7       -5.737056
    8       -5.293495
    9       -1.166611
   10        0.540689
   11        1.339384
   12        1.730702
 
  0.4166667E-01  0.0000000E+00  0.0000000E+00  0.2314815E-02
    1      -22.104055
    2      -17.339929
    3      -15.720720
    4      -10.239330
    5       -8.860403
    6       -6.010915
    7       -5.757589
    8       -5.353645
    9       -1.090681
   10        0.554019
   11        1.352904
   12        1.744391
 
  0.8333333E-01  0.0000000E+00  0.0000000E+00  0.2314815E-02
    1      -22.074510
    2      -17.624775
    3      -15.390848
    4      -10.204238
    5       -8.831698
    6       -6.140877
    7       -5.818108
    8       -5.521695
    9       -0.875448
   10        0.594016
   11        1.393461
   12        1.785460
 
  0.1250000E+00  0.0000000E+00  0.0000000E+00  0.2314815E-02
    1      -22.025290
    2      -17.964010
    3      -14.976827
    4      -10.145816
    5       -8.784026
    6       -6.351056
    7       -5.915543
    8       -5.769316
    9       -0.549723
   10        0.660697
   11        1.461039
   12        1.853911
 
  0.1666667E+00  0.0000000E+00  0.0000000E+00  0.2314815E-02
    1      -21.956429
    2      -18.315564
    3      -14.521129
    4      -10.064162
    5       -8.717648
    6       -6.633026
    7       -6.067235
    8       -6.045287
    9       -0.143592
   10        0.754081
   11        1.555614
   12        1.949749
 
  0.2083333E+00  0.0000000E+00  0.0000000E+00  0.2314815E-02
    1      -21.867978
    2      -18.663887
    3      -14.039880
    4       -9.959417
    5       -8.632937
    6       -6.976910
    7       -6.392730
    8       -6.201794
    9        0.319043
   10        0.874181
   11        1.677143
   12        2.072975
 
  0.2500000E+00  0.0000000E+00  0.0000000E+00  0.2314815E-02
    1      -21.760002
    2      -19.002310
    3      -13.540510
    4       -9.831772
    5       -8.530397
    6       -7.372500
    7       -6.730122
    8       -6.379154
    9        0.820921
   10        1.020995
   11        1.825565
   12        2.223592
 
  0.2916667E+00  0.0000000E+00  0.0000000E+00  0.2314815E-02
    1      -21.632584
    2      -19.327506
    3      -13.027321
    4       -9.681475
    5       -8.410671
    6       -7.810040
    7       -7.068979
    8       -6.571548
    9        1.194506
   10        1.349523
   11        2.000777
   12        2.401597
 
  0.3333333E+00  0.0000000E+00  0.0000000E+00  0.2314815E-02
    1      -21.485826
    2      -19.637596
    3      -12.503415
    4       -9.508840
    5       -8.280678
    6       -8.274565
    7       -7.402336
    8       -6.773557
    9        1.394683
   10        1.895048
   11        2.202613
   12        2.606986
 
  0.3750000E+00  0.0000000E+00  0.0000000E+00  0.2314815E-02
    1      -21.319848
    2      -19.931404
    3      -11.971461
    4       -9.314262
    5       -8.776644
    6       -8.123075
    7       -7.725447
    8       -6.980327
    9        1.621478
   10        2.430758
   11        2.448285
   12        2.839751
 
  0.4166667E+00  0.0000000E+00  0.0000000E+00  0.2314815E-02
    1      -21.134799
    2      -20.208137
    3      -11.434074
    4       -9.291247
    5       -9.098237
    6       -8.034995
    7       -7.957417
    8       -7.187620
    9        1.874824
   10        2.684520
   11        2.994659
   12        3.099881
 
  0.4583333E+00  0.0000000E+00  0.0000000E+00  0.2314815E-02
    1      -20.930858
    2      -20.467226
    3      -10.894030
    4       -9.818786
    5       -8.861387
    6       -8.328599
    7       -7.779068
    8       -7.391806
    9        2.154634
   10        2.793121
   11        2.961920
   12        3.387739
 
  0.5000000E+00  0.0000000E+00  0.0000000E+00  0.1157407E-02
    1      -20.708245
    2      -20.708245
    3      -10.354421
    4      -10.354421
    5       -8.604503
    6       -8.604503
    7       -7.589814
    8       -7.589814
    9        2.460789
   10        2.460789
   11        3.253683
   12        3.253683
 
  0.0000000E+00  0.2777778E-01  0.0000000E+00  0.2314815E-02
    1      -22.100105
    2      -17.202430
    3      -15.849546
    4      -10.234635
    5       -8.932991
    6       -5.993758
    7       -5.795711
    8       -5.276816
    9       -1.169319
   10        0.559390
   11        1.358284
   12        1.749838
 
  0.4166667E-01  0.2777778E-01  0.0000000E+00  0.4629630E-02
    1      -22.090256
    2      -17.327848
    3      -15.709138
    4      -10.222936
    5       -8.923394
    6       -6.038892
    7       -5.814495
    8       -5.337086
    9       -1.093373
   10        0.572720
   11        1.371803
   12        1.763527
 
  0.8333333E-01  0.2777778E-01  0.0000000E+00  0.4629630E-02
    1      -22.060715
    2      -17.612465
    3      -15.379633
    4      -10.187856
    5       -8.894651
    6       -6.170292
    7       -5.871835
    8       -5.505416
    9       -0.878175
   10        0.612717
   11        1.412358
   12        1.804596
 
  0.1250000E+00  0.2777778E-01  0.0000000E+00  0.4629630E-02
    1      -22.011503
    2      -17.951485
    3      -14.966063
    4      -10.129453
    5       -8.846914
    6       -6.380066
    7       -5.967100
    8       -5.753336
    9       -0.552677
   10        0.679399
   11        1.479932
   12        1.873048
 
  0.1666667E+00  0.2777778E-01  0.0000000E+00  0.4629630E-02
    1      -21.942653
    2      -18.302852
    3      -14.510892
    4      -10.047827
    5       -8.780437
    6       -6.659678
    7       -6.096158
    8       -6.051487
    9       -0.147053
   10        0.772786
   11        1.574502
   12        1.968886
 
  0.2083333E+00  0.2777778E-01  0.0000000E+00  0.4629630E-02
    1      -21.854217
    2      -18.651013
    3      -14.030256
    4       -9.943117
    5       -8.695590
    6       -6.999963
    7       -6.377123
    8       -6.253079
    9        0.314773
   10        0.892890
   11        1.696026
   12        2.092114
 
  0.2500000E+00  0.2777778E-01  0.0000000E+00  0.4629630E-02
    1      -21.746260
    2      -18.989297
    3      -13.531606
    4       -9.815515
    5       -8.592865
    6       -7.391418
    7       -6.714580
    8       -6.431488
    9        0.815559
   10        1.039710
   11        1.844442
   12        2.242732
 
  0.2916667E+00  0.2777778E-01  0.0000000E+00  0.4629630E-02
    1      -21.618865
    2      -19.314374
    3      -13.019265
    4       -9.665269
    5       -8.472896
    6       -7.824780
    7       -7.053445
    8       -6.625225
    9        1.213228
   10        1.342822
   11        2.019651
   12        2.420740
 
  0.3333333E+00  0.2777778E-01  0.0000000E+00  0.4629630E-02
    1      -21.472133
    2      -19.624360
    3      -12.496358
    4       -9.492692
    5       -8.336477
    6       -8.291484
    7       -7.386769
    8       -6.828647
    9        1.413414
   10        1.886830
   11        2.221485
   12        2.626132
 
  0.3750000E+00  0.2777778E-01  0.0000000E+00  0.4629630E-02
    1      -21.306187
    2      -19.918079
    3      -11.965586
    4       -9.298179
    5       -8.783899
    6       -8.184590
    7       -7.709823
    8       -7.036769
    9        1.640218
   10        2.438558
   11        2.449634
   12        2.858902
 
  0.4166667E+00  0.2777778E-01  0.0000000E+00  0.4629630E-02
    1      -21.121176
    2      -20.194734
    3      -11.429598
    4       -9.295382
    5       -9.082224
    6       -8.019299
    7       -8.018433
    8       -7.245287
    9        1.893576
   10        2.703412
   11        2.984320
   12        3.119037
 
  0.4583333E+00  0.2777778E-01  0.0000000E+00  0.4629630E-02
    1      -20.917278
    2      -20.453755
    3      -10.891209
    4       -9.820227
    5       -8.845451
    6       -8.312824
    7       -7.839466
    8       -7.450542
    9        2.173400
   10        2.811937
   11        2.980831
   12        3.408442
 
  0.5000000E+00  0.2777778E-01  0.0000000E+00  0.2314815E-02
    1      -20.694715
    2      -20.694715
    3      -10.353557
    4      -10.353557
    5       -8.588647
    6       -8.588647
    7       -7.649458
    8       -7.649458
    9        2.479574
   10        2.479574
   11        3.272303
   12        3.272303
 
  0.0000000E+00  0.5555556E-01  0.0000000E+00  0.2314815E-02
    1      -22.058715
    2      -17.166573
    3      -15.814427
    4      -10.185476
    5       -9.116908
    6       -6.073844
    7       -5.966879
    8       -5.226801
    9       -1.178252
   10        0.615494
   11        1.414975
   12        1.807247
 
  0.4166667E-01  0.5555556E-01  0.0000000E+00  0.4629630E-02
    1      -22.048870
    2      -17.291617
    3      -15.674533
    4      -10.173789
    5       -9.107270
    6       -6.126774
    7       -5.976051
    8       -5.287439
    9       -1.102258
   10        0.628824
   11        1.428493
   12        1.820936
 
  0.8333333E-01  0.5555556E-01  0.0000000E+00  0.4629630E-02
    1      -22.019343
    2      -17.575554
    3      -15.346131
    4      -10.138745
    5       -9.078400
    6       -6.265606
    7       -6.020829
    8       -5.456632
    9       -0.887158
   10        0.668821
   11        1.469040
   12        1.862005
 
  0.1250000E+00  0.5555556E-01  0.0000000E+00  0.4629630E-02
    1      -21.970154
    2      -17.913928
    3      -14.933929
    4      -10.080402
    5       -9.030442
    6       -6.474388
    7       -6.109466
    8       -5.705470
    9       -0.562348
   10        0.735504
   11        1.536604
   12        1.930458
 
  0.1666667E+00  0.5555556E-01  0.0000000E+00  0.4629630E-02
    1      -21.901338
    2      -18.264734
    3      -14.480360
    4       -9.998858
    5       -8.963637
    6       -6.746292
    7       -6.237172
    8       -6.004327
    9       -0.158274
   10        0.828894
   11        1.631159
   12        2.026297
 
  0.2083333E+00  0.5555556E-01  0.0000000E+00  0.4629630E-02
    1      -21.812946
    2      -18.612411
    3      -14.001604
    4       -9.894256
    5       -8.878332
    6       -7.074919
    7       -6.396236
    8       -6.330395
    9        0.301080
   10        0.949006
   11        1.752666
   12        2.149528
 
  0.2500000E+00  0.5555556E-01  0.0000000E+00  0.4629630E-02
    1      -21.705044
    2      -18.950278
    3      -13.505163
    4       -9.766785
    5       -8.774994
    6       -7.453047
    7       -6.668046
    8       -6.578733
    9        0.798522
   10        1.095838
   11        1.901064
   12        2.300151
 
  0.2916667E+00  0.5555556E-01  0.0000000E+00  0.4629630E-02
    1      -21.577717
    2      -19.274995
    3      -12.995430
    4       -9.616692
    5       -8.654222
    6       -7.872981
    7       -7.006929
    8       -6.777378
    9        1.269373
   10        1.321682
   11        2.076257
   12        2.478165
 
  0.3333333E+00  0.5555556E-01  0.0000000E+00  0.4629630E-02
    1      -21.431067
    2      -19.584668
    3      -12.475610
    4       -9.444292
    5       -8.516769
    6       -8.327080
    7       -7.340151
    8       -6.985813
    9        1.469578
   10        1.861022
   11        2.278086
   12        2.683566
 
  0.3750000E+00  0.5555556E-01  0.0000000E+00  0.4629630E-02
    1      -21.265217
    2      -19.878117
    3      -11.948500
    4       -9.249977
    5       -8.808163
    6       -8.363565
    7       -7.663028
    8       -7.198642
    9        1.696405
   10        2.408007
   11        2.506250
   12        2.916346
 
  0.4166667E+00  0.5555556E-01  0.0000000E+00  0.4629630E-02
    1      -21.080318
    2      -20.154538
    3      -11.416863
    4       -9.309731
    5       -9.034239
    6       -8.195754
    7       -7.972284
    8       -7.411358
    9        1.949789
   10        2.760077
   11        2.951166
   12        3.176497
 
  0.4583333E+00  0.5555556E-01  0.0000000E+00  0.4629630E-02
    1      -20.876551
    2      -20.413356
    3      -10.883644
    4       -9.826048
    5       -8.797699
    6       -8.265566
    7       -8.014732
    8       -7.620235
    9        2.229643
   10        2.868287
   11        3.037557
   12        3.463972
 
  0.5000000E+00  0.5555556E-01  0.0000000E+00  0.2314815E-02
    1      -20.654140
    2      -20.654140
    3      -10.352125
    4      -10.352125
    5       -8.541140
    6       -8.541140
    7       -7.822201
    8       -7.822201
    9        2.535859
   10        2.535859
   11        3.327988
   12        3.327988
 
  0.0000000E+00  0.8333333E-01  0.0000000E+00  0.2314815E-02
    1      -21.989768
    2      -17.106823
    3      -15.756395
    4      -10.103661
    5       -9.407887
    6       -6.237662
    7       -6.205825
    8       -5.143513
    9       -1.195843
   10        0.709001
   11        1.509437
   12        1.902930
 
  0.4166667E-01  0.8333333E-01  0.0000000E+00  0.4629630E-02
    1      -21.979931
    2      -17.231265
    3      -15.617348
    4      -10.091994
    5       -9.398164
    6       -6.312052
    7       -6.190621
    8       -5.204802
    9       -1.119750
   10        0.722329
   11        1.522950
   12        1.916619
 
  0.8333333E-01  0.8333333E-01  0.0000000E+00  0.4629630E-02
    1      -21.950427
    2      -17.514091
    3      -15.290800
    4      -10.057011
    5       -9.369038
    6       -6.457477
    7       -6.220537
    8       -5.375510
    9       -0.904792
   10        0.762321
   11        1.563485
   12        1.957687
 
  0.1250000E+00  0.8333333E-01  0.0000000E+00  0.4629630E-02
    1      -21.901278
    2      -17.851398
    3      -14.880929
    4       -9.998771
    5       -9.320634
    6       -6.659756
    7       -6.303324
    8       -5.625947
    9       -0.581153
   10        0.828999
   11        1.631028
   12        2.026139
 
  0.1666667E+00  0.8333333E-01  0.0000000E+00  0.4629630E-02
    1      -21.832519
    2      -18.201267
    3      -14.430126
    4       -9.917371
    5       -9.253167
    6       -6.915692
    7       -6.432191
    8       -5.926021
    9       -0.179750
   10        0.922387
   11        1.725556
   12        2.121980
 
  0.2083333E+00  0.8333333E-01  0.0000000E+00  0.4629630E-02
    1      -21.744201
    2      -18.548135
    3      -13.954635
    4       -9.812952
    5       -9.166943
    6       -7.222019
    7       -6.597867
    8       -6.252824
    9        0.275333
   10        1.042499
   11        1.847030
   12        2.245213
 
  0.2500000E+00  0.8333333E-01  0.0000000E+00  0.4629630E-02
    1      -21.636393
    2      -18.885304
    3      -13.462062
    4       -9.685706
    5       -9.062376
    6       -7.574771
    7       -6.790391
    8       -6.590798
    9        0.766997
   10        1.189338
   11        1.995393
   12        2.395840
 
  0.2916667E+00  0.8333333E-01  0.0000000E+00  0.4629630E-02
    1      -21.509179
    2      -19.209417
    3      -12.956925
    4       -9.535878
    5       -8.939995
    6       -7.969014
    7       -7.000492
    8       -6.929699
    9        1.283050
   10        1.362885
   11        2.170556
   12        2.573862
 
  0.3333333E+00  0.8333333E-01  0.0000000E+00  0.4629630E-02
    1      -21.362664
    2      -19.518568
    3      -12.442584
    4       -9.363781
    5       -8.800466
    6       -8.398969
    7       -7.262737
    8       -7.220329
    9        1.563108
   10        1.814245
   11        2.372370
   12        2.779272
 
  0.3750000E+00  0.8333333E-01  0.0000000E+00  0.4629630E-02
    1      -21.196974
    2      -19.811563
    3      -11.922023
    4       -9.169806
    5       -8.858430
    6       -8.644613
    7       -7.585300
    8       -7.443631
    9        1.789954
   10        2.352688
   11        2.600556
   12        3.012067
 
  0.4166667E+00  0.8333333E-01  0.0000000E+00  0.4629630E-02
    1      -21.012263
    2      -20.087593
    3      -11.398230
    4       -9.341226
    5       -8.954443
    6       -8.473451
    7       -7.894168
    8       -7.665498
    9        2.043358
   10        2.854475
   11        2.889433
   12        3.272235
 
  0.4583333E+00  0.8333333E-01  0.0000000E+00  0.4629630E-02
    1      -20.808716
    2      -20.346070
    3      -10.874414
    4       -9.841553
    5       -8.718306
    6       -8.288229
    7       -8.187028
    8       -7.882113
    9        2.323235
   10        2.961952
   11        3.132081
   12        3.393998
 
  0.5000000E+00  0.8333333E-01  0.0000000E+00  0.2314815E-02
    1      -20.586559
    2      -20.586559
    3      -10.354164
    4      -10.354164
    5       -8.462170
    6       -8.462170
    7       -8.090482
    8       -8.090482
    9        2.629479
   10        2.629479
   11        3.419886
   12        3.419886
 
  0.0000000E+00  0.1111111E+00  0.0000000E+00  0.2314815E-02
    1      -21.893327
    2      -17.023203
    3      -15.676299
    4       -9.989370
    5       -9.786710
    6       -6.590528
    7       -6.387442
    8       -5.027061
    9       -1.226142
   10        0.839910
   11        1.641628
   12        2.036887
 
  0.4166667E-01  0.1111111E+00  0.0000000E+00  0.4629630E-02
    1      -21.883501
    2      -17.146847
    3      -15.538422
    4       -9.977733
    5       -9.776837
    6       -6.641218
    7       -6.392092
    8       -5.089346
    9       -1.149863
   10        0.853233
   11        1.655134
   12        2.050576
 
  0.8333333E-01  0.1111111E+00  0.0000000E+00  0.4629630E-02
    1      -21.854030
    2      -17.428166
    3      -15.214505
    4       -9.942840
    5       -9.747252
    6       -6.772456
    7       -6.425224
    8       -5.262354
    9       -0.935039
   10        0.893213
   11        1.695649
   12        2.091642
 
  0.1250000E+00  0.1111111E+00  0.0000000E+00  0.4629630E-02
    1      -21.804936
    2      -17.763996
    3      -14.808034
    4       -9.884749
    5       -9.698051
    6       -6.960844
    7       -6.505344
    8       -5.515184
    9       -0.613069
   10        0.959872
   11        1.763158
   12        2.160091
 
  0.1666667E+00  0.1111111E+00  0.0000000E+00  0.4629630E-02
    1      -21.736256
    2      -18.112555
    3      -14.361333
    4       -9.803558
    5       -9.629398
    6       -7.195826
    7       -6.635080
    8       -5.817052
    9       -0.215570
   10        1.053238
   11        1.857640
   12        2.255929
 
  0.2083333E+00  0.1111111E+00  0.0000000E+00  0.4629630E-02
    1      -21.648043
    2      -18.458284
    3      -13.890752
    4       -9.699408
    5       -9.541526
    6       -7.472529
    7       -6.808834
    8       -6.144916
    9        0.233244
   10        1.173331
   11        1.979059
   12        2.379162
 
  0.2500000E+00  0.1111111E+00  0.0000000E+00  0.4629630E-02
    1      -21.540366
    2      -18.794467
    3      -13.404062
    4       -9.572491
    5       -9.434748
    6       -7.788625
    7       -7.016691
    8       -6.483333
    9        0.716423
   10        1.320157
   11        2.127361
   12        2.529791
 
  0.2916667E+00  0.1111111E+00  0.0000000E+00  0.4629630E-02
    1      -21.413310
    2      -19.117726
    3      -12.906000
    4       -9.423051
    5       -9.309456
    6       -8.142666
    7       -7.247035
    8       -6.822234
    9        1.222027
   10        1.493698
   11        2.302467
   12        2.707818
 
  0.3333333E+00  0.1111111E+00  0.0000000E+00  0.4629630E-02
    1      -21.266986
    2      -19.426138
    3      -12.400200
    4       -9.251400
    5       -9.166141
    6       -8.532671
    7       -7.488836
    8       -7.154973
    9        1.693918
   10        1.741166
   11        2.504245
   12        2.913237
 
  0.3750000E+00  0.1111111E+00  0.0000000E+00  0.4629630E-02
    1      -21.101521
    2      -19.718494
    3      -11.889992
    4       -9.057926
    5       -9.005402
    6       -8.955294
    7       -7.733172
    8       -7.477055
    9        1.920763
   10        2.266587
   11        2.732453
   12        3.146043
 
  0.4166667E+00  0.1111111E+00  0.0000000E+00  0.4629630E-02
    1      -20.917074
    2      -19.993969
    3      -11.378786
    4       -9.405840
    5       -8.843115
    6       -8.827970
    7       -7.973617
    8       -7.785338
    9        2.174162
   10        2.791338
   11        2.986519
   12        3.406227
 
  0.4583333E+00  0.1111111E+00  0.0000000E+00  0.4629630E-02
    1      -20.713837
    2      -20.251968
    3      -10.870310
    4       -9.878850
    5       -8.634749
    6       -8.607572
    7       -8.205823
    8       -8.077564
    9        2.454029
   10        3.092710
   11        3.264373
   12        3.303250
 
  0.5000000E+00  0.1111111E+00  0.0000000E+00  0.2314815E-02
    1      -20.492040
    2      -20.492040
    3      -10.368756
    4      -10.368756
    5       -8.426874
    6       -8.426874
    7       -8.352064
    8       -8.352064
    9        2.760257
   10        2.760257
   11        3.543282
   12        3.543283
 
  0.0000000E+00  0.1388889E+00  0.0000000E+00  0.2314815E-02
    1      -21.769477
    2      -16.915742
    3      -15.575573
    4      -10.232285
    5       -9.842860
    6       -7.006927
    7       -6.615555
    8       -4.877601
    9       -1.274744
   10        1.008211
   11        1.811491
   12        2.209122
 
  0.4166667E-01  0.1388889E+00  0.0000000E+00  0.4629630E-02
    1      -21.759665
    2      -17.038442
    3      -15.439176
    4      -10.222156
    5       -9.831263
    6       -7.053176
    7       -6.620076
    8       -4.941335
    9       -1.198116
   10        1.021526
   11        1.824986
   12        2.222808
 
  0.8333333E-01  0.1388889E+00  0.0000000E+00  0.4629630E-02
    1      -21.730236
    2      -17.317917
    3      -15.118738
    4      -10.191782
    5       -9.796492
    6       -7.177814
    7       -6.646695
    8       -5.117646
    9       -0.983294
   10        1.061482
   11        1.865467
   12        2.263870
 
  0.1250000E+00  0.1388889E+00  0.0000000E+00  0.4629630E-02
    1      -21.681214
    2      -17.651879
    3      -14.716938
    4      -10.141207
    5       -9.738605
    6       -7.358347
    7       -6.714646
    8       -5.373845
    9       -0.663463
   10        1.128102
   11        1.932922
   12        2.332313
 
  0.1666667E+00  0.1388889E+00  0.0000000E+00  0.4629630E-02
    1      -21.612637
    2      -17.998754
    3      -14.276020
    4      -10.070500
    5       -9.657699
    6       -7.579958
    7       -6.833096
    8       -5.678179
    9       -0.271212
   10        1.221420
   11        2.027329
   12        2.428143
 
  0.2083333E+00  0.1388889E+00  0.0000000E+00  0.4629630E-02
    1      -21.524559
    2      -18.343005
    3      -13.812501
    4       -9.979753
    5       -9.553918
    6       -7.834381
    7       -7.002250
    8       -6.007456
    9        0.169115
   10        1.341463
   11        2.148653
   12        2.551369
 
  0.2500000E+00  0.1388889E+00  0.0000000E+00  0.4629630E-02
    1      -21.417050
    2      -18.677905
    3      -13.334436
    4       -9.869073
    5       -9.427450
    6       -8.117513
    7       -7.216068
    8       -6.346425
    9        0.640808
   10        1.488241
   11        2.296847
   12        2.701994
 
  0.2916667E+00  0.1388889E+00  0.0000000E+00  0.4629630E-02
    1      -21.290201
    2      -19.000051
    3      -12.846949
    4       -9.738575
    5       -9.278542
    6       -8.428232
    7       -7.464127
    8       -6.685265
    9        1.132287
   10        1.661740
   11        2.471842
   12        2.880019
 
  0.3333333E+00  0.1388889E+00  0.0000000E+00  0.4629630E-02
    1      -21.144122
    2      -19.307501
    3      -12.354189
    4       -9.588369
    5       -9.107502
    6       -8.767426
    7       -7.733437
    8       -7.017545
    9        1.635080
   10        1.861924
   11        2.673532
   12        3.085442
 
  0.3750000E+00  0.1388889E+00  0.0000000E+00  0.4629630E-02
    1      -20.978950
    2      -19.599022
    3      -11.860144
    4       -9.418553
    5       -9.136563
    6       -8.914716
    7       -8.010645
    8       -7.338924
    9        2.088732
   10        2.142526
   11        2.901732
   12        3.318256
 
  0.4166667E+00  0.1388889E+00  0.0000000E+00  0.4629630E-02
    1      -20.794847
    2      -19.873775
    3      -11.369068
    4       -9.535956
    5       -9.229213
    6       -8.700664
    7       -8.284341
    8       -7.646372
    9        2.342088
   10        2.648907
   11        3.156007
   12        3.578450
 
  0.4583333E+00  0.1388889E+00  0.0000000E+00  0.4629630E-02
    1      -20.592011
    2      -20.131149
    3      -10.885700
    4       -9.963609
    5       -9.020468
    6       -8.546524
    7       -8.465944
    8       -7.937706
    9        2.621897
   10        3.148317
   11        3.260393
   12        3.434387
 
  0.5000000E+00  0.1388889E+00  0.0000000E+00  0.2314815E-02
    1      -20.370681
    2      -20.370681
    3      -10.415331
    4      -10.415331
    5       -8.792620
    6       -8.792620
    7       -8.211307
    8       -8.211307
    9        2.928046
   10        2.928046
   11        3.611764
   12        3.611765
 
  0.0000000E+00  0.1666667E+00  0.0000000E+00  0.2314815E-02
    1      -21.618334
    2      -16.784480
    3      -15.456609
    4      -10.723888
    5       -9.664478
    6       -7.469728
    7       -6.886205
    8       -4.695337
    9       -1.348566
   10        1.213885
   11        2.018941
   12        2.419633
 
  0.4166667E-01  0.1666667E+00  0.0000000E+00  0.4629630E-02
    1      -21.608539
    2      -16.906172
    3      -15.322001
    4      -10.713318
    5       -9.652934
    6       -7.515427
    7       -6.886220
    8       -4.761156
    9       -1.271278
   10        1.227188
   11        2.032418
   12        2.433317
 
  0.8333333E-01  0.1666667E+00  0.0000000E+00  0.4629630E-02
    1      -21.579164
    2      -17.183548
    3      -15.006049
    4      -10.681587
    5       -9.618324
    6       -7.639472
    7       -6.898816
    8       -4.942133
    9       -1.056056
   10        1.267106
   11        2.072846
   12        2.474372
 
  0.1250000E+00  0.1666667E+00  0.0000000E+00  0.4629630E-02
    1      -21.530230
    2      -17.515278
    3      -14.610607
    4      -10.628630
    5       -9.560704
    6       -7.818662
    7       -6.945503
    8       -5.202958
    9       -0.738700
   10        1.333666
   11        2.140210
   12        2.542803
 
  0.1666667E+00  0.1666667E+00  0.0000000E+00  0.4629630E-02
    1      -21.461778
    2      -17.860091
    3      -14.177854
    4      -10.554323
    5       -9.480175
    6       -8.035582
    7       -7.040327
    8       -5.510562
    9       -0.353086
   10        1.426903
   11        2.234488
   12        2.638617
 
  0.2083333E+00  0.1666667E+00  0.0000000E+00  0.4629630E-02
    1      -21.373865
    2      -18.202513
    3      -13.724606
    4      -10.458455
    5       -9.376877
    6       -8.279426
    7       -7.188603
    8       -5.841625
    9        0.076370
   10        1.546852
   11        2.355646
   12        2.761825
 
  0.2500000E+00  0.1666667E+00  0.0000000E+00  0.4629630E-02
    1      -21.266563
    2      -18.535815
    3      -13.259449
    4      -10.340694
    5       -9.251003
    6       -8.543762
    7       -7.389028
    8       -6.181212
    9        0.533371
   10        1.693533
   11        2.503637
   12        2.912434
 
  0.2916667E+00  0.1666667E+00  0.0000000E+00  0.4629630E-02
    1      -21.139968
    2      -18.856575
    3      -12.788270
    4      -10.200527
    5       -9.102798
    6       -8.825282
    7       -7.635268
    8       -6.519862
    9        1.006861
   10        1.866940
   11        2.678399
   12        3.090449
 
  0.3333333E+00  0.1666667E+00  0.0000000E+00  0.4629630E-02
    1      -20.994194
    2      -19.162823
    3      -12.316248
    4      -10.037205
    5       -9.123315
    6       -8.932568
    7       -7.917139
    8       -6.851439
    9        1.488916
   10        2.067038
   11        2.879848
   12        3.295867
 
  0.3750000E+00  0.1666667E+00  0.0000000E+00  0.4629630E-02
    1      -20.829383
    2      -19.453304
    3      -11.848708
    4       -9.849697
    5       -9.439572
    6       -8.740698
    7       -8.221678
    8       -7.171811
    9        1.973468
   10        2.293763
   11        3.107870
   12        3.528682
 
  0.4166667E+00  0.1666667E+00  0.0000000E+00  0.4629630E-02
    1      -20.645705
    2      -19.727158
    3      -11.391481
    4       -9.777564
    5       -9.636761
    6       -8.534443
    7       -8.527661
    8       -7.478094
    9        2.455576
   10        2.547027
   11        3.362278
   12        3.788883
 
  0.4583333E+00  0.1666667E+00  0.0000000E+00  0.4629630E-02
    1      -20.443367
    2      -19.983755
    3      -10.950810
    4      -10.141191
    5       -9.397303
    6       -8.841404
    7       -8.294045
    8       -7.768203
    9        2.826724
   10        2.930983
   11        3.464873
   12        3.642034
 
  0.5000000E+00  0.1666667E+00  0.0000000E+00  0.2314815E-02
    1      -20.222617
    2      -20.222617
    3      -10.532638
    4      -10.532638
    5       -9.131305
    6       -9.131305
    7       -8.040583
    8       -8.040583
    9        3.132723
   10        3.132723
   11        3.395724
   12        3.395724
 