       N       E                     dE             d eps       ncg     rms          rms(c)
DAV:   1     0.186974321719E+03    0.18697E+03   -0.10602E+04  5928   0.275E+03
DAV:   2    -0.898826255804E+01   -0.19596E+03   -0.17375E+03 10232   0.258E+02
DAV:   3    -0.381466993171E+02   -0.29158E+02   -0.28524E+02  7368   0.119E+02    0.714E+00
RMM:   4    -0.376065134067E+02    0.54019E+00   -0.95998E+00  5928   0.266E+01    0.413E+00
RMM:   5    -0.368901692578E+02    0.71634E+00   -0.26850E+00  5931   0.112E+01    0.699E-01
RMM:   6    -0.368924821912E+02   -0.23129E-02   -0.85938E-02  6377   0.202E+00    0.500E-01
RMM:   7    -0.368834191694E+02    0.90630E-02   -0.30838E-02  5949   0.153E+00    0.326E-01
RMM:   8    -0.368786180116E+02    0.48012E-02   -0.61402E-03  5932   0.521E-01    0.137E-01
RMM:   9    -0.368783106510E+02    0.30736E-03   -0.19821E-02  5928   0.833E-01    0.151E-01
RMM:  10    -0.368782339149E+02    0.76736E-04   -0.20944E-03  5928   0.332E-01    0.274E-02
RMM:  11    -0.368805890074E+02   -0.23551E-02   -0.70268E-04  5932   0.176E-01    0.422E-02
RMM:  12    -0.368810706055E+02   -0.48160E-03   -0.20366E-04  5944   0.945E-02    0.468E-03
RMM:  13    -0.368813258751E+02   -0.25527E-03   -0.45454E-05  6049   0.351E-02    0.300E-03
RMM:  14    -0.368814080057E+02   -0.82131E-04   -0.98575E-06  5979   0.147E-02    0.109E-03
RMM:  15    -0.368814199095E+02   -0.11904E-04   -0.17981E-06  5942   0.754E-03    0.198E-03
RMM:  16    -0.368814324683E+02   -0.12559E-04   -0.15634E-06  5928   0.823E-03    0.125E-03
RMM:  17    -0.368814381555E+02   -0.56872E-05   -0.14120E-07  5967   0.230E-03    0.570E-04
RMM:  18    -0.368814392412E+02   -0.10857E-05   -0.36453E-08  5983   0.153E-03    0.929E-05
RMM:  19    -0.368814400070E+02   -0.76574E-06   -0.10210E-08  5902   0.462E-04    0.202E-05
RMM:  20    -0.368814400484E+02   -0.41459E-07   -0.82889E-10  4548   0.151E-04    0.244E-05
RMM:  21    -0.368814400624E+02   -0.14002E-07   -0.20935E-10  4337   0.848E-05    0.803E-06
RMM:  22    -0.368814400626E+02   -0.19031E-09   -0.17493E-11  3896   0.491E-05    0.112E-06
RMM:  23    -0.368814400630E+02   -0.38017E-09   -0.17048E-11  3544   0.383E-05    0.179E-06
RMM:  24    -0.368814400633E+02   -0.32594E-09   -0.54310E-12  3080   0.283E-05    0.595E-07
RMM:  25    -0.368814400632E+02    0.14904E-09   -0.56783E-12  2774   0.244E-05    0.738E-07
RMM:  26    -0.368814400635E+02   -0.26637E-09   -0.23605E-12  2542   0.221E-05    0.571E-07
RMM:  27    -0.368814400635E+02   -0.80149E-10   -0.13471E-12  2370   0.200E-05
   1 F= -.36881440E+02 E0= -.36881440E+02  d E =-.368814E+02
       N       E                     dE             d eps       ncg     rms          rms(c)
DAV:   1    -0.368814398772E+02    0.18628E-06   -0.17421E-05  6308   0.391E-02    0.792E-04
RMM:   2    -0.368814398854E+02   -0.82650E-08   -0.27867E-07  5961   0.467E-03    0.573E-04
RMM:   3    -0.368814398739E+02    0.11519E-07   -0.47396E-08  5971   0.175E-03    0.153E-04
RMM:   4    -0.368814398737E+02    0.17542E-09   -0.32061E-09  6062   0.449E-04    0.436E-05
RMM:   5    -0.368814398731E+02    0.67064E-09   -0.20108E-10  4079   0.108E-04    0.185E-05
RMM:   6    -0.368814398732E+02   -0.94701E-10   -0.26683E-11  3735   0.585E-05
   2 F= -.36881440E+02 E0= -.36881440E+02  d E =0.190369E-06
       N       E                     dE             d eps       ncg     rms          rms(c)
DAV:   1    -0.368814400678E+02   -0.19477E-06   -0.10900E-05  6696   0.310E-02    0.631E-04
RMM:   2    -0.368814400779E+02   -0.10086E-07   -0.17014E-07  5963   0.369E-03    0.454E-04
RMM:   3    -0.368814400758E+02    0.21126E-08   -0.29596E-08  5971   0.138E-03    0.118E-04
RMM:   4    -0.368814400747E+02    0.11155E-08   -0.19517E-09  6004   0.353E-04    0.343E-05
RMM:   5    -0.368814400753E+02   -0.56923E-09   -0.13120E-10  3940   0.885E-05    0.145E-05
RMM:   6    -0.368814400753E+02   -0.75033E-11   -0.17694E-11  3588   0.523E-05
   3 F= -.36881440E+02 E0= -.36881440E+02  d E =-.202114E-06
       N       E                     dE             d eps       ncg     rms          rms(c)
DAV:   1    -0.368814400748E+02    0.51818E-09    0.53929E-09  4776   0.612E-05    0.136E-06
RMM:   2    -0.368814400753E+02   -0.52864E-09   -0.68900E-13  2347   0.218E-05    0.845E-07
RMM:   3    -0.368814400751E+02    0.19247E-09    0.13539E-13  2196   0.218E-05    0.745E-08
RMM:   4    -0.368814400753E+02   -0.21453E-09   -0.15790E-13  1990   0.207E-05    0.495E-08
RMM:   5    -0.368814400755E+02   -0.23124E-09   -0.19881E-12  1875   0.195E-05    0.294E-08
RMM:   6    -0.368814400753E+02    0.28535E-09   -0.98247E-13  1725   0.187E-05    0.205E-08
RMM:   7    -0.368814400753E+02   -0.36039E-10    0.21503E-13  1664   0.177E-05
   4 F= -.36881440E+02 E0= -.36881440E+02  d E =-.693490E-11
       N       E                     dE             d eps       ncg     rms          rms(c)
DAV:   1    -0.368814400749E+02    0.31946E-09    0.54286E-09  4544   0.320E-05    0.263E-07
RMM:   2    -0.368814400753E+02   -0.33901E-09    0.15790E-14  1331   0.102E-05    0.162E-07
RMM:   3    -0.368814400753E+02   -0.27967E-10   -0.15477E-13  1318   0.101E-05    0.111E-08
RMM:   4    -0.368814400753E+02    0.32742E-10   -0.28035E-13  1304   0.102E-05    0.630E-09
RMM:   5    -0.368814400753E+02   -0.42064E-10    0.21283E-13  1304   0.101E-05
   5 F= -.36881440E+02 E0= -.36881440E+02  d E =-.208047E-10
