<?xml version="1.0" encoding="ISO-8859-1"?>
<modeling>
 <generator>
  <i name="program" type="string">vasp </i>
  <i name="version" type="string">5.3.5  </i>
  <i name="subversion" type="string">31Mar14 (build Mar 02 2015 18:14:16) complex                          parallel </i>
  <i name="platform" type="string">LinuxIFC </i>
  <i name="date" type="string">2018 08 08 </i>
  <i name="time" type="string">18:45:28 </i>
 </generator>
 <incar>
  <i type="string" name="SYSTEM">  gr</i>
  <i type="string" name="PREC">accurate : accuracy</i>
  <i type="string" name="ALGO"> FAST.</i>
  <i type="int" name="NELM">   100</i>
  <i type="int" name="NELMDL">    -3</i>
  <i type="int" name="NELMIN">     5</i>
  <i type="int" name="IBRION">     1</i>
  <i name="EDIFF">      0.00000000</i>
  <i name="EDIFFG">     -0.00000100</i>
  <i type="int" name="NSW">   400</i>
  <i type="int" name="ISIF">     2</i>
  <i name="ENCUT">   2000.00000000</i>
  <i type="int" name="ISMEAR">     0</i>
  <i name="SIGMA">      0.05000000</i>
  <i type="int" name="NWRITE">     2</i>
  <i type="logical" name="LWAVE"> F  </i>
  <i type="logical" name="LCHARG"> F  </i>
  <i type="int" name="NELM">   100</i>
 </incar>
 <kpoints>
  <generation param="Gamma">
   <v type="int" name="divisions">      24       36        1 </v>
   <v name="usershift">      0.00000000       0.00000000       0.00000000 </v>
   <v name="genvec1">      0.04166667       0.00000000       0.00000000 </v>
   <v name="genvec2">      0.00000000       0.02777778       0.00000000 </v>
   <v name="genvec3">      0.00000000       0.00000000       1.00000000 </v>
   <v name="shift">      0.00000000       0.00000000       0.00000000 </v>
  </generation>
  <varray name="kpointlist" >
   <v>       0.00000000       0.00000000       0.00000000 </v>
   <v>       0.04166667       0.00000000       0.00000000 </v>
   <v>       0.08333333       0.00000000       0.00000000 </v>
   <v>       0.12500000       0.00000000       0.00000000 </v>
   <v>       0.16666667       0.00000000       0.00000000 </v>
   <v>       0.20833333       0.00000000       0.00000000 </v>
   <v>       0.25000000       0.00000000       0.00000000 </v>
   <v>       0.29166667       0.00000000       0.00000000 </v>
   <v>       0.33333333       0.00000000       0.00000000 </v>
   <v>       0.37500000       0.00000000       0.00000000 </v>
   <v>       0.41666667       0.00000000       0.00000000 </v>
   <v>       0.45833333       0.00000000       0.00000000 </v>
   <v>       0.50000000       0.00000000       0.00000000 </v>
   <v>       0.00000000       0.02777778       0.00000000 </v>
   <v>       0.04166667       0.02777778       0.00000000 </v>
   <v>       0.08333333       0.02777778       0.00000000 </v>
   <v>       0.12500000       0.02777778       0.00000000 </v>
   <v>       0.16666667       0.02777778       0.00000000 </v>
   <v>       0.20833333       0.02777778       0.00000000 </v>
   <v>       0.25000000       0.02777778       0.00000000 </v>
   <v>       0.29166667       0.02777778       0.00000000 </v>
   <v>       0.33333333       0.02777778       0.00000000 </v>
   <v>       0.37500000       0.02777778       0.00000000 </v>
   <v>       0.41666667       0.02777778       0.00000000 </v>
   <v>       0.45833333       0.02777778       0.00000000 </v>
   <v>       0.50000000       0.02777778       0.00000000 </v>
   <v>       0.00000000       0.05555556       0.00000000 </v>
   <v>       0.04166667       0.05555556       0.00000000 </v>
   <v>       0.08333333       0.05555556       0.00000000 </v>
   <v>       0.12500000       0.05555556       0.00000000 </v>
   <v>       0.16666667       0.05555556       0.00000000 </v>
   <v>       0.20833333       0.05555556       0.00000000 </v>
   <v>       0.25000000       0.05555556       0.00000000 </v>
   <v>       0.29166667       0.05555556       0.00000000 </v>
   <v>       0.33333333       0.05555556       0.00000000 </v>
   <v>       0.37500000       0.05555556       0.00000000 </v>
   <v>       0.41666667       0.05555556       0.00000000 </v>
   <v>       0.45833333       0.05555556       0.00000000 </v>
   <v>       0.50000000       0.05555556       0.00000000 </v>
   <v>       0.00000000       0.08333333       0.00000000 </v>
   <v>       0.04166667       0.08333333       0.00000000 </v>
   <v>       0.08333333       0.08333333       0.00000000 </v>
   <v>       0.12500000       0.08333333       0.00000000 </v>
   <v>       0.16666667       0.08333333       0.00000000 </v>
   <v>       0.20833333       0.08333333       0.00000000 </v>
   <v>       0.25000000       0.08333333       0.00000000 </v>
   <v>       0.29166667       0.08333333       0.00000000 </v>
   <v>       0.33333333       0.08333333       0.00000000 </v>
   <v>       0.37500000       0.08333333       0.00000000 </v>
   <v>       0.41666667       0.08333333       0.00000000 </v>
   <v>       0.45833333       0.08333333       0.00000000 </v>
   <v>       0.50000000       0.08333333       0.00000000 </v>
   <v>       0.00000000       0.11111111       0.00000000 </v>
   <v>       0.04166667       0.11111111       0.00000000 </v>
   <v>       0.08333333       0.11111111       0.00000000 </v>
   <v>       0.12500000       0.11111111       0.00000000 </v>
   <v>       0.16666667       0.11111111       0.00000000 </v>
   <v>       0.20833333       0.11111111       0.00000000 </v>
   <v>       0.25000000       0.11111111       0.00000000 </v>
   <v>       0.29166667       0.11111111       0.00000000 </v>
   <v>       0.33333333       0.11111111       0.00000000 </v>
   <v>       0.37500000       0.11111111       0.00000000 </v>
   <v>       0.41666667       0.11111111       0.00000000 </v>
   <v>       0.45833333       0.11111111       0.00000000 </v>
   <v>       0.50000000       0.11111111       0.00000000 </v>
   <v>       0.00000000       0.13888889       0.00000000 </v>
   <v>       0.04166667       0.13888889       0.00000000 </v>
   <v>       0.08333333       0.13888889       0.00000000 </v>
   <v>       0.12500000       0.13888889       0.00000000 </v>
   <v>       0.16666667       0.13888889       0.00000000 </v>
   <v>       0.20833333       0.13888889       0.00000000 </v>
   <v>       0.25000000       0.13888889       0.00000000 </v>
   <v>       0.29166667       0.13888889       0.00000000 </v>
   <v>       0.33333333       0.13888889       0.00000000 </v>
   <v>       0.37500000       0.13888889       0.00000000 </v>
   <v>       0.41666667       0.13888889       0.00000000 </v>
   <v>       0.45833333       0.13888889       0.00000000 </v>
   <v>       0.50000000       0.13888889       0.00000000 </v>
   <v>       0.00000000       0.16666667       0.00000000 </v>
   <v>       0.04166667       0.16666667       0.00000000 </v>
   <v>       0.08333333       0.16666667       0.00000000 </v>
   <v>       0.12500000       0.16666667       0.00000000 </v>
   <v>       0.16666667       0.16666667       0.00000000 </v>
   <v>       0.20833333       0.16666667       0.00000000 </v>
   <v>       0.25000000       0.16666667       0.00000000 </v>
   <v>       0.29166667       0.16666667       0.00000000 </v>
   <v>       0.33333333       0.16666667       0.00000000 </v>
   <v>       0.37500000       0.16666667       0.00000000 </v>
   <v>       0.41666667       0.16666667       0.00000000 </v>
   <v>       0.45833333       0.16666667       0.00000000 </v>
   <v>       0.50000000       0.16666667       0.00000000 </v>
   <v>       0.00000000       0.19444444       0.00000000 </v>
   <v>       0.04166667       0.19444444       0.00000000 </v>
   <v>       0.08333333       0.19444444       0.00000000 </v>
   <v>       0.12500000       0.19444444       0.00000000 </v>
   <v>       0.16666667       0.19444444       0.00000000 </v>
   <v>       0.20833333       0.19444444       0.00000000 </v>
   <v>       0.25000000       0.19444444       0.00000000 </v>
   <v>       0.29166667       0.19444444       0.00000000 </v>
   <v>       0.33333333       0.19444444       0.00000000 </v>
   <v>       0.37500000       0.19444444       0.00000000 </v>
   <v>       0.41666667       0.19444444       0.00000000 </v>
   <v>       0.45833333       0.19444444       0.00000000 </v>
   <v>       0.50000000       0.19444444       0.00000000 </v>
   <v>       0.00000000       0.22222222       0.00000000 </v>
   <v>       0.04166667       0.22222222       0.00000000 </v>
   <v>       0.08333333       0.22222222       0.00000000 </v>
   <v>       0.12500000       0.22222222       0.00000000 </v>
   <v>       0.16666667       0.22222222       0.00000000 </v>
   <v>       0.20833333       0.22222222       0.00000000 </v>
   <v>       0.25000000       0.22222222       0.00000000 </v>
   <v>       0.29166667       0.22222222       0.00000000 </v>
   <v>       0.33333333       0.22222222       0.00000000 </v>
   <v>       0.37500000       0.22222222       0.00000000 </v>
   <v>       0.41666667       0.22222222       0.00000000 </v>
   <v>       0.45833333       0.22222222       0.00000000 </v>
   <v>       0.50000000       0.22222222       0.00000000 </v>
   <v>       0.00000000       0.25000000       0.00000000 </v>
   <v>       0.04166667       0.25000000       0.00000000 </v>
   <v>       0.08333333       0.25000000       0.00000000 </v>
   <v>       0.12500000       0.25000000       0.00000000 </v>
   <v>       0.16666667       0.25000000       0.00000000 </v>
   <v>       0.20833333       0.25000000       0.00000000 </v>
   <v>       0.25000000       0.25000000       0.00000000 </v>
   <v>       0.29166667       0.25000000       0.00000000 </v>
   <v>       0.33333333       0.25000000       0.00000000 </v>
   <v>       0.37500000       0.25000000       0.00000000 </v>
   <v>       0.41666667       0.25000000       0.00000000 </v>
   <v>       0.45833333       0.25000000       0.00000000 </v>
   <v>       0.50000000       0.25000000       0.00000000 </v>
   <v>       0.00000000       0.27777778       0.00000000 </v>
   <v>       0.04166667       0.27777778       0.00000000 </v>
   <v>       0.08333333       0.27777778       0.00000000 </v>
   <v>       0.12500000       0.27777778       0.00000000 </v>
   <v>       0.16666667       0.27777778       0.00000000 </v>
   <v>       0.20833333       0.27777778       0.00000000 </v>
   <v>       0.25000000       0.27777778       0.00000000 </v>
   <v>       0.29166667       0.27777778       0.00000000 </v>
   <v>       0.33333333       0.27777778       0.00000000 </v>
   <v>       0.37500000       0.27777778       0.00000000 </v>
   <v>       0.41666667       0.27777778       0.00000000 </v>
   <v>       0.45833333       0.27777778       0.00000000 </v>
   <v>       0.50000000       0.27777778       0.00000000 </v>
   <v>       0.00000000       0.30555556       0.00000000 </v>
   <v>       0.04166667       0.30555556       0.00000000 </v>
   <v>       0.08333333       0.30555556       0.00000000 </v>
   <v>       0.12500000       0.30555556       0.00000000 </v>
   <v>       0.16666667       0.30555556       0.00000000 </v>
   <v>       0.20833333       0.30555556       0.00000000 </v>
   <v>       0.25000000       0.30555556       0.00000000 </v>
   <v>       0.29166667       0.30555556       0.00000000 </v>
   <v>       0.33333333       0.30555556       0.00000000 </v>
   <v>       0.37500000       0.30555556       0.00000000 </v>
   <v>       0.41666667       0.30555556       0.00000000 </v>
   <v>       0.45833333       0.30555556       0.00000000 </v>
   <v>       0.50000000       0.30555556       0.00000000 </v>
   <v>       0.00000000       0.33333333       0.00000000 </v>
   <v>       0.04166667       0.33333333       0.00000000 </v>
   <v>       0.08333333       0.33333333       0.00000000 </v>
   <v>       0.12500000       0.33333333       0.00000000 </v>
   <v>       0.16666667       0.33333333       0.00000000 </v>
   <v>       0.20833333       0.33333333       0.00000000 </v>
   <v>       0.25000000       0.33333333       0.00000000 </v>
   <v>       0.29166667       0.33333333       0.00000000 </v>
   <v>       0.33333333       0.33333333       0.00000000 </v>
   <v>       0.37500000       0.33333333       0.00000000 </v>
   <v>       0.41666667       0.33333333       0.00000000 </v>
   <v>       0.45833333       0.33333333       0.00000000 </v>
   <v>       0.50000000       0.33333333       0.00000000 </v>
   <v>       0.00000000       0.36111111       0.00000000 </v>
   <v>       0.04166667       0.36111111       0.00000000 </v>
   <v>       0.08333333       0.36111111       0.00000000 </v>
   <v>       0.12500000       0.36111111       0.00000000 </v>
   <v>       0.16666667       0.36111111       0.00000000 </v>
   <v>       0.20833333       0.36111111       0.00000000 </v>
   <v>       0.25000000       0.36111111       0.00000000 </v>
   <v>       0.29166667       0.36111111       0.00000000 </v>
   <v>       0.33333333       0.36111111       0.00000000 </v>
   <v>       0.37500000       0.36111111       0.00000000 </v>
   <v>       0.41666667       0.36111111       0.00000000 </v>
   <v>       0.45833333       0.36111111       0.00000000 </v>
   <v>       0.50000000       0.36111111       0.00000000 </v>
   <v>       0.00000000       0.38888889       0.00000000 </v>
   <v>       0.04166667       0.38888889       0.00000000 </v>
   <v>       0.08333333       0.38888889       0.00000000 </v>
   <v>       0.12500000       0.38888889       0.00000000 </v>
   <v>       0.16666667       0.38888889       0.00000000 </v>
   <v>       0.20833333       0.38888889       0.00000000 </v>
   <v>       0.25000000       0.38888889       0.00000000 </v>
   <v>       0.29166667       0.38888889       0.00000000 </v>
   <v>       0.33333333       0.38888889       0.00000000 </v>
   <v>       0.37500000       0.38888889       0.00000000 </v>
   <v>       0.41666667       0.38888889       0.00000000 </v>
   <v>       0.45833333       0.38888889       0.00000000 </v>
   <v>       0.50000000       0.38888889       0.00000000 </v>
   <v>       0.00000000       0.41666667       0.00000000 </v>
   <v>       0.04166667       0.41666667       0.00000000 </v>
   <v>       0.08333333       0.41666667       0.00000000 </v>
   <v>       0.12500000       0.41666667       0.00000000 </v>
   <v>       0.16666667       0.41666667       0.00000000 </v>
   <v>       0.20833333       0.41666667       0.00000000 </v>
   <v>       0.25000000       0.41666667       0.00000000 </v>
   <v>       0.29166667       0.41666667       0.00000000 </v>
   <v>       0.33333333       0.41666667       0.00000000 </v>
   <v>       0.37500000       0.41666667       0.00000000 </v>
   <v>       0.41666667       0.41666667       0.00000000 </v>
   <v>       0.45833333       0.41666667       0.00000000 </v>
   <v>       0.50000000       0.41666667       0.00000000 </v>
   <v>       0.00000000       0.44444444       0.00000000 </v>
   <v>       0.04166667       0.44444444       0.00000000 </v>
   <v>       0.08333333       0.44444444       0.00000000 </v>
   <v>       0.12500000       0.44444444       0.00000000 </v>
   <v>       0.16666667       0.44444444       0.00000000 </v>
   <v>       0.20833333       0.44444444       0.00000000 </v>
   <v>       0.25000000       0.44444444       0.00000000 </v>
   <v>       0.29166667       0.44444444       0.00000000 </v>
   <v>       0.33333333       0.44444444       0.00000000 </v>
   <v>       0.37500000       0.44444444       0.00000000 </v>
   <v>       0.41666667       0.44444444       0.00000000 </v>
   <v>       0.45833333       0.44444444       0.00000000 </v>
   <v>       0.50000000       0.44444444       0.00000000 </v>
   <v>       0.00000000       0.47222222       0.00000000 </v>
   <v>       0.04166667       0.47222222       0.00000000 </v>
   <v>       0.08333333       0.47222222       0.00000000 </v>
   <v>       0.12500000       0.47222222       0.00000000 </v>
   <v>       0.16666667       0.47222222       0.00000000 </v>
   <v>       0.20833333       0.47222222       0.00000000 </v>
   <v>       0.25000000       0.47222222       0.00000000 </v>
   <v>       0.29166667       0.47222222       0.00000000 </v>
   <v>       0.33333333       0.47222222       0.00000000 </v>
   <v>       0.37500000       0.47222222       0.00000000 </v>
   <v>       0.41666667       0.47222222       0.00000000 </v>
   <v>       0.45833333       0.47222222       0.00000000 </v>
   <v>       0.50000000       0.47222222       0.00000000 </v>
   <v>       0.00000000       0.50000000       0.00000000 </v>
   <v>       0.04166667       0.50000000       0.00000000 </v>
   <v>       0.08333333       0.50000000       0.00000000 </v>
   <v>       0.12500000       0.50000000       0.00000000 </v>
   <v>       0.16666667       0.50000000       0.00000000 </v>
   <v>       0.20833333       0.50000000       0.00000000 </v>
   <v>       0.25000000       0.50000000       0.00000000 </v>
   <v>       0.29166667       0.50000000       0.00000000 </v>
   <v>       0.33333333       0.50000000       0.00000000 </v>
   <v>       0.37500000       0.50000000       0.00000000 </v>
   <v>       0.41666667       0.50000000       0.00000000 </v>
   <v>       0.45833333       0.50000000       0.00000000 </v>
   <v>       0.50000000       0.50000000       0.00000000 </v>
  </varray>
  <varray name="weights" >
   <v>       0.00115741 </v>
   <v>       0.00231481 </v>
   <v>       0.00231481 </v>
   <v>       0.00231481 </v>
   <v>       0.00231481 </v>
   <v>       0.00231481 </v>
   <v>       0.00231481 </v>
   <v>       0.00231481 </v>
   <v>       0.00231481 </v>
   <v>       0.00231481 </v>
   <v>       0.00231481 </v>
   <v>       0.00231481 </v>
   <v>       0.00115741 </v>
   <v>       0.00231481 </v>
   <v>       0.00462963 </v>
   <v>       0.00462963 </v>
   <v>       0.00462963 </v>
   <v>       0.00462963 </v>
   <v>       0.00462963 </v>
   <v>       0.00462963 </v>
   <v>       0.00462963 </v>
   <v>       0.00462963 </v>
   <v>       0.00462963 </v>
   <v>       0.00462963 </v>
   <v>       0.00462963 </v>
   <v>       0.00231481 </v>
   <v>       0.00231481 </v>
   <v>       0.00462963 </v>
   <v>       0.00462963 </v>
   <v>       0.00462963 </v>
   <v>       0.00462963 </v>
   <v>       0.00462963 </v>
   <v>       0.00462963 </v>
   <v>       0.00462963 </v>
   <v>       0.00462963 </v>
   <v>       0.00462963 </v>
   <v>       0.00462963 </v>
   <v>       0.00462963 </v>
   <v>       0.00231481 </v>
   <v>       0.00231481 </v>
   <v>       0.00462963 </v>
   <v>       0.00462963 </v>
   <v>       0.00462963 </v>
   <v>       0.00462963 </v>
   <v>       0.00462963 </v>
   <v>       0.00462963 </v>
   <v>       0.00462963 </v>
   <v>       0.00462963 </v>
   <v>       0.00462963 </v>
   <v>       0.00462963 </v>
   <v>       0.00462963 </v>
   <v>       0.00231481 </v>
   <v>       0.00231481 </v>
   <v>       0.00462963 </v>
   <v>       0.00462963 </v>
   <v>       0.00462963 </v>
   <v>       0.00462963 </v>
   <v>       0.00462963 </v>
   <v>       0.00462963 </v>
   <v>       0.00462963 </v>
   <v>       0.00462963 </v>
   <v>       0.00462963 </v>
   <v>       0.00462963 </v>
   <v>       0.00462963 </v>
   <v>       0.00231481 </v>
   <v>       0.00231481 </v>
   <v>       0.00462963 </v>
   <v>       0.00462963 </v>
   <v>       0.00462963 </v>
   <v>       0.00462963 </v>
   <v>       0.00462963 </v>
   <v>       0.00462963 </v>
   <v>       0.00462963 </v>
   <v>       0.00462963 </v>
   <v>       0.00462963 </v>
   <v>       0.00462963 </v>
   <v>       0.00462963 </v>
   <v>       0.00231481 </v>
   <v>       0.00231481 </v>
   <v>       0.00462963 </v>
   <v>       0.00462963 </v>
   <v>       0.00462963 </v>
   <v>       0.00462963 </v>
   <v>       0.00462963 </v>
   <v>       0.00462963 </v>
   <v>       0.00462963 </v>
   <v>       0.00462963 </v>
   <v>       0.00462963 </v>
   <v>       0.00462963 </v>
   <v>       0.00462963 </v>
   <v>       0.00231481 </v>
   <v>       0.00231481 </v>
   <v>       0.00462963 </v>
   <v>       0.00462963 </v>
   <v>       0.00462963 </v>
   <v>       0.00462963 </v>
   <v>       0.00462963 </v>
   <v>       0.00462963 </v>
   <v>       0.00462963 </v>
   <v>       0.00462963 </v>
   <v>       0.00462963 </v>
   <v>       0.00462963 </v>
   <v>       0.00462963 </v>
   <v>       0.00231481 </v>
   <v>       0.00231481 </v>
   <v>       0.00462963 </v>
   <v>       0.00462963 </v>
   <v>       0.00462963 </v>
   <v>       0.00462963 </v>
   <v>       0.00462963 </v>
   <v>       0.00462963 </v>
   <v>       0.00462963 </v>
   <v>       0.00462963 </v>
   <v>       0.00462963 </v>
   <v>       0.00462963 </v>
   <v>       0.00462963 </v>
   <v>       0.00231481 </v>
   <v>       0.00231481 </v>
   <v>       0.00462963 </v>
   <v>       0.00462963 </v>
   <v>       0.00462963 </v>
   <v>       0.00462963 </v>
   <v>       0.00462963 </v>
   <v>       0.00462963 </v>
   <v>       0.00462963 </v>
   <v>       0.00462963 </v>
   <v>       0.00462963 </v>
   <v>       0.00462963 </v>
   <v>       0.00462963 </v>
   <v>       0.00231481 </v>
   <v>       0.00231481 </v>
   <v>       0.00462963 </v>
   <v>       0.00462963 </v>
   <v>       0.00462963 </v>
   <v>       0.00462963 </v>
   <v>       0.00462963 </v>
   <v>       0.00462963 </v>
   <v>       0.00462963 </v>
   <v>       0.00462963 </v>
   <v>       0.00462963 </v>
   <v>       0.00462963 </v>
   <v>       0.00462963 </v>
   <v>       0.00231481 </v>
   <v>       0.00231481 </v>
   <v>       0.00462963 </v>
   <v>       0.00462963 </v>
   <v>       0.00462963 </v>
   <v>       0.00462963 </v>
   <v>       0.00462963 </v>
   <v>       0.00462963 </v>
   <v>       0.00462963 </v>
   <v>       0.00462963 </v>
   <v>       0.00462963 </v>
   <v>       0.00462963 </v>
   <v>       0.00462963 </v>
   <v>       0.00231481 </v>
   <v>       0.00231481 </v>
   <v>       0.00462963 </v>
   <v>       0.00462963 </v>
   <v>       0.00462963 </v>
   <v>       0.00462963 </v>
   <v>       0.00462963 </v>
   <v>       0.00462963 </v>
   <v>       0.00462963 </v>
   <v>       0.00462963 </v>
   <v>       0.00462963 </v>
   <v>       0.00462963 </v>
   <v>       0.00462963 </v>
   <v>       0.00231481 </v>
   <v>       0.00231481 </v>
   <v>       0.00462963 </v>
   <v>       0.00462963 </v>
   <v>       0.00462963 </v>
   <v>       0.00462963 </v>
   <v>       0.00462963 </v>
   <v>       0.00462963 </v>
   <v>       0.00462963 </v>
   <v>       0.00462963 </v>
   <v>       0.00462963 </v>
   <v>       0.00462963 </v>
   <v>       0.00462963 </v>
   <v>       0.00231481 </v>
   <v>       0.00231481 </v>
   <v>       0.00462963 </v>
   <v>       0.00462963 </v>
   <v>       0.00462963 </v>
   <v>       0.00462963 </v>
   <v>       0.00462963 </v>
   <v>       0.00462963 </v>
   <v>       0.00462963 </v>
   <v>       0.00462963 </v>
   <v>       0.00462963 </v>
   <v>       0.00462963 </v>
   <v>       0.00462963 </v>
   <v>       0.00231481 </v>
   <v>       0.00231481 </v>
   <v>       0.00462963 </v>
   <v>       0.00462963 </v>
   <v>       0.00462963 </v>
   <v>       0.00462963 </v>
   <v>       0.00462963 </v>
   <v>       0.00462963 </v>
   <v>       0.00462963 </v>
   <v>       0.00462963 </v>
   <v>       0.00462963 </v>
   <v>       0.00462963 </v>
   <v>       0.00462963 </v>
   <v>       0.00231481 </v>
   <v>       0.00231481 </v>
   <v>       0.00462963 </v>
   <v>       0.00462963 </v>
   <v>       0.00462963 </v>
   <v>       0.00462963 </v>
   <v>       0.00462963 </v>
   <v>       0.00462963 </v>
   <v>       0.00462963 </v>
   <v>       0.00462963 </v>
   <v>       0.00462963 </v>
   <v>       0.00462963 </v>
   <v>       0.00462963 </v>
   <v>       0.00231481 </v>
   <v>       0.00231481 </v>
   <v>       0.00462963 </v>
   <v>       0.00462963 </v>
   <v>       0.00462963 </v>
   <v>       0.00462963 </v>
   <v>       0.00462963 </v>
   <v>       0.00462963 </v>
   <v>       0.00462963 </v>
   <v>       0.00462963 </v>
   <v>       0.00462963 </v>
   <v>       0.00462963 </v>
   <v>       0.00462963 </v>
   <v>       0.00231481 </v>
   <v>       0.00115741 </v>
   <v>       0.00231481 </v>
   <v>       0.00231481 </v>
   <v>       0.00231481 </v>
   <v>       0.00231481 </v>
   <v>       0.00231481 </v>
   <v>       0.00231481 </v>
   <v>       0.00231481 </v>
   <v>       0.00231481 </v>
   <v>       0.00231481 </v>
   <v>       0.00231481 </v>
   <v>       0.00231481 </v>
   <v>       0.00115741 </v>
  </varray>
 </kpoints>
 <parameters>
  <separator name="general" >
   <i type="string" name="SYSTEM">gr</i>
   <i type="logical" name="LCOMPAT"> F  </i>
  </separator>
  <separator name="electronic" >
   <i type="string" name="PREC">accura</i>
   <i name="ENMAX">   2000.00000000</i>
   <i name="ENAUG">    644.87300000</i>
   <i name="EDIFF">      0.00000000</i>
   <i type="int" name="IALGO">    68</i>
   <i type="int" name="IWAVPR">    11</i>
   <i type="int" name="NBANDS">    12</i>
   <i name="NELECT">     16.00000000</i>
   <i type="int" name="TURBO">     0</i>
   <i type="int" name="IRESTART">     0</i>
   <i type="int" name="NREBOOT">     0</i>
   <i type="int" name="NMIN">     0</i>
   <i name="EREF">      0.00000000</i>
   <separator name="electronic smearing" >
    <i type="int" name="ISMEAR">     0</i>
    <i name="SIGMA">      0.05000000</i>
    <i name="KSPACING">      0.50000000</i>
    <i type="logical" name="KGAMMA"> T  </i>
   </separator>
   <separator name="electronic projectors" >
    <i type="logical" name="LREAL"> F  </i>
    <v name="ROPT">      0.00000000</v>
    <i type="int" name="LMAXPAW">  -100</i>
    <i type="int" name="LMAXMIX">     2</i>
    <i type="logical" name="NLSPLINE"> F  </i>
   </separator>
   <separator name="electronic startup" >
    <i type="int" name="ISTART">     0</i>
    <i type="int" name="ICHARG">     2</i>
    <i type="int" name="INIWAV">     1</i>
   </separator>
   <separator name="electronic spin" >
    <i type="int" name="ISPIN">     1</i>
    <i type="logical" name="LNONCOLLINEAR"> F  </i>
    <v name="MAGMOM">      1.00000000      1.00000000      1.00000000      1.00000000</v>
    <i name="NUPDOWN">     -1.00000000</i>
    <i type="logical" name="LSORBIT"> F  </i>
    <v name="SAXIS">      0.00000000      0.00000000      1.00000000</v>
    <i type="logical" name="LSPIRAL"> F  </i>
    <v name="QSPIRAL">      0.00000000      0.00000000      0.00000000</v>
    <i type="logical" name="LZEROZ"> F  </i>
   </separator>
   <separator name="electronic exchange-correlation" >
    <i type="logical" name="LASPH"> F  </i>
    <i type="logical" name="LMETAGGA"> F  </i>
   </separator>
   <separator name="electronic convergence" >
    <i type="int" name="NELM">   100</i>
    <i type="int" name="NELMDL">    -3</i>
    <i type="int" name="NELMIN">     5</i>
    <i name="ENINI">   2000.00000000</i>
    <separator name="electronic convergence detail" >
     <i type="logical" name="LDIAG"> T  </i>
     <i type="logical" name="LSUBROT"> F  </i>
     <i name="WEIMIN">      0.00100000</i>
     <i name="EBREAK">      0.00000000</i>
     <i name="DEPER">      0.30000000</i>
     <i type="int" name="NRMM">     4</i>
     <i name="TIME">      0.40000000</i>
    </separator>
   </separator>
   <separator name="electronic mixer" >
    <i name="AMIX">      0.40000000</i>
    <i name="BMIX">      1.00000000</i>
    <i name="AMIN">      0.10000000</i>
    <i name="AMIX_MAG">      1.60000000</i>
    <i name="BMIX_MAG">      1.00000000</i>
    <separator name="electronic mixer details" >
     <i type="int" name="IMIX">     4</i>
     <i type="int" name="MAXMIX">   -45</i>
     <i name="WC">    100.00000000</i>
     <i type="int" name="INIMIX">     1</i>
     <i type="int" name="MIXPRE">     1</i>
     <i type="int" name="MREMOVE">     5</i>
    </separator>
   </separator>
   <separator name="electronic dipolcorrection" >
    <i type="logical" name="LDIPOL"> F  </i>
    <i type="logical" name="LMONO"> F  </i>
    <i type="int" name="IDIPOL">     0</i>
    <i name="EPSILON">      1.00000000</i>
    <v name="DIPOL">   -100.00000000   -100.00000000   -100.00000000</v>
    <i name="EFIELD">      0.00000000</i>
   </separator>
  </separator>
  <separator name="grids" >
   <i type="int" name="NGX">    64</i>
   <i type="int" name="NGY">    36</i>
   <i type="int" name="NGZ">   288</i>
   <i type="int" name="NGXF">   128</i>
   <i type="int" name="NGYF">    72</i>
   <i type="int" name="NGZF">   576</i>
   <i type="logical" name="ADDGRID"> F  </i>
  </separator>
  <separator name="ionic" >
   <i type="int" name="NSW">   400</i>
   <i type="int" name="IBRION">     1</i>
   <i type="int" name="ISIF">     2</i>
   <i name="PSTRESS">      0.00000000</i>
   <i name="EDIFFG">     -0.00000100</i>
   <i type="int" name="NFREE">     0</i>
   <i name="POTIM">      0.50000000</i>
   <i name="SMASS">     -3.00000000</i>
   <i name="SCALEE">      1.00000000</i>
  </separator>
  <separator name="ionic md" >
   <i name="TEBEG">      0.00010000</i>
   <i name="TEEND">      0.00010000</i>
   <i type="int" name="NBLOCK">     1</i>
   <i type="int" name="KBLOCK">   400</i>
   <i type="int" name="NPACO">   256</i>
   <i name="APACO">     16.00000000</i>
  </separator>
  <separator name="symmetry" >
   <i type="int" name="ISYM">     2</i>
   <i name="SYMPREC">      0.00001000</i>
  </separator>
  <separator name="dos" >
   <i type="logical" name="LORBIT"> F  </i>
   <v name="RWIGS">     -1.00000000</v>
   <i type="int" name="NEDOS">   301</i>
   <i name="EMIN">     10.00000000</i>
   <i name="EMAX">    -10.00000000</i>
   <i name="EFERMI">      0.00000000</i>
  </separator>
  <separator name="writing" >
   <i type="int" name="NWRITE">     2</i>
   <i type="logical" name="LWAVE"> F  </i>
   <i type="logical" name="LCHARG"> F  </i>
   <i type="logical" name="LPARD"> F  </i>
   <i type="logical" name="LVTOT"> F  </i>
   <i type="logical" name="LVHAR"> F  </i>
   <i type="logical" name="LELF"> F  </i>
   <i type="logical" name="LOPTICS"> F  </i>
   <v name="STM">      0.00000000      0.00000000      0.00000000      0.00000000      0.00000000      0.00000000      0.00000000</v>
  </separator>
  <separator name="performance" >
   <i type="int" name="NPAR">     4</i>
   <i type="int" name="NSIM">     4</i>
   <i type="int" name="NBLK">    -1</i>
   <i type="logical" name="LPLANE"> T  </i>
   <i type="logical" name="LSCALAPACK"> F  </i>
   <i type="logical" name="LSCAAWARE"> F  </i>
   <i type="logical" name="LSCALU"> F  </i>
   <i type="logical" name="LASYNC"> F  </i>
   <i type="logical" name="LORBITALREAL"> F  </i>
  </separator>
  <separator name="miscellaneous" >
   <i type="int" name="IDIOT">     3</i>
   <i type="logical" name="LMUSIC"> F  </i>
   <v name="POMASS">     12.01100000</v>
   <v name="DARWINR">      0.00000000</v>
   <v name="DARWINV">      1.00000000</v>
   <i type="logical" name="LCORR"> T  </i>
  </separator>
  <i type="logical" name="GGA_COMPAT"> T  </i>
  <i type="logical" name="LBERRY"> F  </i>
  <i type="int" name="ICORELEVEL">     0</i>
  <i type="logical" name="LDAU"> F  </i>
  <i type="int" name="I_CONSTRAINED_M">     0</i>
  <separator name="electronic exchange-correlation" >
   <i type="string" name="GGA">--</i>
   <i type="int" name="VOSKOWN">     0</i>
   <i type="logical" name="LHFCALC"> F  </i>
   <i type="string" name="PRECFOCK"></i>
   <i type="logical" name="LSYMGRAD"> F  </i>
   <i type="logical" name="LHFONE"> F  </i>
   <i type="logical" name="LRHFCALC"> F  </i>
   <i type="logical" name="LTHOMAS"> F  </i>
   <i type="logical" name="LMODELHF"> F  </i>
   <i name="ENCUT4O">     -1.00000000</i>
   <i type="int" name="EXXOEP">     0</i>
   <i type="int" name="FOURORBIT">     0</i>
   <i name="AEXX">      0.00000000</i>
   <i name="HFALPHA">      0.00000000</i>
   <i name="MCALPHA">      0.00000000</i>
   <i name="ALDAX">      1.00000000</i>
   <i name="AGGAX">      1.00000000</i>
   <i name="ALDAC">      1.00000000</i>
   <i name="AGGAC">      1.00000000</i>
   <i type="int" name="NKREDX">     1</i>
   <i type="int" name="NKREDY">     1</i>
   <i type="int" name="NKREDZ">     1</i>
   <i type="logical" name="SHIFTRED"> F  </i>
   <i type="logical" name="ODDONLY"> F  </i>
   <i type="logical" name="EVENONLY"> F  </i>
   <i type="int" name="LMAXFOCK">     0</i>
   <i type="int" name="NMAXFOCKAE">     0</i>
   <i type="logical" name="LFOCKAEDFT"> F  </i>
   <i name="HFSCREEN">      0.00000000</i>
   <i name="HFSCREENC">      0.00000000</i>
   <i type="int" name="NBANDSGWLOW">     0</i>
  </separator>
  <separator name="vdW DFT" >
   <i type="logical" name="LUSE_VDW"> F  </i>
   <i name="Zab_VDW">     -0.84910000</i>
   <i name="PARAM1">      0.12340000</i>
   <i name="PARAM2">      1.00000000</i>
   <i name="PARAM3">      0.00000000</i>
  </separator>
  <separator name="model GW" >
   <i type="int" name="MODEL_GW">     0</i>
   <i name="MODEL_EPS0">     31.62568521</i>
   <i name="MODEL_ALPHA">      1.00000000</i>
  </separator>
  <separator name="linear response parameters" >
   <i type="logical" name="LEPSILON"> F  </i>
   <i type="logical" name="LRPA"> F  </i>
   <i type="logical" name="LNABLA"> F  </i>
   <i type="logical" name="LVEL"> F  </i>
   <i type="int" name="KINTER">     0</i>
   <i name="CSHIFT">      0.10000000</i>
   <i name="OMEGAMAX">     -1.00000000</i>
   <i name="DEG_THRESHOLD">      0.00200000</i>
  </separator>
  <separator name="orbital magnetization" >
   <i type="logical" name="NUCIND"> F  </i>
   <v name="MAGPOS">      0.00000000      0.00000000      0.00000000</v>
   <i type="logical" name="LNICSALL"> T  </i>
   <i type="logical" name="ORBITALMAG"> F  </i>
   <i type="logical" name="LMAGBLOCH"> F  </i>
   <i type="logical" name="LCHIMAG"> F  </i>
   <i type="logical" name="LGAUGE"> T  </i>
   <i type="int" name="MAGATOM">     0</i>
   <v name="MAGDIPOL">      0.00000000      0.00000000      0.00000000</v>
   <v name="AVECCONST">      0.00000000      0.00000000      0.00000000</v>
  </separator>
  <separator name="response functions" >
   <i type="logical" name="LADDER"> F  </i>
   <i type="logical" name="LFXC"> F  </i>
   <i type="logical" name="LHARTREE"> T  </i>
   <i type="int" name="IBSE">     0</i>
   <i type="logical" name="LTCTE"> F  </i>
   <i type="logical" name="LTETE"> F  </i>
   <i type="logical" name="LTRIPLET"> F  </i>
   <i type="logical" name="LFXCEPS"> F  </i>
   <i type="logical" name="LFXHEG"> F  </i>
   <i type="logical" name="L2ORDER"> F  </i>
   <i type="logical" name="LUSEW"> F  </i>
   <i name="ENCUTGW">     -2.00000000</i>
   <i name="ENCUTGWSOFT">     -2.00000000</i>
   <i name="ENCUTLF">     -1.00000000</i>
   <i type="int" name="LMAXMP2">    -1</i>
   <i name="SCISSOR">      0.00000000</i>
   <i type="int" name="NOMEGA">     0</i>
   <i type="int" name="NOMEGAR">     0</i>
   <i type="int" name="NBANDSGW">    -1</i>
   <i type="int" name="NBANDSO">    -1</i>
   <i type="int" name="NBANDSV">    -1</i>
   <i type="int" name="NELM">   100</i>
   <i type="int" name="DIM">     3</i>
   <i type="int" name="ANTIRES">     0</i>
   <i name="OMEGAMAX">    -30.00000000</i>
   <i name="OMEGAMIN">    -30.00000000</i>
   <i name="OMEGATL">   -200.00000000</i>
   <i type="int" name="OMEGAGRID">     0</i>
   <i name="CSHIFT">     -0.10000000</i>
   <i type="logical" name="SELFENERGY"> F  </i>
   <i type="logical" name="LSPECTRAL"> F  </i>
   <i type="logical" name="ODDONLYGW"> F  </i>
   <i type="logical" name="EVENONLYGW"> F  </i>
   <i type="int" name="NKREDLFX">     1</i>
   <i type="int" name="NKREDLFY">     1</i>
   <i type="int" name="NKREDLFZ">     1</i>
   <i type="int" name="MAXMEM">  1800</i>
   <i type="int" name="TELESCOPE">     0</i>
   <i type="int" name="TAUPAR">     1</i>
  </separator>
  <separator name="External order field" >
   <i name="OFIELD_KAPPA">      0.00000000</i>
   <v name="OFIELD_K">      0.00000000      0.00000000      0.00000000</v>
   <i name="OFIELD_Q6_NEAR">      0.00000000</i>
   <i name="OFIELD_Q6_FAR">      0.00000000</i>
   <i name="OFIELD_A">      0.00000000</i>
  </separator>
 </parameters>
 <atominfo>
  <atoms>       4 </atoms>
  <types>       1 </types>
  <array name="atoms" >
   <dimension dim="1">ion</dimension>
   <field type="string">element</field>
   <field type="int">atomtype</field>
   <set>
    <rc><c>C </c><c>   1</c></rc>
    <rc><c>C </c><c>   1</c></rc>
    <rc><c>C </c><c>   1</c></rc>
    <rc><c>C </c><c>   1</c></rc>
   </set>
  </array>
  <array name="atomtypes" >
   <dimension dim="1">type</dimension>
   <field type="int">atomspertype</field>
   <field type="string">element</field>
   <field>mass</field>
   <field>valence</field>
   <field type="string">pseudopotential</field>
   <set>
    <rc><c>   4</c><c>C </c><c>     12.01100000</c><c>      4.00000000</c><c> PAW_PBE C 08Apr2002                    </c></rc>
   </set>
  </array>
 </atominfo>
 <structure name="initialpos" >
  <crystal>
   <varray name="basis" >
    <v>       4.35958329       0.00000000       0.00000000 </v>
    <v>       0.00000000       2.45890152       0.00000000 </v>
    <v>       0.00000000       0.00000000      19.66810733 </v>
   </varray>
   <i name="volume">    210.83790140 </i>
   <varray name="rec_basis" >
    <v>       0.22937972       0.00000000       0.00000000 </v>
    <v>       0.00000000       0.40668566       0.00000000 </v>
    <v>       0.00000000       0.00000000       0.05084373 </v>
   </varray>
  </crystal>
  <varray name="positions" >
   <v>       0.99954297       0.00000000       0.00000000 </v>
   <v>       0.16712369       0.50000000       0.00000000 </v>
   <v>       0.49954297       0.50000000       0.00000000 </v>
   <v>       0.66712369       0.00000000       0.00000000 </v>
  </varray>
 </structure>
 <calculation>
  <scstep>
   <time name="dav">  290.77  292.98</time>
   <time name="total">  293.26  295.53</time>
   <energy>
    <i name="alphaZ">      6.18334092 </i>
    <i name="ewald">   2475.29378468 </i>
    <i name="hartreedc">  -2904.01356020 </i>
    <i name="XCdc">     54.87052641 </i>
    <i name="pawpsdc">    151.32577238 </i>
    <i name="pawaedc">   -155.92769107 </i>
    <i name="eentropy">     -0.00212635 </i>
    <i name="bandstr">    -29.37925196 </i>
    <i name="atom">    588.62352690 </i>
    <i name="e_fr_energy">    186.97432172 </i>
    <i name="e_wo_entrp">    186.97644807 </i>
    <i name="e_0_energy">    186.97538489 </i>
   </energy>
  </scstep>
  <scstep>
   <time name="dav">  433.24  436.51</time>
   <time name="total">  433.24  436.52</time>
   <energy>
    <i name="e_fr_energy">     -8.98826256 </i>
    <i name="e_wo_entrp">     -8.98747563 </i>
    <i name="e_0_energy">     -8.98786909 </i>
   </energy>
  </scstep>
  <scstep>
   <time name="dav">  337.91  339.79</time>
   <time name="total">  366.48  368.74</time>
   <energy>
    <i name="e_fr_energy">    -38.14669932 </i>
    <i name="e_wo_entrp">    -38.14669909 </i>
    <i name="e_0_energy">    -38.14669920 </i>
   </energy>
  </scstep>
  <scstep>
   <time name="diag">   78.62   78.74</time>
   <time name="diis">  322.04  324.54</time>
   <time name="orth">    3.08    3.10</time>
   <time name="total">  434.63  439.53</time>
   <energy>
    <i name="e_fr_energy">    -37.60651341 </i>
    <i name="e_wo_entrp">    -37.60651320 </i>
    <i name="e_0_energy">    -37.60651330 </i>
   </energy>
  </scstep>
  <scstep>
   <time name="diag">   78.04   78.61</time>
   <time name="diis">  320.10  320.90</time>
   <time name="orth">    3.08    3.08</time>
   <time name="total">  432.83  437.35</time>
   <energy>
    <i name="e_fr_energy">    -36.89016926 </i>
    <i name="e_wo_entrp">    -36.89016878 </i>
    <i name="e_0_energy">    -36.89016902 </i>
   </energy>
  </scstep>
  <scstep>
   <time name="diag">   78.07   78.66</time>
   <time name="diis">  343.08  345.99</time>
   <time name="orth">    3.08    3.10</time>
   <time name="total">  455.65  459.52</time>
   <energy>
    <i name="e_fr_energy">    -36.89248219 </i>
    <i name="e_wo_entrp">    -36.89248176 </i>
    <i name="e_0_energy">    -36.89248198 </i>
   </energy>
  </scstep>
  <scstep>
   <time name="diag">   77.79   78.63</time>
   <time name="diis">  322.99  324.58</time>
   <time name="orth">    3.10    3.11</time>
   <time name="total">  435.34  437.86</time>
   <energy>
    <i name="e_fr_energy">    -36.88341917 </i>
    <i name="e_wo_entrp">    -36.88341884 </i>
    <i name="e_0_energy">    -36.88341900 </i>
   </energy>
  </scstep>
  <scstep>
   <time name="diag">   78.09   78.62</time>
   <time name="diis">  329.28  331.06</time>
   <time name="orth">    3.08    3.10</time>
   <time name="total">  442.00  446.07</time>
   <energy>
    <i name="e_fr_energy">    -36.87861801 </i>
    <i name="e_wo_entrp">    -36.87861766 </i>
    <i name="e_0_energy">    -36.87861783 </i>
   </energy>
  </scstep>
  <scstep>
   <time name="diag">   77.97   78.55</time>
   <time name="diis">  314.17  317.10</time>
   <time name="orth">    3.08    3.10</time>
   <time name="total">  426.79  431.33</time>
   <energy>
    <i name="e_fr_energy">    -36.87831065 </i>
    <i name="e_wo_entrp">    -36.87831025 </i>
    <i name="e_0_energy">    -36.87831045 </i>
   </energy>
  </scstep>
  <scstep>
   <time name="diag">   77.77   78.50</time>
   <time name="diis">  317.12  317.73</time>
   <time name="orth">    3.13    3.14</time>
   <time name="total">  428.44  433.36</time>
   <energy>
    <i name="e_fr_energy">    -36.87823391 </i>
    <i name="e_wo_entrp">    -36.87823354 </i>
    <i name="e_0_energy">    -36.87823373 </i>
   </energy>
  </scstep>
  <scstep>
   <time name="diag">   77.81   78.57</time>
   <time name="diis">  317.87  321.25</time>
   <time name="orth">    3.07    3.09</time>
   <time name="total">  430.5218952.33</time>
   <energy>
    <i name="e_fr_energy">    -36.88058901 </i>
    <i name="e_wo_entrp">    -36.88058864 </i>
    <i name="e_0_energy">    -36.88058883 </i>
   </energy>
  </scstep>
  <scstep>
   <time name="diag">   77.75   78.54</time>
   <time name="diis">  317.09  320.53</time>
   <time name="orth">    3.07    3.09</time>
   <time name="total">  429.62  434.33</time>
   <energy>
    <i name="e_fr_energy">    -36.88107061 </i>
    <i name="e_wo_entrp">    -36.88107023 </i>
    <i name="e_0_energy">    -36.88107042 </i>
   </energy>
  </scstep>
  <scstep>
   <time name="diag">   78.49   78.51</time>
   <time name="diis">  328.14  328.20</time>
   <time name="orth">    3.08    3.08</time>
   <time name="total">  441.77  441.98</time>
   <energy>
    <i name="e_fr_energy">    -36.88132588 </i>
    <i name="e_wo_entrp">    -36.88132550 </i>
    <i name="e_0_energy">    -36.88132569 </i>
   </energy>
  </scstep>
  <scstep>
   <time name="diag">   78.45   78.49</time>
   <time name="diis">  322.85  323.12</time>
   <time name="orth">    3.10    3.10</time>
   <time name="total">  436.78  437.57</time>
   <energy>
    <i name="e_fr_energy">    -36.88140801 </i>
    <i name="e_wo_entrp">    -36.88140763 </i>
    <i name="e_0_energy">    -36.88140782 </i>
   </energy>
  </scstep>
  <scstep>
   <time name="diag">   78.45   78.49</time>
   <time name="diis">  319.36  319.61</time>
   <time name="orth">    3.10    3.10</time>
   <time name="total">  433.15  434.35</time>
   <energy>
    <i name="e_fr_energy">    -36.88141991 </i>
    <i name="e_wo_entrp">    -36.88141953 </i>
    <i name="e_0_energy">    -36.88141972 </i>
   </energy>
  </scstep>
  <scstep>
   <time name="diag">   78.45   78.47</time>
   <time name="diis">  318.73  318.80</time>
   <time name="orth">    3.10    3.10</time>
   <time name="total">  432.55  435.16</time>
   <energy>
    <i name="e_fr_energy">    -36.88143247 </i>
    <i name="e_wo_entrp">    -36.88143209 </i>
    <i name="e_0_energy">    -36.88143228 </i>
   </energy>
  </scstep>
  <scstep>
   <time name="diag">   78.45   78.47</time>
   <time name="diis">  321.31  321.38</time>
   <time name="orth">    3.09    3.09</time>
   <time name="total">  435.15  435.41</time>
   <energy>
    <i name="e_fr_energy">    -36.88143816 </i>
    <i name="e_wo_entrp">    -36.88143778 </i>
    <i name="e_0_energy">    -36.88143797 </i>
   </energy>
  </scstep>
  <scstep>
   <time name="diag">   78.46   78.48</time>
   <time name="diis">  321.10  321.17</time>
   <time name="orth">    3.10    3.10</time>
   <time name="total">  434.70  435.34</time>
   <energy>
    <i name="e_fr_energy">    -36.88143924 </i>
    <i name="e_wo_entrp">    -36.88143887 </i>
    <i name="e_0_energy">    -36.88143905 </i>
   </energy>
  </scstep>
  <scstep>
   <time name="diag">   78.49   78.50</time>
   <time name="diis">  327.70  327.78</time>
   <time name="orth">    3.08    3.08</time>
   <time name="total">  441.10  441.24</time>
   <energy>
    <i name="e_fr_energy">    -36.88144001 </i>
    <i name="e_wo_entrp">    -36.88143963 </i>
    <i name="e_0_energy">    -36.88143982 </i>
   </energy>
  </scstep>
  <scstep>
   <time name="diag">   78.44   78.45</time>
   <time name="diis">  255.38  255.43</time>
   <time name="orth">    3.09    3.09</time>
   <time name="total">  369.16  369.43</time>
   <energy>
    <i name="e_fr_energy">    -36.88144005 </i>
    <i name="e_wo_entrp">    -36.88143967 </i>
    <i name="e_0_energy">    -36.88143986 </i>
   </energy>
  </scstep>
  <scstep>
   <time name="diag">   78.32   78.44</time>
   <time name="diis">  244.68  244.72</time>
   <time name="orth">    3.10    3.10</time>
   <time name="total">  358.18  359.07</time>
   <energy>
    <i name="e_fr_energy">    -36.88144006 </i>
    <i name="e_wo_entrp">    -36.88143969 </i>
    <i name="e_0_energy">    -36.88143988 </i>
   </energy>
  </scstep>
  <scstep>
   <time name="diag">   78.51   78.52</time>
   <time name="diis">  221.38  221.41</time>
   <time name="orth">    3.09    3.09</time>
   <time name="total">  334.98  335.13</time>
   <energy>
    <i name="e_fr_energy">    -36.88144006 </i>
    <i name="e_wo_entrp">    -36.88143969 </i>
    <i name="e_0_energy">    -36.88143988 </i>
   </energy>
  </scstep>
  <scstep>
   <time name="diag">   78.14   78.54</time>
   <time name="diis">  210.02  211.88</time>
   <time name="orth">    3.07    3.10</time>
   <time name="total">  323.38  326.20</time>
   <energy>
    <i name="e_fr_energy">    -36.88144006 </i>
    <i name="e_wo_entrp">    -36.88143969 </i>
    <i name="e_0_energy">    -36.88143988 </i>
   </energy>
  </scstep>
  <scstep>
   <time name="diag">   78.32   78.55</time>
   <time name="diis">  197.66  198.04</time>
   <time name="orth">    3.11    3.13</time>
   <time name="total">  311.04  311.75</time>
   <energy>
    <i name="e_fr_energy">    -36.88144006 </i>
    <i name="e_wo_entrp">    -36.88143969 </i>
    <i name="e_0_energy">    -36.88143988 </i>
   </energy>
  </scstep>
  <scstep>
   <time name="diag">   78.41   78.56</time>
   <time name="diis">  187.76  189.65</time>
   <time name="orth">    3.07    3.07</time>
   <time name="total">  301.44  304.17</time>
   <energy>
    <i name="e_fr_energy">    -36.88144006 </i>
    <i name="e_wo_entrp">    -36.88143969 </i>
    <i name="e_0_energy">    -36.88143988 </i>
   </energy>
  </scstep>
  <scstep>
   <time name="diag">   78.53   78.55</time>
   <time name="diis">  182.89  182.95</time>
   <time name="orth">    3.13    3.14</time>
   <time name="total">  296.79  296.92</time>
   <energy>
    <i name="e_fr_energy">    -36.88144006 </i>
    <i name="e_wo_entrp">    -36.88143969 </i>
    <i name="e_0_energy">    -36.88143988 </i>
   </energy>
  </scstep>
  <scstep>
   <time name="diag">   78.37   78.59</time>
   <time name="diis">  177.20  178.10</time>
   <time name="orth">    3.07    3.07</time>
   <time name="total">  261.07  263.92</time>
   <energy>
    <i name="alphaZ">      6.18334092 </i>
    <i name="ewald">   2475.29378468 </i>
    <i name="hartreedc">  -2969.51549870 </i>
    <i name="XCdc">     57.21422428 </i>
    <i name="pawpsdc">    270.37107028 </i>
    <i name="pawaedc">   -275.48953779 </i>
    <i name="eentropy">     -0.00000037 </i>
    <i name="bandstr">   -189.56235026 </i>
    <i name="atom">    588.62352690 </i>
    <i name="e_fr_energy">    -36.88144006 </i>
    <i name="e_wo_entrp">    -36.88143969 </i>
    <i name="e_0_energy">    -36.88143988 </i>
   </energy>
  </scstep>
  <structure>
   <crystal>
    <varray name="basis" >
     <v>       4.35958329       0.00000000       0.00000000 </v>
     <v>       0.00000000       2.45890152       0.00000000 </v>
     <v>       0.00000000       0.00000000      19.66810733 </v>
    </varray>
    <i name="volume">    210.83790140 </i>
    <varray name="rec_basis" >
     <v>       0.22937972       0.00000000       0.00000000 </v>
     <v>       0.00000000       0.40668566       0.00000000 </v>
     <v>       0.00000000       0.00000000       0.05084373 </v>
    </varray>
   </crystal>
   <varray name="positions" >
    <v>       0.99954297       0.00000000       0.00000000 </v>
    <v>       0.16712369       0.50000000       0.00000000 </v>
    <v>       0.49954297       0.50000000       0.00000000 </v>
    <v>       0.66712369       0.00000000       0.00000000 </v>
   </varray>
  </structure>
  <varray name="forces" >
   <v>      -0.00082296       0.00000000       0.00000000 </v>
   <v>       0.00082296      -0.00000000      -0.00000000 </v>
   <v>      -0.00082296       0.00000000       0.00000000 </v>
   <v>       0.00082296       0.00000000      -0.00000000 </v>
  </varray>
  <varray name="stress" >
   <v>     -33.42659181       0.00000000       0.00000000 </v>
   <v>       0.00000000       0.00656215       0.00000000 </v>
   <v>       0.00000000       0.00000000      -0.01023625 </v>
  </varray>
  <energy>
   <i name="e_fr_energy">    -36.88144006 </i>
   <i name="e_wo_entrp">    -36.88143988 </i>
   <i name="e_0_energy">     -0.00000037 </i>
  </energy>
  <time name="totalsc">10721.7529302.79</time>
 </calculation>
 <calculation>
  <scstep>
   <time name="dav">  303.98  304.89</time>
   <time name="total">  336.47  337.41</time>
   <energy>
    <i name="alphaZ">      6.18334092 </i>
    <i name="ewald">   2475.29309726 </i>
    <i name="hartreedc">  -2969.51519847 </i>
    <i name="XCdc">     57.21420470 </i>
    <i name="pawpsdc">    270.37107061 </i>
    <i name="pawaedc">   -275.48953812 </i>
    <i name="eentropy">     -0.00000040 </i>
    <i name="bandstr">   -189.56194328 </i>
    <i name="atom">    588.62352690 </i>
    <i name="e_fr_energy">    -36.88143988 </i>
    <i name="e_wo_entrp">    -36.88143948 </i>
    <i name="e_0_energy">    -36.88143968 </i>
   </energy>
  </scstep>
  <scstep>
   <time name="diag">   78.16   78.61</time>
   <time name="diis">  318.43  322.02</time>
   <time name="orth">    3.10    3.11</time>
   <time name="total">  431.54  435.89</time>
   <energy>
    <i name="e_fr_energy">    -36.88143989 </i>
    <i name="e_wo_entrp">    -36.88143949 </i>
    <i name="e_0_energy">    -36.88143969 </i>
   </energy>
  </scstep>
  <scstep>
   <time name="diag">   77.97   78.57</time>
   <time name="diis">  321.92  323.81</time>
   <time name="orth">    3.09    3.09</time>
   <time name="total">  435.18  438.77</time>
   <energy>
    <i name="e_fr_energy">    -36.88143987 </i>
    <i name="e_wo_entrp">    -36.88143948 </i>
    <i name="e_0_energy">    -36.88143968 </i>
   </energy>
  </scstep>
  <scstep>
   <time name="diag">   78.21   78.59</time>
   <time name="diis">  327.78  330.04</time>
   <time name="orth">    3.09    3.09</time>
   <time name="total">  440.93  443.85</time>
   <energy>
    <i name="e_fr_energy">    -36.88143987 </i>
    <i name="e_wo_entrp">    -36.88143948 </i>
    <i name="e_0_energy">    -36.88143968 </i>
   </energy>
  </scstep>
  <scstep>
   <time name="diag">   77.88   78.60</time>
   <time name="diis">  231.39  232.60</time>
   <time name="orth">    3.11    3.12</time>
   <time name="total">  344.37  346.70</time>
   <energy>
    <i name="e_fr_energy">    -36.88143987 </i>
    <i name="e_wo_entrp">    -36.88143948 </i>
    <i name="e_0_energy">    -36.88143968 </i>
   </energy>
  </scstep>
  <scstep>
   <time name="diag">   78.45   78.57</time>
   <time name="diis">  217.09  217.45</time>
   <time name="orth">    3.12    3.16</time>
   <time name="total">  301.10  301.65</time>
   <energy>
    <i name="alphaZ">      6.18334092 </i>
    <i name="ewald">   2475.29309726 </i>
    <i name="hartreedc">  -2969.51494920 </i>
    <i name="XCdc">     57.21419375 </i>
    <i name="pawpsdc">    270.36990371 </i>
    <i name="pawaedc">   -275.48836629 </i>
    <i name="eentropy">     -0.00000039 </i>
    <i name="bandstr">   -189.56218653 </i>
    <i name="atom">    588.62352690 </i>
    <i name="e_fr_energy">    -36.88143987 </i>
    <i name="e_wo_entrp">    -36.88143948 </i>
    <i name="e_0_energy">    -36.88143968 </i>
   </energy>
  </scstep>
  <structure>
   <crystal>
    <varray name="basis" >
     <v>       4.35958329       0.00000000       0.00000000 </v>
     <v>       0.00000000       2.45890152       0.00000000 </v>
     <v>       0.00000000       0.00000000      19.66810733 </v>
    </varray>
    <i name="volume">    210.83790140 </i>
    <varray name="rec_basis" >
     <v>       0.22937972       0.00000000       0.00000000 </v>
     <v>       0.00000000       0.40668566       0.00000000 </v>
     <v>       0.00000000       0.00000000       0.05084373 </v>
    </varray>
   </crystal>
   <varray name="positions" >
    <v>       0.99953387       0.00000000       0.00000000 </v>
    <v>       0.16713280       0.50000000      -0.00000000 </v>
    <v>       0.49953387       0.50000000       0.00000000 </v>
    <v>       0.66713280       0.00000000      -0.00000000 </v>
   </varray>
  </structure>
  <varray name="forces" >
   <v>       0.00311565       0.00000000       0.00000000 </v>
   <v>      -0.00311565       0.00000000      -0.00000000 </v>
   <v>       0.00311565       0.00000000       0.00000000 </v>
   <v>      -0.00311565      -0.00000000      -0.00000000 </v>
  </varray>
  <varray name="stress" >
   <v>     -33.41892736       0.00000000       0.00000000 </v>
   <v>       0.00000000      -0.00638459       0.00000000 </v>
   <v>       0.00000000       0.00000000      -0.01029398 </v>
  </varray>
  <energy>
   <i name="e_fr_energy">    -36.88143987 </i>
   <i name="e_wo_entrp">    -36.88143968 </i>
   <i name="e_0_energy">     -0.00000039 </i>
  </energy>
  <time name="totalsc"> 2393.74 2408.75</time>
 </calculation>
 <calculation>
  <scstep>
   <time name="dav">  315.17  317.18</time>
   <time name="total">  347.19  349.54</time>
   <energy>
    <i name="alphaZ">      6.18334092 </i>
    <i name="ewald">   2475.29364086 </i>
    <i name="hartreedc">  -2969.51517688 </i>
    <i name="XCdc">     57.21420899 </i>
    <i name="pawpsdc">    270.36990031 </i>
    <i name="pawaedc">   -275.48836282 </i>
    <i name="eentropy">     -0.00000038 </i>
    <i name="bandstr">   -189.56251797 </i>
    <i name="atom">    588.62352690 </i>
    <i name="e_fr_energy">    -36.88144007 </i>
    <i name="e_wo_entrp">    -36.88143969 </i>
    <i name="e_0_energy">    -36.88143988 </i>
   </energy>
  </scstep>
  <scstep>
   <time name="diag">   77.86   78.60</time>
   <time name="diis">  323.00  324.21</time>
   <time name="orth">    3.09    3.09</time>
   <time name="total">  436.12  438.15</time>
   <energy>
    <i name="e_fr_energy">    -36.88144008 </i>
    <i name="e_wo_entrp">    -36.88143970 </i>
    <i name="e_0_energy">    -36.88143989 </i>
   </energy>
  </scstep>
  <scstep>
   <time name="diag">   78.43   78.58</time>
   <time name="diis">  324.78  325.34</time>
   <time name="orth">    3.09    3.09</time>
   <time name="total">  438.23  439.19</time>
   <energy>
    <i name="e_fr_energy">    -36.88144008 </i>
    <i name="e_wo_entrp">    -36.88143970 </i>
    <i name="e_0_energy">    -36.88143989 </i>
   </energy>
  </scstep>
  <scstep>
   <time name="diag">   78.10   78.63</time>
   <time name="diis">  324.55  327.14</time>
   <time name="orth">    3.08    3.11</time>
   <time name="total">  437.88  443.16</time>
   <energy>
    <i name="e_fr_energy">    -36.88144007 </i>
    <i name="e_wo_entrp">    -36.88143970 </i>
    <i name="e_0_energy">    -36.88143989 </i>
   </energy>
  </scstep>
  <scstep>
   <time name="diag">   77.92   78.70</time>
   <time name="diis">  222.99  225.36</time>
   <time name="orth">    3.09    3.11</time>
   <time name="total">  336.06  339.57</time>
   <energy>
    <i name="e_fr_energy">    -36.88144008 </i>
    <i name="e_wo_entrp">    -36.88143970 </i>
    <i name="e_0_energy">    -36.88143989 </i>
   </energy>
  </scstep>
  <scstep>
   <time name="diag">   77.91   78.64</time>
   <time name="diis">  210.54  212.46</time>
   <time name="orth">    3.08    3.10</time>
   <time name="total">  293.91  296.61</time>
   <energy>
    <i name="alphaZ">      6.18334092 </i>
    <i name="ewald">   2475.29364086 </i>
    <i name="hartreedc">  -2969.51536428 </i>
    <i name="XCdc">     57.21421776 </i>
    <i name="pawpsdc">    270.37082386 </i>
    <i name="pawaedc">   -275.48929044 </i>
    <i name="eentropy">     -0.00000038 </i>
    <i name="bandstr">   -189.56233528 </i>
    <i name="atom">    588.62352690 </i>
    <i name="e_fr_energy">    -36.88144008 </i>
    <i name="e_wo_entrp">    -36.88143970 </i>
    <i name="e_0_energy">    -36.88143989 </i>
   </energy>
  </scstep>
  <structure>
   <crystal>
    <varray name="basis" >
     <v>       4.35958329       0.00000000       0.00000000 </v>
     <v>       0.00000000       2.45890152       0.00000000 </v>
     <v>       0.00000000       0.00000000      19.66810733 </v>
    </varray>
    <i name="volume">    210.83790140 </i>
    <varray name="rec_basis" >
     <v>       0.22937972       0.00000000       0.00000000 </v>
     <v>       0.00000000       0.40668566       0.00000000 </v>
     <v>       0.00000000       0.00000000       0.05084373 </v>
    </varray>
   </crystal>
   <varray name="positions" >
    <v>       0.99954107       0.00000000       0.00000000 </v>
    <v>       0.16712560       0.50000000      -0.00000000 </v>
    <v>       0.49954107       0.50000000       0.00000000 </v>
    <v>       0.66712560      -0.00000000      -0.00000000 </v>
   </varray>
  </structure>
  <varray name="forces" >
   <v>       0.00000549       0.00000000      -0.00000000 </v>
   <v>      -0.00000549      -0.00000000       0.00000000 </v>
   <v>       0.00000549      -0.00000000      -0.00000000 </v>
   <v>      -0.00000549       0.00000000       0.00000000 </v>
  </varray>
  <varray name="stress" >
   <v>     -33.42487616       0.00000000       0.00000000 </v>
   <v>       0.00000000       0.00375673       0.00000000 </v>
   <v>       0.00000000       0.00000000      -0.01021133 </v>
  </varray>
  <energy>
   <i name="e_fr_energy">    -36.88144008 </i>
   <i name="e_wo_entrp">    -36.88143989 </i>
   <i name="e_0_energy">     -0.00000038 </i>
  </energy>
  <time name="totalsc"> 2392.47 2410.01</time>
 </calculation>
 <calculation>
  <scstep>
   <time name="dav">  251.14  252.76</time>
   <time name="total">  283.27  285.26</time>
   <energy>
    <i name="alphaZ">      6.18334092 </i>
    <i name="ewald">   2475.29364182 </i>
    <i name="hartreedc">  -2969.51536920 </i>
    <i name="XCdc">     57.21421792 </i>
    <i name="pawpsdc">    270.37082589 </i>
    <i name="pawaedc">   -275.48929252 </i>
    <i name="eentropy">     -0.00000038 </i>
    <i name="bandstr">   -189.56233144 </i>
    <i name="atom">    588.62352690 </i>
    <i name="e_fr_energy">    -36.88144007 </i>
    <i name="e_wo_entrp">    -36.88143970 </i>
    <i name="e_0_energy">    -36.88143989 </i>
   </energy>
  </scstep>
  <scstep>
   <time name="diag">   77.85   78.61</time>
   <time name="diis">  174.66  176.51</time>
   <time name="orth">    3.08    3.10</time>
   <time name="total">  288.02  290.74</time>
   <energy>
    <i name="e_fr_energy">    -36.88144008 </i>
    <i name="e_wo_entrp">    -36.88143970 </i>
    <i name="e_0_energy">    -36.88143989 </i>
   </energy>
  </scstep>
  <scstep>
   <time name="diag">   78.33   78.70</time>
   <time name="diis">  171.22  171.55</time>
   <time name="orth">    3.08    3.08</time>
   <time name="total">  284.81  286.14</time>
   <energy>
    <i name="e_fr_energy">    -36.88144008 </i>
    <i name="e_wo_entrp">    -36.88143970 </i>
    <i name="e_0_energy">    -36.88143989 </i>
   </energy>
  </scstep>
  <scstep>
   <time name="diag">   77.93   78.65</time>
   <time name="diis">  164.66  166.16</time>
   <time name="orth">    3.08    3.08</time>
   <time name="total">  277.76  280.39</time>
   <energy>
    <i name="e_fr_energy">    -36.88144008 </i>
    <i name="e_wo_entrp">    -36.88143970 </i>
    <i name="e_0_energy">    -36.88143989 </i>
   </energy>
  </scstep>
  <scstep>
   <time name="diag">   77.89   78.63</time>
   <time name="diis">  161.92  163.43</time>
   <time name="orth">    3.09    3.10</time>
   <time name="total">  275.13  277.63</time>
   <energy>
    <i name="e_fr_energy">    -36.88144008 </i>
    <i name="e_wo_entrp">    -36.88143970 </i>
    <i name="e_0_energy">    -36.88143989 </i>
   </energy>
  </scstep>
  <scstep>
   <time name="diag">   78.41   78.54</time>
   <time name="diis">  158.27  158.52</time>
   <time name="orth">    3.10    3.10</time>
   <time name="total">  271.94  274.06</time>
   <energy>
    <i name="e_fr_energy">    -36.88144008 </i>
    <i name="e_wo_entrp">    -36.88143970 </i>
    <i name="e_0_energy">    -36.88143989 </i>
   </energy>
  </scstep>
  <scstep>
   <time name="diag">   78.44   78.60</time>
   <time name="diis">  154.63  155.28</time>
   <time name="orth">    3.10    3.10</time>
   <time name="total">  238.55  240.27</time>
   <energy>
    <i name="alphaZ">      6.18334092 </i>
    <i name="ewald">   2475.29364182 </i>
    <i name="hartreedc">  -2969.51538339 </i>
    <i name="XCdc">     57.21421808 </i>
    <i name="pawpsdc">    270.37083046 </i>
    <i name="pawaedc">   -275.48929708 </i>
    <i name="eentropy">     -0.00000038 </i>
    <i name="bandstr">   -189.56231742 </i>
    <i name="atom">    588.62352690 </i>
    <i name="e_fr_energy">    -36.88144008 </i>
    <i name="e_wo_entrp">    -36.88143970 </i>
    <i name="e_0_energy">    -36.88143989 </i>
   </energy>
  </scstep>
  <structure>
   <crystal>
    <varray name="basis" >
     <v>       4.35958329       0.00000000       0.00000000 </v>
     <v>       0.00000000       2.45890152       0.00000000 </v>
     <v>       0.00000000       0.00000000      19.66810733 </v>
    </varray>
    <i name="volume">    210.83790140 </i>
    <varray name="rec_basis" >
     <v>       0.22937972       0.00000000       0.00000000 </v>
     <v>       0.00000000       0.40668566       0.00000000 </v>
     <v>       0.00000000       0.00000000       0.05084373 </v>
    </varray>
   </crystal>
   <varray name="positions" >
    <v>       0.99954108       0.00000000       0.00000000 </v>
    <v>       0.16712558       0.50000000      -0.00000000 </v>
    <v>       0.49954108       0.50000000       0.00000000 </v>
    <v>       0.66712558       0.00000000      -0.00000000 </v>
   </varray>
  </structure>
  <varray name="forces" >
   <v>      -0.00000763       0.00000000       0.00000000 </v>
   <v>       0.00000763      -0.00000000      -0.00000000 </v>
   <v>      -0.00000763      -0.00000000       0.00000000 </v>
   <v>       0.00000763      -0.00000000      -0.00000000 </v>
  </varray>
  <varray name="stress" >
   <v>     -33.42498976       0.00000000       0.00000000 </v>
   <v>       0.00000000       0.00387987       0.00000000 </v>
   <v>       0.00000000       0.00000000      -0.01023716 </v>
  </varray>
  <energy>
   <i name="e_fr_energy">    -36.88144008 </i>
   <i name="e_wo_entrp">    -36.88143989 </i>
   <i name="e_0_energy">     -0.00000038 </i>
  </energy>
  <time name="totalsc"> 2023.15 2039.24</time>
 </calculation>
 <calculation>
  <scstep>
   <time name="dav">  244.03  244.81</time>
   <time name="total">  276.23  277.28</time>
   <energy>
    <i name="alphaZ">      6.18334092 </i>
    <i name="ewald">   2475.29364126 </i>
    <i name="hartreedc">  -2969.51538355 </i>
    <i name="XCdc">     57.21421807 </i>
    <i name="pawpsdc">    270.37083046 </i>
    <i name="pawaedc">   -275.48929708 </i>
    <i name="eentropy">     -0.00000038 </i>
    <i name="bandstr">   -189.56231669 </i>
    <i name="atom">    588.62352690 </i>
    <i name="e_fr_energy">    -36.88144007 </i>
    <i name="e_wo_entrp">    -36.88143970 </i>
    <i name="e_0_energy">    -36.88143989 </i>
   </energy>
  </scstep>
  <scstep>
   <time name="diag">   78.10   78.56</time>
   <time name="diis">  147.97  148.29</time>
   <time name="orth">    3.10    3.10</time>
   <time name="total">  261.44  262.42</time>
   <energy>
    <i name="e_fr_energy">    -36.88144008 </i>
    <i name="e_wo_entrp">    -36.88143970 </i>
    <i name="e_0_energy">    -36.88143989 </i>
   </energy>
  </scstep>
  <scstep>
   <time name="diag">   78.15   78.61</time>
   <time name="diis">  148.01  148.19</time>
   <time name="orth">    3.10    3.10</time>
   <time name="total">  261.42  262.46</time>
   <energy>
    <i name="e_fr_energy">    -36.88144008 </i>
    <i name="e_wo_entrp">    -36.88143970 </i>
    <i name="e_0_energy">    -36.88143989 </i>
   </energy>
  </scstep>
  <scstep>
   <time name="diag">   78.04   78.62</time>
   <time name="diis">  146.50  147.49</time>
   <time name="orth">    3.08    3.08</time>
   <time name="total">  259.87  261.59</time>
   <energy>
    <i name="e_fr_energy">    -36.88144008 </i>
    <i name="e_wo_entrp">    -36.88143970 </i>
    <i name="e_0_energy">    -36.88143989 </i>
   </energy>
  </scstep>
  <scstep>
   <time name="diag">   78.09   78.59</time>
   <time name="diis">  148.10  148.81</time>
   <time name="orth">    3.10    3.11</time>
   <time name="total">  231.69  233.64</time>
   <energy>
    <i name="alphaZ">      6.18334092 </i>
    <i name="ewald">   2475.29364126 </i>
    <i name="hartreedc">  -2969.51538195 </i>
    <i name="XCdc">     57.21421800 </i>
    <i name="pawpsdc">    270.37082926 </i>
    <i name="pawaedc">   -275.48929587 </i>
    <i name="eentropy">     -0.00000038 </i>
    <i name="bandstr">   -189.56231823 </i>
    <i name="atom">    588.62352690 </i>
    <i name="e_fr_energy">    -36.88144008 </i>
    <i name="e_wo_entrp">    -36.88143970 </i>
    <i name="e_0_energy">    -36.88143989 </i>
   </energy>
  </scstep>
  <structure>
   <crystal>
    <varray name="basis" >
     <v>       4.35958329       0.00000000       0.00000000 </v>
     <v>       0.00000000       2.45890152       0.00000000 </v>
     <v>       0.00000000       0.00000000      19.66810733 </v>
    </varray>
    <i name="volume">    210.83790140 </i>
    <varray name="rec_basis" >
     <v>       0.22937972       0.00000000       0.00000000 </v>
     <v>       0.00000000       0.40668566       0.00000000 </v>
     <v>       0.00000000       0.00000000       0.05084373 </v>
    </varray>
   </crystal>
   <varray name="positions" >
    <v>       0.99954107       0.00000000       0.00000000 </v>
    <v>       0.16712559       0.50000000      -0.00000000 </v>
    <v>       0.49954107       0.50000000       0.00000000 </v>
    <v>       0.66712559       0.00000000      -0.00000000 </v>
   </varray>
  </structure>
  <varray name="forces" >
   <v>      -0.00000004      -0.00000000      -0.00000000 </v>
   <v>       0.00000004       0.00000000       0.00000000 </v>
   <v>      -0.00000004      -0.00000000      -0.00000000 </v>
   <v>       0.00000004       0.00000000       0.00000000 </v>
  </varray>
  <varray name="stress" >
   <v>     -33.42495943       0.00000000       0.00000000 </v>
   <v>       0.00000000       0.00384549       0.00000000 </v>
   <v>       0.00000000       0.00000000      -0.01024680 </v>
  </varray>
  <energy>
   <i name="e_fr_energy">    -36.88144008 </i>
   <i name="e_wo_entrp">    -36.88143989 </i>
   <i name="e_0_energy">     -0.00000038 </i>
  </energy>
  <time name="totalsc"> 1384.86 1396.99</time>
  <eigenvalues>
   <array>
    <dimension dim="1">band</dimension>
    <dimension dim="2">kpoint</dimension>
    <dimension dim="3">spin</dimension>
    <field>eigene</field>
    <field>occ</field>
    <set>
     <set comment="spin 1">
      <set comment="kpoint 1">
       <r>  -22.1139    1.0000 </r>
       <r>  -17.2144    1.0000 </r>
       <r>  -15.8613    1.0000 </r>
       <r>  -10.2510    1.0000 </r>
       <r>   -8.8700    1.0000 </r>
       <r>   -5.9669    1.0000 </r>
       <r>   -5.7371    1.0000 </r>
       <r>   -5.2935    1.0000 </r>
       <r>   -1.1666    0.0000 </r>
       <r>    0.5407    0.0000 </r>
       <r>    1.3394    0.0000 </r>
       <r>    1.7307    0.0000 </r>
      </set>
      <set comment="kpoint 2">
       <r>  -22.1041    1.0000 </r>
       <r>  -17.3399    1.0000 </r>
       <r>  -15.7207    1.0000 </r>
       <r>  -10.2393    1.0000 </r>
       <r>   -8.8604    1.0000 </r>
       <r>   -6.0109    1.0000 </r>
       <r>   -5.7576    1.0000 </r>
       <r>   -5.3536    1.0000 </r>
       <r>   -1.0907    0.0000 </r>
       <r>    0.5540    0.0000 </r>
       <r>    1.3529    0.0000 </r>
       <r>    1.7444    0.0000 </r>
      </set>
      <set comment="kpoint 3">
       <r>  -22.0745    1.0000 </r>
       <r>  -17.6248    1.0000 </r>
       <r>  -15.3908    1.0000 </r>
       <r>  -10.2042    1.0000 </r>
       <r>   -8.8317    1.0000 </r>
       <r>   -6.1409    1.0000 </r>
       <r>   -5.8181    1.0000 </r>
       <r>   -5.5217    1.0000 </r>
       <r>   -0.8754    0.0000 </r>
       <r>    0.5940    0.0000 </r>
       <r>    1.3935    0.0000 </r>
       <r>    1.7855    0.0000 </r>
      </set>
      <set comment="kpoint 4">
       <r>  -22.0253    1.0000 </r>
       <r>  -17.9640    1.0000 </r>
       <r>  -14.9768    1.0000 </r>
       <r>  -10.1458    1.0000 </r>
       <r>   -8.7840    1.0000 </r>
       <r>   -6.3511    1.0000 </r>
       <r>   -5.9155    1.0000 </r>
       <r>   -5.7693    1.0000 </r>
       <r>   -0.5497    0.0000 </r>
       <r>    0.6607    0.0000 </r>
       <r>    1.4610    0.0000 </r>
       <r>    1.8539    0.0000 </r>
      </set>
      <set comment="kpoint 5">
       <r>  -21.9564    1.0000 </r>
       <r>  -18.3156    1.0000 </r>
       <r>  -14.5211    1.0000 </r>
       <r>  -10.0642    1.0000 </r>
       <r>   -8.7176    1.0000 </r>
       <r>   -6.6330    1.0000 </r>
       <r>   -6.0672    1.0000 </r>
       <r>   -6.0453    1.0000 </r>
       <r>   -0.1436    0.0000 </r>
       <r>    0.7541    0.0000 </r>
       <r>    1.5556    0.0000 </r>
       <r>    1.9497    0.0000 </r>
      </set>
      <set comment="kpoint 6">
       <r>  -21.8680    1.0000 </r>
       <r>  -18.6639    1.0000 </r>
       <r>  -14.0399    1.0000 </r>
       <r>   -9.9594    1.0000 </r>
       <r>   -8.6329    1.0000 </r>
       <r>   -6.9769    1.0000 </r>
       <r>   -6.3927    1.0000 </r>
       <r>   -6.2018    1.0000 </r>
       <r>    0.3190    0.0000 </r>
       <r>    0.8742    0.0000 </r>
       <r>    1.6771    0.0000 </r>
       <r>    2.0730    0.0000 </r>
      </set>
      <set comment="kpoint 7">
       <r>  -21.7600    1.0000 </r>
       <r>  -19.0023    1.0000 </r>
       <r>  -13.5405    1.0000 </r>
       <r>   -9.8318    1.0000 </r>
       <r>   -8.5304    1.0000 </r>
       <r>   -7.3725    1.0000 </r>
       <r>   -6.7301    1.0000 </r>
       <r>   -6.3792    1.0000 </r>
       <r>    0.8209    0.0000 </r>
       <r>    1.0210    0.0000 </r>
       <r>    1.8256    0.0000 </r>
       <r>    2.2236    0.0000 </r>
      </set>
      <set comment="kpoint 8">
       <r>  -21.6326    1.0000 </r>
       <r>  -19.3275    1.0000 </r>
       <r>  -13.0273    1.0000 </r>
       <r>   -9.6815    1.0000 </r>
       <r>   -8.4107    1.0000 </r>
       <r>   -7.8100    1.0000 </r>
       <r>   -7.0690    1.0000 </r>
       <r>   -6.5715    1.0000 </r>
       <r>    1.1945    0.0000 </r>
       <r>    1.3495    0.0000 </r>
       <r>    2.0008    0.0000 </r>
       <r>    2.4016    0.0000 </r>
      </set>
      <set comment="kpoint 9">
       <r>  -21.4858    1.0000 </r>
       <r>  -19.6376    1.0000 </r>
       <r>  -12.5034    1.0000 </r>
       <r>   -9.5088    1.0000 </r>
       <r>   -8.2807    1.0000 </r>
       <r>   -8.2746    1.0000 </r>
       <r>   -7.4023    1.0000 </r>
       <r>   -6.7736    1.0000 </r>
       <r>    1.3947    0.0000 </r>
       <r>    1.8950    0.0000 </r>
       <r>    2.2026    0.0000 </r>
       <r>    2.6070    0.0000 </r>
      </set>
      <set comment="kpoint 10">
       <r>  -21.3198    1.0000 </r>
       <r>  -19.9314    1.0000 </r>
       <r>  -11.9715    1.0000 </r>
       <r>   -9.3143    1.0000 </r>
       <r>   -8.7766    1.0000 </r>
       <r>   -8.1231    1.0000 </r>
       <r>   -7.7254    1.0000 </r>
       <r>   -6.9803    1.0000 </r>
       <r>    1.6215    0.0000 </r>
       <r>    2.4308    0.0000 </r>
       <r>    2.4483    0.0000 </r>
       <r>    2.8398    0.0000 </r>
      </set>
      <set comment="kpoint 11">
       <r>  -21.1348    1.0000 </r>
       <r>  -20.2081    1.0000 </r>
       <r>  -11.4341    1.0000 </r>
       <r>   -9.2912    1.0000 </r>
       <r>   -9.0982    1.0000 </r>
       <r>   -8.0350    1.0000 </r>
       <r>   -7.9574    1.0000 </r>
       <r>   -7.1876    1.0000 </r>
       <r>    1.8748    0.0000 </r>
       <r>    2.6845    0.0000 </r>
       <r>    2.9947    0.0000 </r>
       <r>    3.0999    0.0000 </r>
      </set>
      <set comment="kpoint 12">
       <r>  -20.9309    1.0000 </r>
       <r>  -20.4672    1.0000 </r>
       <r>  -10.8940    1.0000 </r>
       <r>   -9.8188    1.0000 </r>
       <r>   -8.8614    1.0000 </r>
       <r>   -8.3286    1.0000 </r>
       <r>   -7.7791    1.0000 </r>
       <r>   -7.3918    1.0000 </r>
       <r>    2.1546    0.0000 </r>
       <r>    2.7931    0.0000 </r>
       <r>    2.9619    0.0000 </r>
       <r>    3.3877    0.0000 </r>
      </set>
      <set comment="kpoint 13">
       <r>  -20.7082    1.0000 </r>
       <r>  -20.7082    1.0000 </r>
       <r>  -10.3544    1.0000 </r>
       <r>  -10.3544    1.0000 </r>
       <r>   -8.6045    1.0000 </r>
       <r>   -8.6045    1.0000 </r>
       <r>   -7.5898    1.0000 </r>
       <r>   -7.5898    1.0000 </r>
       <r>    2.4608    0.0000 </r>
       <r>    2.4608    0.0000 </r>
       <r>    3.2537    0.0000 </r>
       <r>    3.2537    0.0000 </r>
      </set>
      <set comment="kpoint 14">
       <r>  -22.1001    1.0000 </r>
       <r>  -17.2024    1.0000 </r>
       <r>  -15.8495    1.0000 </r>
       <r>  -10.2346    1.0000 </r>
       <r>   -8.9330    1.0000 </r>
       <r>   -5.9938    1.0000 </r>
       <r>   -5.7957    1.0000 </r>
       <r>   -5.2768    1.0000 </r>
       <r>   -1.1693    0.0000 </r>
       <r>    0.5594    0.0000 </r>
       <r>    1.3583    0.0000 </r>
       <r>    1.7498    0.0000 </r>
      </set>
      <set comment="kpoint 15">
       <r>  -22.0903    1.0000 </r>
       <r>  -17.3278    1.0000 </r>
       <r>  -15.7091    1.0000 </r>
       <r>  -10.2229    1.0000 </r>
       <r>   -8.9234    1.0000 </r>
       <r>   -6.0389    1.0000 </r>
       <r>   -5.8145    1.0000 </r>
       <r>   -5.3371    1.0000 </r>
       <r>   -1.0934    0.0000 </r>
       <r>    0.5727    0.0000 </r>
       <r>    1.3718    0.0000 </r>
       <r>    1.7635    0.0000 </r>
      </set>
      <set comment="kpoint 16">
       <r>  -22.0607    1.0000 </r>
       <r>  -17.6125    1.0000 </r>
       <r>  -15.3796    1.0000 </r>
       <r>  -10.1879    1.0000 </r>
       <r>   -8.8947    1.0000 </r>
       <r>   -6.1703    1.0000 </r>
       <r>   -5.8718    1.0000 </r>
       <r>   -5.5054    1.0000 </r>
       <r>   -0.8782    0.0000 </r>
       <r>    0.6127    0.0000 </r>
       <r>    1.4124    0.0000 </r>
       <r>    1.8046    0.0000 </r>
      </set>
      <set comment="kpoint 17">
       <r>  -22.0115    1.0000 </r>
       <r>  -17.9515    1.0000 </r>
       <r>  -14.9661    1.0000 </r>
       <r>  -10.1295    1.0000 </r>
       <r>   -8.8469    1.0000 </r>
       <r>   -6.3801    1.0000 </r>
       <r>   -5.9671    1.0000 </r>
       <r>   -5.7533    1.0000 </r>
       <r>   -0.5527    0.0000 </r>
       <r>    0.6794    0.0000 </r>
       <r>    1.4799    0.0000 </r>
       <r>    1.8730    0.0000 </r>
      </set>
      <set comment="kpoint 18">
       <r>  -21.9427    1.0000 </r>
       <r>  -18.3029    1.0000 </r>
       <r>  -14.5109    1.0000 </r>
       <r>  -10.0478    1.0000 </r>
       <r>   -8.7804    1.0000 </r>
       <r>   -6.6597    1.0000 </r>
       <r>   -6.0962    1.0000 </r>
       <r>   -6.0515    1.0000 </r>
       <r>   -0.1471    0.0000 </r>
       <r>    0.7728    0.0000 </r>
       <r>    1.5745    0.0000 </r>
       <r>    1.9689    0.0000 </r>
      </set>
      <set comment="kpoint 19">
       <r>  -21.8542    1.0000 </r>
       <r>  -18.6510    1.0000 </r>
       <r>  -14.0303    1.0000 </r>
       <r>   -9.9431    1.0000 </r>
       <r>   -8.6956    1.0000 </r>
       <r>   -7.0000    1.0000 </r>
       <r>   -6.3771    1.0000 </r>
       <r>   -6.2531    1.0000 </r>
       <r>    0.3148    0.0000 </r>
       <r>    0.8929    0.0000 </r>
       <r>    1.6960    0.0000 </r>
       <r>    2.0921    0.0000 </r>
      </set>
      <set comment="kpoint 20">
       <r>  -21.7463    1.0000 </r>
       <r>  -18.9893    1.0000 </r>
       <r>  -13.5316    1.0000 </r>
       <r>   -9.8155    1.0000 </r>
       <r>   -8.5929    1.0000 </r>
       <r>   -7.3914    1.0000 </r>
       <r>   -6.7146    1.0000 </r>
       <r>   -6.4315    1.0000 </r>
       <r>    0.8156    0.0000 </r>
       <r>    1.0397    0.0000 </r>
       <r>    1.8444    0.0000 </r>
       <r>    2.2427    0.0000 </r>
      </set>
      <set comment="kpoint 21">
       <r>  -21.6189    1.0000 </r>
       <r>  -19.3144    1.0000 </r>
       <r>  -13.0193    1.0000 </r>
       <r>   -9.6653    1.0000 </r>
       <r>   -8.4729    1.0000 </r>
       <r>   -7.8248    1.0000 </r>
       <r>   -7.0534    1.0000 </r>
       <r>   -6.6252    1.0000 </r>
       <r>    1.2132    0.0000 </r>
       <r>    1.3428    0.0000 </r>
       <r>    2.0197    0.0000 </r>
       <r>    2.4207    0.0000 </r>
      </set>
      <set comment="kpoint 22">
       <r>  -21.4721    1.0000 </r>
       <r>  -19.6244    1.0000 </r>
       <r>  -12.4964    1.0000 </r>
       <r>   -9.4927    1.0000 </r>
       <r>   -8.3365    1.0000 </r>
       <r>   -8.2915    1.0000 </r>
       <r>   -7.3868    1.0000 </r>
       <r>   -6.8286    1.0000 </r>
       <r>    1.4134    0.0000 </r>
       <r>    1.8868    0.0000 </r>
       <r>    2.2215    0.0000 </r>
       <r>    2.6261    0.0000 </r>
      </set>
      <set comment="kpoint 23">
       <r>  -21.3062    1.0000 </r>
       <r>  -19.9181    1.0000 </r>
       <r>  -11.9656    1.0000 </r>
       <r>   -9.2982    1.0000 </r>
       <r>   -8.7839    1.0000 </r>
       <r>   -8.1846    1.0000 </r>
       <r>   -7.7098    1.0000 </r>
       <r>   -7.0368    1.0000 </r>
       <r>    1.6402    0.0000 </r>
       <r>    2.4386    0.0000 </r>
       <r>    2.4496    0.0000 </r>
       <r>    2.8589    0.0000 </r>
      </set>
      <set comment="kpoint 24">
       <r>  -21.1212    1.0000 </r>
       <r>  -20.1947    1.0000 </r>
       <r>  -11.4296    1.0000 </r>
       <r>   -9.2954    1.0000 </r>
       <r>   -9.0822    1.0000 </r>
       <r>   -8.0193    1.0000 </r>
       <r>   -8.0184    1.0000 </r>
       <r>   -7.2453    1.0000 </r>
       <r>    1.8936    0.0000 </r>
       <r>    2.7034    0.0000 </r>
       <r>    2.9843    0.0000 </r>
       <r>    3.1190    0.0000 </r>
      </set>
      <set comment="kpoint 25">
       <r>  -20.9173    1.0000 </r>
       <r>  -20.4538    1.0000 </r>
       <r>  -10.8912    1.0000 </r>
       <r>   -9.8202    1.0000 </r>
       <r>   -8.8455    1.0000 </r>
[...]
       <r>   -9.3303    1.0000 </r>
       <r>   -5.5296    1.0000 </r>
       <r>   -5.5296    1.0000 </r>
       <r>   -0.4780    0.0000 </r>
       <r>   -0.4780    0.0000 </r>
       <r>    4.2711    0.0000 </r>
       <r>    4.2711    0.0000 </r>
      </set>
      <set comment="kpoint 209">
       <r>  -18.6640    1.0000 </r>
       <r>  -16.8522    1.0000 </r>
       <r>  -14.1848    1.0000 </r>
       <r>  -12.5251    1.0000 </r>
       <r>  -12.3235    1.0000 </r>
       <r>  -10.8071    1.0000 </r>
       <r>   -6.3032    1.0000 </r>
       <r>   -4.4236    1.0000 </r>
       <r>   -1.1623    0.0000 </r>
       <r>    0.9989    0.0000 </r>
       <r>    5.3028    0.0000 </r>
       <r>    6.0759    0.0000 </r>
      </set>
      <set comment="kpoint 210">
       <r>  -18.6547    1.0000 </r>
       <r>  -16.8449    1.0000 </r>
       <r>  -14.2550    1.0000 </r>
       <r>  -12.5909    1.0000 </r>
       <r>  -12.2456    1.0000 </r>
       <r>  -10.7438    1.0000 </r>
       <r>   -6.2949    1.0000 </r>
       <r>   -4.4274    1.0000 </r>
       <r>   -1.1692    0.0000 </r>
       <r>    0.9757    0.0000 </r>
       <r>    5.3158    0.0000 </r>
       <r>    6.0912    0.0000 </r>
      </set>
      <set comment="kpoint 211">
       <r>  -18.6268    1.0000 </r>
       <r>  -16.8235    1.0000 </r>
       <r>  -14.4365    1.0000 </r>
       <r>  -12.7634    1.0000 </r>
       <r>  -12.0411    1.0000 </r>
       <r>  -10.5792    1.0000 </r>
       <r>   -6.2698    1.0000 </r>
       <r>   -4.4392    1.0000 </r>
       <r>   -1.1885    0.0000 </r>
       <r>    0.9078    0.0000 </r>
       <r>    5.3547    0.0000 </r>
       <r>    6.1368    0.0000 </r>
      </set>
      <set comment="kpoint 212">
       <r>  -18.5803    1.0000 </r>
       <r>  -16.7892    1.0000 </r>
       <r>  -14.6777    1.0000 </r>
       <r>  -12.9987    1.0000 </r>
       <r>  -11.7614    1.0000 </r>
       <r>  -10.3596    1.0000 </r>
       <r>   -6.2282    1.0000 </r>
       <r>   -4.4605    1.0000 </r>
       <r>   -1.2158    0.0000 </r>
       <r>    0.7997    0.0000 </r>
       <r>    5.4189    0.0000 </r>
       <r>    6.2117    0.0000 </r>
      </set>
      <set comment="kpoint 213">
       <r>  -18.5155    1.0000 </r>
       <r>  -16.7450    1.0000 </r>
       <r>  -14.9406    1.0000 </r>
       <r>  -13.2644    1.0000 </r>
       <r>  -11.4440    1.0000 </r>
       <r>  -10.1202    1.0000 </r>
       <r>   -6.1707    1.0000 </r>
       <r>   -4.4932    1.0000 </r>
       <r>   -1.2447    0.0000 </r>
       <r>    0.6578    0.0000 </r>
       <r>    5.5042    0.0000 </r>
       <r>    6.0201    0.0000 </r>
      </set>
      <set comment="kpoint 214">
       <r>  -18.4325    1.0000 </r>
       <r>  -16.6967    1.0000 </r>
       <r>  -15.2003    1.0000 </r>
       <r>  -13.5425    1.0000 </r>
       <r>  -11.1111    1.0000 </r>
       <r>   -9.8836    1.0000 </r>
       <r>   -6.0979    1.0000 </r>
       <r>   -4.5394    1.0000 </r>
       <r>   -1.2675    0.0000 </r>
       <r>    0.4899    0.0000 </r>
       <r>    5.4773    0.0000 </r>
       <r>    5.6781    0.0000 </r>
      </set>
      <set comment="kpoint 215">
       <r>  -18.3316    1.0000 </r>
       <r>  -16.6560    1.0000 </r>
       <r>  -15.4345    1.0000 </r>
       <r>  -13.8223    1.0000 </r>
       <r>  -10.7772    1.0000 </r>
       <r>   -9.6658    1.0000 </r>
       <r>   -6.0107    1.0000 </r>
       <r>   -4.6012    1.0000 </r>
       <r>   -1.2768    0.0000 </r>
       <r>    0.3038    0.0000 </r>
       <r>    5.0774    0.0000 </r>
       <r>    5.7909    0.0000 </r>
      </set>
      <set comment="kpoint 216">
       <r>  -18.2132    1.0000 </r>
       <r>  -16.6459    1.0000 </r>
       <r>  -15.6145    1.0000 </r>
       <r>  -14.0977    1.0000 </r>
       <r>  -10.4532    1.0000 </r>
       <r>   -9.4790    1.0000 </r>
       <r>   -5.9103    1.0000 </r>
       <r>   -4.6796    1.0000 </r>
       <r>   -1.2660    0.0000 </r>
       <r>    0.1070    0.0000 </r>
       <r>    4.7149    0.0000 </r>
       <r>    5.6796    0.0000 </r>
      </set>
      <set comment="kpoint 217">
       <r>  -18.0778    1.0000 </r>
       <r>  -16.6978    1.0000 </r>
       <r>  -15.7056    1.0000 </r>
       <r>  -14.3645    1.0000 </r>
       <r>  -10.1488    1.0000 </r>
       <r>   -9.3337    1.0000 </r>
       <r>   -5.7980    1.0000 </r>
       <r>   -4.7744    1.0000 </r>
       <r>   -1.2307    0.0000 </r>
       <r>   -0.0937    0.0000 </r>
       <r>    4.4248    0.0000 </r>
       <r>    5.2361    0.0000 </r>
      </set>
      <set comment="kpoint 218">
       <r>  -17.9261    1.0000 </r>
       <r>  -16.8227    1.0000 </r>
       <r>  -15.6946    1.0000 </r>
       <r>  -14.6193    1.0000 </r>
       <r>   -9.8730    1.0000 </r>
       <r>   -9.2383    1.0000 </r>
       <r>   -5.6758    1.0000 </r>
       <r>   -4.8843    1.0000 </r>
       <r>   -1.1683    0.0000 </r>
       <r>   -0.2921    0.0000 </r>
       <r>    4.2169    0.0000 </r>
       <r>    4.8509    0.0000 </r>
      </set>
      <set comment="kpoint 219">
       <r>  -17.7593    1.0000 </r>
       <r>  -16.9966    1.0000 </r>
       <r>  -15.6040    1.0000 </r>
       <r>  -14.8597    1.0000 </r>
       <r>   -9.6346    1.0000 </r>
       <r>   -9.1994    1.0000 </r>
       <r>   -5.5458    1.0000 </r>
       <r>   -5.0064    1.0000 </r>
       <r>   -1.0784    0.0000 </r>
       <r>   -0.4827    0.0000 </r>
       <r>    4.0978    0.0000 </r>
       <r>    4.5336    0.0000 </r>
      </set>
      <set comment="kpoint 220">
       <r>  -17.5789    1.0000 </r>
       <r>  -17.1908    1.0000 </r>
       <r>  -15.4619    1.0000 </r>
       <r>  -15.0827    1.0000 </r>
       <r>   -9.4420    1.0000 </r>
       <r>   -9.2205    1.0000 </r>
       <r>   -5.4107    1.0000 </r>
       <r>   -5.1374    1.0000 </r>
       <r>   -0.9621    0.0000 </r>
       <r>   -0.6607    0.0000 </r>
       <r>    4.0710    0.0000 </r>
       <r>    4.2931    0.0000 </r>
      </set>
      <set comment="kpoint 221">
       <r>  -17.3879    1.0000 </r>
       <r>  -17.3879    1.0000 </r>
       <r>  -15.2851    1.0000 </r>
       <r>  -15.2851    1.0000 </r>
       <r>   -9.3022    1.0000 </r>
       <r>   -9.3022    1.0000 </r>
       <r>   -5.2733    1.0000 </r>
       <r>   -5.2733    1.0000 </r>
       <r>   -0.8218    0.0000 </r>
       <r>   -0.8218    0.0000 </r>
       <r>    4.1371    0.0000 </r>
       <r>    4.1371    0.0000 </r>
      </set>
      <set comment="kpoint 222">
       <r>  -18.2364    1.0000 </r>
       <r>  -17.3268    1.0000 </r>
       <r>  -13.8007    1.0000 </r>
       <r>  -12.9700    1.0000 </r>
       <r>  -11.9757    1.0000 </r>
       <r>  -11.2125    1.0000 </r>
       <r>   -5.8440    1.0000 </r>
       <r>   -4.8985    1.0000 </r>
       <r>   -0.6545    0.0000 </r>
       <r>    0.4283    0.0000 </r>
       <r>    5.9080    0.0000 </r>
       <r>    6.6377    0.0000 </r>
      </set>
      <set comment="kpoint 223">
       <r>  -18.2273    1.0000 </r>
       <r>  -17.3184    1.0000 </r>
       <r>  -13.8713    1.0000 </r>
       <r>  -13.0379    1.0000 </r>
       <r>  -11.9002    1.0000 </r>
       <r>  -11.1446    1.0000 </r>
       <r>   -5.8369    1.0000 </r>
       <r>   -4.8966    1.0000 </r>
       <r>   -0.6684    0.0000 </r>
       <r>    0.4072    0.0000 </r>
       <r>    5.9210    0.0000 </r>
       <r>    6.6539    0.0000 </r>
      </set>
      <set comment="kpoint 224">
       <r>  -18.1999    1.0000 </r>
       <r>  -17.2934    1.0000 </r>
       <r>  -14.0543    1.0000 </r>
       <r>  -13.2152    1.0000 </r>
       <r>  -11.7027    1.0000 </r>
       <r>  -10.9675    1.0000 </r>
       <r>   -5.8158    1.0000 </r>
       <r>   -4.8915    1.0000 </r>
       <r>   -0.7085    0.0000 </r>
       <r>    0.3454    0.0000 </r>
       <r>    5.9597    0.0000 </r>
       <r>    6.7021    0.0000 </r>
      </set>
      <set comment="kpoint 225">
       <r>  -18.1543    1.0000 </r>
       <r>  -17.2522    1.0000 </r>
       <r>  -14.2998    1.0000 </r>
       <r>  -13.4555    1.0000 </r>
       <r>  -11.4343    1.0000 </r>
       <r>  -10.7294    1.0000 </r>
       <r>   -5.7811    1.0000 </r>
       <r>   -4.8842    1.0000 </r>
       <r>   -0.7704    0.0000 </r>
       <r>    0.2473    0.0000 </r>
       <r>    6.0227    0.0000 </r>
       <r>    6.7954    0.0000 </r>
      </set>
      <set comment="kpoint 226">
       <r>  -18.0908    1.0000 </r>
       <r>  -17.1958    1.0000 </r>
       <r>  -14.5721    1.0000 </r>
       <r>  -13.7256    1.0000 </r>
       <r>  -11.1321    1.0000 </r>
       <r>  -10.4664    1.0000 </r>
       <r>   -5.7335    1.0000 </r>
       <r>   -4.8763    1.0000 </r>
       <r>   -0.8473    0.0000 </r>
       <r>    0.1195    0.0000 </r>
       <r>    6.0924    0.0000 </r>
       <r>    6.3148    0.0000 </r>
      </set>
      <set comment="kpoint 227">
       <r>  -18.0097    1.0000 </r>
       <r>  -17.1257    1.0000 </r>
       <r>  -14.8507    1.0000 </r>
       <r>  -14.0068    1.0000 </r>
       <r>  -10.8185    1.0000 </r>
       <r>  -10.2011    1.0000 </r>
       <r>   -5.6740    1.0000 </r>
       <r>   -4.8702    1.0000 </r>
       <r>   -0.9309    0.0000 </r>
       <r>   -0.0303    0.0000 </r>
       <r>    5.7586    0.0000 </r>
       <r>    6.2527    0.0000 </r>
      </set>
      <set comment="kpoint 228">
       <r>  -17.9114    1.0000 </r>
       <r>  -17.0449    1.0000 </r>
       <r>  -15.1224    1.0000 </r>
       <r>  -14.2885    1.0000 </r>
       <r>  -10.5084    1.0000 </r>
       <r>   -9.9491    1.0000 </r>
       <r>   -5.6041    1.0000 </r>
       <r>   -4.8689    1.0000 </r>
       <r>   -1.0124    0.0000 </r>
       <r>   -0.1939    0.0000 </r>
       <r>    5.3004    0.0000 </r>
       <r>    5.8496    0.0000 </r>
      </set>
      <set comment="kpoint 229">
       <r>  -17.7967    1.0000 </r>
       <r>  -16.9590    1.0000 </r>
       <r>  -15.3759    1.0000 </r>
       <r>  -14.5641    1.0000 </r>
       <r>  -10.2132    1.0000 </r>
       <r>   -9.7226    1.0000 </r>
       <r>   -5.5255    1.0000 </r>
       <r>   -4.8753    1.0000 </r>
       <r>   -1.0828    0.0000 </r>
       <r>   -0.3633    0.0000 </r>
       <r>    4.8967    0.0000 </r>
       <r>    5.3817    0.0000 </r>
      </set>
      <set comment="kpoint 230">
       <r>  -17.6665    1.0000 </r>
       <r>  -16.8790    1.0000 </r>
       <r>  -15.5966    1.0000 </r>
       <r>  -14.8290    1.0000 </r>
       <r>   -9.9427    1.0000 </r>
       <r>   -9.5320    1.0000 </r>
       <r>   -5.4405    1.0000 </r>
       <r>   -4.8924    1.0000 </r>
       <r>   -1.1343    0.0000 </r>
       <r>   -0.5310    0.0000 </r>
       <r>    4.5609    0.0000 </r>
       <r>    4.9692    0.0000 </r>
      </set>
      <set comment="kpoint 231">
       <r>  -17.5226    1.0000 </r>
       <r>  -16.8265    1.0000 </r>
       <r>  -15.7607    1.0000 </r>
       <r>  -15.0791    1.0000 </r>
       <r>   -9.7065    1.0000 </r>
       <r>   -9.3864    1.0000 </r>
       <r>   -5.3518    1.0000 </r>
       <r>   -4.9225    1.0000 </r>
       <r>   -1.1604    0.0000 </r>
       <r>   -0.6899    0.0000 </r>
       <r>    4.3025    0.0000 </r>
       <r>    4.6218    0.0000 </r>
      </set>
      <set comment="kpoint 232">
       <r>  -17.3677    1.0000 </r>
       <r>  -16.8334    1.0000 </r>
       <r>  -15.8350    1.0000 </r>
       <r>  -15.3101    1.0000 </r>
       <r>   -9.5132    1.0000 </r>
       <r>   -9.2936    1.0000 </r>
       <r>   -5.2624    1.0000 </r>
       <r>   -4.9668    1.0000 </r>
       <r>   -1.1566    0.0000 </r>
       <r>   -0.8336    0.0000 </r>
       <r>    4.1289    0.0000 </r>
       <r>    4.3487    0.0000 </r>
      </set>
      <set comment="kpoint 233">
       <r>  -17.2068    1.0000 </r>
       <r>  -16.9150    1.0000 </r>
       <r>  -15.8033    1.0000 </r>
       <r>  -15.5162    1.0000 </r>
       <r>   -9.3706    1.0000 </r>
       <r>   -9.2587    1.0000 </r>
       <r>   -5.1758    1.0000 </r>
       <r>   -5.0249    1.0000 </r>
       <r>   -1.1209    0.0000 </r>
       <r>   -0.9564    0.0000 </r>
       <r>    4.0458    0.0000 </r>
       <r>    4.1579    0.0000 </r>
      </set>
      <set comment="kpoint 234">
       <r>  -17.0496    1.0000 </r>
       <r>  -17.0496    1.0000 </r>
       <r>  -15.6869    1.0000 </r>
       <r>  -15.6869    1.0000 </r>
       <r>   -9.2846    1.0000 </r>
       <r>   -9.2846    1.0000 </r>
       <r>   -5.0955    1.0000 </r>
       <r>   -5.0955    1.0000 </r>
       <r>   -1.0534    0.0000 </r>
       <r>   -1.0534    0.0000 </r>
       <r>    4.0557    0.0000 </r>
       <r>    4.0557    0.0000 </r>
      </set>
      <set comment="kpoint 235">
       <r>  -17.7897    1.0000 </r>
       <r>  -17.7897    1.0000 </r>
       <r>  -13.3955    1.0000 </r>
       <r>  -13.3955    1.0000 </r>
       <r>  -11.6036    1.0000 </r>
       <r>  -11.6036    1.0000 </r>
       <r>   -5.3740    1.0000 </r>
       <r>   -5.3740    1.0000 </r>
       <r>   -0.1236    0.0000 </r>
       <r>   -0.1236    0.0000 </r>
       <r>    6.5454    0.0000 </r>
       <r>    6.5454    0.0000 </r>
      </set>
      <set comment="kpoint 236">
       <r>  -17.7808    1.0000 </r>
       <r>  -17.7808    1.0000 </r>
       <r>  -13.4651    1.0000 </r>
       <r>  -13.4651    1.0000 </r>
       <r>  -11.5315    1.0000 </r>
       <r>  -11.5315    1.0000 </r>
       <r>   -5.3689    1.0000 </r>
       <r>   -5.3689    1.0000 </r>
       <r>   -0.1418    0.0000 </r>
       <r>   -0.1418    0.0000 </r>
       <r>    6.5582    0.0000 </r>
       <r>    6.5582    0.0000 </r>
      </set>
      <set comment="kpoint 237">
       <r>  -17.7543    1.0000 </r>
       <r>  -17.7543    1.0000 </r>
       <r>  -13.6461    1.0000 </r>
       <r>  -13.6461    1.0000 </r>
       <r>  -11.3433    1.0000 </r>
       <r>  -11.3433    1.0000 </r>
       <r>   -5.3539    1.0000 </r>
       <r>   -5.3539    1.0000 </r>
       <r>   -0.1950    0.0000 </r>
       <r>   -0.1950    0.0000 </r>
       <r>    6.5964    0.0000 </r>
       <r>    6.5964    0.0000 </r>
      </set>
      <set comment="kpoint 238">
       <r>  -17.7102    1.0000 </r>
       <r>  -17.7102    1.0000 </r>
       <r>  -13.8903    1.0000 </r>
       <r>  -13.8903    1.0000 </r>
       <r>  -11.0889    1.0000 </r>
       <r>  -11.0889    1.0000 </r>
       <r>   -5.3297    1.0000 </r>
       <r>   -5.3297    1.0000 </r>
       <r>   -0.2786    0.0000 </r>
       <r>   -0.2786    0.0000 </r>
       <r>    6.6566    0.0000 </r>
       <r>    6.6566    0.0000 </r>
      </set>
      <set comment="kpoint 239">
       <r>  -17.6490    1.0000 </r>
       <r>  -17.6490    1.0000 </r>
       <r>  -14.1632    1.0000 </r>
       <r>  -14.1632    1.0000 </r>
       <r>  -10.8049    1.0000 </r>
       <r>  -10.8049    1.0000 </r>
       <r>   -5.2973    1.0000 </r>
       <r>   -5.2973    1.0000 </r>
       <r>   -0.3861    0.0000 </r>
       <r>   -0.3861    0.0000 </r>
       <r>    6.5632    0.0000 </r>
       <r>    6.5632    0.0000 </r>
      </set>
      <set comment="kpoint 240">
       <r>  -17.5713    1.0000 </r>
       <r>  -17.5713    1.0000 </r>
       <r>  -14.4455    1.0000 </r>
       <r>  -14.4455    1.0000 </r>
       <r>  -10.5139    1.0000 </r>
       <r>  -10.5139    1.0000 </r>
       <r>   -5.2585    1.0000 </r>
       <r>   -5.2585    1.0000 </r>
       <r>   -0.5096    0.0000 </r>
       <r>   -0.5096    0.0000 </r>
       <r>    6.0479    0.0000 </r>
       <r>    6.0479    0.0000 </r>
      </set>
      <set comment="kpoint 241">
       <r>  -17.4781    1.0000 </r>
       <r>  -17.4781    1.0000 </r>
       <r>  -14.7261    1.0000 </r>
       <r>  -14.7261    1.0000 </r>
       <r>  -10.2312    1.0000 </r>
       <r>  -10.2312    1.0000 </r>
       <r>   -5.2153    1.0000 </r>
       <r>   -5.2153    1.0000 </r>
       <r>   -0.6403    0.0000 </r>
       <r>   -0.6403    0.0000 </r>
       <r>    5.5583    0.0000 </r>
       <r>    5.5583    0.0000 </r>
      </set>
      <set comment="kpoint 242">
       <r>  -17.3711    1.0000 </r>
       <r>  -17.3711    1.0000 </r>
       <r>  -14.9976    1.0000 </r>
       <r>  -14.9976    1.0000 </r>
       <r>   -9.9684    1.0000 </r>
       <r>   -9.9684    1.0000 </r>
       <r>   -5.1705    1.0000 </r>
       <r>   -5.1705    1.0000 </r>
       <r>   -0.7696    0.0000 </r>
       <r>   -0.7696    0.0000 </r>
       <r>    5.1198    0.0000 </r>
       <r>    5.1198    0.0000 </r>
      </set>
      <set comment="kpoint 243">
       <r>  -17.2531    1.0000 </r>
       <r>  -17.2531    1.0000 </r>
       <r>  -15.2534    1.0000 </r>
       <r>  -15.2534    1.0000 </r>
       <r>   -9.7360    1.0000 </r>
       <r>   -9.7360    1.0000 </r>
       <r>   -5.1270    1.0000 </r>
       <r>   -5.1270    1.0000 </r>
       <r>   -0.8892    0.0000 </r>
       <r>   -0.8892    0.0000 </r>
       <r>    4.7432    0.0000 </r>
       <r>    4.7432    0.0000 </r>
      </set>
      <set comment="kpoint 244">
       <r>  -17.1294    1.0000 </r>
       <r>  -17.1294    1.0000 </r>
       <r>  -15.4861    1.0000 </r>
       <r>  -15.4861    1.0000 </r>
       <r>   -9.5433    1.0000 </r>
       <r>   -9.5433    1.0000 </r>
       <r>   -5.0883    1.0000 </r>
       <r>   -5.0883    1.0000 </r>
       <r>   -0.9916    0.0000 </r>
       <r>   -0.9916    0.0000 </r>
       <r>    4.4381    0.0000 </r>
       <r>    4.4381    0.0000 </r>
      </set>
      <set comment="kpoint 245">
       <r>  -17.0103    1.0000 </r>
       <r>  -17.0103    1.0000 </r>
       <r>  -15.6839    1.0000 </r>
       <r>  -15.6839    1.0000 </r>
       <r>   -9.3988    1.0000 </r>
       <r>   -9.3988    1.0000 </r>
       <r>   -5.0576    1.0000 </r>
       <r>   -5.0576    1.0000 </r>
       <r>   -1.0700    0.0000 </r>
       <r>   -1.0700    0.0000 </r>
       <r>    4.2131    0.0000 </r>
       <r>    4.2131    0.0000 </r>
      </set>
      <set comment="kpoint 246">
       <r>  -16.9163    1.0000 </r>
       <r>  -16.9163    1.0000 </r>
       <r>  -15.8256    1.0000 </r>
       <r>  -15.8256    1.0000 </r>
       <r>   -9.3090    1.0000 </r>
       <r>   -9.3090    1.0000 </r>
       <r>   -5.0378    1.0000 </r>
       <r>   -5.0378    1.0000 </r>
       <r>   -1.1193    0.0000 </r>
       <r>   -1.1193    0.0000 </r>
       <r>    4.0750    0.0000 </r>
       <r>    4.0750    0.0000 </r>
      </set>
      <set comment="kpoint 247">
       <r>  -16.8786    1.0000 </r>
       <r>  -16.8786    1.0000 </r>
       <r>  -15.8792    1.0000 </r>
       <r>  -15.8792    1.0000 </r>
       <r>   -9.2786    1.0000 </r>
       <r>   -9.2786    1.0000 </r>
       <r>   -5.0310    1.0000 </r>
       <r>   -5.0310    1.0000 </r>
       <r>   -1.1361    0.0000 </r>
       <r>   -1.1361    0.0000 </r>
       <r>    4.0284    0.0000 </r>
       <r>    4.0284    0.0000 </r>
      </set>
     </set>
    </set>
   </array>
  </eigenvalues>
  <separator name="orbital magnetization" >
   <v name="MAGDIPOLOUT">      0.00000000      0.00000000      0.00000000</v>
  </separator>
 </calculation>
 <structure name="finalpos" >
  <crystal>
   <varray name="basis" >
    <v>       4.35958329       0.00000000       0.00000000 </v>
    <v>       0.00000000       2.45890152       0.00000000 </v>
    <v>       0.00000000       0.00000000      19.66810733 </v>
   </varray>
   <i name="volume">    210.83790140 </i>
   <varray name="rec_basis" >
    <v>       0.22937972       0.00000000       0.00000000 </v>
    <v>       0.00000000       0.40668566       0.00000000 </v>
    <v>       0.00000000       0.00000000       0.05084373 </v>
   </varray>
  </crystal>
  <varray name="positions" >
   <v>       0.99954107       0.00000000       0.00000000 </v>
   <v>       0.16712559       0.50000000      -0.00000000 </v>
   <v>       0.49954107       0.50000000       0.00000000 </v>
   <v>       0.66712559       0.00000000      -0.00000000 </v>
  </varray>
 </structure>
</modeling>
