gr                                      
           1
     4.359583    0.000000    0.000000
     0.000000    2.458902    0.000000
     0.000000    0.000000   19.668107
   C 
   4
Direct configuration=     1
   0.99954297  0.00000000  0.00000000
   0.16712369  0.50000000  0.00000000
   0.49954297  0.50000000  0.00000000
   0.66712369  0.00000000  0.00000000
Direct configuration=     2
   0.99953387  0.00000000  0.00000000
   0.16713280  0.50000000 -0.00000000
   0.49953387  0.50000000  0.00000000
   0.66713280  0.00000000 -0.00000000
Direct configuration=     3
   0.99954107  0.00000000  0.00000000
   0.16712560  0.50000000 -0.00000000
   0.49954107  0.50000000  0.00000000
   0.66712560 -0.00000000 -0.00000000
Direct configuration=     4
   0.99954108  0.00000000  0.00000000
   0.16712558  0.50000000 -0.00000000
   0.49954108  0.50000000  0.00000000
   0.66712558  0.00000000 -0.00000000
Direct configuration=     5
   0.99954107  0.00000000  0.00000000
   0.16712559  0.50000000 -0.00000000
   0.49954107  0.50000000  0.00000000
   0.66712559  0.00000000 -0.00000000
