    4    4  400    1
  0.5270948E+02  0.4251973E-09  0.2540952E-09  0.1951469E-08  0.5000000E-15
  1.000000000000000E-004
  CAR 
 gr                                      
     16    247     12
 
  0.0000000E+00  0.0000000E+00  0.0000000E+00  0.1157407E-02
    1      -22.048529
    2      -16.644467
    3      -15.845514
    4      -10.200604
    5       -9.527685
    6       -6.023121
    7       -5.739271
    8       -4.865519
    9       -1.159863
   10        0.548799
   11        1.346294
   12        1.741833
 
  0.4166667E-01  0.0000000E+00  0.0000000E+00  0.2314815E-02
    1      -22.038134
    2      -16.847891
    3      -15.627137
    4      -10.188283
    5       -9.517230
    6       -6.047092
    7       -5.778950
    8       -4.936463
    9       -1.074361
   10        0.562879
   11        1.360510
   12        1.756231
 
  0.8333333E-01  0.0000000E+00  0.0000000E+00  0.2314815E-02
    1      -22.006955
    2      -17.220160
    3      -15.210102
    4      -10.151340
    5       -9.485913
    6       -6.117610
    7       -5.896589
    8       -5.131611
    9       -0.835718
   10        0.605116
   11        1.403156
   12        1.799427
 
  0.1250000E+00  0.0000000E+00  0.0000000E+00  0.2314815E-02
    1      -21.955011
    2      -17.616003
    3      -14.739968
    4      -10.089831
    5       -9.433885
    6       -6.230736
    7       -6.088192
    8       -5.412948
    9       -0.482484
   10        0.675505
   11        1.474220
   12        1.871420
 
  0.1666667E+00  0.0000000E+00  0.0000000E+00  0.2314815E-02
    1      -21.882337
    2      -18.007483
    3      -14.245157
    4      -10.003854
    5       -9.361401
    6       -6.380656
    7       -6.347693
    8       -5.744708
    9       -0.051325
   10        0.774035
   11        1.573683
   12        1.972209
 
  0.2083333E+00  0.0000000E+00  0.0000000E+00  0.2314815E-02
    1      -21.788984
    2      -18.386945
    3      -13.734028
    4       -9.893548
    5       -9.268829
    6       -6.667670
    7       -6.560497
    8       -6.101590
    9        0.431200
   10        0.900688
   11        1.701516
   12        2.101791
 
  0.2500000E+00  0.0000000E+00  0.0000000E+00  0.2314815E-02
    1      -21.675015
    2      -18.751347
    3      -13.210546
    4       -9.759100
    5       -9.156665
    6       -7.040060
    7       -6.763107
    8       -6.467382
    9        0.947250
   10        1.055440
   11        1.857677
   12        2.260163
 
  0.2916667E+00  0.0000000E+00  0.0000000E+00  0.2314815E-02
    1      -21.540512
    2      -19.099140
    3      -12.677438
    4       -9.600754
    5       -9.025545
    6       -7.456737
    7       -6.981620
    8       -6.831844
    9        1.238256
   10        1.484560
   11        2.042105
   12        2.447318
 
  0.3333333E+00  0.0000000E+00  0.0000000E+00  0.2314815E-02
    1      -21.385570
    2      -19.429382
    3      -12.137099
    4       -9.418813
    5       -8.876273
    6       -7.909928
    7       -7.209789
    8       -7.188363
    9        1.449088
   10        2.034041
   11        2.254710
   12        2.663245
 
  0.3750000E+00  0.0000000E+00  0.0000000E+00  0.2314815E-02
    1      -21.210304
    2      -19.741426
    3      -11.591947
    4       -9.213659
    5       -8.709842
    6       -8.392466
    7       -7.532522
    8       -7.442148
    9        1.687872
   10        2.495343
   11        2.588075
   12        2.907924
 
  0.4166667E+00  0.0000000E+00  0.0000000E+00  0.2314815E-02
    1      -21.014851
    2      -20.034792
    3      -11.044589
    4       -8.985766
    5       -8.897899
    6       -8.527478
    7       -7.861261
    8       -7.674024
    9        1.954511
   10        2.763719
   11        3.137906
   12        3.181305
 
  0.4583333E+00  0.0000000E+00  0.0000000E+00  0.2314815E-02
    1      -20.799368
    2      -20.309100
    3      -10.497943
    4       -9.420520
    5       -8.735727
    6       -8.330679
    7       -8.172388
    8       -7.901489
    9        2.248859
   10        2.919268
   11        3.059095
   12        3.483252
 
  0.5000000E+00  0.0000000E+00  0.0000000E+00  0.1157407E-02
    1      -20.564045
    2      -20.564045
    3       -9.955321
    4       -9.955321
    5       -8.464285
    6       -8.464285
    7       -8.121274
    8       -8.121274
    9        2.570649
   10        2.570649
   11        3.378037
   12        3.378037
 
  0.0000000E+00  0.2777778E-01  0.0000000E+00  0.2314815E-02
    1      -22.035638
    2      -16.633323
    3      -15.835381
    4      -10.185325
    5       -9.585243
    6       -6.076192
    7       -5.771750
    8       -4.849930
    9       -1.166423
   10        0.566221
   11        1.363976
   12        1.759737
 
  0.4166667E-01  0.2777778E-01  0.0000000E+00  0.4629630E-02
    1      -22.025244
    2      -16.836670
    3      -15.617146
    4      -10.173009
    5       -9.574753
    6       -6.102951
    7       -5.807898
    8       -4.921059
    9       -1.080870
   10        0.580303
   11        1.378192
   12        1.774136
 
  0.8333333E-01  0.2777778E-01  0.0000000E+00  0.4629630E-02
    1      -21.994069
    2      -17.208751
    3      -15.200494
    4      -10.136079
    5       -9.543332
    6       -6.182623
    7       -5.914288
    8       -5.116619
    9       -0.842218
   10        0.622546
   11        1.420834
   12        1.817333
 
  0.1250000E+00  0.2777778E-01  0.0000000E+00  0.4629630E-02
    1      -21.942132
    2      -17.604390
    3      -14.730897
    4      -10.074594
    5       -9.491123
    6       -6.314913
    7       -6.083634
    8       -5.398356
    9       -0.489256
   10        0.692943
   11        1.491892
   12        1.889328
 
  0.1666667E+00  0.2777778E-01  0.0000000E+00  0.4629630E-02
    1      -21.869469
    2      -17.995685
    3      -14.236758
    4       -9.988648
    5       -9.418371
    6       -6.505366
    7       -6.298953
    8       -5.730394
    9       -0.058762
   10        0.791483
   11        1.591347
   12        1.990119
 
  0.2083333E+00  0.2777778E-01  0.0000000E+00  0.4629630E-02
    1      -21.776130
    2      -18.374983
    3      -13.726452
    4       -9.878384
    5       -9.325429
    6       -6.768846
    7       -6.531504
    8       -6.087423
    9        0.422698
   10        0.918149
   11        1.719169
   12        2.119704
 
  0.2500000E+00  0.2777778E-01  0.0000000E+00  0.4629630E-02
    1      -21.662178
    2      -18.739243
    3      -13.203974
    4       -9.743987
    5       -9.212769
    6       -7.107258
    7       -6.764464
    8       -6.453262
    9        0.937318
   10        1.072915
   11        1.875317
   12        2.278079
 
  0.2916667E+00  0.2777778E-01  0.0000000E+00  0.4629630E-02
    1      -21.527697
    2      -19.086913
    3      -12.672090
    4       -9.585701
    5       -9.081001
    6       -7.503790
    7       -6.999831
    8       -6.817701
    9        1.255747
   10        1.472881
   11        2.059732
   12        2.465239
 
  0.3333333E+00  0.2777778E-01  0.0000000E+00  0.4629630E-02
    1      -21.372780
    2      -19.417048
    3      -12.133252
    4       -9.403830
    5       -8.930886
    6       -7.943608
    7       -7.238498
    8       -7.174154
    9        1.466595
   10        2.020360
   11        2.272323
   12        2.681172
 
  0.3750000E+00  0.2777778E-01  0.0000000E+00  0.4629630E-02
    1      -21.197546
    2      -19.729001
    3      -11.589943
    4       -9.198755
    5       -8.763370
    6       -8.416494
    7       -7.518222
    8       -7.478051
    9        1.705398
   10        2.512947
   11        2.572261
   12        2.925860
 
  0.4166667E+00  0.2777778E-01  0.0000000E+00  0.4629630E-02
    1      -21.002128
    2      -20.022289
    3      -11.044863
    4       -8.970950
    5       -8.914633
    6       -8.579612
    7       -7.846857
    8       -7.715149
    9        1.972063
   10        2.781326
   11        3.120309
   12        3.199259
 
  0.4583333E+00  0.2777778E-01  0.0000000E+00  0.4629630E-02
    1      -20.786688
    2      -20.296529
    3      -10.501044
    4       -9.431601
    5       -8.721007
    6       -8.381021
    7       -8.157877
    8       -7.946530
    9        2.266449
   10        2.937109
   11        3.076736
   12        3.501790
 
  0.5000000E+00  0.2777778E-01  0.0000000E+00  0.2314815E-02
    1      -20.551415
    2      -20.551415
    3       -9.961956
    4       -9.961956
    5       -8.449667
    6       -8.449667
    7       -8.169307
    8       -8.169307
    9        2.588312
   10        2.588312
   11        3.395732
   12        3.395732
 
  0.0000000E+00  0.5555556E-01  0.0000000E+00  0.2314815E-02
    1      -21.996975
    2      -16.599898
    3      -15.805205
    4      -10.139520
    5       -9.753136
    6       -6.231287
    7       -5.868102
    8       -4.803182
    9       -1.186872
   10        0.618499
   11        1.417018
   12        1.813453
 
  0.4166667E-01  0.5555556E-01  0.0000000E+00  0.4629630E-02
    1      -21.986585
    2      -16.803036
    3      -15.587377
    4      -10.127218
    5       -9.742537
    6       -6.264181
    7       -5.895953
    8       -4.874885
    9       -1.101153
   10        0.632585
   11        1.431229
   12        1.827853
 
  0.8333333E-01  0.5555556E-01  0.0000000E+00  0.4629630E-02
    1      -21.955423
    2      -17.174558
    3      -15.171889
    4      -10.090330
    5       -9.710781
    6       -6.360639
    7       -5.979453
    8       -5.071712
    9       -0.862458
   10        0.674840
   11        1.473860
   12        1.871053
 
  0.1250000E+00  0.5555556E-01  0.0000000E+00  0.4629630E-02
    1      -21.903508
    2      -17.569590
    3      -14.703937
    4      -10.028914
    5       -9.657992
    6       -6.515459
    7       -6.117212
    8       -5.354680
    9       -0.510310
   10        0.745258
   11        1.544900
   12        1.943052
 
  0.1666667E+00  0.5555556E-01  0.0000000E+00  0.4629630E-02
    1      -21.830877
    2      -17.960324
    3      -14.211874
    4       -9.943067
    5       -9.584379
    6       -6.723513
    7       -6.304189
    8       -5.687563
    9       -0.081834
   10        0.843826
   11        1.644328
   12        2.043848
 
  0.2083333E+00  0.5555556E-01  0.0000000E+00  0.4629630E-02
    1      -21.737580
    2      -18.339127
    3      -13.704124
    4       -9.832929
    5       -9.490241
    6       -6.982054
    7       -6.530449
    8       -6.045036
    9        0.396389
   10        0.970525
   11        1.772117
   12        2.173440
 
  0.2500000E+00  0.5555556E-01  0.0000000E+00  0.4629630E-02
    1      -21.623680
    2      -18.702957
    3      -13.184777
    4       -9.698687
    5       -9.375978
    6       -7.290756
    7       -6.782304
    8       -6.411008
    9        0.906665
   10        1.125328
   11        1.928225
   12        2.331825
 
  0.2916667E+00  0.5555556E-01  0.0000000E+00  0.4629630E-02
    1      -21.489264
    2      -19.050255
    3      -12.656737
    4       -9.540585
    5       -9.242097
    6       -7.649030
    7       -7.046074
    8       -6.775372
    9        1.308199
   10        1.436922
   11        2.112595
   12        2.518996
 
  0.3333333E+00  0.5555556E-01  0.0000000E+00  0.4629630E-02
    1      -21.334425
    2      -19.380069
    3      -12.122633
    4       -9.358926
    5       -9.089229
    6       -8.053162
    7       -7.311776
    8       -7.131619
    9        1.519092
   10        1.978315
   11        2.325142
   12        2.734946
 
  0.3750000E+00  0.5555556E-01  0.0000000E+00  0.4629630E-02
    1      -21.159284
    2      -19.691746
    3      -11.585185
    4       -9.154092
    5       -8.918140
    6       -8.496409
    7       -7.573559
    8       -7.475406
    9        1.757943
   10        2.523668
   11        2.565732
   12        2.979657
 
  0.4166667E+00  0.5555556E-01  0.0000000E+00  0.4629630E-02
    1      -20.963976
    2      -19.984796
    3      -11.047400
    4       -8.970951
    5       -8.926555
    6       -8.729750
    7       -7.827995
    8       -7.803724
    9        2.024669
   10        2.834115
   11        3.065840
   12        3.253099
 
  0.4583333E+00  0.5555556E-01  0.0000000E+00  0.4629630E-02
    1      -20.748664
    2      -20.258832
    3      -10.512717
    4       -9.469364
    5       -8.676903
    6       -8.525154
    7       -8.114413
    8       -8.072676
    9        2.319147
   10        2.990367
   11        3.129631
   12        3.555886
 
  0.5000000E+00  0.5555556E-01  0.0000000E+00  0.2314815E-02
    1      -20.513542
    2      -20.513542
    3       -9.985137
    4       -9.985137
    5       -8.405877
    6       -8.405877
    7       -8.305632
    8       -8.305632
    9        2.641177
   10        2.641177
   11        3.448806
   12        3.448808
 
  0.0000000E+00  0.8333333E-01  0.0000000E+00  0.2314815E-02
    1      -21.932577
    2      -16.544203
    3      -15.755692
    4      -10.063285
    5      -10.018307
    6       -6.477249
    7       -6.025196
    8       -4.725333
    9       -1.223503
   10        0.705661
   11        1.505396
   12        1.902987
 
  0.4166667E-01  0.8333333E-01  0.0000000E+00  0.4629630E-02
    1      -21.922195
    2      -16.747071
    3      -15.538490
    4      -10.051007
    5      -10.007501
    6       -6.516573
    7       -6.043234
    8       -4.798056
    9       -1.137461
   10        0.719750
   11        1.519601
   12        1.917387
 
  0.8333333E-01  0.8333333E-01  0.0000000E+00  0.4629630E-02
    1      -21.891054
    2      -17.117697
    3      -15.124982
    4      -10.014190
    5       -9.975109
    6       -6.628258
    7       -6.101898
    8       -4.997116
    9       -0.898623
   10        0.762018
   11        1.562211
   12        1.960589
 
  0.1250000E+00  0.8333333E-01  0.0000000E+00  0.4629630E-02
    1      -21.839177
    2      -17.511712
    3      -14.659912
    4       -9.952894
    5       -9.921215
    6       -6.799236
    7       -6.209114
    8       -5.282223
    9       -0.547822
   10        0.832457
   11        1.633216
   12        2.032592
 
  0.1666667E+00  0.8333333E-01  0.0000000E+00  0.4629630E-02
    1      -21.766599
    2      -17.901502
    3      -14.171532
    4       -9.867214
    5       -9.845953
    6       -7.017543
    7       -6.368585
    8       -5.616557
    9       -0.122777
   10        0.931056
   11        1.732596
   12        2.133395
 
  0.2083333E+00  0.8333333E-01  0.0000000E+00  0.4629630E-02
    1      -21.673372
    2      -18.279467
    3      -13.668363
    4       -9.757292
    5       -9.749513
    6       -7.274994
    7       -6.577678
    8       -5.974772
    9        0.349928
   10        1.057795
   11        1.860322
   12        2.262997
 
  0.2500000E+00  0.8333333E-01  0.0000000E+00  0.4629630E-02
    1      -21.559562
    2      -18.642569
    3      -13.154692
    4       -9.632138
    5       -9.623317
    6       -7.567318
    7       -6.828130
    8       -6.340953
    9        0.852803
   10        1.212644
   11        2.016354
   12        2.421394
 
  0.2916667E+00  0.8333333E-01  0.0000000E+00  0.4629630E-02
    1      -21.425254
    2      -18.989237
    3      -12.633698
    4       -9.494118
    5       -9.465530
    6       -7.893659
    7       -7.107481
    8       -6.705167
    9        1.374032
   10        1.395566
   11        2.200636
   12        2.608581
 
  0.3333333E+00  0.8333333E-01  0.0000000E+00  0.4629630E-02
    1      -21.270546
    2      -19.318509
    3      -12.108386
    4       -9.335788
    5       -9.284236
    6       -8.255269
    7       -7.401245
    8       -7.061043
    9        1.606513
   10        1.905055
   11        2.413091
   12        2.824550
 
  0.3750000E+00  0.8333333E-01  0.0000000E+00  0.4629630E-02
    1      -21.095560
    2      -19.629719
    3      -11.581975
    4       -9.157511
    5       -9.079816
    6       -8.653159
    7       -7.695923
    8       -7.404335
    9        1.845424
   10        2.439120
   11        2.653603
   12        3.069289
 
  0.4166667E+00  0.8333333E-01  0.0000000E+00  0.4629630E-02
    1      -20.900436
    2      -19.922368
    3      -11.058137
    4       -9.085841
    5       -8.959669
    6       -8.852740
    7       -7.981652
    8       -7.732095
    9        2.112219
   10        2.921967
   11        2.970220
   12        3.342779
 
  0.4583333E+00  0.8333333E-01  0.0000000E+00  0.4629630E-02
    1      -20.685341
    2      -20.196059
    3      -10.541167
    4       -9.548880
    5       -8.742646
    6       -8.603593
    7       -8.252821
    8       -8.042210
    9        2.406793
   10        3.078540
   11        3.217660
   12        3.489028
 
  0.5000000E+00  0.8333333E-01  0.0000000E+00  0.2314815E-02
    1      -20.450472
    2      -20.450472
    3      -10.036126
    4      -10.036126
    5       -8.506849
    6       -8.506849
    7       -8.333107
    8       -8.333107
    9        2.728989
   10        2.728989
   11        3.537227
   12        3.537227
 
  0.0000000E+00  0.1111111E+00  0.0000000E+00  0.2314815E-02
    1      -21.842510
    2      -16.466260
    3      -15.688185
    4      -10.362445
    5       -9.956782
    6       -6.798754
    7       -6.238201
    8       -4.616480
    9       -1.280027
   10        0.827740
   11        1.629075
   12        2.028344
 
  0.4166667E-01  0.1111111E+00  0.0000000E+00  0.4629630E-02
    1      -21.832137
    2      -16.668933
    3      -15.471737
    4      -10.351287
    5       -9.944538
    6       -6.843694
    7       -6.246291
    8       -4.690779
    9       -1.193416
   10        0.841831
   11        1.643269
   12        2.042744
 
  0.8333333E-01  0.1111111E+00  0.0000000E+00  0.4629630E-02
    1      -21.801028
    2      -17.038380
    3      -15.061118
    4      -10.317814
    5       -9.907826
    6       -6.967942
    7       -6.280009
    8       -4.893245
    9       -0.954193
   10        0.884101
   11        1.685845
   12        2.085947
 
  0.1250000E+00  0.1111111E+00  0.0000000E+00  0.4629630E-02
    1      -21.749204
    2      -17.430964
    3      -14.600433
    4      -10.262028
    5       -9.846704
    6       -7.151469
    7       -6.355914
    8       -5.181549
    9       -0.605227
   10        0.954549
   11        1.756793
   12        2.157952
 
  0.1666667E+00  0.1111111E+00  0.0000000E+00  0.4629630E-02
    1      -21.676701
    2      -17.819402
    3      -14.117770
    4      -10.183925
    5       -9.761269
    6       -7.377857
    7       -6.484452
    8       -5.517997
    9       -0.185094
   10        1.053166
   11        1.856093
   12        2.258760
 
  0.2083333E+00  0.1111111E+00  0.0000000E+00  0.4629630E-02
    1      -21.583573
    2      -18.196166
    3      -13.621837
    4      -10.083479
    5       -9.651663
    6       -7.636222
    7       -6.668052
    8       -5.877257
    9        0.279666
   10        1.179933
   11        1.983712
   12        2.388369
 
  0.2500000E+00  0.1111111E+00  0.0000000E+00  0.4629630E-02
    1      -21.469889
    2      -18.558222
    3      -13.117285
    4       -9.960616
    5       -9.518076
    6       -7.919957
    7       -6.902774
    8       -6.243690
    9        0.771908
   10        1.334821
   11        2.139612
   12        2.546777
 
  0.2916667E+00  0.1111111E+00  0.0000000E+00  0.4629630E-02
    1      -21.335734
    2      -18.903986
    3      -12.607827
    4       -9.815184
    5       -9.360751
    6       -8.225882
    7       -7.179863
    8       -6.607636
    9        1.280201
   10        1.517788
   11        2.323737
   12        2.733980
 
  0.3333333E+00  0.1111111E+00  0.0000000E+00  0.4629630E-02
    1      -21.181212
    2      -19.232481
    3      -12.097198
    4       -9.646900
    5       -9.179993
    6       -8.553847
    7       -7.486994
    8       -6.962930
    9        1.728784
   10        1.796389
   11        2.536015
   12        2.949968
 
  0.3750000E+00  0.1111111E+00  0.0000000E+00  0.4629630E-02
    1      -21.006446
    2      -19.543023
    3      -11.589594
    4       -9.455300
    5       -8.976180
    6       -8.906217
    7       -7.809573
    8       -7.305463
    9        1.967744
   10        2.314188
   11        2.776347
   12        3.194734
 
  0.4166667E+00  0.1111111E+00  0.0000000E+00  0.4629630E-02
    1      -20.811583
    2      -19.835098
    3      -11.089916
    4       -9.286531
    5       -9.239706
    6       -8.749782
    7       -8.132640
    8       -7.632384
    9        2.234591
   10        2.828399
   11        3.044592
   12        3.468262
 
  0.4583333E+00  0.1111111E+00  0.0000000E+00  0.4629630E-02
    1      -20.596797
    2      -20.108298
    3      -10.603865
    4       -9.697237
    5       -8.999321
    6       -8.501378
    7       -8.443456
    8       -7.941638
    9        2.529228
   10        3.201286
   11        3.334236
   12        3.340460
 
  0.5000000E+00  0.1111111E+00  0.0000000E+00  0.2314815E-02
    1      -20.362290
    2      -20.362290
    3      -10.137675
    4      -10.137675
    5       -8.733633
    6       -8.733633
    7       -8.231693
    8       -8.231693
    9        2.851525
   10        2.851525
   11        3.660774
   12        3.661200
 
  0.0000000E+00  0.1388889E+00  0.0000000E+00  0.2314815E-02
    1      -21.726864
    2      -16.366098
    3      -15.604970
    4      -10.765060
    5       -9.820245
    6       -7.179343
    7       -6.501050
    8       -4.476761
    9       -1.361361
   10        0.984764
   11        1.787997
   12        2.189531
 
  0.4166667E-01  0.1388889E+00  0.0000000E+00  0.4629630E-02
    1      -21.716505
    2      -16.568885
    3      -15.389261
    4      -10.753315
    5       -9.808049
    6       -7.229088
    7       -6.499364
    8       -4.553388
    9       -1.273762
   10        0.998850
   11        1.802174
   12        2.203931
 
  0.8333333E-01  0.1388889E+00  0.0000000E+00  0.4629630E-02
    1      -21.685436
    2      -16.936954
    3      -14.982637
    4      -10.718036
    5       -9.771478
    6       -7.363974
    7       -6.508127
    8       -4.760783
    9       -1.033627
   10        1.041108
   11        1.844697
   12        2.247131
 
  0.1250000E+00  0.1388889E+00  0.0000000E+00  0.4629630E-02
    1      -21.633680
    2      -17.327675
    3      -14.528370
    4      -10.659070
    5       -9.710592
    6       -7.558176
    7       -6.551361
    8       -5.053572
    9       -0.686847
   10        1.111541
   11        1.915555
   12        2.319134
 
  0.1666667E+00  0.1388889E+00  0.0000000E+00  0.4629630E-02
    1      -21.561276
    2      -17.714318
    3      -14.054310
    4      -10.576133
    5       -9.625490
    6       -7.791952
    7       -6.645226
    8       -5.392880
    9       -0.273139
   10        1.210148
   11        2.014723
   12        2.419940
 
  0.2083333E+00  0.1388889E+00  0.0000000E+00  0.4629630E-02
    1      -21.468278
    2      -18.089478
    3      -13.569535
    4      -10.468766
    5       -9.516315
    6       -8.052745
    7       -6.796460
    8       -5.753475
    9        0.181133
   10        1.336914
   11        2.142166
   12        2.549552
 
  0.2500000E+00  0.1388889E+00  0.0000000E+00  0.4629630E-02
    1      -21.354757
    2      -18.450136
    3      -13.079397
    4      -10.336255
    5       -9.383257
    6       -8.332672
    7       -7.004785
    8       -6.120147
    9        0.659379
   10        1.491814
   11        2.297836
   12        2.707967
 
  0.2916667E+00  0.1388889E+00  0.0000000E+00  0.4629630E-02
    1      -21.220803
    2      -18.794697
    3      -12.588632
    4      -10.177542
    5       -9.226562
    6       -8.627033
    7       -7.264775
    8       -6.483631
    9        1.150757
   10        1.674805
   11        2.481671
   12        2.895181
 
  0.3333333E+00  0.1388889E+00  0.0000000E+00  0.4629630E-02
    1      -21.066522
    2      -19.122157
    3      -12.102343
    4       -9.991133
    5       -9.046535
    6       -8.933714
    7       -7.567182
    8       -6.838049
    9        1.647660
   10        1.885828
   11        2.693586
   12        3.111186
 
  0.3750000E+00  0.1388889E+00  0.0000000E+00  0.4629630E-02
    1      -20.892045
    2      -19.431813
    3      -11.626379
    4       -9.775104
    5       -9.253063
    6       -8.843555
    7       -7.899933
    8       -7.179485
    9        2.124815
   10        2.144359
   11        2.933470
   12        3.355974
 
  0.4166667E+00  0.1388889E+00  0.0000000E+00  0.4629630E-02
    1      -20.697526
    2      -19.723128
    3      -11.167237
    4       -9.587831
    5       -9.527424
    6       -8.618089
    7       -8.248897
    8       -7.505212
    9        2.391683
   10        2.636246
   11        3.201164
   12        3.629531
 
  0.4583333E+00  0.1388889E+00  0.0000000E+00  0.4629630E-02
    1      -20.483145
    2      -19.995678
    3      -10.731233
    4       -9.942705
    5       -9.246962
    6       -8.598874
    7       -8.370712
    8       -7.813256
    9        2.686336
   10        3.119388
   11        3.358461
   12        3.496345
 
  0.5000000E+00  0.1388889E+00  0.0000000E+00  0.2314815E-02
    1      -20.249114
    2      -20.249114
    3      -10.322800
    4      -10.322800
    5       -8.935340
    6       -8.935340
    7       -8.102136
    8       -8.102136
    9        3.008649
   10        3.008649
   11        3.589652
   12        3.589652
 
  0.0000000E+00  0.1666667E+00  0.0000000E+00  0.2314815E-02
    1      -21.585763
    2      -16.243761
    3      -15.509882
    4      -11.205288
    5       -9.653987
    6       -7.603588
    7       -6.806951
    8       -4.306359
    9       -1.473222
   10        1.176740
   11        1.982085
   12        2.386554
 
  0.4166667E-01  0.1666667E+00  0.0000000E+00  0.4629630E-02
    1      -21.575421
    2      -16.447368
    3      -15.294677
    4      -11.192551
    5       -9.641852
    6       -7.657581
    7       -6.795703
    8       -4.386413
    9       -1.383886
   10        1.190814
   11        1.996233
   12        2.400952
 
  0.8333333E-01  0.1666667E+00  0.0000000E+00  0.4629630E-02
    1      -21.544403
    2      -16.813981
    3      -14.893590
    4      -11.154191
    5       -9.605466
    6       -7.801911
    7       -6.779599
    8       -4.600843
    9       -1.141765
   10        1.233042
   11        2.038671
   12        2.444146
 
  0.1250000E+00  0.1666667E+00  0.0000000E+00  0.4629630E-02
    1      -21.492733
    2      -17.202366
    3      -14.448842
    4      -11.089742
    5       -9.544890
    6       -8.005790
    7       -6.789108
    8       -4.899748
    9       -0.797226
   10        1.303430
   11        2.109381
   12        2.516140
 
  0.1666667E+00  0.1666667E+00  0.0000000E+00  0.4629630E-02
    1      -21.420450
    2      -17.586699
    3      -13.988001
    4      -10.998348
    5       -9.460224
    6       -8.246777
    7       -6.845346
    8       -5.242750
    9       -0.391389
   10        1.401987
   11        2.208330
   12        2.616937
 
  0.2083333E+00  0.1666667E+00  0.0000000E+00  0.4629630E-02
    1      -21.327613
    2      -17.959786
    3      -13.520901
    4      -10.878651
    5       -9.351614
    6       -8.511135
    7       -6.958888
    8       -5.604916
    9        0.049837
   10        1.528710
   11        2.335466
   12        2.746542
 
  0.2500000E+00  0.1666667E+00  0.0000000E+00  0.4629630E-02
    1      -21.214296
    2      -18.318640
    3      -13.054252
    4      -10.728652
    5       -9.219253
    6       -8.790284
    7       -7.132778
    8       -5.971702
    9        0.510758
   10        1.683579
   11        2.490716
   12        2.904954
 
  0.2916667E+00  0.1666667E+00  0.0000000E+00  0.4629630E-02
    1      -21.080592
    2      -18.661651
    3      -12.594620
    4      -10.545613
    5       -9.078756
    6       -9.063388
    7       -7.364542
    8       -6.334400
    9        0.981401
   10        1.866554
   11        2.673968
   12        3.092172
 
  0.3333333E+00  0.1666667E+00  0.0000000E+00  0.4629630E-02
    1      -20.926614
    2      -18.987785
    3      -12.149113
    4      -10.326239
    5       -9.373283
    6       -8.884328
    7       -7.647605
    8       -6.687518
    9        1.454948
   10        2.077571
   11        2.885040
   12        3.308189
 
  0.3750000E+00  0.1666667E+00  0.0000000E+00  0.4629630E-02
    1      -20.752500
    2      -19.296306
    3      -11.724877
    4      -10.067561
    5       -9.672496
    6       -8.682452
    7       -7.972421
    8       -7.027395
    9        1.926390
   10        2.316552
   11        3.123558
   12        3.552992
 
  0.4166667E+00  0.1666667E+00  0.0000000E+00  0.4629630E-02
    1      -20.558414
    2      -19.586654
    3      -11.327382
    4       -9.976936
    5       -9.768877
    6       -8.458227
    7       -8.327325
    8       -7.351465
    9        2.391778
   10        2.583406
   11        3.388186
   12        3.826572
 
  0.4583333E+00  0.1666667E+00  0.0000000E+00  0.4629630E-02
    1      -20.344543
    2      -19.858380
    3      -10.958201
    4      -10.289237
    5       -9.434151
    6       -8.699030
    7       -8.212222
    8       -7.657852
    9        2.847656
   10        2.878024
   11        3.550011
   12        3.641671
 
  0.5000000E+00  0.1666667E+00  0.0000000E+00  0.2314815E-02
    1      -20.111112
    2      -20.111112
    3      -10.614197
    4      -10.614197
    5       -9.072984
    6       -9.072984
    7       -7.945139
    8       -7.945139
    9        3.200278
   10        3.200278
   11        3.289757
   12        3.289757
 