 running on    8 total cores
 distrk:  each k-point on    8 cores,    1 groups
 distr:  one band on    2 cores,    4 groups
 using from now: INCAR     
 vasp.5.3.5 31Mar14 (build Mar 02 2015 18:14:16) complex                        
  
 POSCAR found type information on POSCAR  C 
 POSCAR found :  1 types and       4 ions
 LDA part: xc-table for Pade appr. of Perdew
 POSCAR, INCAR and KPOINTS ok, starting setup
 FFT: planning ...
 WAVECAR not read
 entering main loop
       N       E                     dE             d eps       ncg     rms          rms(c)
DAV:   1     0.184653815084E+03    0.18465E+03   -0.10556E+04  5928   0.274E+03
DAV:   2    -0.999337384263E+01   -0.19465E+03   -0.17313E+03 10412   0.262E+02
DAV:   3    -0.380705482364E+02   -0.28077E+02   -0.27606E+02  7424   0.118E+02    0.705E+00
RMM:   4    -0.375250850153E+02    0.54546E+00   -0.91271E+00  5928   0.260E+01    0.407E+00
RMM:   5    -0.368384202277E+02    0.68666E+00   -0.26052E+00  5932   0.110E+01    0.688E-01
RMM:   6    -0.368412893464E+02   -0.28691E-02   -0.87318E-02  6393   0.202E+00    0.499E-01
RMM:   7    -0.368326415689E+02    0.86478E-02   -0.30688E-02  5939   0.152E+00    0.320E-01
RMM:   8    -0.368278593597E+02    0.47822E-02   -0.62563E-03  5928   0.526E-01    0.132E-01
RMM:   9    -0.368277163279E+02    0.14303E-03   -0.19152E-02  5928   0.817E-01    0.150E-01
RMM:  10    -0.368275874449E+02    0.12888E-03   -0.21372E-03  5928   0.333E-01    0.265E-02
RMM:  11    -0.368298434861E+02   -0.22560E-02   -0.67120E-04  5928   0.175E-01    0.435E-02
RMM:  12    -0.368303058691E+02   -0.46238E-03   -0.19273E-04  5941   0.925E-02    0.653E-03
RMM:  13    -0.368305836314E+02   -0.27776E-03   -0.58993E-05  6007   0.421E-02    0.370E-03
RMM:  14    -0.368306640435E+02   -0.80412E-04   -0.10716E-05  5967   0.164E-02    0.117E-03
RMM:  15    -0.368306763331E+02   -0.12290E-04   -0.19203E-06  5978   0.776E-03    0.200E-03
RMM:  16    -0.368306905589E+02   -0.14226E-04   -0.15191E-06  5928   0.800E-03    0.110E-03
RMM:  17    -0.368306964205E+02   -0.58615E-05   -0.93183E-08  6076   0.188E-03    0.788E-04
RMM:  18    -0.368306975315E+02   -0.11111E-05   -0.74536E-08  5928   0.201E-03    0.918E-05
WARNING in EDDRMM: call to ZHEGV failed, returncode =   6  3  1
RMM:  19    -0.368306982120E+02   -0.68047E-06   -0.92675E-09  6033   0.459E-04    0.158E-05
RMM:  20    -0.368306982673E+02   -0.55278E-07   -0.87612E-10  4482   0.137E-04    0.180E-05
RMM:  21    -0.368306982792E+02   -0.11934E-07   -0.17538E-10  4314   0.776E-05    0.763E-06
RMM:  22    -0.368306982789E+02    0.29399E-09   -0.17548E-11  3887   0.469E-05    0.782E-07
RMM:  23    -0.368306982793E+02   -0.37244E-09   -0.18423E-11  3575   0.378E-05    0.183E-06
RMM:  24    -0.368306982795E+02   -0.21578E-09   -0.54696E-12  3151   0.289E-05    0.693E-07
RMM:  25    -0.368306982796E+02   -0.81513E-10   -0.37889E-12  2836   0.249E-05
   1 F= -.36830698E+02 E0= -.36830698E+02  d E =-.368307E+02
 BRION: g(F)=  0.717E-06 g(S)=  0.000E+00
 bond charge predicted
       N       E                     dE             d eps       ncg     rms          rms(c)
DAV:   1    -0.368306971907E+02    0.10888E-05   -0.95687E-05  6360   0.922E-02    0.185E-03
RMM:   2    -0.368306972732E+02   -0.82503E-07   -0.16351E-06  5951   0.111E-02    0.137E-03
RMM:   3    -0.368306972487E+02    0.24525E-07   -0.25346E-07  5986   0.408E-03    0.338E-04
RMM:   4    -0.368306972412E+02    0.74674E-08   -0.15314E-08  6056   0.977E-04    0.992E-05
RMM:   5    -0.368306972441E+02   -0.28120E-08   -0.13351E-09  5628   0.260E-04    0.448E-05
RMM:   6    -0.368306972439E+02    0.12130E-09   -0.16730E-10  3910   0.108E-04    0.527E-06
RMM:   7    -0.368306972439E+02    0.45475E-10   -0.17809E-11  3757   0.583E-05
   2 F= -.36830697E+02 E0= -.36830697E+02  d E =0.103571E-05
 BRION: g(F)=  0.112E-04 g(S)=  0.000E+00 retain N=  1 mean eig= 0.20
 eig:   0.202
 bond charge predicted
       N       E                     dE             d eps       ncg     rms          rms(c)
DAV:   1    -0.368306983652E+02   -0.11213E-05   -0.60930E-05  6616   0.736E-02    0.149E-03
RMM:   2    -0.368306984007E+02   -0.35479E-07   -0.98393E-07  5947   0.883E-03    0.109E-03
RMM:   3    -0.368306983583E+02    0.42349E-07   -0.15688E-07  5982   0.321E-03    0.253E-04
RMM:   4    -0.368306983584E+02   -0.37176E-10   -0.90359E-09  6046   0.756E-04    0.795E-05
RMM:   5    -0.368306983566E+02    0.17300E-08   -0.80911E-10  5018   0.205E-04    0.361E-05
RMM:   6    -0.368306983567E+02   -0.72987E-10   -0.10732E-10  3804   0.897E-05
   3 F= -.36830698E+02 E0= -.36830698E+02  d E =-.111283E-05
 BRION: g(F)=  0.169E-10 g(S)=  0.000E+00 retain N=  1 mean eig= 0.20
 eig:   0.202
 bond charge predicted
       N       E                     dE             d eps       ncg     rms          rms(c)
DAV:   1    -0.368306983562E+02    0.40677E-09    0.58433E-09  4852   0.839E-05    0.399E-06
RMM:   2    -0.368306983568E+02   -0.60118E-09    0.93049E-13  3076   0.296E-05    0.248E-06
RMM:   3    -0.368306983568E+02    0.10346E-10   -0.53211E-12  3027   0.313E-05    0.218E-07
RMM:   4    -0.368306983568E+02    0.31605E-10   -0.31775E-12  2810   0.285E-05    0.210E-07
RMM:   5    -0.368306983567E+02    0.86516E-10   -0.39065E-12  2656   0.266E-05
   4 F= -.36830698E+02 E0= -.36830698E+02  d E =0.704858E-11
 BRION: g(F)=  0.358E-10 g(S)=  0.000E+00 retain N=  1 mean eig= 0.08
 eig:   0.082
 bond charge predicted
       N       E                     dE             d eps       ncg     rms          rms(c)
DAV:   1    -0.368306983565E+02    0.26660E-09    0.58855E-09  4580   0.514E-05    0.425E-07
RMM:   2    -0.368306983571E+02   -0.55525E-09    0.15099E-13  1657   0.154E-05    0.263E-07
RMM:   3    -0.368306983570E+02    0.65029E-10   -0.23393E-13  1577   0.153E-05    0.308E-08
RMM:   4    -0.368306983570E+02    0.40018E-10    0.69788E-13  1540   0.151E-05    0.943E-09
RMM:   5    -0.368306983570E+02    0.25807E-10   -0.47176E-13  1502   0.150E-05
   5 F= -.36830698E+02 E0= -.36830698E+02  d E =-.244313E-09
 BRION: g(F)=  0.126E-12 g(S)=  0.000E+00 retain N=  1 mean eig= 0.09
 eig:   0.088
 reached required accuracy - stopping structural energy minimisation
