gr                                      
           1
     4.251973    0.000000    0.000000
     0.000000    2.540952    0.000000
     0.000000    0.000000   19.514693
   C 
   4
Direct configuration=     1
   0.00074775  0.00000000  0.00000000
   0.16591892  0.50000000  0.00000000
   0.50074775  0.50000000  0.00000000
   0.66591892  0.00000000  0.00000000
Direct configuration=     2
   0.00072587 -0.00000000 -0.00000000
   0.16594080  0.50000000  0.00000000
   0.50072587  0.50000000 -0.00000000
   0.66594080  0.00000000  0.00000000
Direct configuration=     3
   0.00074333 -0.00000000 -0.00000000
   0.16592334  0.50000000  0.00000000
   0.50074333  0.50000000 -0.00000000
   0.66592334  0.00000000  0.00000000
Direct configuration=     4
   0.00074335 -0.00000000 -0.00000000
   0.16592332  0.50000000  0.00000000
   0.50074335  0.50000000 -0.00000000
   0.66592332 -0.00000000  0.00000000
Direct configuration=     5
   0.00074334 -0.00000000 -0.00000000
   0.16592333  0.50000000  0.00000000
   0.50074334  0.50000000 -0.00000000
   0.66592333 -0.00000000  0.00000000
