    4    4  400    1
  0.5270948E+02  0.4251682E-09  0.2541939E-09  0.1950845E-08  0.5000000E-15
  1.000000000000000E-004
  CAR 
 gr                                      
     16    247     12
 
  0.0000000E+00  0.0000000E+00  0.0000000E+00  0.1157407E-02
    1      -22.045868
    2      -16.639447
    3      -15.844006
    4      -10.198551
    5       -9.532114
    6       -6.025663
    7       -5.739045
    8       -4.862208
    9       -1.161278
   10        0.549130
   11        1.346557
   12        1.742191
 
  0.4166667E-01  0.0000000E+00  0.0000000E+00  0.2314815E-02
    1      -22.035471
    2      -16.843504
    3      -15.625002
    4      -10.186229
    5       -9.521655
    6       -6.049655
    7       -5.778682
    8       -4.933220
    9       -1.075728
   10        0.563212
   11        1.360775
   12        1.756592
 
  0.8333333E-01  0.0000000E+00  0.0000000E+00  0.2314815E-02
    1      -22.004286
    2      -17.216261
    3      -15.207492
    4      -10.149283
    5       -9.490327
    6       -6.120231
    7       -5.896199
    8       -5.128530
    9       -0.836984
   10        0.605456
   11        1.403426
   12        1.799794
 
  0.1250000E+00  0.0000000E+00  0.0000000E+00  0.2314815E-02
    1      -21.952332
    2      -17.612353
    3      -14.737135
    4      -10.087769
    5       -9.438280
    6       -6.233449
    7       -6.087613
    8       -5.410048
    9       -0.483671
   10        0.675857
   11        1.474499
   12        1.871796
 
  0.1666667E+00  0.0000000E+00  0.0000000E+00  0.2314815E-02
    1      -21.879645
    2      -18.003988
    3      -14.242204
    4      -10.001784
    5       -9.365769
    6       -6.383485
    7       -6.346875
    8       -5.741966
    9       -0.052496
   10        0.774401
   11        1.573975
   12        1.972599
 
  0.2083333E+00  0.0000000E+00  0.0000000E+00  0.2314815E-02
    1      -21.786276
    2      -18.383563
    3      -13.731009
    4       -9.891468
    5       -9.273163
    6       -6.666584
    7       -6.563457
    8       -6.098975
    9        0.429973
   10        0.901075
   11        1.701824
   12        2.102198
 
  0.2500000E+00  0.0000000E+00  0.0000000E+00  0.2314815E-02
    1      -21.672286
    2      -18.748056
    3      -13.207496
    4       -9.757009
    5       -9.160956
    6       -7.038694
    7       -6.766207
    8       -6.464867
    9        0.945898
   10        1.055850
   11        1.858005
   12        2.260591
 
  0.2916667E+00  0.0000000E+00  0.0000000E+00  0.2314815E-02
    1      -21.537758
    2      -19.095925
    3      -12.674384
    4       -9.598648
    5       -9.029786
    6       -7.455094
    7       -6.984860
    8       -6.829407
    9        1.238694
   10        1.483024
   11        2.042457
   12        2.447771
 
  0.3333333E+00  0.0000000E+00  0.0000000E+00  0.2314815E-02
    1      -21.382787
    2      -19.426235
    3      -12.134068
    4       -9.416691
    5       -8.880454
    6       -7.908024
    7       -7.213168
    8       -7.185989
    9        1.449558
   10        2.032271
   11        2.255091
   12        2.663727
 
  0.3750000E+00  0.0000000E+00  0.0000000E+00  0.2314815E-02
    1      -21.207490
    2      -19.738340
    3      -11.588961
    4       -9.211519
    5       -8.713956
    6       -8.390322
    7       -7.530198
    8       -7.445659
    9        1.688377
   10        2.495758
   11        2.586041
   12        2.908437
 
  0.4166667E+00  0.0000000E+00  0.0000000E+00  0.2314815E-02
    1      -21.012001
    2      -20.031762
    3      -11.041675
    4       -8.983605
    5       -8.895544
    6       -8.531515
    7       -7.858980
    8       -7.677658
    9        1.955055
   10        2.764175
   11        3.135637
   12        3.181853
 
  0.4583333E+00  0.0000000E+00  0.0000000E+00  0.2314815E-02
    1      -20.796479
    2      -20.306121
    3      -10.495126
    4       -9.417981
    5       -8.733541
    6       -8.334630
    7       -8.170144
    8       -7.905238
    9        2.249443
   10        2.919916
   11        3.059606
   12        3.483828
 
  0.5000000E+00  0.0000000E+00  0.0000000E+00  0.1157407E-02
    1      -20.561113
    2      -20.561113
    3       -9.952629
    4       -9.952629
    5       -8.462072
    6       -8.462072
    7       -8.125129
    8       -8.125129
    9        2.571272
   10        2.571272
   11        3.378637
   12        3.378637
 
  0.0000000E+00  0.2777778E-01  0.0000000E+00  0.2314815E-02
    1      -22.032987
    2      -16.628311
    3      -15.833894
    4      -10.183286
    5       -9.589619
    6       -6.078692
    7       -5.771550
    8       -4.846632
    9       -1.167871
   10        0.566538
   11        1.364226
   12        1.760082
 
  0.4166667E-01  0.2777778E-01  0.0000000E+00  0.4629630E-02
    1      -22.022591
    2      -16.832292
    3      -15.615029
    4      -10.170968
    5       -9.579126
    6       -6.105458
    7       -5.807668
    8       -4.917831
    9       -1.082269
   10        0.580622
   11        1.378443
   12        1.774483
 
  0.8333333E-01  0.2777778E-01  0.0000000E+00  0.4629630E-02
    1      -21.991410
    2      -17.204862
    3      -15.197903
    4      -10.134036
    5       -9.547693
    6       -6.185127
    7       -5.913994
    8       -5.113553
    9       -0.843516
   10        0.622871
   11        1.421090
   12        1.817686
 
  0.1250000E+00  0.2777778E-01  0.0000000E+00  0.4629630E-02
    1      -21.939464
    2      -17.600751
    3      -14.728082
    4      -10.072545
    5       -9.495464
    6       -6.317288
    7       -6.083368
    8       -5.395472
    9       -0.490475
   10        0.693280
   11        1.492157
   12        1.889690
 
  0.1666667E+00  0.2777778E-01  0.0000000E+00  0.4629630E-02
    1      -21.866787
    2      -17.992201
    3      -14.233825
    4       -9.986592
    5       -9.422683
    6       -6.507162
    7       -6.299140
    8       -5.727669
    9       -0.059966
   10        0.791836
   11        1.591625
   12        1.990495
 
  0.2083333E+00  0.2777778E-01  0.0000000E+00  0.4629630E-02
    1      -21.773431
    2      -18.371612
    3      -13.723456
    4       -9.876318
    5       -9.329703
    6       -6.769459
    7       -6.532732
    8       -6.084825
    9        0.421436
   10        0.918522
   11        1.719463
   12        2.120097
 
  0.2500000E+00  0.2777778E-01  0.0000000E+00  0.4629630E-02
    1      -21.659459
    2      -18.735962
    3      -13.200950
    4       -9.741910
    5       -9.216998
    6       -7.106827
    7       -6.766592
    8       -6.450763
    9        0.935929
   10        1.073312
   11        1.875632
   12        2.278493
 
  0.2916667E+00  0.2777778E-01  0.0000000E+00  0.4629630E-02
    1      -21.524952
    2      -19.083709
    3      -12.669068
    4       -9.583610
    5       -9.085173
    6       -7.502692
    7       -7.002488
    8       -6.815280
    9        1.256171
   10        1.471305
   11        2.060070
   12        2.465678
 
  0.3333333E+00  0.2777778E-01  0.0000000E+00  0.4629630E-02
    1      -21.370008
    2      -19.413911
    3      -12.130257
    4       -9.401722
    5       -8.934993
    6       -7.942050
    7       -7.241490
    8       -7.171795
    9        1.467051
   10        2.018547
   11        2.272690
   12        2.681640
 
  0.3750000E+00  0.2777778E-01  0.0000000E+00  0.4629630E-02
    1      -21.194742
    2      -19.725926
    3      -11.587003
    4       -9.196629
    5       -8.767400
    6       -8.414586
    7       -7.515913
    8       -7.481285
    9        1.705889
   10        2.513348
   11        2.570179
   12        2.926360
 
  0.4166667E+00  0.2777778E-01  0.0000000E+00  0.4629630E-02
    1      -20.999289
    2      -20.019269
    3      -11.042004
    4       -8.968803
    5       -8.912444
    6       -8.583553
    7       -7.844591
    8       -7.718575
    9        1.972593
   10        2.781767
   11        3.117984
   12        3.199794
 
  0.4583333E+00  0.2777778E-01  0.0000000E+00  0.4629630E-02
    1      -20.783809
    2      -20.293560
    3      -10.498298
    4       -9.429184
    5       -8.718835
    6       -8.384860
    7       -8.155647
    8       -7.950115
    9        2.267020
   10        2.937749
   11        3.077232
   12        3.501836
 
  0.5000000E+00  0.2777778E-01  0.0000000E+00  0.2314815E-02
    1      -20.548493
    2      -20.548493
    3       -9.959356
    4       -9.959356
    5       -8.447469
    6       -8.447469
    7       -8.173028
    8       -8.173028
    9        2.588923
   10        2.588923
   11        3.396318
   12        3.396318
 
  0.0000000E+00  0.5555556E-01  0.0000000E+00  0.2314815E-02
    1      -21.994354
    2      -16.594908
    3      -15.803780
    4      -10.137521
    5       -9.757358
    6       -6.233662
    7       -5.867974
    8       -4.799924
    9       -1.188419
   10        0.618773
   11        1.417225
   12        1.813755
 
  0.4166667E-01  0.5555556E-01  0.0000000E+00  0.4629630E-02
    1      -21.983962
    2      -16.798686
    3      -15.585317
    4      -10.125218
    5       -9.746754
    6       -6.266555
    7       -5.895801
    8       -4.871699
    9       -1.102649
   10        0.632861
   11        1.431438
   12        1.828157
 
  0.8333333E-01  0.5555556E-01  0.0000000E+00  0.4629630E-02
    1      -21.952794
    2      -17.170701
    3      -15.169353
    4      -10.088327
    5       -9.714984
    6       -6.362991
    7       -5.979250
    8       -5.068693
    9       -0.863851
   10        0.675123
   11        1.474075
   12        1.871363
 
  0.1250000E+00  0.5555556E-01  0.0000000E+00  0.4629630E-02
    1      -21.900869
    2      -17.565982
    3      -14.701181
    4      -10.026905
    5       -9.662170
    6       -6.517718
    7       -6.116990
    8       -5.351844
    9       -0.511624
   10        0.745552
   11        1.545123
   12        1.943371
 
  0.1666667E+00  0.5555556E-01  0.0000000E+00  0.4629630E-02
    1      -21.828225
    2      -17.956872
    3      -14.209005
    4       -9.941051
    5       -9.588521
    6       -6.725535
    7       -6.304066
    8       -5.684887
    9       -0.083136
   10        0.844136
   11        1.644564
   12        2.044181
 
  0.2083333E+00  0.5555556E-01  0.0000000E+00  0.4629630E-02
    1      -21.734911
    2      -18.335787
    3      -13.701199
    4       -9.830903
    5       -9.494337
    6       -6.983626
    7       -6.530624
    8       -6.042486
    9        0.395024
   10        0.970856
   11        1.772369
   12        2.173791
 
  0.2500000E+00  0.5555556E-01  0.0000000E+00  0.4629630E-02
    1      -21.620991
    2      -18.699707
    3      -13.181836
    4       -9.696650
    5       -9.380015
    6       -7.291667
    7       -6.782985
    8       -6.408557
    9        0.905166
   10        1.125683
   11        1.928497
   12        2.332197
 
  0.2916667E+00  0.5555556E-01  0.0000000E+00  0.4629630E-02
    1      -21.486550
    2      -19.047081
    3      -12.653812
    4       -9.538534
    5       -9.246062
    6       -7.649179
    7       -7.047371
    8       -6.772998
    9        1.308582
   10        1.435229
   11        2.112890
   12        2.519394
 
  0.3333333E+00  0.5555556E-01  0.0000000E+00  0.4629630E-02
    1      -21.331683
    2      -19.376963
    3      -12.119756
    4       -9.356860
    5       -9.093106
    6       -8.052593
    7       -7.313661
    8       -7.129307
    9        1.519506
   10        1.976377
   11        2.325465
   12        2.735372
 
  0.3750000E+00  0.5555556E-01  0.0000000E+00  0.4629630E-02
    1      -21.156510
    2      -19.688701
    3      -11.582389
    4       -9.152008
    5       -8.921911
    6       -8.495239
    7       -7.575934
    8       -7.473144
    9        1.758393
   10        2.521447
   11        2.566089
   12        2.980115
 
  0.4166667E+00  0.5555556E-01  0.0000000E+00  0.4629630E-02
    1      -20.961166
    2      -19.981806
    3      -11.044723
    4       -8.969306
    5       -8.924449
    6       -8.733394
    7       -7.830754
    8       -7.801503
    9        2.025158
   10        2.834511
   11        3.063342
   12        3.253593
 
  0.4583333E+00  0.5555556E-01  0.0000000E+00  0.4629630E-02
    1      -20.745815
    2      -20.255893
    3      -10.510203
    4       -9.467351
    5       -8.674775
    6       -8.528642
    7       -8.112227
    8       -8.075736
    9        2.319678
   10        2.990977
   11        3.130081
   12        3.555756
 
  0.5000000E+00  0.5555556E-01  0.0000000E+00  0.2314815E-02
    1      -20.510650
    2      -20.510650
    3       -9.982839
    4       -9.982839
    5       -8.403722
    6       -8.403722
    7       -8.308930
    8       -8.308930
    9        2.641751
   10        2.641751
   11        3.449352
   12        3.449352
 
  0.0000000E+00  0.8333333E-01  0.0000000E+00  0.2314815E-02
    1      -21.930006
    2      -16.539249
    3      -15.754374
    4      -10.061353
    5      -10.022276
    6       -6.479428
    7       -6.025175
    8       -4.722142
    9       -1.225210
   10        0.705863
   11        1.505534
   12        1.903218
 
  0.4166667E-01  0.8333333E-01  0.0000000E+00  0.4629630E-02
    1      -21.919621
    2      -16.742769
    3      -15.536526
    4      -10.049073
    5      -10.011463
    6       -6.518765
    7       -6.043172
    8       -4.794940
    9       -1.139114
   10        0.719955
   11        1.519740
   12        1.917620
 
  0.8333333E-01  0.8333333E-01  0.0000000E+00  0.4629630E-02
    1      -21.888475
    2      -17.113893
    3      -15.122543
    4      -10.012254
    5       -9.979052
    6       -6.630476
    7       -6.101728
    8       -4.994173
    9       -0.900169
   10        0.762229
   11        1.562356
   12        1.960828
 
  0.1250000E+00  0.8333333E-01  0.0000000E+00  0.4629630E-02
    1      -21.836588
    2      -17.508159
    3      -14.657259
    4       -9.950952
    5       -9.925124
    6       -6.801465
    7       -6.208807
    8       -5.279469
    9       -0.549289
   10        0.832681
   11        1.633369
   12        2.032841
 
  0.1666667E+00  0.8333333E-01  0.0000000E+00  0.4629630E-02
    1      -21.763997
    2      -17.898103
    3      -14.168776
    4       -9.865266
    5       -9.849815
    6       -7.019731
    7       -6.368164
    8       -5.613963
    9       -0.124237
   10        0.931296
   11        1.732761
   12        2.133658
 
  0.2083333E+00  0.8333333E-01  0.0000000E+00  0.4629630E-02
    1      -21.670753
    2      -18.276180
    3      -13.665567
    4       -9.755335
    5       -9.753311
    6       -7.277043
    7       -6.577228
    8       -5.972306
    9        0.348397
   10        1.058055
   11        1.860503
   12        2.263277
 
  0.2500000E+00  0.8333333E-01  0.0000000E+00  0.4629630E-02
    1      -21.556922
    2      -18.639371
    3      -13.151901
    4       -9.635853
    5       -9.621348
    6       -7.569086
    7       -6.827793
    8       -6.338583
    9        0.851130
   10        1.212929
   11        2.016554
   12        2.421696
 
  0.2916667E+00  0.8333333E-01  0.0000000E+00  0.4629630E-02
    1      -21.422589
    2      -18.986115
    3      -12.630952
    4       -9.497730
    5       -9.463548
    6       -7.894975
    7       -7.107437
    8       -6.702873
    9        1.372153
   10        1.395880
   11        2.200859
   12        2.608908
 
  0.3333333E+00  0.8333333E-01  0.0000000E+00  0.4629630E-02
    1      -21.267854
    2      -19.315454
    3      -12.105728
    4       -9.339268
    5       -9.282239
    6       -8.255977
    7       -7.401671
    8       -7.058809
    9        1.606858
   10        1.902919
   11        2.413342
   12        2.824906
 
  0.3750000E+00  0.8333333E-01  0.0000000E+00  0.4629630E-02
    1      -21.092836
    2      -19.626725
    3      -11.579454
    4       -9.160827
    5       -9.077801
    6       -8.653176
    7       -7.696923
    8       -7.402148
    9        1.845805
   10        2.436685
   11        2.653885
   12        3.069678
 
  0.4166667E+00  0.8333333E-01  0.0000000E+00  0.4629630E-02
    1      -20.897676
    2      -19.919429
    3      -11.055810
    4       -9.085186
    5       -8.962778
    6       -8.850705
    7       -7.983231
    8       -7.729949
    9        2.112639
   10        2.922288
   11        2.967470
   12        3.343203
 
  0.4583333E+00  0.8333333E-01  0.0000000E+00  0.4629630E-02
    1      -20.682543
    2      -20.193171
    3      -10.539107
    4       -9.547644
    5       -8.745493
    6       -8.601535
    7       -8.254913
    8       -8.040097
    9        2.407256
   10        3.079092
   11        3.218033
   12        3.486128
 
  0.5000000E+00  0.8333333E-01  0.0000000E+00  0.2314815E-02
    1      -20.447631
    2      -20.447631
    3      -10.034425
    4      -10.034425
    5       -8.509361
    6       -8.509361
    7       -8.331024
    8       -8.331024
    9        2.729497
   10        2.729497
   11        3.537706
   12        3.537706
 
  0.0000000E+00  0.1111111E+00  0.0000000E+00  0.2314815E-02
    1      -21.840008
    2      -16.461358
    3      -15.687025
    4      -10.366065
    5       -9.954943
    6       -6.800683
    7       -6.238302
    8       -4.613382
    9       -1.281949
   10        0.827843
   11        1.629114
   12        2.028476
 
  0.4166667E-01  0.1111111E+00  0.0000000E+00  0.4629630E-02
    1      -21.829634
    2      -16.664702
    3      -15.469916
    4      -10.354898
    5       -9.942698
    6       -6.845657
    7       -6.246326
    8       -4.687762
    9       -1.195280
   10        0.841936
   11        1.643309
   12        2.042879
 
  0.8333333E-01  0.1111111E+00  0.0000000E+00  0.4629630E-02
    1      -21.798519
    2      -17.034652
    3      -15.058821
    4      -10.321397
    5       -9.905984
    6       -6.969992
    7       -6.279867
    8       -4.890412
    9       -0.955943
   10        0.884214
   11        1.685891
   12        2.086087
 
  0.1250000E+00  0.1111111E+00  0.0000000E+00  0.4629630E-02
    1      -21.746685
    2      -17.427488
    3      -14.597933
    4      -10.265565
    5       -9.844856
    6       -7.153618
    7       -6.355535
    8       -5.178911
    9       -0.606896
   10        0.954674
   11        1.756848
   12        2.158102
 
  0.1666667E+00  0.1111111E+00  0.0000000E+00  0.4629630E-02
    1      -21.674169
    2      -17.816080
    3      -14.115187
    4      -10.187394
    5       -9.759415
    6       -7.380081
    7       -6.483825
    8       -5.515522
    9       -0.186761
   10        1.053307
   11        1.856159
   12        2.258924
 
  0.2083333E+00  0.1111111E+00  0.0000000E+00  0.4629630E-02
    1      -21.581024
    2      -18.192954
    3      -13.619241
    4      -10.086854
    5       -9.649800
    6       -7.638470
    7       -6.667215
    8       -5.874908
    9        0.277919
   10        1.180095
   11        1.983794
   12        2.388551
 
  0.2500000E+00  0.1111111E+00  0.0000000E+00  0.4629630E-02
    1      -21.467319
    2      -18.555098
    3      -13.114733
    4       -9.963868
    5       -9.516203
    6       -7.922148
    7       -6.901809
    8       -6.241436
    9        0.770006
   10        1.335008
   11        2.139712
   12        2.546981
 
  0.2916667E+00  0.1111111E+00  0.0000000E+00  0.4629630E-02
    1      -21.333140
    2      -18.900938
    3      -12.605374
    4       -9.818275
    5       -9.358865
    6       -8.227904
    7       -7.178894
    8       -6.605455
    9        1.278082
   10        1.518004
   11        2.323859
   12        2.734208
 
  0.3333333E+00  0.1111111E+00  0.0000000E+00  0.4629630E-02
    1      -21.178589
    2      -19.229499
    3      -12.094908
    4       -9.649782
    5       -9.178092
    6       -8.555557
    7       -7.486186
    8       -6.960805
    9        1.729032
   10        1.794000
   11        2.536162
   12        2.950226
 
  0.3750000E+00  0.1111111E+00  0.0000000E+00  0.4629630E-02
    1      -21.003792
    2      -19.540101
    3      -11.587541
    4       -9.457912
    5       -8.974262
    6       -8.907453
    7       -7.809115
    8       -7.303384
    9        1.968028
   10        2.311486
   11        2.776524
   12        3.195025
 
  0.4166667E+00  0.1111111E+00  0.0000000E+00  0.4629630E-02
    1      -20.808894
    2      -19.832231
    3      -11.088196
    4       -9.287153
    5       -9.241971
    6       -8.747845
    7       -8.132700
    8       -7.630343
    9        2.234915
   10        2.825356
   11        3.044802
   12        3.468589
 
  0.4583333E+00  0.1111111E+00  0.0000000E+00  0.4629630E-02
    1      -20.594069
    2      -20.105481
    3      -10.602588
    4       -9.697177
    5       -9.001145
    6       -8.499420
    7       -8.444130
    8       -7.939628
    9        2.529596
   10        3.201748
   11        3.330854
   12        3.340717
 
  0.5000000E+00  0.1111111E+00  0.0000000E+00  0.2314815E-02
    1      -20.359519
    2      -20.359519
    3      -10.136959
    4      -10.136959
    5       -8.734918
    6       -8.734918
    7       -8.229711
    8       -8.229711
    9        2.851939
   10        2.851939
   11        3.661165
   12        3.661170
 
  0.0000000E+00  0.1388889E+00  0.0000000E+00  0.2314815E-02
    1      -21.724453
    2      -16.361263
    3      -15.604031
    4      -10.768236
    5       -9.818526
    6       -7.180978
    7       -6.501274
    8       -4.473783
    9       -1.363543
   10        0.984740
   11        1.787910
   12        2.189537
 
  0.4166667E-01  0.1388889E+00  0.0000000E+00  0.4629630E-02
    1      -21.714092
    2      -16.564748
    3      -15.387636
    4      -10.756479
    5       -9.806329
    6       -7.230782
    7       -6.499495
    8       -4.550499
    9       -1.275879
   10        0.998828
   11        1.802088
   12        2.203939
 
  0.8333333E-01  0.1388889E+00  0.0000000E+00  0.4629630E-02
    1      -21.683017
    2      -16.933330
    3      -14.980539
    4      -10.721160
    5       -9.769755
    6       -7.365808
    7       -6.508022
    8       -4.758094
    9       -1.035618
   10        1.041094
   11        1.844616
   12        2.247145
 
  0.1250000E+00  0.1388889E+00  0.0000000E+00  0.4629630E-02
    1      -21.631251
    2      -17.324302
    3      -14.526089
    4      -10.662124
    5       -9.708865
    6       -7.560171
    7       -6.550945
    8       -5.051087
    9       -0.688754
   10        1.111539
   11        1.915482
   12        2.319157
 
  0.1666667E+00  0.1388889E+00  0.0000000E+00  0.4629630E-02
    1      -21.558834
    2      -17.711097
    3      -14.051980
    4      -10.579085
    5       -9.623756
    6       -7.794095
    7       -6.644478
    8       -5.390561
    9       -0.275049
   10        1.210163
   11        2.014661
   12        2.419978
 
  0.2083333E+00  0.1388889E+00  0.0000000E+00  0.4629630E-02
    1      -21.465819
    2      -18.086365
    3      -13.567242
    4      -10.471575
    5       -9.514573
    6       -8.055001
    7       -6.795396
    8       -5.751279
    9        0.179134
   10        1.336951
   11        2.142119
   12        2.549608
 
  0.2500000E+00  0.1388889E+00  0.0000000E+00  0.4629630E-02
    1      -21.352277
    2      -18.447110
    3      -13.077216
    4      -10.338869
    5       -9.381505
    6       -8.334993
    7       -7.003454
    8       -6.118042
    9        0.657215
   10        1.491876
   11        2.297806
   12        2.708044
 
  0.2916667E+00  0.1388889E+00  0.0000000E+00  0.4629630E-02
    1      -21.218299
    2      -18.791744
    3      -12.586646
    4      -10.179897
    5       -9.224799
    6       -8.629353
    7       -7.263256
    8       -6.481596
    9        1.148365
   10        1.674896
   11        2.481661
   12        2.895284
 
  0.3333333E+00  0.1388889E+00  0.0000000E+00  0.4629630E-02
    1      -21.063991
    2      -19.119270
    3      -12.100650
    4       -9.993147
    5       -9.044758
    6       -8.935949
    7       -7.565587
    8       -6.836066
    9        1.644990
   10        1.885952
   11        2.693598
   12        3.111318
 
  0.3750000E+00  0.1388889E+00  0.0000000E+00  0.4629630E-02
    1      -20.889482
    2      -19.428984
    3      -11.625093
    4       -9.776676
    5       -9.255096
    6       -8.841762
    7       -7.898404
    8       -7.177544
    9        2.124976
   10        2.141370
   11        2.933504
   12        3.356138
 
  0.4166667E+00  0.1388889E+00  0.0000000E+00  0.4629630E-02
    1      -20.694928
    2      -19.720353
    3      -11.166482
    4       -9.589521
    5       -9.528446
    6       -8.616279
    7       -8.247610
    8       -7.503306
    9        2.391884
   10        2.632908
   11        3.201220
   12        3.629732
 
  0.4583333E+00  0.1388889E+00  0.0000000E+00  0.4629630E-02
    1      -20.480508
    2      -19.992953
    3      -10.731116
    4       -9.943895
    5       -9.247345
    6       -8.598014
    7       -8.368882
    8       -7.811379
    9        2.686580
   10        3.115676
   11        3.358803
   12        3.496403
 
  0.5000000E+00  0.1388889E+00  0.0000000E+00  0.2314815E-02
    1      -20.246435
    2      -20.246435
    3      -10.323362
    4      -10.323362
    5       -8.935064
    6       -8.935064
    7       -8.100284
    8       -8.100284
    9        3.008941
   10        3.008941
   11        3.585505
   12        3.585505
 
  0.0000000E+00  0.1666667E+00  0.0000000E+00  0.2314815E-02
    1      -21.583462
    2      -16.239007
    3      -15.509241
    4      -11.207920
    5       -9.652414
    6       -7.604901
    7       -6.807281
    8       -4.303527
    9       -1.475692
   10        1.176560
   11        1.981843
   12        2.386405
 
  0.4166667E-01  0.1666667E+00  0.0000000E+00  0.4629630E-02
    1      -21.573118
    2      -16.443355
    3      -15.293314
    4      -11.195164
    5       -9.640278
    6       -7.658973
    7       -6.795919
    8       -4.383684
    9       -1.386278
   10        1.190637
   11        1.995993
   12        2.400805
 
  0.8333333E-01  0.1666667E+00  0.0000000E+00  0.4629630E-02
    1      -21.542094
    2      -16.810492
    3      -14.891763
    4      -11.156744
    5       -9.603890
    6       -7.803484
    7       -6.779534
    8       -4.598335
    9       -1.144011
   10        1.232873
   11        2.038436
   12        2.444005
 
  0.1250000E+00  0.1666667E+00  0.0000000E+00  0.4629630E-02
    1      -21.490414
    2      -17.199125
    3      -14.446871
    4      -11.092188
    5       -9.543310
    6       -8.007569
    7       -6.788683
    8       -4.897457
    9       -0.799381
   10        1.303274
   11        2.109153
   12        2.516008
 
  0.1666667E+00  0.1666667E+00  0.0000000E+00  0.4629630E-02
    1      -21.418119
    2      -17.583606
    3      -13.986041
    4      -11.000632
    5       -9.458638
    6       -8.248748
    7       -6.844535
    8       -5.240627
    9       -0.393550
   10        1.401848
   11        2.208112
   12        2.616820
 
  0.2083333E+00  0.1666667E+00  0.0000000E+00  0.4629630E-02
    1      -21.325265
    2      -17.956798
    3      -13.519063
    4      -10.880707
    5       -9.350020
    6       -8.513270
    7       -6.957699
    8       -5.602913
    9        0.047578
   10        1.528593
   11        2.335261
   12        2.746442
 
  0.2500000E+00  0.1666667E+00  0.0000000E+00  0.4629630E-02
    1      -21.211927
    2      -18.315736
    3      -13.052646
    4      -10.730394
    5       -9.217650
    6       -8.792548
    7       -7.131243
    8       -5.969785
    9        0.508325
   10        1.683489
   11        2.490525
   12        2.904877
 
  0.2916667E+00  0.1666667E+00  0.0000000E+00  0.4629630E-02
    1      -21.078199
    2      -18.658818
    3      -12.593369
    4      -10.546934
    5       -9.081108
    6       -9.061774
    7       -7.362717
    8       -6.332546
    9        0.978734
   10        1.866493
   11        2.673793
   12        3.092120
 
  0.3333333E+00  0.1666667E+00  0.0000000E+00  0.4629630E-02
    1      -20.924193
    2      -18.985014
    3      -12.148349
    4      -10.327023
    5       -9.375674
    6       -8.882702
    7       -7.645566
    8       -6.685711
    9        1.452002
   10        2.077544
   11        2.884878
   12        3.308166
 
  0.3750000E+00  0.1666667E+00  0.0000000E+00  0.4629630E-02
    1      -20.750048
    2      -19.293593
    3      -11.724718
    4      -10.067702
    5       -9.674861
    6       -8.680812
    7       -7.970265
    8       -7.025625
    9        1.923132
   10        2.316562
   11        3.123400
   12        3.553002
 
  0.4166667E+00  0.1666667E+00  0.0000000E+00  0.4629630E-02
    1      -20.555926
    2      -19.583993
    3      -11.327890
    4       -9.979190
    5       -9.768329
    6       -8.456571
    7       -8.325171
    8       -7.349725
    9        2.388183
   10        2.583456
   11        3.387982
   12        3.826618
 
  0.4583333E+00  0.1666667E+00  0.0000000E+00  0.4629630E-02
    1      -20.342018
    2      -19.855768
    3      -10.959344
    4      -10.291266
    5       -9.432965
    6       -8.697025
    7       -8.210549
    8       -7.656138
    9        2.843708
   10        2.878118
   11        3.550205
   12        3.639343
 
  0.5000000E+00  0.1666667E+00  0.0000000E+00  0.2314815E-02
    1      -20.108545
    2      -20.108545
    3      -10.615859
    4      -10.615859
    5       -9.071300
    6       -9.071300
    7       -7.943446
    8       -7.943446
    9        3.200421
   10        3.200421
   11        3.285435
   12        3.285435
 