gr                                      
           1
     4.251682    0.000000    0.000000
     0.000000    2.541939    0.000000
     0.000000    0.000000   19.508453
   C 
   4
Direct configuration=     1
   0.00074775  0.00000000  0.00000000
   0.16591892  0.50000000  0.00000000
   0.50074775  0.50000000  0.00000000
   0.66591892  0.00000000  0.00000000
Direct configuration=     2
   0.00076918  0.00000000 -0.00000000
   0.16589749  0.50000000  0.00000000
   0.50076918  0.50000000 -0.00000000
   0.66589749 -0.00000000  0.00000000
Direct configuration=     3
   0.00075208  0.00000000 -0.00000000
   0.16591459  0.50000000  0.00000000
   0.50075208  0.50000000 -0.00000000
   0.66591459  0.00000000  0.00000000
Direct configuration=     4
   0.00075205  0.00000000 -0.00000000
   0.16591461  0.50000000  0.00000000
   0.50075205  0.50000000 -0.00000000
   0.66591461  0.00000000  0.00000000
Direct configuration=     5
   0.00075207 -0.00000000 -0.00000000
   0.16591460  0.50000000  0.00000000
   0.50075207  0.50000000 -0.00000000
   0.66591460 -0.00000000  0.00000000
Direct configuration=     6
   0.00075207 -0.00000000 -0.00000000
   0.16591460  0.50000000  0.00000000
   0.50075207  0.50000000 -0.00000000
   0.66591460 -0.00000000  0.00000000
Direct configuration=     7
   0.00075207 -0.00000000  0.00000000
   0.16591459  0.50000000 -0.00000000
   0.50075207  0.50000000  0.00000000
   0.66591459 -0.00000000 -0.00000000
