 running on    8 total cores
 distrk:  each k-point on    8 cores,    1 groups
 distr:  one band on    2 cores,    4 groups
 using from now: INCAR     
 vasp.5.3.5 31Mar14 (build Mar 02 2015 18:14:16) complex                        
  
 POSCAR found type information on POSCAR  C 
 POSCAR found :  1 types and       4 ions
 LDA part: xc-table for Pade appr. of Perdew
 POSCAR, INCAR and KPOINTS ok, starting setup
 FFT: planning ...
 WAVECAR not read
 entering main loop
       N       E                     dE             d eps       ncg     rms          rms(c)
DAV:   1     0.186663314784E+03    0.18666E+03   -0.10607E+04  5928   0.275E+03
DAV:   2    -0.980412144018E+01   -0.19647E+03   -0.17486E+03 10380   0.258E+02
DAV:   3    -0.382244978686E+02   -0.28420E+02   -0.27866E+02  7348   0.118E+02    0.715E+00
RMM:   4    -0.376118275295E+02    0.61267E+00   -0.89966E+00  5928   0.258E+01    0.413E+00
RMM:   5    -0.368923225530E+02    0.71950E+00   -0.26595E+00  5929   0.112E+01    0.705E-01
RMM:   6    -0.368939314280E+02   -0.16089E-02   -0.79209E-02  6366   0.199E+00    0.509E-01
RMM:   7    -0.368850182141E+02    0.89132E-02   -0.32120E-02  5938   0.156E+00    0.333E-01
RMM:   8    -0.368797691696E+02    0.52490E-02   -0.69758E-03  5934   0.552E-01    0.134E-01
RMM:   9    -0.368796336937E+02    0.13548E-03   -0.20113E-02  5928   0.840E-01    0.157E-01
RMM:  10    -0.368794395886E+02    0.19411E-03   -0.23068E-03  5928   0.346E-01    0.272E-02
RMM:  11    -0.368818189140E+02   -0.23793E-02   -0.77885E-04  5931   0.188E-01    0.462E-02
RMM:  12    -0.368822744849E+02   -0.45557E-03   -0.21246E-04  5942   0.971E-02    0.670E-03
RMM:  13    -0.368825486735E+02   -0.27419E-03   -0.59777E-05  6004   0.433E-02    0.400E-03
RMM:  14    -0.368826300953E+02   -0.81422E-04   -0.10435E-05  5957   0.171E-02    0.135E-03
RMM:  15    -0.368826423166E+02   -0.12221E-04   -0.18975E-06  5994   0.777E-03    0.175E-03
RMM:  16    -0.368826550412E+02   -0.12725E-04   -0.12296E-06  5928   0.708E-03    0.946E-04
RMM:  17    -0.368826609765E+02   -0.59353E-05   -0.68936E-08  6096   0.171E-03    0.856E-04
RMM:  18    -0.368826620988E+02   -0.11223E-05   -0.79617E-08  5928   0.208E-03    0.835E-05
WARNING in EDDRMM: call to ZHEGV failed, returncode =   6  3  1
RMM:  19    -0.368826628772E+02   -0.77838E-06   -0.10854E-08  6046   0.507E-04    0.272E-05
RMM:  20    -0.368826629437E+02   -0.66547E-07   -0.87901E-10  4454   0.133E-04    0.219E-05
RMM:  21    -0.368826629592E+02   -0.15438E-07   -0.23577E-10  4366   0.966E-05    0.390E-06
RMM:  22    -0.368826629591E+02    0.67189E-10   -0.10177E-11  3892   0.426E-05
   1 F= -.36882663E+02 E0= -.36882663E+02  d E =-.368827E+02
 BRION: g(F)=  0.528E-06 g(S)=  0.000E+00
 bond charge predicted
       N       E                     dE             d eps       ncg     rms          rms(c)
DAV:   1    -0.368826621422E+02    0.81696E-06   -0.70726E-05  6552   0.792E-02    0.162E-03
RMM:   2    -0.368826621960E+02   -0.53823E-07   -0.11723E-06  5955   0.952E-03    0.118E-03
RMM:   3    -0.368826621750E+02    0.21055E-07   -0.19051E-07  5991   0.353E-03    0.299E-04
WARNING in EDDRMM: call to ZHEGV failed, returncode =   6  3  1
RMM:   4    -0.368826621696E+02    0.53470E-08   -0.11672E-08  6039   0.851E-04    0.863E-05
RMM:   5    -0.368826621713E+02   -0.16753E-08   -0.92313E-10  5187   0.220E-04    0.387E-05
RMM:   6    -0.368826621709E+02    0.36334E-09   -0.12184E-10  3838   0.938E-05    0.458E-06
RMM:   7    -0.368826621708E+02    0.11858E-09   -0.10507E-11  3774   0.533E-05    0.292E-06
RMM:   8    -0.368826621709E+02   -0.65029E-10   -0.99722E-12  3365   0.391E-05
   2 F= -.36882662E+02 E0= -.36882662E+02  d E =0.788210E-06
 BRION: g(F)=  0.861E-05 g(S)=  0.000E+00 retain N=  1 mean eig= 0.20
 eig:   0.198
 bond charge predicted
       N       E                     dE             d eps       ncg     rms          rms(c)
DAV:   1    -0.368826630199E+02   -0.84910E-06   -0.45401E-05  6692   0.635E-02    0.130E-03
RMM:   2    -0.368826630465E+02   -0.26558E-07   -0.72549E-07  5946   0.761E-03    0.946E-04
RMM:   3    -0.368826630160E+02    0.30493E-07   -0.11951E-07  5979   0.280E-03    0.228E-04
RMM:   4    -0.368826630158E+02    0.21896E-09   -0.70479E-09  6039   0.667E-04    0.690E-05
RMM:   5    -0.368826630145E+02    0.12531E-08   -0.56962E-10  4674   0.175E-04    0.307E-05
RMM:   6    -0.368826630149E+02   -0.37812E-09   -0.72744E-11  3765   0.801E-05    0.403E-06
RMM:   7    -0.368826630146E+02    0.28047E-09   -0.22110E-11  3747   0.542E-05    0.286E-06
RMM:   8    -0.368826630148E+02   -0.20600E-09   -0.11844E-11  3231   0.377E-05    0.978E-07
RMM:   9    -0.368826630145E+02    0.35254E-09   -0.52978E-12  2897   0.292E-05    0.210E-07
RMM:  10    -0.368826630149E+02   -0.42814E-09   -0.26265E-12  2680   0.258E-05    0.117E-06
RMM:  11    -0.368826630147E+02    0.21271E-09   -0.37529E-12  2431   0.236E-05    0.777E-07
RMM:  12    -0.368826630148E+02   -0.15837E-09   -0.34951E-12  2319   0.219E-05    0.276E-07
RMM:  13    -0.368826630148E+02    0.85038E-10   -0.10960E-12  2261   0.211E-05
   3 F= -.36882663E+02 E0= -.36882663E+02  d E =-.843866E-06
 BRION: g(F)=  0.111E-11 g(S)=  0.000E+00 retain N=  1 mean eig= 0.20
 eig:   0.199
 bond charge predicted
       N       E                     dE             d eps       ncg     rms          rms(c)
DAV:   1    -0.368826630143E+02    0.56957E-09    0.60480E-09  4612   0.296E-05    0.430E-07
RMM:   2    -0.368826630146E+02   -0.32287E-09    0.15683E-13  1503   0.110E-05    0.268E-07
RMM:   3    -0.368826630149E+02   -0.30946E-09    0.82650E-15  1463   0.110E-05    0.210E-08
RMM:   4    -0.368826630144E+02    0.49567E-09   -0.76289E-13  1434   0.110E-05    0.117E-08
RMM:   5    -0.368826630145E+02   -0.14506E-09    0.20251E-14  1404   0.108E-05    0.107E-08
RMM:   6    -0.368826630144E+02    0.10868E-09    0.18621E-13  1359   0.107E-05    0.813E-09
RMM:   7    -0.368826630147E+02   -0.23851E-09    0.82362E-14  1355   0.105E-05    0.334E-09
RMM:   8    -0.368826630144E+02    0.27057E-09    0.74426E-14  1352   0.105E-05    0.293E-09
RMM:   9    -0.368826630149E+02   -0.49135E-09   -0.36329E-13  1042   0.104E-05    0.187E-09
RMM:  10    -0.368826630147E+02    0.24409E-09   -0.31582E-13  1086   0.104E-05    0.142E-09
RMM:  11    -0.368826630149E+02   -0.20634E-09    0.95212E-14  1060   0.104E-05    0.176E-09
RMM:  12    -0.368826630149E+02   -0.17621E-10    0.20607E-13   928   0.103E-05
   4 F= -.36882663E+02 E0= -.36882663E+02  d E =-.127670E-09
 BRION: g(F)=  0.830E-12 g(S)=  0.000E+00 retain N=  1 mean eig= 0.11
 eig:   0.106
 bond charge predicted
       N       E                     dE             d eps       ncg     rms          rms(c)
DAV:   1    -0.368826630139E+02    0.92257E-09    0.60573E-09  4516   0.131E-05    0.163E-07
RMM:   2    -0.368826630149E+02   -0.92405E-09   -0.50762E-14  1023   0.496E-06    0.100E-07
RMM:   3    -0.368826630145E+02    0.39392E-09   -0.78003E-14   856   0.492E-06    0.455E-09
RMM:   4    -0.368826630147E+02   -0.19884E-09    0.11509E-13  1027   0.493E-06    0.272E-09
RMM:   5    -0.368826630145E+02    0.17030E-09   -0.11752E-13   826   0.497E-06    0.130E-09
RMM:   6    -0.368826630147E+02   -0.19452E-09    0.56909E-14   956   0.493E-06    0.107E-09
RMM:   7    -0.368826630146E+02    0.66620E-10   -0.47205E-14   523   0.491E-06
   5 F= -.36882663E+02 E0= -.36882663E+02  d E =0.253635E-09
 BRION: g(F)=  0.630E-13 g(S)=  0.000E+00 retain N=  1 mean eig= 0.08
 eig:   0.083
 reached required accuracy - stopping structural energy minimisation
