    4    4  400    1
  0.5270948E+02  0.4258656E-09  0.2516401E-09  0.1967416E-08  0.5000000E-15
  1.000000000000000E-004
  CAR 
 gr                                      
     16    247     12
 
  0.0000000E+00  0.0000000E+00  0.0000000E+00  0.1157407E-02
    1      -22.116435
    2      -16.768343
    3      -15.885591
    4      -10.252986
    5       -9.414669
    6       -5.954377
    7       -5.747510
    8       -4.946414
    9       -1.126691
   10        0.540380
   11        1.339132
   12        1.730319
 
  0.4166667E-01  0.0000000E+00  0.0000000E+00  0.2314815E-02
    1      -22.106086
    2      -16.957534
    3      -15.681333
    4      -10.240689
    5       -9.404302
    6       -5.977871
    7       -5.788224
    8       -5.015783
    9       -1.042268
   10        0.554407
   11        1.353307
   12        1.744672
 
  0.8333333E-01  0.0000000E+00  0.0000000E+00  0.2314815E-02
    1      -22.075043
    2      -17.318097
    3      -15.275658
    4      -10.203813
    5       -9.373250
    6       -6.047008
    7       -5.908852
    8       -5.207208
    9       -0.805859
   10        0.596484
   11        1.395831
   12        1.787734
 
  0.1250000E+00  0.0000000E+00  0.0000000E+00  0.2314815E-02
    1      -22.023326
    2      -17.707835
    3      -14.811041
    4      -10.142418
    5       -9.321664
    6       -6.157990
    7       -6.105079
    8       -5.484379
    9       -0.454304
   10        0.666608
   11        1.466691
   12        1.859503
 
  0.1666667E+00  0.0000000E+00  0.0000000E+00  0.2314815E-02
    1      -21.950969
    2      -18.095499
    3      -14.319203
    4      -10.056599
    5       -9.249803
    6       -6.370396
    7       -6.305193
    8       -5.812481
    9       -0.023309
   10        0.764772
   11        1.565868
   12        1.959979
 
  0.2083333E+00  0.0000000E+00  0.0000000E+00  0.2314815E-02
    1      -21.858022
    2      -18.472197
    3      -13.809716
    4       -9.946498
    5       -9.158038
    6       -6.696900
    7       -6.481952
    8       -6.166436
    9        0.460788
   10        0.890964
   11        1.693331
   12        2.089161
 
  0.2500000E+00  0.0000000E+00  0.0000000E+00  0.2314815E-02
    1      -21.744549
    2      -18.834397
    3      -13.287010
    4       -9.812301
    5       -9.046869
    6       -7.076078
    7       -6.681296
    8       -6.529950
    9        0.980050
   10        1.045160
   11        1.849036
   12        2.247046
 
  0.2916667E+00  0.0000000E+00  0.0000000E+00  0.2314815E-02
    1      -21.610631
    2      -19.180324
    3      -12.754000
    4       -9.654253
    5       -8.916939
    6       -7.499440
    7       -6.896501
    8       -6.892635
    9        1.227329
   10        1.522014
   11        2.032916
   12        2.433629
 
  0.3333333E+00  0.0000000E+00  0.0000000E+00  0.2314815E-02
    1      -21.456363
    2      -19.508926
    3      -12.213155
    4       -9.472659
    5       -8.769054
    6       -7.958942
    7       -7.247745
    8       -7.121433
    9        1.437428
   10        2.077329
   11        2.244871
   12        2.648901
 
  0.3750000E+00  0.0000000E+00  0.0000000E+00  0.2314815E-02
    1      -21.281861
    2      -19.819498
    3      -11.666909
    4       -9.267905
    5       -8.604218
    6       -8.447237
    7       -7.590763
    8       -7.350695
    9        1.675394
   10        2.484730
   11        2.637886
   12        2.892848
 
  0.4166667E+00  0.0000000E+00  0.0000000E+00  0.2314815E-02
    1      -21.087258
    2      -20.111523
    3      -11.117855
    4       -9.040469
    5       -8.957770
    6       -8.423662
    7       -7.918558
    8       -7.579660
    9        1.941144
   10        2.752154
   11        3.165439
   12        3.192954
 
  0.4583333E+00  0.0000000E+00  0.0000000E+00  0.2314815E-02
    1      -20.872715
    2      -20.384604
    3      -10.568883
    4       -9.484786
    5       -8.790949
    6       -8.228889
    7       -8.228889
    8       -7.804425
    9        2.234552
   10        2.903347
   11        3.046259
   12        3.466651
 
  0.5000000E+00  0.0000000E+00  0.0000000E+00  0.1157407E-02
    1      -20.638423
    2      -20.638423
    3      -10.023272
    4      -10.023272
    5       -8.520102
    6       -8.520102
    7       -8.021734
    8       -8.021734
    9        2.555415
   10        2.555415
   11        3.363159
   12        3.363159
 
  0.0000000E+00  0.2777778E-01  0.0000000E+00  0.2314815E-02
    1      -22.103293
    2      -16.757013
    3      -15.874960
    4      -10.237369
    5       -9.473531
    6       -6.008566
    7       -5.779327
    8       -4.930488
    9       -1.132415
   10        0.558165
   11        1.357169
   12        1.748580
 
  0.4166667E-01  0.2777778E-01  0.0000000E+00  0.4629630E-02
    1      -22.092945
    2      -16.946085
    3      -15.670881
    4      -10.225076
    5       -9.463136
    6       -6.035387
    7       -5.815993
    8       -5.000027
    9       -1.047951
   10        0.572192
   11        1.371344
   12        1.762934
 
  0.8333333E-01  0.2777778E-01  0.0000000E+00  0.4629630E-02
    1      -22.061906
    2      -17.306434
    3      -15.265600
    4      -10.188214
    5       -9.431999
    6       -6.116315
    7       -5.922798
    8       -5.191836
    9       -0.811547
   10        0.614273
   11        1.413864
   12        1.805996
 
  0.1250000E+00  0.2777778E-01  0.0000000E+00  0.4629630E-02
    1      -22.010196
    2      -17.695963
    3      -14.801500
    4      -10.126840
    5       -9.380267
    6       -6.255974
    7       -6.087348
    8       -5.469387
    9       -0.460260
   10        0.684404
   11        1.484719
   12        1.877767
 
  0.1666667E+00  0.2777778E-01  0.0000000E+00  0.4629630E-02
    1      -21.937849
    2      -18.083441
    3      -14.310296
    4      -10.041053
    5       -9.308187
    6       -6.469512
    7       -6.282787
    8       -5.797760
    9       -0.029904
   10        0.782577
   11        1.583889
   12        1.978245
 
  0.2083333E+00  0.2777778E-01  0.0000000E+00  0.4629630E-02
    1      -21.844917
    2      -18.459976
    3      -13.801578
    4       -9.930992
    5       -9.216120
    6       -6.764207
    7       -6.487664
    8       -6.151862
    9        0.453170
   10        0.908779
   11        1.711343
   12        2.107429
 
  0.2500000E+00  0.2777778E-01  0.0000000E+00  0.4629630E-02
    1      -21.731462
    2      -18.822035
    3      -13.279800
    4       -9.796845
    5       -9.104545
    6       -7.124611
    7       -6.702236
    8       -6.515427
    9        0.971057
   10        1.062988
   11        1.867036
   12        2.265317
 
  0.2916667E+00  0.2777778E-01  0.0000000E+00  0.4629630E-02
    1      -21.597565
    2      -19.167841
    3      -12.747914
    4       -9.638855
    5       -8.974084
    6       -7.535237
    7       -6.926954
    8       -6.878096
    9        1.245171
   10        1.511341
   11        2.050905
   12        2.451903
 
  0.3333333E+00  0.2777778E-01  0.0000000E+00  0.4629630E-02
    1      -21.443323
    2      -19.496338
    3      -12.208435
    4       -9.457329
    5       -8.825512
    6       -7.985248
    7       -7.233148
    8       -7.158547
    9        1.455284
   10        2.064736
   11        2.262849
   12        2.667181
 
  0.3750000E+00  0.2777778E-01  0.0000000E+00  0.4629630E-02
    1      -21.268851
    2      -19.806819
    3      -11.663851
    4       -9.252651
    5       -8.659793
    6       -8.466150
    7       -7.576082
    8       -7.392769
    9        1.693269
   10        2.502703
   11        2.623285
   12        2.911135
 
  0.4166667E+00  0.2777778E-01  0.0000000E+00  0.4629630E-02
    1      -21.074284
    2      -20.098767
    3      -11.116830
    4       -9.025299
    5       -8.970812
    6       -8.478106
    7       -7.903780
    8       -7.625542
    9        1.959041
   10        2.770134
   11        3.176963
   12        3.183739
 
  0.4583333E+00  0.2777778E-01  0.0000000E+00  0.4629630E-02
    1      -20.859784
    2      -20.371780
    3      -10.570353
    4       -9.493121
    5       -8.775871
    6       -8.281895
    7       -8.214009
    8       -7.853275
    9        2.252479
   10        2.921436
   11        3.064273
   12        3.484948
 
  0.5000000E+00  0.2777778E-01  0.0000000E+00  0.2314815E-02
    1      -20.625541
    2      -20.625541
    3      -10.027812
    4      -10.027812
    5       -8.505121
    6       -8.505121
    7       -8.072911
    8       -8.072911
    9        2.573395
   10        2.573395
   11        3.381197
   12        3.381197
 
  0.0000000E+00  0.5555556E-01  0.0000000E+00  0.2314815E-02
    1      -22.063878
    2      -16.723030
    3      -15.843264
    4      -10.190549
    5       -9.645296
    6       -6.166903
    7       -5.873806
    8       -4.882728
    9       -1.150384
   10        0.611526
   11        1.411275
   12        1.803366
 
  0.4166667E-01  0.5555556E-01  0.0000000E+00  0.4629630E-02
    1      -22.053533
    2      -16.911760
    3      -15.639709
    4      -10.178269
    5       -9.634812
    6       -6.200254
    7       -5.901842
    8       -4.952796
    9       -1.065785
   10        0.625556
   11        1.425446
   12        1.817721
 
  0.8333333E-01  0.5555556E-01  0.0000000E+00  0.4629630E-02
    1      -22.022507
    2      -17.271477
    3      -15.235618
    4      -10.141448
    5       -9.603401
    6       -6.298533
    7       -5.985362
    8       -5.145786
    9       -0.829381
   10        0.667645
   11        1.467956
   12        1.860784
 
  0.1250000E+00  0.5555556E-01  0.0000000E+00  0.4629630E-02
    1      -21.970819
    2      -17.660379
    3      -14.773101
    4      -10.080142
    5       -9.551193
    6       -6.457825
    7       -6.121469
    8       -5.424505
    9       -0.478899
   10        0.737791
   11        1.538795
   12        1.932558
 
  0.1666667E+00  0.5555556E-01  0.0000000E+00  0.4629630E-02
    1      -21.898505
    2      -18.047295
    3      -14.283850
    4       -9.994450
    5       -9.478407
    6       -6.674717
    7       -6.303095
    8       -5.753699
    9       -0.050489
   10        0.835986
   11        1.637941
   12        2.033040
 
  0.2083333E+00  0.5555556E-01  0.0000000E+00  0.4629630E-02
    1      -21.805614
    2      -18.423339
    3      -13.777509
    4       -9.884511
    5       -9.385359
    6       -6.947452
    7       -6.518980
    8       -6.108247
    9        0.429472
   10        0.962216
   11        1.765365
   12        2.162231
 
  0.2500000E+00  0.5555556E-01  0.0000000E+00  0.4629630E-02
    1      -21.692211
    2      -18.784972
    3      -13.258617
    4       -9.750514
    5       -9.272469
    6       -7.274387
    7       -6.756449
    8       -6.471962
    9        0.943174
   10        1.116456
   11        1.921024
   12        2.320126
 
  0.2916667E+00  0.5555556E-01  0.0000000E+00  0.4629630E-02
    1      -21.558380
    2      -19.130411
    3      -12.730242
    4       -9.592702
    5       -9.140276
    6       -7.651611
    7       -7.004901
    8       -6.834578
    9        1.298676
   10        1.478341
   11        2.104855
   12        2.506724
 
  0.3333333E+00  0.5555556E-01  0.0000000E+00  0.4629630E-02
    1      -21.404215
    2      -19.458592
    3      -12.195050
    4       -9.411381
    5       -8.989452
    6       -8.072588
    7       -7.257007
    8       -7.189446
    9        1.508829
   10        2.025878
   11        2.316765
   12        2.722015
 
  0.3750000E+00  0.5555556E-01  0.0000000E+00  0.4629630E-02
    1      -21.229835
    2      -19.768800
    3      -11.655721
    4       -9.206935
    5       -8.820821
    6       -8.529574
    7       -7.532122
    8       -7.507813
    9        1.746858
   10        2.556597
   11        2.578217
   12        2.965988
 
  0.4166667E+00  0.5555556E-01  0.0000000E+00  0.4629630E-02
    1      -21.035377
    2      -20.060514
    3      -11.115172
    4       -9.014940
    5       -8.979840
    6       -8.635386
    7       -7.859523
    8       -7.753655
    9        2.012684
   10        2.824046
   11        3.126986
   12        3.238622
 
  0.4583333E+00  0.5555556E-01  0.0000000E+00  0.4629630E-02
    1      -20.821004
    2      -20.333325
    3      -10.576697
    4       -9.521785
    5       -8.730693
    6       -8.434356
    7       -8.169440
    8       -7.991594
    9        2.306198
   10        2.975522
   11        3.118294
   12        3.540578
 
  0.5000000E+00  0.5555556E-01  0.0000000E+00  0.2314815E-02
    1      -20.586911
    2      -20.586911
    3      -10.044093
    4      -10.044093
    5       -8.460241
    6       -8.460241
    7       -8.219182
    8       -8.219182
    9        2.627236
   10        2.627236
   11        3.435299
   12        3.435299
 
  0.0000000E+00  0.8333333E-01  0.0000000E+00  0.2314815E-02
    1      -21.998225
    2      -16.666405
    3      -15.791130
    4      -10.112624
    5       -9.916811
    6       -6.417940
    7       -6.028125
    8       -4.803194
    9       -1.182968
   10        0.700486
   11        1.501427
   12        1.894681
 
  0.4166667E-01  0.8333333E-01  0.0000000E+00  0.4629630E-02
    1      -21.987887
    2      -16.854626
    3      -15.588411
    4      -10.100367
    5       -9.906155
    6       -6.457361
    7       -6.046786
    8       -4.874199
    9       -1.098106
   10        0.714518
   11        1.515592
   12        1.909036
 
  0.8333333E-01  0.8333333E-01  0.0000000E+00  0.4629630E-02
    1      -21.956883
    2      -17.213320
    3      -15.186337
    4      -10.063615
    5       -9.874219
    6       -6.569333
    7       -6.107226
    8       -5.069269
    9       -0.861645
   10        0.756615
   11        1.558084
   12        1.952101
 
  0.1250000E+00  0.8333333E-01  0.0000000E+00  0.4629630E-02
    1      -21.905232
    2      -17.601178
    3      -14.726571
    4      -10.002426
    5       -9.821096
    6       -6.741195
    7       -6.216711
    8       -5.350019
    9       -0.512507
   10        0.826774
   11        1.628891
   12        2.023877
 
  0.1666667E+00  0.8333333E-01  0.0000000E+00  0.4629630E-02
    1      -21.832972
    2      -17.987150
    3      -14.240761
    4       -9.916896
    5       -9.746948
    6       -6.961917
    7       -6.377647
    8       -5.680625
    9       -0.087417
   10        0.924992
   11        1.727994
   12        2.124365
 
  0.2083333E+00  0.8333333E-01  0.0000000E+00  0.4629630E-02
    1      -21.740151
    2      -18.362365
    3      -13.738648
    4       -9.807167
    5       -9.651998
    6       -7.224469
    7       -6.585858
    8       -6.035923
    9        0.387216
   10        1.051252
   11        1.855363
   12        2.253563
 
  0.2500000E+00  0.8333333E-01  0.0000000E+00  0.4629630E-02
    1      -21.626837
    2      -18.723281
    3      -13.224943
    4       -9.673428
    5       -9.536542
    6       -7.525635
    7       -6.831676
    8       -6.399876
    9        0.893760
   10        1.205531
   11        2.010956
   12        2.411469
 
  0.2916667E+00  0.8333333E-01  0.0000000E+00  0.4629630E-02
    1      -21.493114
    2      -19.068100
    3      -12.702948
    4       -9.515921
    5       -9.400944
    6       -7.864975
    7       -7.101952
    8       -6.762381
    9        1.387794
   10        1.420177
   11        2.194714
   12        2.598079
 
  0.3333333E+00  0.8333333E-01  0.0000000E+00  0.4629630E-02
    1      -21.339079
    2      -19.395748
    3      -12.175638
    4       -9.334953
    5       -9.245643
    6       -8.242839
    7       -7.382923
    8       -7.116920
    9        1.597997
   10        1.957667
   11        2.406552
   12        2.813387
 
  0.3750000E+00  0.8333333E-01  0.0000000E+00  0.4629630E-02
    1      -21.164854
    2      -19.705496
    3      -11.646102
    4       -9.130906
    5       -9.071150
    6       -8.658059
    7       -7.663167
    8       -7.459139
    9        1.836079
   10        2.499162
   11        2.646332
   12        3.057383
 
  0.4166667E+00  0.8333333E-01  0.0000000E+00  0.4629630E-02
    1      -20.970578
    2      -19.996815
    3      -11.117788
    4       -9.106845
    5       -8.904254
    6       -8.878055
    7       -7.935085
    8       -7.786019
    9        2.101965
   10        2.913796
   11        3.037958
   12        3.330052
 
  0.4583333E+00  0.8333333E-01  0.0000000E+00  0.4629630E-02
    1      -20.756421
    2      -20.269286
    3      -10.594676
    4       -9.583437
    5       -8.667024
    6       -8.655590
    7       -8.194399
    8       -8.095393
    9        2.395557
   10        3.065238
   11        3.208240
   12        3.560285
 
  0.5000000E+00  0.8333333E-01  0.0000000E+00  0.2314815E-02
    1      -20.522579
    2      -20.522579
    3      -10.081420
    4      -10.081420
    5       -8.438824
    6       -8.438824
    7       -8.385655
    8       -8.385655
    9        2.716718
   10        2.716718
   11        3.525406
   12        3.525406
 
  0.0000000E+00  0.1111111E+00  0.0000000E+00  0.2314815E-02
    1      -21.906398
    2      -16.587158
    3      -15.719750
    4      -10.269658
    5      -10.003760
    6       -6.745968
    7       -6.237880
    8       -4.691984
    9       -1.234034
   10        0.825071
   11        1.627589
   12        2.022530
 
  0.4166667E-01  0.1111111E+00  0.0000000E+00  0.4629630E-02
    1      -21.896071
    2      -16.774804
    3      -15.518116
    4      -10.258708
    5       -9.991536
    6       -6.790342
    7       -6.247328
    8       -4.764435
    9       -1.148704
   10        0.839102
   11        1.641744
   12        2.036885
 
  0.8333333E-01  0.1111111E+00  0.0000000E+00  0.4629630E-02
    1      -21.865098
    2      -17.132138
    3      -15.118955
    4      -10.225870
    5       -9.954886
    6       -6.913115
    7       -6.284802
    8       -4.962671
    9       -0.912013
   10        0.881197
   11        1.684205
   12        2.079950
 
  0.1250000E+00  0.1111111E+00  0.0000000E+00  0.4629630E-02
    1      -21.813500
    2      -17.518535
    3      -14.663327
    4      -10.171173
    5       -9.893866
    6       -7.094928
    7       -6.365907
    8       -5.246460
    9       -0.564730
   10        0.951358
   11        1.754961
   12        2.151727
 
  0.1666667E+00  0.1111111E+00  0.0000000E+00  0.4629630E-02
    1      -21.741314
    2      -17.903165
    3      -14.182801
    4      -10.094661
    5       -9.808574
    6       -7.320203
    7       -6.499851
    8       -5.579128
    9       -0.144422
   10        1.049582
   11        1.853992
   12        2.252217
 
  0.2083333E+00  0.1111111E+00  0.0000000E+00  0.4629630E-02
    1      -21.648593
    2      -18.277199
    3      -13.687292
    4       -9.996385
    5       -9.699152
    6       -7.578841
    7       -6.687841
    8       -5.935489
    9        0.322500
   10        1.175860
   11        1.981268
   12        2.381421
 
  0.2500000E+00  0.1111111E+00  0.0000000E+00  0.4629630E-02
    1      -21.535404
    2      -18.637089
    3      -13.181824
    4       -9.876386
    5       -9.565789
    6       -7.865025
    7       -6.924744
    8       -6.299744
    9        0.818699
   10        1.330167
   11        2.136747
   12        2.539336
 
  0.2916667E+00  0.1111111E+00  0.0000000E+00  0.4629630E-02
    1      -21.401833
    2      -18.981024
    3      -12.670141
    4       -9.734673
    5       -9.408729
    6       -8.176414
    7       -7.200654
    8       -6.662042
    9        1.332496
   10        1.512466
   11        2.320374
   12        2.725959
 
  0.3333333E+00  0.1111111E+00  0.0000000E+00  0.4629630E-02
    1      -21.247983
    2      -19.307909
    3      -12.155823
    4       -9.571192
    5       -9.228278
    6       -8.513612
    7       -7.502290
    8       -7.016061
    9        1.722709
   10        1.855481
   11        2.532072
   12        2.941284
 
  0.3750000E+00  0.1111111E+00  0.0000000E+00  0.4629630E-02
    1      -21.073976
    2      -19.617003
    3      -11.642767
    4       -9.385791
    5       -9.024817
    6       -8.879173
    7       -7.814758
    8       -7.357581
    9        1.960832
   10        2.381108
   11        2.771729
   12        3.185302
 
  0.4166667E+00  0.1111111E+00  0.0000000E+00  0.4629630E-02
    1      -20.879959
    2      -19.907757
    3      -11.135460
    4       -9.275684
    5       -9.178186
    6       -8.798818
    7       -8.124023
    8       -7.683675
    9        2.226762
   10        2.903819
   11        3.039157
   12        3.458001
 
  0.4583333E+00  0.1111111E+00  0.0000000E+00  0.4629630E-02
    1      -20.666107
    2      -20.179745
    3      -10.639143
    4       -9.703507
    5       -8.947992
    6       -8.550867
    7       -8.419455
    8       -7.992235
    9        2.520403
   10        3.190285
   11        3.333880
   12        3.417608
 
  0.5000000E+00  0.1111111E+00  0.0000000E+00  0.2314815E-02
    1      -20.432622
    2      -20.432622
    3      -10.159762
    4      -10.159762
    5       -8.694931
    6       -8.694931
    7       -8.281697
    8       -8.281697
    9        2.841634
   10        2.841634
   11        3.651201
   12        3.651201
 
  0.0000000E+00  0.1388889E+00  0.0000000E+00  0.2314815E-02
    1      -21.788488
    2      -16.485321
    3      -15.631154
    4      -10.683316
    5       -9.864195
    6       -7.134139
    7       -6.497469
    8       -4.549240
    9       -1.308758
   10        0.985301
   11        1.789703
   12        2.186918
 
  0.4166667E-01  0.1388889E+00  0.0000000E+00  0.4629630E-02
    1      -21.778175
    2      -16.672495
    3      -15.430758
    4      -10.671875
    5       -9.852017
    6       -7.182676
    7       -6.497836
    8       -4.623818
    9       -1.222611
   10        0.999326
   11        1.803842
   12        2.201272
 
  0.8333333E-01  0.1388889E+00  0.0000000E+00  0.4629630E-02
    1      -21.747242
    2      -17.028217
    3      -15.035561
    4      -10.637522
    5       -9.815504
    6       -7.314619
    7       -6.511978
    8       -4.826630
    9       -0.985269
   10        1.041405
   11        1.846256
   12        2.244335
 
  0.1250000E+00  0.1388889E+00  0.0000000E+00  0.4629630E-02
    1      -21.695712
    2      -17.412729
    3      -14.585896
    4      -10.580162
    5       -9.754714
    6       -7.505331
    7       -6.562447
    8       -5.114686
    9       -0.640249
   10        1.111543
   11        1.916931
   12        2.316108
 
  0.1666667E+00  0.1388889E+00  0.0000000E+00  0.4629630E-02
    1      -21.623625
    2      -17.795594
    3      -14.113209
    4      -10.499613
    5       -9.669745
    6       -7.735922
    7       -6.664139
    8       -5.450156
    9       -0.226242
   10        1.209747
   11        2.015845
   12        2.416596
 
  0.2083333E+00  0.1388889E+00  0.0000000E+00  0.4629630E-02
    1      -21.531032
    2      -18.168062
    3      -13.627739
    4      -10.395569
    5       -9.560741
    6       -7.994370
    7       -6.822785
    8       -5.807887
    9        0.230433
   10        1.336012
   11        2.142965
   12        2.545800
 
  0.2500000E+00  0.1388889E+00  0.0000000E+00  0.4629630E-02
    1      -21.418006
    2      -18.526592
    3      -13.135103
    4      -10.267552
    5       -9.427892
    6       -8.273218
    7       -7.037236
    8       -6.172460
    9        0.712921
   10        1.490319
   11        2.298248
   12        2.703720
 
  0.2916667E+00  0.1388889E+00  0.0000000E+00  0.4629630E-02
    1      -21.284634
    2      -18.869355
    3      -12.639908
    4      -10.114827
    5       -9.271442
    6       -8.568236
    7       -7.301236
    8       -6.534388
    9        1.210075
   10        1.672628
   11        2.481633
   12        2.890352
 
  0.3333333E+00  0.1388889E+00  0.0000000E+00  0.4629630E-02
    1      -21.131023
    2      -19.195232
    3      -12.146906
    4       -9.936322
    5       -9.091699
    6       -8.877914
    7       -7.604697
    8       -6.887622
    9        1.714011
   10        1.882888
   11        2.693045
   12        3.105690
 
  0.3750000E+00  0.1388889E+00  0.0000000E+00  0.4629630E-02
    1      -20.957302
    2      -19.503460
    3      -11.661490
    4       -9.730575
    5       -9.203336
    6       -8.889042
    7       -7.934684
    8       -7.228130
    9        2.121029
   10        2.218740
   11        2.932385
   12        3.349726
 
  0.4166667E+00  0.1388889E+00  0.0000000E+00  0.4629630E-02
    1      -20.763624
    2      -19.793471
    3      -11.189817
    4       -9.547922
    5       -9.495862
    6       -8.663940
    7       -8.276368
    8       -7.553105
    9        2.386970
   10        2.719415
   11        3.199524
   12        3.622449
 
  0.4583333E+00  0.1388889E+00  0.0000000E+00  0.4629630E-02
    1      -20.550170
    2      -20.064822
    3      -10.738418
    4       -9.916453
    5       -9.230786
    6       -8.614484
    7       -8.416974
    8       -7.860522
    9        2.680614
   10        3.211904
   11        3.350501
   12        3.494293
 
  0.5000000E+00  0.1388889E+00  0.0000000E+00  0.2314815E-02
    1      -20.317153
    2      -20.317153
    3      -10.312971
    4      -10.312971
    5       -8.935651
    6       -8.935651
    7       -8.148865
    8       -8.148865
    9        3.001843
   10        3.001843
   11        3.692440
   12        3.692441
 
  0.0000000E+00  0.1666667E+00  0.0000000E+00  0.2314815E-02
    1      -21.644617
    2      -16.360934
    3      -15.528757
    4      -11.137057
    5       -9.694248
    6       -7.566689
    7       -6.800520
    8       -4.375148
    9       -1.413255
   10        1.181178
   11        1.987692
   12        2.387851
 
  0.4166667E-01  0.1666667E+00  0.0000000E+00  0.4629630E-02
    1      -21.634320
    2      -16.548027
    3      -15.329619
    4      -11.124780
    5       -9.682130
    6       -7.618944
    7       -6.791876
    8       -4.452840
    9       -1.325655
   10        1.195191
   11        2.001806
   12        2.402202
 
  0.8333333E-01  0.1666667E+00  0.0000000E+00  0.4629630E-02
    1      -21.603438
    2      -16.902004
    3      -14.939787
    4      -11.087835
    5       -9.645797
    6       -7.759215
    7       -6.782333
    8       -4.662168
    9       -1.086766
   10        1.237235
   11        2.044142
   12        2.445259
 
  0.1250000E+00  0.1666667E+00  0.0000000E+00  0.4629630E-02
    1      -21.551993
    2      -17.284194
    3      -14.498798
    4      -11.025866
    5       -9.585309
    6       -7.958407
    7       -6.800411
    8       -4.956053
    9       -0.744155
   10        1.307324
   11        2.114685
   12        2.517023
 
  0.1666667E+00  0.1666667E+00  0.0000000E+00  0.4629630E-02
    1      -21.480026
    2      -17.664818
    3      -14.037959
    4      -10.938219
    5       -9.500765
    6       -8.194967
    7       -6.865936
    8       -5.295167
    9       -0.337931
   10        1.405470
   11        2.213404
   12        2.617501
 
  0.2083333E+00  0.1666667E+00  0.0000000E+00  0.4629630E-02
    1      -21.387593
    2      -18.035288
    3      -13.568169
    4      -10.823844
    5       -9.392310
    6       -8.455539
    7       -6.988628
    8       -5.654545
    9        0.105906
   10        1.531679
   11        2.340256
   12        2.746696
 
  0.2500000E+00  0.1666667E+00  0.0000000E+00  0.4629630E-02
    1      -21.274768
    2      -18.392079
    3      -13.096220
    4      -10.681163
    5       -9.260136
    6       -8.731759
    7       -7.170841
    8       -6.019357
    9        0.571288
   10        1.685940
   11        2.495178
   12        2.904611
 
  0.2916667E+00  0.1666667E+00  0.0000000E+00  0.4629630E-02
    1      -21.141643
    2      -18.733345
    3      -12.628372
    4      -10.507941
    5       -9.104492
    6       -9.018352
    7       -7.409503
    8       -6.380634
    9        1.047863
   10        1.868219
   11        2.678082
   12        3.091244
 
  0.3333333E+00  0.1666667E+00  0.0000000E+00  0.4629630E-02
    1      -20.988331
    2      -19.057939
    3      -12.171392
    4      -10.301289
    5       -9.312323
    6       -8.925684
    7       -7.697487
    8       -6.732698
    9        1.528485
   10        2.078457
   11        2.888835
   12        3.306590
 
  0.3750000E+00  0.1666667E+00  0.0000000E+00  0.4629630E-02
    1      -20.814967
    2      -19.365068
    3      -11.732528
    4      -10.058132
    5       -9.612706
    6       -8.724093
    7       -8.024692
    8       -7.071764
    9        2.007857
   10        2.316580
   11        3.127207
   12        3.550639
 
  0.4166667E+00  0.1666667E+00  0.0000000E+00  0.4629630E-02
    1      -20.621714
    2      -19.654139
    3      -11.318371
    4       -9.920630
    5       -9.776606
    6       -8.500187
    7       -8.378821
    8       -7.395185
    9        2.481784
   10        2.582494
   11        3.392576
   12        3.823379
 
  0.4583333E+00  0.1666667E+00  0.0000000E+00  0.4629630E-02
    1      -20.408761
    2      -19.924686
    3      -10.932698
    4      -10.239472
    5       -9.458407
    6       -8.745879
    7       -8.254539
    8       -7.701034
    9        2.876092
   10        2.946654
   11        3.545802
   12        3.676213
 
  0.5000000E+00  0.1666667E+00  0.0000000E+00  0.2314815E-02
    1      -20.176331
    2      -20.176331
    3      -10.574695
    4      -10.574695
    5       -9.110727
    6       -9.110727
    7       -7.987859
    8       -7.987859
    9        3.197247
   10        3.197247
   11        3.398331
   12        3.398331
 