<?xml version="1.0" encoding="ISO-8859-1"?>
<modeling>
 <generator>
  <i name="program" type="string">vasp </i>
  <i name="version" type="string">5.3.5  </i>
  <i name="subversion" type="string">31Mar14 (build Mar 02 2015 18:14:16) complex                          parallel </i>
  <i name="platform" type="string">LinuxIFC </i>
  <i name="date" type="string">2018 08 09 </i>
  <i name="time" type="string">20:37:22 </i>
 </generator>
 <incar>
  <i type="string" name="SYSTEM">  gr</i>
  <i type="string" name="PREC">accurate : accuracy</i>
  <i type="string" name="ALGO"> FAST.</i>
  <i type="int" name="NELM">   100</i>
  <i type="int" name="NELMDL">    -3</i>
  <i type="int" name="NELMIN">     5</i>
  <i type="int" name="IBRION">     1</i>
  <i name="EDIFF">      0.00000000</i>
  <i name="EDIFFG">     -0.00000100</i>
  <i type="int" name="NSW">   400</i>
  <i type="int" name="ISIF">     2</i>
  <i name="ENCUT">   2000.00000000</i>
  <i type="int" name="ISMEAR">     0</i>
  <i name="SIGMA">      0.05000000</i>
  <i type="int" name="NWRITE">     2</i>
  <i type="logical" name="LWAVE"> F  </i>
  <i type="logical" name="LCHARG"> F  </i>
  <i type="int" name="NELM">   100</i>
 </incar>
 <kpoints>
  <generation param="Gamma">
   <v type="int" name="divisions">      24       36        1 </v>
   <v name="usershift">      0.00000000       0.00000000       0.00000000 </v>
   <v name="genvec1">      0.04166667       0.00000000       0.00000000 </v>
   <v name="genvec2">      0.00000000       0.02777778       0.00000000 </v>
   <v name="genvec3">      0.00000000       0.00000000       1.00000000 </v>
   <v name="shift">      0.00000000       0.00000000       0.00000000 </v>
  </generation>
  <varray name="kpointlist" >
   <v>       0.00000000       0.00000000       0.00000000 </v>
   <v>       0.04166667       0.00000000       0.00000000 </v>
   <v>       0.08333333       0.00000000       0.00000000 </v>
   <v>       0.12500000       0.00000000       0.00000000 </v>
   <v>       0.16666667       0.00000000       0.00000000 </v>
   <v>       0.20833333       0.00000000       0.00000000 </v>
   <v>       0.25000000       0.00000000       0.00000000 </v>
   <v>       0.29166667       0.00000000       0.00000000 </v>
   <v>       0.33333333       0.00000000       0.00000000 </v>
   <v>       0.37500000       0.00000000       0.00000000 </v>
   <v>       0.41666667       0.00000000       0.00000000 </v>
   <v>       0.45833333       0.00000000       0.00000000 </v>
   <v>       0.50000000       0.00000000       0.00000000 </v>
   <v>       0.00000000       0.02777778       0.00000000 </v>
   <v>       0.04166667       0.02777778       0.00000000 </v>
   <v>       0.08333333       0.02777778       0.00000000 </v>
   <v>       0.12500000       0.02777778       0.00000000 </v>
   <v>       0.16666667       0.02777778       0.00000000 </v>
   <v>       0.20833333       0.02777778       0.00000000 </v>
   <v>       0.25000000       0.02777778       0.00000000 </v>
   <v>       0.29166667       0.02777778       0.00000000 </v>
   <v>       0.33333333       0.02777778       0.00000000 </v>
   <v>       0.37500000       0.02777778       0.00000000 </v>
   <v>       0.41666667       0.02777778       0.00000000 </v>
   <v>       0.45833333       0.02777778       0.00000000 </v>
   <v>       0.50000000       0.02777778       0.00000000 </v>
   <v>       0.00000000       0.05555556       0.00000000 </v>
   <v>       0.04166667       0.05555556       0.00000000 </v>
   <v>       0.08333333       0.05555556       0.00000000 </v>
   <v>       0.12500000       0.05555556       0.00000000 </v>
   <v>       0.16666667       0.05555556       0.00000000 </v>
   <v>       0.20833333       0.05555556       0.00000000 </v>
   <v>       0.25000000       0.05555556       0.00000000 </v>
   <v>       0.29166667       0.05555556       0.00000000 </v>
   <v>       0.33333333       0.05555556       0.00000000 </v>
   <v>       0.37500000       0.05555556       0.00000000 </v>
   <v>       0.41666667       0.05555556       0.00000000 </v>
   <v>       0.45833333       0.05555556       0.00000000 </v>
   <v>       0.50000000       0.05555556       0.00000000 </v>
   <v>       0.00000000       0.08333333       0.00000000 </v>
   <v>       0.04166667       0.08333333       0.00000000 </v>
   <v>       0.08333333       0.08333333       0.00000000 </v>
   <v>       0.12500000       0.08333333       0.00000000 </v>
   <v>       0.16666667       0.08333333       0.00000000 </v>
   <v>       0.20833333       0.08333333       0.00000000 </v>
   <v>       0.25000000       0.08333333       0.00000000 </v>
   <v>       0.29166667       0.08333333       0.00000000 </v>
   <v>       0.33333333       0.08333333       0.00000000 </v>
   <v>       0.37500000       0.08333333       0.00000000 </v>
   <v>       0.41666667       0.08333333       0.00000000 </v>
   <v>       0.45833333       0.08333333       0.00000000 </v>
   <v>       0.50000000       0.08333333       0.00000000 </v>
   <v>       0.00000000       0.11111111       0.00000000 </v>
   <v>       0.04166667       0.11111111       0.00000000 </v>
   <v>       0.08333333       0.11111111       0.00000000 </v>
   <v>       0.12500000       0.11111111       0.00000000 </v>
   <v>       0.16666667       0.11111111       0.00000000 </v>
   <v>       0.20833333       0.11111111       0.00000000 </v>
   <v>       0.25000000       0.11111111       0.00000000 </v>
   <v>       0.29166667       0.11111111       0.00000000 </v>
   <v>       0.33333333       0.11111111       0.00000000 </v>
   <v>       0.37500000       0.11111111       0.00000000 </v>
   <v>       0.41666667       0.11111111       0.00000000 </v>
   <v>       0.45833333       0.11111111       0.00000000 </v>
   <v>       0.50000000       0.11111111       0.00000000 </v>
   <v>       0.00000000       0.13888889       0.00000000 </v>
   <v>       0.04166667       0.13888889       0.00000000 </v>
   <v>       0.08333333       0.13888889       0.00000000 </v>
   <v>       0.12500000       0.13888889       0.00000000 </v>
   <v>       0.16666667       0.13888889       0.00000000 </v>
   <v>       0.20833333       0.13888889       0.00000000 </v>
   <v>       0.25000000       0.13888889       0.00000000 </v>
   <v>       0.29166667       0.13888889       0.00000000 </v>
   <v>       0.33333333       0.13888889       0.00000000 </v>
   <v>       0.37500000       0.13888889       0.00000000 </v>
   <v>       0.41666667       0.13888889       0.00000000 </v>
   <v>       0.45833333       0.13888889       0.00000000 </v>
   <v>       0.50000000       0.13888889       0.00000000 </v>
   <v>       0.00000000       0.16666667       0.00000000 </v>
   <v>       0.04166667       0.16666667       0.00000000 </v>
   <v>       0.08333333       0.16666667       0.00000000 </v>
   <v>       0.12500000       0.16666667       0.00000000 </v>
   <v>       0.16666667       0.16666667       0.00000000 </v>
   <v>       0.20833333       0.16666667       0.00000000 </v>
   <v>       0.25000000       0.16666667       0.00000000 </v>
   <v>       0.29166667       0.16666667       0.00000000 </v>
   <v>       0.33333333       0.16666667       0.00000000 </v>
   <v>       0.37500000       0.16666667       0.00000000 </v>
   <v>       0.41666667       0.16666667       0.00000000 </v>
   <v>       0.45833333       0.16666667       0.00000000 </v>
   <v>       0.50000000       0.16666667       0.00000000 </v>
   <v>       0.00000000       0.19444444       0.00000000 </v>
   <v>       0.04166667       0.19444444       0.00000000 </v>
   <v>       0.08333333       0.19444444       0.00000000 </v>
   <v>       0.12500000       0.19444444       0.00000000 </v>
   <v>       0.16666667       0.19444444       0.00000000 </v>
   <v>       0.20833333       0.19444444       0.00000000 </v>
   <v>       0.25000000       0.19444444       0.00000000 </v>
   <v>       0.29166667       0.19444444       0.00000000 </v>
   <v>       0.33333333       0.19444444       0.00000000 </v>
   <v>       0.37500000       0.19444444       0.00000000 </v>
   <v>       0.41666667       0.19444444       0.00000000 </v>
   <v>       0.45833333       0.19444444       0.00000000 </v>
   <v>       0.50000000       0.19444444       0.00000000 </v>
   <v>       0.00000000       0.22222222       0.00000000 </v>
   <v>       0.04166667       0.22222222       0.00000000 </v>
   <v>       0.08333333       0.22222222       0.00000000 </v>
   <v>       0.12500000       0.22222222       0.00000000 </v>
   <v>       0.16666667       0.22222222       0.00000000 </v>
   <v>       0.20833333       0.22222222       0.00000000 </v>
   <v>       0.25000000       0.22222222       0.00000000 </v>
   <v>       0.29166667       0.22222222       0.00000000 </v>
   <v>       0.33333333       0.22222222       0.00000000 </v>
   <v>       0.37500000       0.22222222       0.00000000 </v>
   <v>       0.41666667       0.22222222       0.00000000 </v>
   <v>       0.45833333       0.22222222       0.00000000 </v>
   <v>       0.50000000       0.22222222       0.00000000 </v>
   <v>       0.00000000       0.25000000       0.00000000 </v>
   <v>       0.04166667       0.25000000       0.00000000 </v>
   <v>       0.08333333       0.25000000       0.00000000 </v>
   <v>       0.12500000       0.25000000       0.00000000 </v>
   <v>       0.16666667       0.25000000       0.00000000 </v>
   <v>       0.20833333       0.25000000       0.00000000 </v>
   <v>       0.25000000       0.25000000       0.00000000 </v>
   <v>       0.29166667       0.25000000       0.00000000 </v>
   <v>       0.33333333       0.25000000       0.00000000 </v>
   <v>       0.37500000       0.25000000       0.00000000 </v>
   <v>       0.41666667       0.25000000       0.00000000 </v>
   <v>       0.45833333       0.25000000       0.00000000 </v>
   <v>       0.50000000       0.25000000       0.00000000 </v>
   <v>       0.00000000       0.27777778       0.00000000 </v>
   <v>       0.04166667       0.27777778       0.00000000 </v>
   <v>       0.08333333       0.27777778       0.00000000 </v>
   <v>       0.12500000       0.27777778       0.00000000 </v>
   <v>       0.16666667       0.27777778       0.00000000 </v>
   <v>       0.20833333       0.27777778       0.00000000 </v>
   <v>       0.25000000       0.27777778       0.00000000 </v>
   <v>       0.29166667       0.27777778       0.00000000 </v>
   <v>       0.33333333       0.27777778       0.00000000 </v>
   <v>       0.37500000       0.27777778       0.00000000 </v>
   <v>       0.41666667       0.27777778       0.00000000 </v>
   <v>       0.45833333       0.27777778       0.00000000 </v>
   <v>       0.50000000       0.27777778       0.00000000 </v>
   <v>       0.00000000       0.30555556       0.00000000 </v>
   <v>       0.04166667       0.30555556       0.00000000 </v>
   <v>       0.08333333       0.30555556       0.00000000 </v>
   <v>       0.12500000       0.30555556       0.00000000 </v>
   <v>       0.16666667       0.30555556       0.00000000 </v>
   <v>       0.20833333       0.30555556       0.00000000 </v>
   <v>       0.25000000       0.30555556       0.00000000 </v>
   <v>       0.29166667       0.30555556       0.00000000 </v>
   <v>       0.33333333       0.30555556       0.00000000 </v>
   <v>       0.37500000       0.30555556       0.00000000 </v>
   <v>       0.41666667       0.30555556       0.00000000 </v>
   <v>       0.45833333       0.30555556       0.00000000 </v>
   <v>       0.50000000       0.30555556       0.00000000 </v>
   <v>       0.00000000       0.33333333       0.00000000 </v>
   <v>       0.04166667       0.33333333       0.00000000 </v>
   <v>       0.08333333       0.33333333       0.00000000 </v>
   <v>       0.12500000       0.33333333       0.00000000 </v>
   <v>       0.16666667       0.33333333       0.00000000 </v>
   <v>       0.20833333       0.33333333       0.00000000 </v>
   <v>       0.25000000       0.33333333       0.00000000 </v>
   <v>       0.29166667       0.33333333       0.00000000 </v>
   <v>       0.33333333       0.33333333       0.00000000 </v>
   <v>       0.37500000       0.33333333       0.00000000 </v>
   <v>       0.41666667       0.33333333       0.00000000 </v>
   <v>       0.45833333       0.33333333       0.00000000 </v>
   <v>       0.50000000       0.33333333       0.00000000 </v>
   <v>       0.00000000       0.36111111       0.00000000 </v>
   <v>       0.04166667       0.36111111       0.00000000 </v>
   <v>       0.08333333       0.36111111       0.00000000 </v>
   <v>       0.12500000       0.36111111       0.00000000 </v>
   <v>       0.16666667       0.36111111       0.00000000 </v>
   <v>       0.20833333       0.36111111       0.00000000 </v>
   <v>       0.25000000       0.36111111       0.00000000 </v>
   <v>       0.29166667       0.36111111       0.00000000 </v>
   <v>       0.33333333       0.36111111       0.00000000 </v>
   <v>       0.37500000       0.36111111       0.00000000 </v>
   <v>       0.41666667       0.36111111       0.00000000 </v>
   <v>       0.45833333       0.36111111       0.00000000 </v>
   <v>       0.50000000       0.36111111       0.00000000 </v>
   <v>       0.00000000       0.38888889       0.00000000 </v>
   <v>       0.04166667       0.38888889       0.00000000 </v>
   <v>       0.08333333       0.38888889       0.00000000 </v>
   <v>       0.12500000       0.38888889       0.00000000 </v>
   <v>       0.16666667       0.38888889       0.00000000 </v>
   <v>       0.20833333       0.38888889       0.00000000 </v>
   <v>       0.25000000       0.38888889       0.00000000 </v>
   <v>       0.29166667       0.38888889       0.00000000 </v>
   <v>       0.33333333       0.38888889       0.00000000 </v>
   <v>       0.37500000       0.38888889       0.00000000 </v>
   <v>       0.41666667       0.38888889       0.00000000 </v>
   <v>       0.45833333       0.38888889       0.00000000 </v>
   <v>       0.50000000       0.38888889       0.00000000 </v>
   <v>       0.00000000       0.41666667       0.00000000 </v>
   <v>       0.04166667       0.41666667       0.00000000 </v>
   <v>       0.08333333       0.41666667       0.00000000 </v>
   <v>       0.12500000       0.41666667       0.00000000 </v>
   <v>       0.16666667       0.41666667       0.00000000 </v>
   <v>       0.20833333       0.41666667       0.00000000 </v>
   <v>       0.25000000       0.41666667       0.00000000 </v>
   <v>       0.29166667       0.41666667       0.00000000 </v>
   <v>       0.33333333       0.41666667       0.00000000 </v>
   <v>       0.37500000       0.41666667       0.00000000 </v>
   <v>       0.41666667       0.41666667       0.00000000 </v>
   <v>       0.45833333       0.41666667       0.00000000 </v>
   <v>       0.50000000       0.41666667       0.00000000 </v>
   <v>       0.00000000       0.44444444       0.00000000 </v>
   <v>       0.04166667       0.44444444       0.00000000 </v>
   <v>       0.08333333       0.44444444       0.00000000 </v>
   <v>       0.12500000       0.44444444       0.00000000 </v>
   <v>       0.16666667       0.44444444       0.00000000 </v>
   <v>       0.20833333       0.44444444       0.00000000 </v>
   <v>       0.25000000       0.44444444       0.00000000 </v>
   <v>       0.29166667       0.44444444       0.00000000 </v>
   <v>       0.33333333       0.44444444       0.00000000 </v>
   <v>       0.37500000       0.44444444       0.00000000 </v>
   <v>       0.41666667       0.44444444       0.00000000 </v>
   <v>       0.45833333       0.44444444       0.00000000 </v>
   <v>       0.50000000       0.44444444       0.00000000 </v>
   <v>       0.00000000       0.47222222       0.00000000 </v>
   <v>       0.04166667       0.47222222       0.00000000 </v>
   <v>       0.08333333       0.47222222       0.00000000 </v>
   <v>       0.12500000       0.47222222       0.00000000 </v>
   <v>       0.16666667       0.47222222       0.00000000 </v>
   <v>       0.20833333       0.47222222       0.00000000 </v>
   <v>       0.25000000       0.47222222       0.00000000 </v>
   <v>       0.29166667       0.47222222       0.00000000 </v>
   <v>       0.33333333       0.47222222       0.00000000 </v>
   <v>       0.37500000       0.47222222       0.00000000 </v>
   <v>       0.41666667       0.47222222       0.00000000 </v>
   <v>       0.45833333       0.47222222       0.00000000 </v>
   <v>       0.50000000       0.47222222       0.00000000 </v>
   <v>       0.00000000       0.50000000       0.00000000 </v>
   <v>       0.04166667       0.50000000       0.00000000 </v>
   <v>       0.08333333       0.50000000       0.00000000 </v>
   <v>       0.12500000       0.50000000       0.00000000 </v>
   <v>       0.16666667       0.50000000       0.00000000 </v>
   <v>       0.20833333       0.50000000       0.00000000 </v>
   <v>       0.25000000       0.50000000       0.00000000 </v>
   <v>       0.29166667       0.50000000       0.00000000 </v>
   <v>       0.33333333       0.50000000       0.00000000 </v>
   <v>       0.37500000       0.50000000       0.00000000 </v>
   <v>       0.41666667       0.50000000       0.00000000 </v>
   <v>       0.45833333       0.50000000       0.00000000 </v>
   <v>       0.50000000       0.50000000       0.00000000 </v>
  </varray>
  <varray name="weights" >
   <v>       0.00115741 </v>
   <v>       0.00231481 </v>
   <v>       0.00231481 </v>
   <v>       0.00231481 </v>
   <v>       0.00231481 </v>
   <v>       0.00231481 </v>
   <v>       0.00231481 </v>
   <v>       0.00231481 </v>
   <v>       0.00231481 </v>
   <v>       0.00231481 </v>
   <v>       0.00231481 </v>
   <v>       0.00231481 </v>
   <v>       0.00115741 </v>
   <v>       0.00231481 </v>
   <v>       0.00462963 </v>
   <v>       0.00462963 </v>
   <v>       0.00462963 </v>
   <v>       0.00462963 </v>
   <v>       0.00462963 </v>
   <v>       0.00462963 </v>
   <v>       0.00462963 </v>
   <v>       0.00462963 </v>
   <v>       0.00462963 </v>
   <v>       0.00462963 </v>
   <v>       0.00462963 </v>
   <v>       0.00231481 </v>
   <v>       0.00231481 </v>
   <v>       0.00462963 </v>
   <v>       0.00462963 </v>
   <v>       0.00462963 </v>
   <v>       0.00462963 </v>
   <v>       0.00462963 </v>
   <v>       0.00462963 </v>
   <v>       0.00462963 </v>
   <v>       0.00462963 </v>
   <v>       0.00462963 </v>
   <v>       0.00462963 </v>
   <v>       0.00462963 </v>
   <v>       0.00231481 </v>
   <v>       0.00231481 </v>
   <v>       0.00462963 </v>
   <v>       0.00462963 </v>
   <v>       0.00462963 </v>
   <v>       0.00462963 </v>
   <v>       0.00462963 </v>
   <v>       0.00462963 </v>
   <v>       0.00462963 </v>
   <v>       0.00462963 </v>
   <v>       0.00462963 </v>
   <v>       0.00462963 </v>
   <v>       0.00462963 </v>
   <v>       0.00231481 </v>
   <v>       0.00231481 </v>
   <v>       0.00462963 </v>
   <v>       0.00462963 </v>
   <v>       0.00462963 </v>
   <v>       0.00462963 </v>
   <v>       0.00462963 </v>
   <v>       0.00462963 </v>
   <v>       0.00462963 </v>
   <v>       0.00462963 </v>
   <v>       0.00462963 </v>
   <v>       0.00462963 </v>
   <v>       0.00462963 </v>
   <v>       0.00231481 </v>
   <v>       0.00231481 </v>
   <v>       0.00462963 </v>
   <v>       0.00462963 </v>
   <v>       0.00462963 </v>
   <v>       0.00462963 </v>
   <v>       0.00462963 </v>
   <v>       0.00462963 </v>
   <v>       0.00462963 </v>
   <v>       0.00462963 </v>
   <v>       0.00462963 </v>
   <v>       0.00462963 </v>
   <v>       0.00462963 </v>
   <v>       0.00231481 </v>
   <v>       0.00231481 </v>
   <v>       0.00462963 </v>
   <v>       0.00462963 </v>
   <v>       0.00462963 </v>
   <v>       0.00462963 </v>
   <v>       0.00462963 </v>
   <v>       0.00462963 </v>
   <v>       0.00462963 </v>
   <v>       0.00462963 </v>
   <v>       0.00462963 </v>
   <v>       0.00462963 </v>
   <v>       0.00462963 </v>
   <v>       0.00231481 </v>
   <v>       0.00231481 </v>
   <v>       0.00462963 </v>
   <v>       0.00462963 </v>
   <v>       0.00462963 </v>
   <v>       0.00462963 </v>
   <v>       0.00462963 </v>
   <v>       0.00462963 </v>
   <v>       0.00462963 </v>
   <v>       0.00462963 </v>
   <v>       0.00462963 </v>
   <v>       0.00462963 </v>
   <v>       0.00462963 </v>
   <v>       0.00231481 </v>
   <v>       0.00231481 </v>
   <v>       0.00462963 </v>
   <v>       0.00462963 </v>
   <v>       0.00462963 </v>
   <v>       0.00462963 </v>
   <v>       0.00462963 </v>
   <v>       0.00462963 </v>
   <v>       0.00462963 </v>
   <v>       0.00462963 </v>
   <v>       0.00462963 </v>
   <v>       0.00462963 </v>
   <v>       0.00462963 </v>
   <v>       0.00231481 </v>
   <v>       0.00231481 </v>
   <v>       0.00462963 </v>
   <v>       0.00462963 </v>
   <v>       0.00462963 </v>
   <v>       0.00462963 </v>
   <v>       0.00462963 </v>
   <v>       0.00462963 </v>
   <v>       0.00462963 </v>
   <v>       0.00462963 </v>
   <v>       0.00462963 </v>
   <v>       0.00462963 </v>
   <v>       0.00462963 </v>
   <v>       0.00231481 </v>
   <v>       0.00231481 </v>
   <v>       0.00462963 </v>
   <v>       0.00462963 </v>
   <v>       0.00462963 </v>
   <v>       0.00462963 </v>
   <v>       0.00462963 </v>
   <v>       0.00462963 </v>
   <v>       0.00462963 </v>
   <v>       0.00462963 </v>
   <v>       0.00462963 </v>
   <v>       0.00462963 </v>
   <v>       0.00462963 </v>
   <v>       0.00231481 </v>
   <v>       0.00231481 </v>
   <v>       0.00462963 </v>
   <v>       0.00462963 </v>
   <v>       0.00462963 </v>
   <v>       0.00462963 </v>
   <v>       0.00462963 </v>
   <v>       0.00462963 </v>
   <v>       0.00462963 </v>
   <v>       0.00462963 </v>
   <v>       0.00462963 </v>
   <v>       0.00462963 </v>
   <v>       0.00462963 </v>
   <v>       0.00231481 </v>
   <v>       0.00231481 </v>
   <v>       0.00462963 </v>
   <v>       0.00462963 </v>
   <v>       0.00462963 </v>
   <v>       0.00462963 </v>
   <v>       0.00462963 </v>
   <v>       0.00462963 </v>
   <v>       0.00462963 </v>
   <v>       0.00462963 </v>
   <v>       0.00462963 </v>
   <v>       0.00462963 </v>
   <v>       0.00462963 </v>
   <v>       0.00231481 </v>
   <v>       0.00231481 </v>
   <v>       0.00462963 </v>
   <v>       0.00462963 </v>
   <v>       0.00462963 </v>
   <v>       0.00462963 </v>
   <v>       0.00462963 </v>
   <v>       0.00462963 </v>
   <v>       0.00462963 </v>
   <v>       0.00462963 </v>
   <v>       0.00462963 </v>
   <v>       0.00462963 </v>
   <v>       0.00462963 </v>
   <v>       0.00231481 </v>
   <v>       0.00231481 </v>
   <v>       0.00462963 </v>
   <v>       0.00462963 </v>
   <v>       0.00462963 </v>
   <v>       0.00462963 </v>
   <v>       0.00462963 </v>
   <v>       0.00462963 </v>
   <v>       0.00462963 </v>
   <v>       0.00462963 </v>
   <v>       0.00462963 </v>
   <v>       0.00462963 </v>
   <v>       0.00462963 </v>
   <v>       0.00231481 </v>
   <v>       0.00231481 </v>
   <v>       0.00462963 </v>
   <v>       0.00462963 </v>
   <v>       0.00462963 </v>
   <v>       0.00462963 </v>
   <v>       0.00462963 </v>
   <v>       0.00462963 </v>
   <v>       0.00462963 </v>
   <v>       0.00462963 </v>
   <v>       0.00462963 </v>
   <v>       0.00462963 </v>
   <v>       0.00462963 </v>
   <v>       0.00231481 </v>
   <v>       0.00231481 </v>
   <v>       0.00462963 </v>
   <v>       0.00462963 </v>
   <v>       0.00462963 </v>
   <v>       0.00462963 </v>
   <v>       0.00462963 </v>
   <v>       0.00462963 </v>
   <v>       0.00462963 </v>
   <v>       0.00462963 </v>
   <v>       0.00462963 </v>
   <v>       0.00462963 </v>
   <v>       0.00462963 </v>
   <v>       0.00231481 </v>
   <v>       0.00231481 </v>
   <v>       0.00462963 </v>
   <v>       0.00462963 </v>
   <v>       0.00462963 </v>
   <v>       0.00462963 </v>
   <v>       0.00462963 </v>
   <v>       0.00462963 </v>
   <v>       0.00462963 </v>
   <v>       0.00462963 </v>
   <v>       0.00462963 </v>
   <v>       0.00462963 </v>
   <v>       0.00462963 </v>
   <v>       0.00231481 </v>
   <v>       0.00115741 </v>
   <v>       0.00231481 </v>
   <v>       0.00231481 </v>
   <v>       0.00231481 </v>
   <v>       0.00231481 </v>
   <v>       0.00231481 </v>
   <v>       0.00231481 </v>
   <v>       0.00231481 </v>
   <v>       0.00231481 </v>
   <v>       0.00231481 </v>
   <v>       0.00231481 </v>
   <v>       0.00231481 </v>
   <v>       0.00115741 </v>
  </varray>
 </kpoints>
 <parameters>
  <separator name="general" >
   <i type="string" name="SYSTEM">gr</i>
   <i type="logical" name="LCOMPAT"> F  </i>
  </separator>
  <separator name="electronic" >
   <i type="string" name="PREC">accura</i>
   <i name="ENMAX">   2000.00000000</i>
   <i name="ENAUG">    644.87300000</i>
   <i name="EDIFF">      0.00000000</i>
   <i type="int" name="IALGO">    68</i>
   <i type="int" name="IWAVPR">    11</i>
   <i type="int" name="NBANDS">    12</i>
   <i name="NELECT">     16.00000000</i>
   <i type="int" name="TURBO">     0</i>
   <i type="int" name="IRESTART">     0</i>
   <i type="int" name="NREBOOT">     0</i>
   <i type="int" name="NMIN">     0</i>
   <i name="EREF">      0.00000000</i>
   <separator name="electronic smearing" >
    <i type="int" name="ISMEAR">     0</i>
    <i name="SIGMA">      0.05000000</i>
    <i name="KSPACING">      0.50000000</i>
    <i type="logical" name="KGAMMA"> T  </i>
   </separator>
   <separator name="electronic projectors" >
    <i type="logical" name="LREAL"> F  </i>
    <v name="ROPT">      0.00000000</v>
    <i type="int" name="LMAXPAW">  -100</i>
    <i type="int" name="LMAXMIX">     2</i>
    <i type="logical" name="NLSPLINE"> F  </i>
   </separator>
   <separator name="electronic startup" >
    <i type="int" name="ISTART">     0</i>
    <i type="int" name="ICHARG">     2</i>
    <i type="int" name="INIWAV">     1</i>
   </separator>
   <separator name="electronic spin" >
    <i type="int" name="ISPIN">     1</i>
    <i type="logical" name="LNONCOLLINEAR"> F  </i>
    <v name="MAGMOM">      1.00000000      1.00000000      1.00000000      1.00000000</v>
    <i name="NUPDOWN">     -1.00000000</i>
    <i type="logical" name="LSORBIT"> F  </i>
    <v name="SAXIS">      0.00000000      0.00000000      1.00000000</v>
    <i type="logical" name="LSPIRAL"> F  </i>
    <v name="QSPIRAL">      0.00000000      0.00000000      0.00000000</v>
    <i type="logical" name="LZEROZ"> F  </i>
   </separator>
   <separator name="electronic exchange-correlation" >
    <i type="logical" name="LASPH"> F  </i>
    <i type="logical" name="LMETAGGA"> F  </i>
   </separator>
   <separator name="electronic convergence" >
    <i type="int" name="NELM">   100</i>
    <i type="int" name="NELMDL">    -3</i>
    <i type="int" name="NELMIN">     5</i>
    <i name="ENINI">   2000.00000000</i>
    <separator name="electronic convergence detail" >
     <i type="logical" name="LDIAG"> T  </i>
     <i type="logical" name="LSUBROT"> F  </i>
     <i name="WEIMIN">      0.00100000</i>
     <i name="EBREAK">      0.00000000</i>
     <i name="DEPER">      0.30000000</i>
     <i type="int" name="NRMM">     4</i>
     <i name="TIME">      0.40000000</i>
    </separator>
   </separator>
   <separator name="electronic mixer" >
    <i name="AMIX">      0.40000000</i>
    <i name="BMIX">      1.00000000</i>
    <i name="AMIN">      0.10000000</i>
    <i name="AMIX_MAG">      1.60000000</i>
    <i name="BMIX_MAG">      1.00000000</i>
    <separator name="electronic mixer details" >
     <i type="int" name="IMIX">     4</i>
     <i type="int" name="MAXMIX">   -45</i>
     <i name="WC">    100.00000000</i>
     <i type="int" name="INIMIX">     1</i>
     <i type="int" name="MIXPRE">     1</i>
     <i type="int" name="MREMOVE">     5</i>
    </separator>
   </separator>
   <separator name="electronic dipolcorrection" >
    <i type="logical" name="LDIPOL"> F  </i>
    <i type="logical" name="LMONO"> F  </i>
    <i type="int" name="IDIPOL">     0</i>
    <i name="EPSILON">      1.00000000</i>
    <v name="DIPOL">   -100.00000000   -100.00000000   -100.00000000</v>
    <i name="EFIELD">      0.00000000</i>
   </separator>
  </separator>
  <separator name="grids" >
   <i type="int" name="NGX">    64</i>
   <i type="int" name="NGY">    40</i>
   <i type="int" name="NGZ">   288</i>
   <i type="int" name="NGXF">   128</i>
   <i type="int" name="NGYF">    80</i>
   <i type="int" name="NGZF">   576</i>
   <i type="logical" name="ADDGRID"> F  </i>
  </separator>
  <separator name="ionic" >
   <i type="int" name="NSW">   400</i>
   <i type="int" name="IBRION">     1</i>
   <i type="int" name="ISIF">     2</i>
   <i name="PSTRESS">      0.00000000</i>
   <i name="EDIFFG">     -0.00000100</i>
   <i type="int" name="NFREE">     0</i>
   <i name="POTIM">      0.50000000</i>
   <i name="SMASS">     -3.00000000</i>
   <i name="SCALEE">      1.00000000</i>
  </separator>
  <separator name="ionic md" >
   <i name="TEBEG">      0.00010000</i>
   <i name="TEEND">      0.00010000</i>
   <i type="int" name="NBLOCK">     1</i>
   <i type="int" name="KBLOCK">   400</i>
   <i type="int" name="NPACO">   256</i>
   <i name="APACO">     16.00000000</i>
  </separator>
  <separator name="symmetry" >
   <i type="int" name="ISYM">     2</i>
   <i name="SYMPREC">      0.00001000</i>
  </separator>
  <separator name="dos" >
   <i type="logical" name="LORBIT"> F  </i>
   <v name="RWIGS">     -1.00000000</v>
   <i type="int" name="NEDOS">   301</i>
   <i name="EMIN">     10.00000000</i>
   <i name="EMAX">    -10.00000000</i>
   <i name="EFERMI">      0.00000000</i>
  </separator>
  <separator name="writing" >
   <i type="int" name="NWRITE">     2</i>
   <i type="logical" name="LWAVE"> F  </i>
   <i type="logical" name="LCHARG"> F  </i>
   <i type="logical" name="LPARD"> F  </i>
   <i type="logical" name="LVTOT"> F  </i>
   <i type="logical" name="LVHAR"> F  </i>
   <i type="logical" name="LELF"> F  </i>
   <i type="logical" name="LOPTICS"> F  </i>
   <v name="STM">      0.00000000      0.00000000      0.00000000      0.00000000      0.00000000      0.00000000      0.00000000</v>
  </separator>
  <separator name="performance" >
   <i type="int" name="NPAR">     4</i>
   <i type="int" name="NSIM">     4</i>
   <i type="int" name="NBLK">    -1</i>
   <i type="logical" name="LPLANE"> T  </i>
   <i type="logical" name="LSCALAPACK"> F  </i>
   <i type="logical" name="LSCAAWARE"> F  </i>
   <i type="logical" name="LSCALU"> F  </i>
   <i type="logical" name="LASYNC"> F  </i>
   <i type="logical" name="LORBITALREAL"> F  </i>
  </separator>
  <separator name="miscellaneous" >
   <i type="int" name="IDIOT">     3</i>
   <i type="logical" name="LMUSIC"> F  </i>
   <v name="POMASS">     12.01100000</v>
   <v name="DARWINR">      0.00000000</v>
   <v name="DARWINV">      1.00000000</v>
   <i type="logical" name="LCORR"> T  </i>
  </separator>
  <i type="logical" name="GGA_COMPAT"> T  </i>
  <i type="logical" name="LBERRY"> F  </i>
  <i type="int" name="ICORELEVEL">     0</i>
  <i type="logical" name="LDAU"> F  </i>
  <i type="int" name="I_CONSTRAINED_M">     0</i>
  <separator name="electronic exchange-correlation" >
   <i type="string" name="GGA">--</i>
   <i type="int" name="VOSKOWN">     0</i>
   <i type="logical" name="LHFCALC"> F  </i>
   <i type="string" name="PRECFOCK"></i>
   <i type="logical" name="LSYMGRAD"> F  </i>
   <i type="logical" name="LHFONE"> F  </i>
   <i type="logical" name="LRHFCALC"> F  </i>
   <i type="logical" name="LTHOMAS"> F  </i>
   <i type="logical" name="LMODELHF"> F  </i>
   <i name="ENCUT4O">     -1.00000000</i>
   <i type="int" name="EXXOEP">     0</i>
   <i type="int" name="FOURORBIT">     0</i>
   <i name="AEXX">      0.00000000</i>
   <i name="HFALPHA">      0.00000000</i>
   <i name="MCALPHA">      0.00000000</i>
   <i name="ALDAX">      1.00000000</i>
   <i name="AGGAX">      1.00000000</i>
   <i name="ALDAC">      1.00000000</i>
   <i name="AGGAC">      1.00000000</i>
   <i type="int" name="NKREDX">     1</i>
   <i type="int" name="NKREDY">     1</i>
   <i type="int" name="NKREDZ">     1</i>
   <i type="logical" name="SHIFTRED"> F  </i>
   <i type="logical" name="ODDONLY"> F  </i>
   <i type="logical" name="EVENONLY"> F  </i>
   <i type="int" name="LMAXFOCK">     0</i>
   <i type="int" name="NMAXFOCKAE">     0</i>
   <i type="logical" name="LFOCKAEDFT"> F  </i>
   <i name="HFSCREEN">      0.00000000</i>
   <i name="HFSCREENC">      0.00000000</i>
   <i type="int" name="NBANDSGWLOW">     0</i>
  </separator>
  <separator name="vdW DFT" >
   <i type="logical" name="LUSE_VDW"> F  </i>
   <i name="Zab_VDW">     -0.84910000</i>
   <i name="PARAM1">      0.12340000</i>
   <i name="PARAM2">      1.00000000</i>
   <i name="PARAM3">      0.00000000</i>
  </separator>
  <separator name="model GW" >
   <i type="int" name="MODEL_GW">     0</i>
   <i name="MODEL_EPS0">     31.62568521</i>
   <i name="MODEL_ALPHA">      1.00000000</i>
  </separator>
  <separator name="linear response parameters" >
   <i type="logical" name="LEPSILON"> F  </i>
   <i type="logical" name="LRPA"> F  </i>
   <i type="logical" name="LNABLA"> F  </i>
   <i type="logical" name="LVEL"> F  </i>
   <i type="int" name="KINTER">     0</i>
   <i name="CSHIFT">      0.10000000</i>
   <i name="OMEGAMAX">     -1.00000000</i>
   <i name="DEG_THRESHOLD">      0.00200000</i>
  </separator>
  <separator name="orbital magnetization" >
   <i type="logical" name="NUCIND"> F  </i>
   <v name="MAGPOS">      0.00000000      0.00000000      0.00000000</v>
   <i type="logical" name="LNICSALL"> T  </i>
   <i type="logical" name="ORBITALMAG"> F  </i>
   <i type="logical" name="LMAGBLOCH"> F  </i>
   <i type="logical" name="LCHIMAG"> F  </i>
   <i type="logical" name="LGAUGE"> T  </i>
   <i type="int" name="MAGATOM">     0</i>
   <v name="MAGDIPOL">      0.00000000      0.00000000      0.00000000</v>
   <v name="AVECCONST">      0.00000000      0.00000000      0.00000000</v>
  </separator>
  <separator name="response functions" >
   <i type="logical" name="LADDER"> F  </i>
   <i type="logical" name="LFXC"> F  </i>
   <i type="logical" name="LHARTREE"> T  </i>
   <i type="int" name="IBSE">     0</i>
   <i type="logical" name="LTCTE"> F  </i>
   <i type="logical" name="LTETE"> F  </i>
   <i type="logical" name="LTRIPLET"> F  </i>
   <i type="logical" name="LFXCEPS"> F  </i>
   <i type="logical" name="LFXHEG"> F  </i>
   <i type="logical" name="L2ORDER"> F  </i>
   <i type="logical" name="LUSEW"> F  </i>
   <i name="ENCUTGW">     -2.00000000</i>
   <i name="ENCUTGWSOFT">     -2.00000000</i>
   <i name="ENCUTLF">     -1.00000000</i>
   <i type="int" name="LMAXMP2">    -1</i>
   <i name="SCISSOR">      0.00000000</i>
   <i type="int" name="NOMEGA">     0</i>
   <i type="int" name="NOMEGAR">     0</i>
   <i type="int" name="NBANDSGW">    -1</i>
   <i type="int" name="NBANDSO">    -1</i>
   <i type="int" name="NBANDSV">    -1</i>
   <i type="int" name="NELM">   100</i>
   <i type="int" name="DIM">     3</i>
   <i type="int" name="ANTIRES">     0</i>
   <i name="OMEGAMAX">    -30.00000000</i>
   <i name="OMEGAMIN">    -30.00000000</i>
   <i name="OMEGATL">   -200.00000000</i>
   <i type="int" name="OMEGAGRID">     0</i>
   <i name="CSHIFT">     -0.10000000</i>
   <i type="logical" name="SELFENERGY"> F  </i>
   <i type="logical" name="LSPECTRAL"> F  </i>
   <i type="logical" name="ODDONLYGW"> F  </i>
   <i type="logical" name="EVENONLYGW"> F  </i>
   <i type="int" name="NKREDLFX">     1</i>
   <i type="int" name="NKREDLFY">     1</i>
   <i type="int" name="NKREDLFZ">     1</i>
   <i type="int" name="MAXMEM">  1800</i>
   <i type="int" name="TELESCOPE">     0</i>
   <i type="int" name="TAUPAR">     1</i>
  </separator>
  <separator name="External order field" >
   <i name="OFIELD_KAPPA">      0.00000000</i>
   <v name="OFIELD_K">      0.00000000      0.00000000      0.00000000</v>
   <i name="OFIELD_Q6_NEAR">      0.00000000</i>
   <i name="OFIELD_Q6_FAR">      0.00000000</i>
   <i name="OFIELD_A">      0.00000000</i>
  </separator>
 </parameters>
 <atominfo>
  <atoms>       4 </atoms>
  <types>       1 </types>
  <array name="atoms" >
   <dimension dim="1">ion</dimension>
   <field type="string">element</field>
   <field type="int">atomtype</field>
   <set>
    <rc><c>C </c><c>   1</c></rc>
    <rc><c>C </c><c>   1</c></rc>
    <rc><c>C </c><c>   1</c></rc>
    <rc><c>C </c><c>   1</c></rc>
   </set>
  </array>
  <array name="atomtypes" >
   <dimension dim="1">type</dimension>
   <field type="int">atomspertype</field>
   <field type="string">element</field>
   <field>mass</field>
   <field>valence</field>
   <field type="string">pseudopotential</field>
   <set>
    <rc><c>   4</c><c>C </c><c>     12.01100000</c><c>      4.00000000</c><c> PAW_PBE C 08Apr2002                    </c></rc>
   </set>
  </array>
 </atominfo>
 <structure name="initialpos" >
  <crystal>
   <varray name="basis" >
    <v>       4.25865580       0.00000000       0.00000000 </v>
    <v>       0.00000000       2.51640098       0.00000000 </v>
    <v>       0.00000000       0.00000000      19.67416455 </v>
   </varray>
   <i name="volume">    210.83790140 </i>
   <varray name="rec_basis" >
    <v>       0.23481588       0.00000000       0.00000000 </v>
    <v>       0.00000000       0.39739295       0.00000000 </v>
    <v>       0.00000000       0.00000000       0.05082808 </v>
   </varray>
  </crystal>
  <varray name="positions" >
   <v>       0.00051919       0.00000000       0.00000000 </v>
   <v>       0.16614747       0.50000000       0.00000000 </v>
   <v>       0.50051919       0.50000000       0.00000000 </v>
   <v>       0.66614747       0.00000000       0.00000000 </v>
  </varray>
 </structure>
 <calculation>
  <scstep>
   <time name="dav">  320.54  321.02</time>
   <time name="total">  323.22  323.77</time>
   <energy>
    <i name="alphaZ">      6.18334092 </i>
    <i name="ewald">   2477.30775451 </i>
    <i name="hartreedc">  -2905.96900109 </i>
    <i name="XCdc">     54.87459781 </i>
    <i name="pawpsdc">    151.32577238 </i>
    <i name="pawaedc">   -155.92769107 </i>
    <i name="eentropy">     -0.00112360 </i>
    <i name="bandstr">    -29.75386198 </i>
    <i name="atom">    588.62352690 </i>
    <i name="e_fr_energy">    186.66331478 </i>
    <i name="e_wo_entrp">    186.66443838 </i>
    <i name="e_0_energy">    186.66387658 </i>
   </energy>
  </scstep>
  <scstep>
   <time name="dav">  485.61  488.47</time>
   <time name="total">  485.61  488.48</time>
   <energy>
    <i name="e_fr_energy">     -9.80412144 </i>
    <i name="e_wo_entrp">     -9.80393516 </i>
    <i name="e_0_energy">     -9.80402830 </i>
   </energy>
  </scstep>
  <scstep>
   <time name="dav">  371.20  373.06</time>
   <time name="total">  403.60  405.84</time>
   <energy>
    <i name="e_fr_energy">    -38.22449787 </i>
    <i name="e_wo_entrp">    -38.22449307 </i>
    <i name="e_0_energy">    -38.22449547 </i>
   </energy>
  </scstep>
  <scstep>
   <time name="diag">   86.74   87.23</time>
   <time name="diis">  372.05  372.59</time>
   <time name="orth">    3.06    3.06</time>
   <time name="total">  497.75  498.87</time>
   <energy>
    <i name="e_fr_energy">    -37.61182753 </i>
    <i name="e_wo_entrp">    -37.61182696 </i>
    <i name="e_0_energy">    -37.61182725 </i>
   </energy>
  </scstep>
  <scstep>
   <time name="diag">   87.09   87.14</time>
   <time name="diis">  366.71  366.85</time>
   <time name="orth">    3.09    3.09</time>
   <time name="total">  492.86  493.12</time>
   <energy>
    <i name="e_fr_energy">    -36.89232255 </i>
    <i name="e_wo_entrp">    -36.89232194 </i>
    <i name="e_0_energy">    -36.89232225 </i>
   </energy>
  </scstep>
  <scstep>
   <time name="diag">   87.07   87.09</time>
   <time name="diis">  401.95  402.03</time>
   <time name="orth">    3.08    3.08</time>
   <time name="total">  528.19  528.39</time>
   <energy>
    <i name="e_fr_energy">    -36.89393143 </i>
    <i name="e_wo_entrp">    -36.89393098 </i>
    <i name="e_0_energy">    -36.89393120 </i>
   </energy>
  </scstep>
  <scstep>
   <time name="diag">   86.61   87.05</time>
   <time name="diis">  364.51  365.28</time>
   <time name="orth">    3.09    3.09</time>
   <time name="total">  490.26  491.55</time>
   <energy>
    <i name="e_fr_energy">    -36.88501821 </i>
    <i name="e_wo_entrp">    -36.88501786 </i>
    <i name="e_0_energy">    -36.88501804 </i>
   </energy>
  </scstep>
  <scstep>
   <time name="diag">   87.16   87.18</time>
   <time name="diis">  366.94  367.42</time>
   <time name="orth">    3.08    3.11</time>
   <time name="total">  493.31  494.03</time>
   <energy>
    <i name="e_fr_energy">    -36.87976917 </i>
    <i name="e_wo_entrp">    -36.87976879 </i>
    <i name="e_0_energy">    -36.87976898 </i>
   </energy>
  </scstep>
  <scstep>
   <time name="diag">   87.20   87.24</time>
   <time name="diis">  350.99  351.06</time>
   <time name="orth">    3.06    3.06</time>
   <time name="total">  477.19  477.45</time>
   <energy>
    <i name="e_fr_energy">    -36.87963369 </i>
    <i name="e_wo_entrp">    -36.87963326 </i>
    <i name="e_0_energy">    -36.87963348 </i>
   </energy>
  </scstep>
  <scstep>
   <time name="diag">   87.06   87.08</time>
   <time name="diis">  351.46  353.08</time>
   <time name="orth">    3.07    3.07</time>
   <time name="total">  477.59  479.51</time>
   <energy>
    <i name="e_fr_energy">    -36.87943959 </i>
    <i name="e_wo_entrp">    -36.87943919 </i>
    <i name="e_0_energy">    -36.87943939 </i>
   </energy>
  </scstep>
  <scstep>
   <time name="diag">   86.77   87.10</time>
   <time name="diis">  350.83  354.66</time>
   <time name="orth">    3.07    3.07</time>
   <time name="total">  476.35  481.18</time>
   <energy>
    <i name="e_fr_energy">    -36.88181891 </i>
    <i name="e_wo_entrp">    -36.88181853 </i>
    <i name="e_0_energy">    -36.88181872 </i>
   </energy>
  </scstep>
  <scstep>
   <time name="diag">   86.44   87.09</time>
   <time name="diis">  351.03  354.38</time>
   <time name="orth">    3.07    3.10</time>
   <time name="total">  476.41  480.90</time>
   <energy>
    <i name="e_fr_energy">    -36.88227448 </i>
    <i name="e_wo_entrp">    -36.88227409 </i>
    <i name="e_0_energy">    -36.88227429 </i>
   </energy>
  </scstep>
  <scstep>
   <time name="diag">   86.26   87.16</time>
   <time name="diis">  355.88  358.98</time>
   <time name="orth">    3.08    3.09</time>
   <time name="total">  480.89  485.31</time>
   <energy>
    <i name="e_fr_energy">    -36.88254867 </i>
    <i name="e_wo_entrp">    -36.88254827 </i>
    <i name="e_0_energy">    -36.88254847 </i>
   </energy>
  </scstep>
  <scstep>
   <time name="diag">   86.79   87.10</time>
   <time name="diis">  354.28  355.96</time>
   <time name="orth">    3.06    3.06</time>
   <time name="total">  479.86  482.05</time>
   <energy>
    <i name="e_fr_energy">    -36.88263010 </i>
    <i name="e_wo_entrp">    -36.88262970 </i>
    <i name="e_0_energy">    -36.88262990 </i>
   </energy>
  </scstep>
  <scstep>
   <time name="diag">   86.95   87.11</time>
   <time name="diis">  356.64  359.71</time>
   <time name="orth">    3.07    3.07</time>
   <time name="total">  483.02  486.50</time>
   <energy>
    <i name="e_fr_energy">    -36.88264232 </i>
    <i name="e_wo_entrp">    -36.88264192 </i>
    <i name="e_0_energy">    -36.88264212 </i>
   </energy>
  </scstep>
  <scstep>
   <time name="diag">   87.00   87.04</time>
   <time name="diis">  353.65  354.11</time>
   <time name="orth">    3.08    3.09</time>
   <time name="total">  480.02  480.70</time>
   <energy>
    <i name="e_fr_energy">    -36.88265504 </i>
    <i name="e_wo_entrp">    -36.88265464 </i>
    <i name="e_0_energy">    -36.88265484 </i>
   </energy>
  </scstep>
  <scstep>
   <time name="diag">   86.91   86.98</time>
   <time name="diis">  370.91  371.23</time>
   <time name="orth">    3.14    3.15</time>
   <time name="total">  497.41  497.87</time>
   <energy>
    <i name="e_fr_energy">    -36.88266098 </i>
    <i name="e_wo_entrp">    -36.88266058 </i>
    <i name="e_0_energy">    -36.88266078 </i>
   </energy>
  </scstep>
  <scstep>
   <time name="diag">   87.12   87.15</time>
   <time name="diis">  352.57  352.68</time>
   <time name="orth">    3.08    3.09</time>
   <time name="total">  479.22  479.41</time>
   <energy>
    <i name="e_fr_energy">    -36.88266210 </i>
    <i name="e_wo_entrp">    -36.88266170 </i>
    <i name="e_0_energy">    -36.88266190 </i>
   </energy>
  </scstep>
  <scstep>
   <time name="diag">   87.04   87.08</time>
   <time name="diis">  364.01  365.37</time>
   <time name="orth">    3.07    3.07</time>
   <time name="total">  490.50  491.96</time>
   <energy>
    <i name="e_fr_energy">    -36.88266288 </i>
    <i name="e_wo_entrp">    -36.88266248 </i>
    <i name="e_0_energy">    -36.88266268 </i>
   </energy>
  </scstep>
  <scstep>
   <time name="diag">   86.92   87.04</time>
   <time name="diis">  273.56  274.64</time>
   <time name="orth">    3.06    3.08</time>
   <time name="total">  399.83  401.24</time>
   <energy>
    <i name="e_fr_energy">    -36.88266294 </i>
    <i name="e_wo_entrp">    -36.88266254 </i>
    <i name="e_0_energy">    -36.88266274 </i>
   </energy>
  </scstep>
  <scstep>
   <time name="diag">   87.01   87.03</time>
   <time name="diis">  270.67  270.74</time>
   <time name="orth">    3.09    3.09</time>
   <time name="total">  397.10  397.29</time>
   <energy>
    <i name="e_fr_energy">    -36.88266296 </i>
    <i name="e_wo_entrp">    -36.88266256 </i>
    <i name="e_0_energy">    -36.88266276 </i>
   </energy>
  </scstep>
  <scstep>
   <time name="diag">   87.19   87.21</time>
   <time name="diis">  242.47  242.53</time>
   <time name="orth">    3.08    3.08</time>
   <time name="total">  335.36  335.45</time>
   <energy>
    <i name="alphaZ">      6.18334092 </i>
    <i name="ewald">   2477.30775451 </i>
    <i name="hartreedc">  -2971.52480478 </i>
    <i name="XCdc">     57.21973188 </i>
    <i name="pawpsdc">    270.48866889 </i>
    <i name="pawaedc">   -275.60766577 </i>
    <i name="eentropy">     -0.00000040 </i>
    <i name="bandstr">   -189.57321510 </i>
    <i name="atom">    588.62352690 </i>
    <i name="e_fr_energy">    -36.88266296 </i>
    <i name="e_wo_entrp">    -36.88266256 </i>
    <i name="e_0_energy">    -36.88266276 </i>
   </energy>
  </scstep>
  <structure>
   <crystal>
    <varray name="basis" >
     <v>       4.25865580       0.00000000       0.00000000 </v>
     <v>       0.00000000       2.51640098       0.00000000 </v>
     <v>       0.00000000       0.00000000      19.67416455 </v>
    </varray>
    <i name="volume">    210.83790140 </i>
    <varray name="rec_basis" >
     <v>       0.23481588       0.00000000       0.00000000 </v>
     <v>       0.00000000       0.39739295       0.00000000 </v>
     <v>       0.00000000       0.00000000       0.05082808 </v>
    </varray>
   </crystal>
   <varray name="positions" >
    <v>       0.00051919       0.00000000       0.00000000 </v>
    <v>       0.16614747       0.50000000       0.00000000 </v>
    <v>       0.50051919       0.50000000       0.00000000 </v>
    <v>       0.66614747       0.00000000       0.00000000 </v>
   </varray>
  </structure>
  <varray name="forces" >
   <v>      -0.00165413       0.00000000      -0.00000000 </v>
   <v>       0.00165413      -0.00000000       0.00000000 </v>
   <v>      -0.00165413       0.00000000      -0.00000000 </v>
   <v>       0.00165413      -0.00000000       0.00000000 </v>
  </varray>
  <varray name="stress" >
   <v>      -0.01171673       0.00000000       0.00000000 </v>
   <v>       0.00000000     -32.81487417       0.00000000 </v>
   <v>       0.00000000       0.00000000      -0.01029266 </v>
  </varray>
  <energy>
   <i name="e_fr_energy">    -36.88266296 </i>
   <i name="e_wo_entrp">    -36.88266276 </i>
   <i name="e_0_energy">     -0.00000040 </i>
  </energy>
  <time name="totalsc">10248.9710285.14</time>
 </calculation>
 <calculation>
  <scstep>
   <time name="dav">  335.01  336.92</time>
   <time name="total">  370.77  373.03</time>
   <energy>
    <i name="alphaZ">      6.18334092 </i>
    <i name="ewald">   2477.30911157 </i>
    <i name="hartreedc">  -2971.52540705 </i>
    <i name="XCdc">     57.21977112 </i>
    <i name="pawpsdc">    270.48869390 </i>
    <i name="pawaedc">   -275.60769105 </i>
    <i name="eentropy">     -0.00000036 </i>
    <i name="bandstr">   -189.57400810 </i>
    <i name="atom">    588.62352690 </i>
    <i name="e_fr_energy">    -36.88266214 </i>
    <i name="e_wo_entrp">    -36.88266178 </i>
    <i name="e_0_energy">    -36.88266196 </i>
   </energy>
  </scstep>
  <scstep>
   <time name="diag">   86.50   87.15</time>
   <time name="diis">  350.57  353.84</time>
   <time name="orth">    3.07    3.08</time>
   <time name="total">  476.10  480.39</time>
   <energy>
    <i name="e_fr_energy">    -36.88266220 </i>
    <i name="e_wo_entrp">    -36.88266184 </i>
    <i name="e_0_energy">    -36.88266202 </i>
   </energy>
  </scstep>
  <scstep>
   <time name="diag">   86.57   87.17</time>
   <time name="diis">  353.29  357.10</time>
   <time name="orth">    3.06    3.06</time>
   <time name="total">  478.93  483.79</time>
   <energy>
    <i name="e_fr_energy">    -36.88266217 </i>
    <i name="e_wo_entrp">    -36.88266181 </i>
    <i name="e_0_energy">    -36.88266199 </i>
   </energy>
  </scstep>
  <scstep>
   <time name="diag">   86.29   87.27</time>
   <time name="diis">  359.42  360.73</time>
   <time name="orth">    3.08    3.08</time>
   <time name="total">  484.89  487.63</time>
   <energy>
    <i name="e_fr_energy">    -36.88266217 </i>
    <i name="e_wo_entrp">    -36.88266181 </i>
    <i name="e_0_energy">    -36.88266199 </i>
   </energy>
  </scstep>
  <scstep>
   <time name="diag">   86.54   87.18</time>
   <time name="diis">  314.61  316.09</time>
   <time name="orth">    3.08    3.08</time>
   <time name="total">  440.56  442.72</time>
   <energy>
    <i name="e_fr_energy">    -36.88266217 </i>
    <i name="e_wo_entrp">    -36.88266181 </i>
    <i name="e_0_energy">    -36.88266199 </i>
   </energy>
  </scstep>
  <scstep>
   <time name="diag">   87.04   87.08</time>
   <time name="diis">  236.29  236.34</time>
   <time name="orth">    3.07    3.07</time>
   <time name="total">  361.54  362.11</time>
   <energy>
    <i name="e_fr_energy">    -36.88266217 </i>
    <i name="e_wo_entrp">    -36.88266181 </i>
    <i name="e_0_energy">    -36.88266199 </i>
   </energy>
  </scstep>
  <scstep>
   <time name="diag">   86.99   87.01</time>
   <time name="diis">  237.42  237.47</time>
   <time name="orth">    3.09    3.09</time>
   <time name="total">  363.86  364.47</time>
   <energy>
    <i name="e_fr_energy">    -36.88266217 </i>
    <i name="e_wo_entrp">    -36.88266181 </i>
    <i name="e_0_energy">    -36.88266199 </i>
   </energy>
  </scstep>
  <scstep>
   <time name="diag">   86.79   87.21</time>
   <time name="diis">  225.41  225.66</time>
   <time name="orth">    3.07    3.07</time>
   <time name="total">  317.88  318.57</time>
   <energy>
    <i name="alphaZ">      6.18334092 </i>
    <i name="ewald">   2477.30911157 </i>
    <i name="hartreedc">  -2971.52596317 </i>
    <i name="XCdc">     57.21979458 </i>
    <i name="pawpsdc">    270.49105281 </i>
    <i name="pawaedc">   -275.61006040 </i>
    <i name="eentropy">     -0.00000036 </i>
    <i name="bandstr">   -189.57346503 </i>
    <i name="atom">    588.62352690 </i>
    <i name="e_fr_energy">    -36.88266217 </i>
    <i name="e_wo_entrp">    -36.88266181 </i>
    <i name="e_0_energy">    -36.88266199 </i>
   </energy>
  </scstep>
  <structure>
   <crystal>
    <varray name="basis" >
     <v>       4.25865580       0.00000000       0.00000000 </v>
     <v>       0.00000000       2.51640098       0.00000000 </v>
     <v>       0.00000000       0.00000000      19.67416455 </v>
    </varray>
    <i name="volume">    210.83790140 </i>
    <varray name="rec_basis" >
     <v>       0.23481588       0.00000000       0.00000000 </v>
     <v>       0.00000000       0.39739295       0.00000000 </v>
     <v>       0.00000000       0.00000000       0.05082808 </v>
    </varray>
   </crystal>
   <varray name="positions" >
    <v>       0.00050045       0.00000000      -0.00000000 </v>
    <v>       0.16616621       0.50000000       0.00000000 </v>
    <v>       0.50050045       0.50000000      -0.00000000 </v>
    <v>       0.66616621      -0.00000000       0.00000000 </v>
   </varray>
  </structure>
  <varray name="forces" >
   <v>       0.00668099      -0.00000000       0.00000000 </v>
   <v>      -0.00668099       0.00000000       0.00000000 </v>
   <v>       0.00668099       0.00000000       0.00000000 </v>
   <v>      -0.00668099      -0.00000000       0.00000000 </v>
  </varray>
  <varray name="stress" >
   <v>       0.02046208       0.00000000       0.00000000 </v>
   <v>       0.00000000     -32.83641452       0.00000000 </v>
   <v>       0.00000000       0.00000000      -0.01019715 </v>
  </varray>
  <energy>
   <i name="e_fr_energy">    -36.88266217 </i>
   <i name="e_wo_entrp">    -36.88266199 </i>
   <i name="e_0_energy">     -0.00000036 </i>
  </energy>
  <time name="totalsc"> 3400.53 3419.27</time>
 </calculation>
 <calculation>
  <scstep>
   <time name="dav">  342.86  343.65</time>
   <time name="total">  378.91  379.73</time>
   <energy>
    <i name="alphaZ">      6.18334092 </i>
    <i name="ewald">   2477.30802311 </i>
    <i name="hartreedc">  -2971.52549794 </i>
    <i name="XCdc">     57.21976346 </i>
    <i name="pawpsdc">    270.49104760 </i>
    <i name="pawaedc">   -275.61005513 </i>
    <i name="eentropy">     -0.00000039 </i>
    <i name="bandstr">   -189.57281157 </i>
    <i name="atom">    588.62352690 </i>
    <i name="e_fr_energy">    -36.88266302 </i>
    <i name="e_wo_entrp">    -36.88266263 </i>
    <i name="e_0_energy">    -36.88266282 </i>
   </energy>
  </scstep>
  <scstep>
   <time name="diag">   86.93   87.08</time>
   <time name="diis">  353.42  353.49</time>
   <time name="orth">    3.09    3.09</time>
   <time name="total">  479.52  479.83</time>
   <energy>
    <i name="e_fr_energy">    -36.88266305 </i>
    <i name="e_wo_entrp">    -36.88266265 </i>
    <i name="e_0_energy">    -36.88266285 </i>
   </energy>
  </scstep>
  <scstep>
   <time name="diag">   87.07   87.13</time>
   <time name="diis">  354.97  356.05</time>
   <time name="orth">    3.06    3.06</time>
   <time name="total">  481.38  482.65</time>
   <energy>
    <i name="e_fr_energy">    -36.88266302 </i>
    <i name="e_wo_entrp">    -36.88266262 </i>
    <i name="e_0_energy">    -36.88266282 </i>
   </energy>
  </scstep>
  <scstep>
   <time name="diag">   86.82   87.13</time>
   <time name="diis">  360.55  361.97</time>
   <time name="orth">    3.06    3.08</time>
   <time name="total">  486.61  488.58</time>
   <energy>
    <i name="e_fr_energy">    -36.88266302 </i>
    <i name="e_wo_entrp">    -36.88266262 </i>
    <i name="e_0_energy">    -36.88266282 </i>
   </energy>
  </scstep>
  <scstep>
   <time name="diag">   86.78   87.23</time>
   <time name="diis">  294.43  294.72</time>
   <time name="orth">    3.06    3.06</time>
   <time name="total">  420.71  421.56</time>
   <energy>
    <i name="e_fr_energy">    -36.88266301 </i>
    <i name="e_wo_entrp">    -36.88266262 </i>
    <i name="e_0_energy">    -36.88266282 </i>
   </energy>
  </scstep>
  <scstep>
   <time name="diag">   87.07   87.08</time>
   <time name="diis">  237.06  237.11</time>
   <time name="orth">    3.07    3.08</time>
   <time name="total">  363.68  363.79</time>
   <energy>
    <i name="e_fr_energy">    -36.88266301 </i>
    <i name="e_wo_entrp">    -36.88266262 </i>
    <i name="e_0_energy">    -36.88266282 </i>
   </energy>
  </scstep>
  <scstep>
   <time name="diag">   87.07   87.12</time>
   <time name="diis">  236.37  236.41</time>
   <time name="orth">    3.09    3.09</time>
   <time name="total">  362.91  363.19</time>
   <energy>
    <i name="e_fr_energy">    -36.88266301 </i>
    <i name="e_wo_entrp">    -36.88266262 </i>
    <i name="e_0_energy">    -36.88266282 </i>
   </energy>
  </scstep>
  <scstep>
   <time name="diag">   86.64   87.06</time>
   <time name="diis">  221.62  221.73</time>
   <time name="orth">    3.08    3.08</time>
   <time name="total">  347.77  348.36</time>
   <energy>
    <i name="e_fr_energy">    -36.88266301 </i>
    <i name="e_wo_entrp">    -36.88266262 </i>
    <i name="e_0_energy">    -36.88266282 </i>
   </energy>
  </scstep>
  <scstep>
   <time name="diag">   86.24   87.09</time>
   <time name="diis">  208.61  210.61</time>
   <time name="orth">    3.05    3.08</time>
   <time name="total">  333.90  337.31</time>
   <energy>
    <i name="e_fr_energy">    -36.88266301 </i>
    <i name="e_wo_entrp">    -36.88266262 </i>
    <i name="e_0_energy">    -36.88266282 </i>
   </energy>
  </scstep>
  <scstep>
   <time name="diag">   86.19   87.09</time>
   <time name="diis">  198.63  199.69</time>
   <time name="orth">    3.08    3.08</time>
   <time name="total">  324.01  326.05</time>
   <energy>
    <i name="e_fr_energy">    -36.88266301 </i>
    <i name="e_wo_entrp">    -36.88266262 </i>
    <i name="e_0_energy">    -36.88266282 </i>
   </energy>
  </scstep>
  <scstep>
   <time name="diag">   86.80   87.04</time>
   <time name="diis">  191.38  191.90</time>
   <time name="orth">    3.08    3.09</time>
   <time name="total">  317.27  318.07</time>
   <energy>
    <i name="e_fr_energy">    -36.88266301 </i>
    <i name="e_wo_entrp">    -36.88266262 </i>
    <i name="e_0_energy">    -36.88266282 </i>
   </energy>
  </scstep>
  <scstep>
   <time name="diag">   86.99   87.02</time>
   <time name="diis">  188.24  188.32</time>
   <time name="orth">    3.08    3.08</time>
   <time name="total">  314.26  314.37</time>
   <energy>
    <i name="e_fr_energy">    -36.88266301 </i>
    <i name="e_wo_entrp">    -36.88266262 </i>
    <i name="e_0_energy">    -36.88266282 </i>
   </energy>
  </scstep>
  <scstep>
   <time name="diag">   87.00   87.02</time>
   <time name="diis">  186.53  186.58</time>
   <time name="orth">    3.12    3.12</time>
   <time name="total">  279.30  279.37</time>
   <energy>
    <i name="alphaZ">      6.18334092 </i>
    <i name="ewald">   2477.30802311 </i>
    <i name="hartreedc">  -2971.52505054 </i>
    <i name="XCdc">     57.21974481 </i>
    <i name="pawpsdc">    270.48916310 </i>
    <i name="pawaedc">   -275.60816236 </i>
    <i name="eentropy">     -0.00000039 </i>
    <i name="bandstr">   -189.57324857 </i>
    <i name="atom">    588.62352690 </i>
    <i name="e_fr_energy">    -36.88266301 </i>
    <i name="e_wo_entrp">    -36.88266262 </i>
    <i name="e_0_energy">    -36.88266282 </i>
   </energy>
  </scstep>
  <structure>
   <crystal>
    <varray name="basis" >
     <v>       4.25865580       0.00000000       0.00000000 </v>
     <v>       0.00000000       2.51640098       0.00000000 </v>
     <v>       0.00000000       0.00000000      19.67416455 </v>
    </varray>
    <i name="volume">    210.83790140 </i>
    <varray name="rec_basis" >
     <v>       0.23481588       0.00000000       0.00000000 </v>
     <v>       0.00000000       0.39739295       0.00000000 </v>
     <v>       0.00000000       0.00000000       0.05082808 </v>
    </varray>
   </crystal>
   <varray name="positions" >
    <v>       0.00051547       0.00000000      -0.00000000 </v>
    <v>       0.16615119       0.50000000       0.00000000 </v>
    <v>       0.50051547       0.50000000      -0.00000000 </v>
    <v>       0.66615119      -0.00000000       0.00000000 </v>
   </varray>
  </structure>
  <varray name="forces" >
   <v>       0.00000240      -0.00000000       0.00000000 </v>
   <v>      -0.00000240      -0.00000000       0.00000000 </v>
   <v>       0.00000240      -0.00000000       0.00000000 </v>
   <v>      -0.00000240       0.00000000       0.00000000 </v>
  </varray>
  <varray name="stress" >
   <v>      -0.00528667       0.00000000       0.00000000 </v>
   <v>       0.00000000     -32.81917238       0.00000000 </v>
   <v>       0.00000000       0.00000000      -0.01024544 </v>
  </varray>
  <energy>
   <i name="e_fr_energy">    -36.88266301 </i>
   <i name="e_wo_entrp">    -36.88266282 </i>
   <i name="e_0_energy">     -0.00000039 </i>
  </energy>
  <time name="totalsc"> 4994.14 5006.99</time>
 </calculation>
 <calculation>
  <scstep>
   <time name="dav">  273.58  274.49</time>
   <time name="total">  308.72  309.65</time>
   <energy>
    <i name="alphaZ">      6.18334092 </i>
    <i name="ewald">   2477.30802272 </i>
    <i name="hartreedc">  -2971.52505015 </i>
    <i name="XCdc">     57.21974480 </i>
    <i name="pawpsdc">    270.48916328 </i>
    <i name="pawaedc">   -275.60816254 </i>
    <i name="eentropy">     -0.00000039 </i>
    <i name="bandstr">   -189.57324856 </i>
    <i name="atom">    588.62352690 </i>
    <i name="e_fr_energy">    -36.88266301 </i>
    <i name="e_wo_entrp">    -36.88266262 </i>
    <i name="e_0_energy">    -36.88266282 </i>
   </energy>
  </scstep>
  <scstep>
   <time name="diag">   87.10   87.12</time>
   <time name="diis">  160.33  160.36</time>
   <time name="orth">    3.08    3.08</time>
   <time name="total">  285.72  285.79</time>
   <energy>
    <i name="e_fr_energy">    -36.88266301 </i>
    <i name="e_wo_entrp">    -36.88266262 </i>
    <i name="e_0_energy">    -36.88266282 </i>
   </energy>
  </scstep>
  <scstep>
   <time name="diag">   87.05   87.14</time>
   <time name="diis">  158.75  158.80</time>
   <time name="orth">    3.07    3.07</time>
   <time name="total">  284.48  284.64</time>
   <energy>
    <i name="e_fr_energy">    -36.88266301 </i>
    <i name="e_wo_entrp">    -36.88266262 </i>
    <i name="e_0_energy">    -36.88266282 </i>
   </energy>
  </scstep>
  <scstep>
   <time name="diag">   87.19   87.22</time>
   <time name="diis">  157.91  157.95</time>
   <time name="orth">    3.07    3.07</time>
   <time name="total">  283.35  283.82</time>
   <energy>
    <i name="e_fr_energy">    -36.88266301 </i>
    <i name="e_wo_entrp">    -36.88266262 </i>
    <i name="e_0_energy">    -36.88266282 </i>
   </energy>
  </scstep>
  <scstep>
   <time name="diag">   86.96   87.20</time>
   <time name="diis">  158.75  158.82</time>
   <time name="orth">    3.07    3.07</time>
   <time name="total">  285.19  285.51</time>
   <energy>
    <i name="e_fr_energy">    -36.88266301 </i>
    <i name="e_wo_entrp">    -36.88266262 </i>
    <i name="e_0_energy">    -36.88266282 </i>
   </energy>
  </scstep>
  <scstep>
   <time name="diag">   87.14   87.16</time>
   <time name="diis">  157.07  157.10</time>
   <time name="orth">    3.09    3.09</time>
   <time name="total">  283.70  283.75</time>
   <energy>
    <i name="e_fr_energy">    -36.88266301 </i>
    <i name="e_wo_entrp">    -36.88266262 </i>
    <i name="e_0_energy">    -36.88266282 </i>
   </energy>
  </scstep>
  <scstep>
   <time name="diag">   87.09   87.22</time>
   <time name="diis">  156.72  156.89</time>
   <time name="orth">    3.10    3.10</time>
   <time name="total">  283.30  283.62</time>
   <energy>
    <i name="e_fr_energy">    -36.88266301 </i>
    <i name="e_wo_entrp">    -36.88266262 </i>
    <i name="e_0_energy">    -36.88266282 </i>
   </energy>
  </scstep>
  <scstep>
   <time name="diag">   87.14   87.19</time>
   <time name="diis">  156.85  156.88</time>
   <time name="orth">    3.07    3.07</time>
   <time name="total">  283.45  283.55</time>
   <energy>
    <i name="e_fr_energy">    -36.88266301 </i>
    <i name="e_wo_entrp">    -36.88266262 </i>
    <i name="e_0_energy">    -36.88266282 </i>
   </energy>
  </scstep>
  <scstep>
   <time name="diag">   87.20   87.22</time>
   <time name="diis">  145.22  145.27</time>
   <time name="orth">    3.09    3.09</time>
   <time name="total">  271.89  272.01</time>
   <energy>
    <i name="e_fr_energy">    -36.88266301 </i>
    <i name="e_wo_entrp">    -36.88266262 </i>
    <i name="e_0_energy">    -36.88266282 </i>
   </energy>
  </scstep>
  <scstep>
   <time name="diag">   87.17   87.19</time>
   <time name="diis">  146.79  146.81</time>
   <time name="orth">    3.07    3.07</time>
   <time name="total">  273.42  273.47</time>
   <energy>
    <i name="e_fr_energy">    -36.88266301 </i>
    <i name="e_wo_entrp">    -36.88266262 </i>
    <i name="e_0_energy">    -36.88266282 </i>
   </energy>
  </scstep>
  <scstep>
   <time name="diag">   87.20   87.25</time>
   <time name="diis">  144.95  145.07</time>
   <time name="orth">    3.09    3.09</time>
   <time name="total">  271.65  271.86</time>
   <energy>
    <i name="e_fr_energy">    -36.88266301 </i>
    <i name="e_wo_entrp">    -36.88266262 </i>
    <i name="e_0_energy">    -36.88266282 </i>
   </energy>
  </scstep>
  <scstep>
   <time name="diag">   87.11   87.18</time>
   <time name="diis">  142.70  142.73</time>
   <time name="orth">    3.08    3.08</time>
   <time name="total">  235.55  235.65</time>
   <energy>
    <i name="alphaZ">      6.18334092 </i>
    <i name="ewald">   2477.30802272 </i>
    <i name="hartreedc">  -2971.52505376 </i>
    <i name="XCdc">     57.21974492 </i>
    <i name="pawpsdc">    270.48916498 </i>
    <i name="pawaedc">   -275.60816426 </i>
    <i name="eentropy">     -0.00000039 </i>
    <i name="bandstr">   -189.57324505 </i>
    <i name="atom">    588.62352690 </i>
    <i name="e_fr_energy">    -36.88266301 </i>
    <i name="e_wo_entrp">    -36.88266262 </i>
    <i name="e_0_energy">    -36.88266282 </i>
   </energy>
  </scstep>
  <structure>
   <crystal>
    <varray name="basis" >
     <v>       4.25865580       0.00000000       0.00000000 </v>
     <v>       0.00000000       2.51640098       0.00000000 </v>
     <v>       0.00000000       0.00000000      19.67416455 </v>
    </varray>
    <i name="volume">    210.83790140 </i>
    <varray name="rec_basis" >
     <v>       0.23481588       0.00000000       0.00000000 </v>
     <v>       0.00000000       0.39739295       0.00000000 </v>
     <v>       0.00000000       0.00000000       0.05082808 </v>
    </varray>
   </crystal>
   <varray name="positions" >
    <v>       0.00051548       0.00000000      -0.00000000 </v>
    <v>       0.16615119       0.50000000       0.00000000 </v>
    <v>       0.50051548       0.50000000      -0.00000000 </v>
    <v>       0.66615119      -0.00000000       0.00000000 </v>
   </varray>
  </structure>
  <varray name="forces" >
   <v>      -0.00000207       0.00000000       0.00000000 </v>
   <v>       0.00000207       0.00000000      -0.00000000 </v>
   <v>      -0.00000207       0.00000000       0.00000000 </v>
   <v>       0.00000207      -0.00000000      -0.00000000 </v>
  </varray>
  <varray name="stress" >
   <v>      -0.00531366       0.00000000       0.00000000 </v>
   <v>       0.00000000     -32.81915282       0.00000000 </v>
   <v>       0.00000000       0.00000000      -0.01022346 </v>
  </varray>
  <energy>
   <i name="e_fr_energy">    -36.88266301 </i>
   <i name="e_wo_entrp">    -36.88266282 </i>
   <i name="e_0_energy">     -0.00000039 </i>
  </energy>
  <time name="totalsc"> 3454.60 3457.61</time>
 </calculation>
 <calculation>
  <scstep>
   <time name="dav">  269.28  269.48</time>
   <time name="total">  305.63  305.87</time>
   <energy>
    <i name="alphaZ">      6.18334092 </i>
    <i name="ewald">   2477.30802290 </i>
    <i name="hartreedc">  -2971.52505385 </i>
    <i name="XCdc">     57.21974493 </i>
    <i name="pawpsdc">    270.48916498 </i>
    <i name="pawaedc">   -275.60816426 </i>
    <i name="eentropy">     -0.00000039 </i>
    <i name="bandstr">   -189.57324515 </i>
    <i name="atom">    588.62352690 </i>
    <i name="e_fr_energy">    -36.88266301 </i>
    <i name="e_wo_entrp">    -36.88266262 </i>
    <i name="e_0_energy">    -36.88266282 </i>
   </energy>
  </scstep>
  <scstep>
   <time name="diag">   87.16   87.19</time>
   <time name="diis">  144.69  144.78</time>
   <time name="orth">    3.06    3.06</time>
   <time name="total">  271.33  271.47</time>
   <energy>
    <i name="e_fr_energy">    -36.88266301 </i>
    <i name="e_wo_entrp">    -36.88266262 </i>
    <i name="e_0_energy">    -36.88266282 </i>
   </energy>
  </scstep>
  <scstep>
   <time name="diag">   87.23   87.25</time>
   <time name="diis">  140.14  140.20</time>
   <time name="orth">    3.08    3.08</time>
   <time name="total">  266.81  267.02</time>
   <energy>
    <i name="e_fr_energy">    -36.88266301 </i>
    <i name="e_wo_entrp">    -36.88266262 </i>
    <i name="e_0_energy">    -36.88266282 </i>
   </energy>
  </scstep>
  <scstep>
   <time name="diag">   87.22   87.27</time>
   <time name="diis">  144.61  145.11</time>
   <time name="orth">    3.07    3.10</time>
   <time name="total">  271.14  271.92</time>
   <energy>
    <i name="e_fr_energy">    -36.88266301 </i>
    <i name="e_wo_entrp">    -36.88266262 </i>
    <i name="e_0_energy">    -36.88266282 </i>
   </energy>
  </scstep>
  <scstep>
   <time name="diag">   86.70   87.17</time>
   <time name="diis">  139.11  139.20</time>
   <time name="orth">    3.06    3.06</time>
   <time name="total">  265.13  265.83</time>
   <energy>
    <i name="e_fr_energy">    -36.88266301 </i>
    <i name="e_wo_entrp">    -36.88266262 </i>
    <i name="e_0_energy">    -36.88266282 </i>
   </energy>
  </scstep>
  <scstep>
   <time name="diag">   86.97   87.07</time>
   <time name="diis">  140.46  140.51</time>
   <time name="orth">    3.08    3.08</time>
   <time name="total">  266.70  266.86</time>
   <energy>
    <i name="e_fr_energy">    -36.88266301 </i>
    <i name="e_wo_entrp">    -36.88266262 </i>
    <i name="e_0_energy">    -36.88266282 </i>
   </energy>
  </scstep>
  <scstep>
   <time name="diag">   87.05   87.07</time>
   <time name="diis">  120.38  120.67</time>
   <time name="orth">    3.09    3.09</time>
   <time name="total">  213.19  213.52</time>
   <energy>
    <i name="alphaZ">      6.18334092 </i>
    <i name="ewald">   2477.30802290 </i>
    <i name="hartreedc">  -2971.52505321 </i>
    <i name="XCdc">     57.21974491 </i>
    <i name="pawpsdc">    270.48916494 </i>
    <i name="pawaedc">   -275.60816422 </i>
    <i name="eentropy">     -0.00000039 </i>
    <i name="bandstr">   -189.57324577 </i>
    <i name="atom">    588.62352690 </i>
    <i name="e_fr_energy">    -36.88266301 </i>
    <i name="e_wo_entrp">    -36.88266262 </i>
    <i name="e_0_energy">    -36.88266282 </i>
   </energy>
  </scstep>
  <structure>
   <crystal>
    <varray name="basis" >
     <v>       4.25865580       0.00000000       0.00000000 </v>
     <v>       0.00000000       2.51640098       0.00000000 </v>
     <v>       0.00000000       0.00000000      19.67416455 </v>
    </varray>
    <i name="volume">    210.83790140 </i>
    <varray name="rec_basis" >
     <v>       0.23481588       0.00000000       0.00000000 </v>
     <v>       0.00000000       0.39739295       0.00000000 </v>
     <v>       0.00000000       0.00000000       0.05082808 </v>
    </varray>
   </crystal>
   <varray name="positions" >
    <v>       0.00051548       0.00000000      -0.00000000 </v>
    <v>       0.16615119       0.50000000       0.00000000 </v>
    <v>       0.50051548       0.50000000      -0.00000000 </v>
    <v>       0.66615119      -0.00000000       0.00000000 </v>
   </varray>
  </structure>
  <varray name="forces" >
   <v>       0.00000057      -0.00000000      -0.00000000 </v>
   <v>      -0.00000057      -0.00000000       0.00000000 </v>
   <v>       0.00000057      -0.00000000      -0.00000000 </v>
   <v>      -0.00000057       0.00000000       0.00000000 </v>
  </varray>
  <varray name="stress" >
   <v>      -0.00529975       0.00000000       0.00000000 </v>
   <v>       0.00000000     -32.81916095       0.00000000 </v>
   <v>       0.00000000       0.00000000      -0.01023093 </v>
  </varray>
  <energy>
   <i name="e_fr_energy">    -36.88266301 </i>
   <i name="e_wo_entrp">    -36.88266282 </i>
   <i name="e_0_energy">     -0.00000039 </i>
  </energy>
  <time name="totalsc"> 1958.15 1960.78</time>
  <eigenvalues>
   <array>
    <dimension dim="1">band</dimension>
    <dimension dim="2">kpoint</dimension>
    <dimension dim="3">spin</dimension>
    <field>eigene</field>
    <field>occ</field>
    <set>
     <set comment="spin 1">
      <set comment="kpoint 1">
       <r>  -22.1164    1.0000 </r>
       <r>  -16.7683    1.0000 </r>
       <r>  -15.8856    1.0000 </r>
       <r>  -10.2530    1.0000 </r>
       <r>   -9.4147    1.0000 </r>
       <r>   -5.9544    1.0000 </r>
       <r>   -5.7475    1.0000 </r>
       <r>   -4.9464    1.0000 </r>
       <r>   -1.1267    0.0000 </r>
       <r>    0.5404    0.0000 </r>
       <r>    1.3391    0.0000 </r>
       <r>    1.7303    0.0000 </r>
      </set>
      <set comment="kpoint 2">
       <r>  -22.1061    1.0000 </r>
       <r>  -16.9575    1.0000 </r>
       <r>  -15.6813    1.0000 </r>
       <r>  -10.2407    1.0000 </r>
       <r>   -9.4043    1.0000 </r>
       <r>   -5.9779    1.0000 </r>
       <r>   -5.7882    1.0000 </r>
       <r>   -5.0158    1.0000 </r>
       <r>   -1.0423    0.0000 </r>
       <r>    0.5544    0.0000 </r>
       <r>    1.3533    0.0000 </r>
       <r>    1.7447    0.0000 </r>
      </set>
      <set comment="kpoint 3">
       <r>  -22.0750    1.0000 </r>
       <r>  -17.3181    1.0000 </r>
       <r>  -15.2757    1.0000 </r>
       <r>  -10.2038    1.0000 </r>
       <r>   -9.3733    1.0000 </r>
       <r>   -6.0470    1.0000 </r>
       <r>   -5.9089    1.0000 </r>
       <r>   -5.2072    1.0000 </r>
       <r>   -0.8059    0.0000 </r>
       <r>    0.5965    0.0000 </r>
       <r>    1.3958    0.0000 </r>
       <r>    1.7877    0.0000 </r>
      </set>
      <set comment="kpoint 4">
       <r>  -22.0233    1.0000 </r>
       <r>  -17.7078    1.0000 </r>
       <r>  -14.8110    1.0000 </r>
       <r>  -10.1424    1.0000 </r>
       <r>   -9.3217    1.0000 </r>
       <r>   -6.1580    1.0000 </r>
       <r>   -6.1051    1.0000 </r>
       <r>   -5.4844    1.0000 </r>
       <r>   -0.4543    0.0000 </r>
       <r>    0.6666    0.0000 </r>
       <r>    1.4667    0.0000 </r>
       <r>    1.8595    0.0000 </r>
      </set>
      <set comment="kpoint 5">
       <r>  -21.9510    1.0000 </r>
       <r>  -18.0955    1.0000 </r>
       <r>  -14.3192    1.0000 </r>
       <r>  -10.0566    1.0000 </r>
       <r>   -9.2498    1.0000 </r>
       <r>   -6.3704    1.0000 </r>
       <r>   -6.3052    1.0000 </r>
       <r>   -5.8125    1.0000 </r>
       <r>   -0.0233    0.0000 </r>
       <r>    0.7648    0.0000 </r>
       <r>    1.5659    0.0000 </r>
       <r>    1.9600    0.0000 </r>
      </set>
      <set comment="kpoint 6">
       <r>  -21.8580    1.0000 </r>
       <r>  -18.4722    1.0000 </r>
       <r>  -13.8097    1.0000 </r>
       <r>   -9.9465    1.0000 </r>
       <r>   -9.1580    1.0000 </r>
       <r>   -6.6969    1.0000 </r>
       <r>   -6.4820    1.0000 </r>
       <r>   -6.1664    1.0000 </r>
       <r>    0.4608    0.0000 </r>
       <r>    0.8910    0.0000 </r>
       <r>    1.6933    0.0000 </r>
       <r>    2.0892    0.0000 </r>
      </set>
      <set comment="kpoint 7">
       <r>  -21.7445    1.0000 </r>
       <r>  -18.8344    1.0000 </r>
       <r>  -13.2870    1.0000 </r>
       <r>   -9.8123    1.0000 </r>
       <r>   -9.0469    1.0000 </r>
       <r>   -7.0761    1.0000 </r>
       <r>   -6.6813    1.0000 </r>
       <r>   -6.5300    1.0000 </r>
       <r>    0.9800    0.0000 </r>
       <r>    1.0452    0.0000 </r>
       <r>    1.8490    0.0000 </r>
       <r>    2.2470    0.0000 </r>
      </set>
      <set comment="kpoint 8">
       <r>  -21.6106    1.0000 </r>
       <r>  -19.1803    1.0000 </r>
       <r>  -12.7540    1.0000 </r>
       <r>   -9.6543    1.0000 </r>
       <r>   -8.9169    1.0000 </r>
       <r>   -7.4994    1.0000 </r>
       <r>   -6.8965    1.0000 </r>
       <r>   -6.8926    1.0000 </r>
       <r>    1.2273    0.0000 </r>
       <r>    1.5220    0.0000 </r>
       <r>    2.0329    0.0000 </r>
       <r>    2.4336    0.0000 </r>
      </set>
      <set comment="kpoint 9">
       <r>  -21.4564    1.0000 </r>
       <r>  -19.5089    1.0000 </r>
       <r>  -12.2132    1.0000 </r>
       <r>   -9.4727    1.0000 </r>
       <r>   -8.7691    1.0000 </r>
       <r>   -7.9589    1.0000 </r>
       <r>   -7.2477    1.0000 </r>
       <r>   -7.1214    1.0000 </r>
       <r>    1.4374    0.0000 </r>
       <r>    2.0773    0.0000 </r>
       <r>    2.2449    0.0000 </r>
       <r>    2.6489    0.0000 </r>
      </set>
      <set comment="kpoint 10">
       <r>  -21.2819    1.0000 </r>
       <r>  -19.8195    1.0000 </r>
       <r>  -11.6669    1.0000 </r>
       <r>   -9.2679    1.0000 </r>
       <r>   -8.6042    1.0000 </r>
       <r>   -8.4472    1.0000 </r>
       <r>   -7.5908    1.0000 </r>
       <r>   -7.3507    1.0000 </r>
       <r>    1.6754    0.0000 </r>
       <r>    2.4847    0.0000 </r>
       <r>    2.6379    0.0000 </r>
       <r>    2.8928    0.0000 </r>
      </set>
      <set comment="kpoint 11">
       <r>  -21.0873    1.0000 </r>
       <r>  -20.1115    1.0000 </r>
       <r>  -11.1179    1.0000 </r>
       <r>   -9.0405    1.0000 </r>
       <r>   -8.9578    1.0000 </r>
       <r>   -8.4237    1.0000 </r>
       <r>   -7.9186    1.0000 </r>
       <r>   -7.5797    1.0000 </r>
       <r>    1.9411    0.0000 </r>
       <r>    2.7522    0.0000 </r>
       <r>    3.1654    0.0000 </r>
       <r>    3.1930    0.0000 </r>
      </set>
      <set comment="kpoint 12">
       <r>  -20.8727    1.0000 </r>
       <r>  -20.3846    1.0000 </r>
       <r>  -10.5689    1.0000 </r>
       <r>   -9.4848    1.0000 </r>
       <r>   -8.7909    1.0000 </r>
       <r>   -8.2289    1.0000 </r>
       <r>   -8.2289    1.0000 </r>
       <r>   -7.8044    1.0000 </r>
       <r>    2.2346    0.0000 </r>
       <r>    2.9033    0.0000 </r>
       <r>    3.0463    0.0000 </r>
       <r>    3.4667    0.0000 </r>
      </set>
      <set comment="kpoint 13">
       <r>  -20.6384    1.0000 </r>
       <r>  -20.6384    1.0000 </r>
       <r>  -10.0233    1.0000 </r>
       <r>  -10.0233    1.0000 </r>
       <r>   -8.5201    1.0000 </r>
       <r>   -8.5201    1.0000 </r>
       <r>   -8.0217    1.0000 </r>
       <r>   -8.0217    1.0000 </r>
       <r>    2.5554    0.0000 </r>
       <r>    2.5554    0.0000 </r>
       <r>    3.3632    0.0000 </r>
       <r>    3.3632    0.0000 </r>
      </set>
      <set comment="kpoint 14">
       <r>  -22.1033    1.0000 </r>
       <r>  -16.7570    1.0000 </r>
       <r>  -15.8750    1.0000 </r>
       <r>  -10.2374    1.0000 </r>
       <r>   -9.4735    1.0000 </r>
       <r>   -6.0086    1.0000 </r>
       <r>   -5.7793    1.0000 </r>
       <r>   -4.9305    1.0000 </r>
       <r>   -1.1324    0.0000 </r>
       <r>    0.5582    0.0000 </r>
       <r>    1.3572    0.0000 </r>
       <r>    1.7486    0.0000 </r>
      </set>
      <set comment="kpoint 15">
       <r>  -22.0929    1.0000 </r>
       <r>  -16.9461    1.0000 </r>
       <r>  -15.6709    1.0000 </r>
       <r>  -10.2251    1.0000 </r>
       <r>   -9.4631    1.0000 </r>
       <r>   -6.0354    1.0000 </r>
       <r>   -5.8160    1.0000 </r>
       <r>   -5.0000    1.0000 </r>
       <r>   -1.0480    0.0000 </r>
       <r>    0.5722    0.0000 </r>
       <r>    1.3713    0.0000 </r>
       <r>    1.7629    0.0000 </r>
      </set>
      <set comment="kpoint 16">
       <r>  -22.0619    1.0000 </r>
       <r>  -17.3064    1.0000 </r>
       <r>  -15.2656    1.0000 </r>
       <r>  -10.1882    1.0000 </r>
       <r>   -9.4320    1.0000 </r>
       <r>   -6.1163    1.0000 </r>
       <r>   -5.9228    1.0000 </r>
       <r>   -5.1918    1.0000 </r>
       <r>   -0.8115    0.0000 </r>
       <r>    0.6143    0.0000 </r>
       <r>    1.4139    0.0000 </r>
[...]
       <r>   -9.0481    1.0000 </r>
       <r>   -5.6503    1.0000 </r>
       <r>   -5.6503    1.0000 </r>
       <r>   -0.5428    0.0000 </r>
       <r>   -0.5428    0.0000 </r>
       <r>    4.8169    0.0000 </r>
       <r>    4.8169    0.0000 </r>
      </set>
      <set comment="kpoint 209">
       <r>  -18.8395    1.0000 </r>
       <r>  -17.1314    1.0000 </r>
       <r>  -13.8989    1.0000 </r>
       <r>  -12.3342    1.0000 </r>
       <r>  -12.3288    1.0000 </r>
       <r>  -10.8570    1.0000 </r>
       <r>   -6.4828    1.0000 </r>
       <r>   -4.6646    1.0000 </r>
       <r>   -0.9947    0.0000 </r>
       <r>    1.0823    0.0000 </r>
       <r>    5.0758    0.0000 </r>
       <r>    5.8649    0.0000 </r>
      </set>
      <set comment="kpoint 210">
       <r>  -18.8297    1.0000 </r>
       <r>  -17.1239    1.0000 </r>
       <r>  -13.9901    1.0000 </r>
       <r>  -12.4146    1.0000 </r>
       <r>  -12.2346    1.0000 </r>
       <r>  -10.7728    1.0000 </r>
       <r>   -6.4740    1.0000 </r>
       <r>   -4.6668    1.0000 </r>
       <r>   -1.0056    0.0000 </r>
       <r>    1.0564    0.0000 </r>
       <r>    5.0895    0.0000 </r>
       <r>    5.8811    0.0000 </r>
      </set>
      <set comment="kpoint 211">
       <r>  -18.8005    1.0000 </r>
       <r>  -17.1017    1.0000 </r>
       <r>  -14.2136    1.0000 </r>
       <r>  -12.6285    1.0000 </r>
       <r>  -11.9861    1.0000 </r>
       <r>  -10.5647    1.0000 </r>
       <r>   -6.4476    1.0000 </r>
       <r>   -4.6740    1.0000 </r>
       <r>   -1.0364    0.0000 </r>
       <r>    0.9806    0.0000 </r>
       <r>    5.1306    0.0000 </r>
       <r>    5.9293    0.0000 </r>
      </set>
      <set comment="kpoint 212">
       <r>  -18.7519    1.0000 </r>
       <r>  -17.0662    1.0000 </r>
       <r>  -14.4950    1.0000 </r>
       <r>  -12.9050    1.0000 </r>
       <r>  -11.6631    1.0000 </r>
       <r>  -10.3000    1.0000 </r>
       <r>   -6.4040    1.0000 </r>
       <r>   -4.6876    1.0000 </r>
       <r>   -1.0818    0.0000 </r>
       <r>    0.8604    0.0000 </r>
       <r>    5.1987    0.0000 </r>
       <r>    6.0084    0.0000 </r>
      </set>
      <set comment="kpoint 213">
       <r>  -18.6841    1.0000 </r>
       <r>  -17.0201    1.0000 </r>
       <r>  -14.7916    1.0000 </r>
       <r>  -13.2067    1.0000 </r>
       <r>  -11.3082    1.0000 </r>
       <r>  -10.0197    1.0000 </r>
       <r>   -6.3437    1.0000 </r>
       <r>   -4.7100    1.0000 </r>
       <r>   -1.1338    0.0000 </r>
       <r>    0.7036    0.0000 </r>
       <r>    5.2929    0.0000 </r>
       <r>    6.1170    0.0000 </r>
      </set>
      <set comment="kpoint 214">
       <r>  -18.5973    1.0000 </r>
       <r>  -16.9685    1.0000 </r>
       <r>  -15.0798    1.0000 </r>
       <r>  -13.5154    1.0000 </r>
       <r>  -10.9430    1.0000 </r>
       <r>   -9.7466    1.0000 </r>
       <r>   -6.2675    1.0000 </r>
       <r>   -4.7441    1.0000 </r>
       <r>   -1.1830    0.0000 </r>
       <r>    0.5194    0.0000 </r>
       <r>    5.4099    0.0000 </r>
       <r>    6.1823    0.0000 </r>
      </set>
      <set comment="kpoint 215">
       <r>  -18.4920    1.0000 </r>
       <r>  -16.9210    1.0000 </r>
       <r>  -15.3409    1.0000 </r>
       <r>  -13.8216    1.0000 </r>
       <r>  -10.5811    1.0000 </r>
       <r>   -9.4960    1.0000 </r>
       <r>   -6.1763    1.0000 </r>
       <r>   -4.7928    1.0000 </r>
       <r>   -1.2200    0.0000 </r>
       <r>    0.3167    0.0000 </r>
       <r>    5.5134    0.0000 </r>
       <r>    5.7840    0.0000 </r>
      </set>
      <set comment="kpoint 216">
       <r>  -18.3686    1.0000 </r>
       <r>  -16.8949    1.0000 </r>
       <r>  -15.5528    1.0000 </r>
       <r>  -14.1198    1.0000 </r>
       <r>  -10.2330    1.0000 </r>
       <r>   -9.2800    1.0000 </r>
       <r>   -6.0716    1.0000 </r>
       <r>   -4.8583    1.0000 </r>
       <r>   -1.2361    0.0000 </r>
       <r>    0.1040    0.0000 </r>
       <r>    5.3031    0.0000 </r>
       <r>    5.7905    0.0000 </r>
      </set>
      <set comment="kpoint 217">
       <r>  -18.2278    1.0000 </r>
       <r>  -16.9158    1.0000 </r>
       <r>  -15.6871    1.0000 </r>
       <r>  -14.4061    1.0000 </r>
       <r>   -9.9082    1.0000 </r>
       <r>   -9.1094    1.0000 </r>
       <r>   -5.9550    1.0000 </r>
       <r>   -4.9416    1.0000 </r>
       <r>   -1.2249    0.0000 </r>
       <r>   -0.1108    0.0000 </r>
       <r>    5.0102    0.0000 </r>
       <r>    5.8308    0.0000 </r>
      </set>
      <set comment="kpoint 218">
       <r>  -18.0707    1.0000 </r>
       <r>  -17.0032    1.0000 </r>
       <r>  -15.7225    1.0000 </r>
       <r>  -14.6773    1.0000 </r>
       <r>   -9.6161    1.0000 </r>
       <r>   -8.9930    1.0000 </r>
       <r>   -5.8287    1.0000 </r>
       <r>   -5.0420    1.0000 </r>
       <r>   -1.1825    0.0000 </r>
       <r>   -0.3209    0.0000 </r>
       <r>    4.7915    0.0000 </r>
       <r>    5.4314    0.0000 </r>
      </set>
      <set comment="kpoint 219">
       <r>  -17.8990    1.0000 </r>
       <r>  -17.1498    1.0000 </r>
       <r>  -15.6652    1.0000 </r>
       <r>  -14.9305    1.0000 </r>
       <r>   -9.3659    1.0000 </r>
       <r>   -8.9380    1.0000 </r>
       <r>   -5.6952    1.0000 </r>
       <r>   -5.1575    1.0000 </r>
       <r>   -1.1075    0.0000 </r>
       <r>   -0.5202    0.0000 </r>
       <r>    4.6627    0.0000 </r>
       <r>    5.1025    0.0000 </r>
      </set>
      <set comment="kpoint 220">
       <r>  -17.7150    1.0000 </r>
       <r>  -17.3303    1.0000 </r>
       <r>  -15.5400    1.0000 </r>
       <r>  -15.1623    1.0000 </r>
       <r>   -9.1666    1.0000 </r>
       <r>   -8.9486    1.0000 </r>
       <r>   -5.5576    1.0000 </r>
       <r>   -5.2846    1.0000 </r>
       <r>   -1.0007    0.0000 </r>
       <r>   -0.7031    0.0000 </r>
       <r>    4.6300    0.0000 </r>
       <r>    4.8541    0.0000 </r>
      </set>
      <set comment="kpoint 221">
       <r>  -17.5231    1.0000 </r>
       <r>  -17.5231    1.0000 </r>
       <r>  -15.3680    1.0000 </r>
       <r>  -15.3680    1.0000 </r>
       <r>   -9.0256    1.0000 </r>
       <r>   -9.0256    1.0000 </r>
       <r>   -5.4194    1.0000 </r>
       <r>   -5.4194    1.0000 </r>
       <r>   -0.8647    0.0000 </r>
       <r>   -0.8647    0.0000 </r>
       <r>    4.6947    0.0000 </r>
       <r>    4.6947    0.0000 </r>
      </set>
      <set comment="kpoint 222">
       <r>  -18.4352    1.0000 </r>
       <r>  -17.5774    1.0000 </r>
       <r>  -13.5353    1.0000 </r>
       <r>  -12.7495    1.0000 </r>
       <r>  -11.9991    1.0000 </r>
       <r>  -11.2559    1.0000 </r>
       <r>   -6.0413    1.0000 </r>
       <r>   -5.1273    1.0000 </r>
       <r>   -0.5075    0.0000 </r>
       <r>    0.5329    0.0000 </r>
       <r>    5.6509    0.0000 </r>
       <r>    6.4076    0.0000 </r>
      </set>
      <set comment="kpoint 223">
       <r>  -18.4256    1.0000 </r>
       <r>  -17.5687    1.0000 </r>
       <r>  -13.6271    1.0000 </r>
       <r>  -12.8380    1.0000 </r>
       <r>  -11.9017    1.0000 </r>
       <r>  -11.1665    1.0000 </r>
       <r>   -6.0337    1.0000 </r>
       <r>   -5.1246    1.0000 </r>
       <r>   -0.5246    0.0000 </r>
       <r>    0.5090    0.0000 </r>
       <r>    5.6645    0.0000 </r>
       <r>    6.4246    0.0000 </r>
      </set>
      <set comment="kpoint 224">
       <r>  -18.3970    1.0000 </r>
       <r>  -17.5429    1.0000 </r>
       <r>  -13.8526    1.0000 </r>
       <r>  -13.0574    1.0000 </r>
       <r>  -11.6598    1.0000 </r>
       <r>  -10.9453    1.0000 </r>
       <r>   -6.0113    1.0000 </r>
       <r>   -5.1171    1.0000 </r>
       <r>   -0.5739    0.0000 </r>
       <r>    0.4392    0.0000 </r>
       <r>    5.7054    0.0000 </r>
       <r>    6.4752    0.0000 </r>
      </set>
      <set comment="kpoint 225">
       <r>  -18.3495    1.0000 </r>
       <r>  -17.5005    1.0000 </r>
       <r>  -14.1387    1.0000 </r>
       <r>  -13.3391    1.0000 </r>
       <r>  -11.3474    1.0000 </r>
       <r>  -10.6624    1.0000 </r>
       <r>   -5.9744    1.0000 </r>
       <r>   -5.1056    1.0000 </r>
       <r>   -0.6501    0.0000 </r>
       <r>    0.3289    0.0000 </r>
       <r>    5.7730    0.0000 </r>
       <r>    6.5578    0.0000 </r>
      </set>
      <set comment="kpoint 226">
       <r>  -18.2833    1.0000 </r>
       <r>  -17.4426    1.0000 </r>
       <r>  -14.4448    1.0000 </r>
       <r>  -13.6447    1.0000 </r>
       <r>  -11.0068    1.0000 </r>
       <r>  -10.3594    1.0000 </r>
       <r>   -5.9238    1.0000 </r>
       <r>   -5.0922    1.0000 </r>
       <r>   -0.7452    0.0000 </r>
       <r>    0.1859    0.0000 </r>
       <r>    5.8656    0.0000 </r>
       <r>    6.6706    0.0000 </r>
      </set>
      <set comment="kpoint 227">
       <r>  -18.1990    1.0000 </r>
       <r>  -17.3708    1.0000 </r>
       <r>  -14.7507    1.0000 </r>
       <r>  -13.9558    1.0000 </r>
       <r>  -10.6601    1.0000 </r>
       <r>  -10.0588    1.0000 </r>
       <r>   -5.8608    1.0000 </r>
       <r>   -5.0794    1.0000 </r>
       <r>   -0.8495    0.0000 </r>
       <r>    0.0193    0.0000 </r>
       <r>    5.9733    0.0000 </r>
       <r>    6.4529    0.0000 </r>
      </set>
      <set comment="kpoint 228">
       <r>  -18.0970    1.0000 </r>
       <r>  -17.2885    1.0000 </r>
       <r>  -15.0445    1.0000 </r>
       <r>  -14.2627    1.0000 </r>
       <r>  -10.3211    1.0000 </r>
       <r>   -9.7755    1.0000 </r>
       <r>   -5.7868    1.0000 </r>
       <r>   -5.0704    1.0000 </r>
       <r>   -0.9527    0.0000 </r>
       <r>   -0.1614    0.0000 </r>
       <r>    5.8924    0.0000 </r>
       <r>    6.2053    0.0000 </r>
      </set>
      <set comment="kpoint 229">
       <r>  -17.9783    1.0000 </r>
       <r>  -17.2013    1.0000 </r>
       <r>  -15.3156    1.0000 </r>
       <r>  -14.5595    1.0000 </r>
       <r>  -10.0008    1.0000 </r>
       <r>   -9.5213    1.0000 </r>
       <r>   -5.7040    1.0000 </r>
       <r>   -5.0686    1.0000 </r>
       <r>   -1.0446    0.0000 </r>
       <r>   -0.3473    0.0000 </r>
       <r>    5.5041    0.0000 </r>
       <r>    5.9960    0.0000 </r>
      </set>
      <set comment="kpoint 230">
       <r>  -17.8444    1.0000 </r>
       <r>  -17.1197    1.0000 </r>
       <r>  -15.5505    1.0000 </r>
       <r>  -14.8418    1.0000 </r>
       <r>   -9.7091    1.0000 </r>
       <r>   -9.3068    1.0000 </r>
       <r>   -5.6148    1.0000 </r>
       <r>   -5.0775    1.0000 </r>
       <r>   -1.1159    0.0000 </r>
       <r>   -0.5296    0.0000 </r>
       <r>    5.1571    0.0000 </r>
       <r>    5.5689    0.0000 </r>
      </set>
      <set comment="kpoint 231">
       <r>  -17.6975    1.0000 </r>
       <r>  -17.0624    1.0000 </r>
       <r>  -15.7290    1.0000 </r>
       <r>  -15.1053    1.0000 </r>
       <r>   -9.4556    1.0000 </r>
       <r>   -9.1417    1.0000 </r>
       <r>   -5.5222    1.0000 </r>
       <r>   -5.1002    1.0000 </r>
       <r>   -1.1591    0.0000 </r>
       <r>   -0.7006    0.0000 </r>
       <r>    4.8860    0.0000 </r>
       <r>    5.2077    0.0000 </r>
      </set>
      <set comment="kpoint 232">
       <r>  -17.5415    1.0000 </r>
       <r>  -17.0556    1.0000 </r>
       <r>  -15.8234    1.0000 </r>
       <r>  -15.3450    1.0000 </r>
       <r>   -9.2497    1.0000 </r>
       <r>   -9.0339    1.0000 </r>
       <r>   -5.4298    1.0000 </r>
       <r>   -5.1385    1.0000 </r>
       <r>   -1.1687    0.0000 </r>
       <r>   -0.8532    0.0000 </r>
       <r>    4.7022    0.0000 </r>
       <r>    4.9235    0.0000 </r>
      </set>
      <set comment="kpoint 233">
       <r>  -17.3831    1.0000 </r>
       <r>  -17.1167    1.0000 </r>
       <r>  -15.8159    1.0000 </r>
       <r>  -15.5532    1.0000 </r>
       <r>   -9.0996    1.0000 </r>
       <r>   -8.9896    1.0000 </r>
       <r>   -5.3415    1.0000 </r>
       <r>   -5.1926    1.0000 </r>
       <r>   -1.1419    0.0000 </r>
       <r>   -0.9810    0.0000 </r>
       <r>    4.6125    0.0000 </r>
       <r>    4.7254    0.0000 </r>
      </set>
      <set comment="kpoint 234">
       <r>  -17.2345    1.0000 </r>
       <r>  -17.2345    1.0000 </r>
       <r>  -15.7172    1.0000 </r>
       <r>  -15.7172    1.0000 </r>
       <r>   -9.0116    1.0000 </r>
       <r>   -9.0116    1.0000 </r>
       <r>   -5.2612    1.0000 </r>
       <r>   -5.2612    1.0000 </r>
       <r>   -1.0786    0.0000 </r>
       <r>   -1.0786    0.0000 </r>
       <r>    4.6204    0.0000 </r>
       <r>    4.6204    0.0000 </r>
      </set>
      <set comment="kpoint 235">
       <r>  -18.0135    1.0000 </r>
       <r>  -18.0135    1.0000 </r>
       <r>  -13.1520    1.0000 </r>
       <r>  -13.1520    1.0000 </r>
       <r>  -11.6379    1.0000 </r>
       <r>  -11.6379    1.0000 </r>
       <r>   -5.5879    1.0000 </r>
       <r>   -5.5879    1.0000 </r>
       <r>    0.0023    0.0000 </r>
       <r>    0.0023    0.0000 </r>
       <r>    6.2553    0.0000 </r>
       <r>    6.2553    0.0000 </r>
      </set>
      <set comment="kpoint 236">
       <r>  -18.0043    1.0000 </r>
       <r>  -18.0043    1.0000 </r>
       <r>  -13.2426    1.0000 </r>
       <r>  -13.2426    1.0000 </r>
       <r>  -11.5441    1.0000 </r>
       <r>  -11.5441    1.0000 </r>
       <r>   -5.5823    1.0000 </r>
       <r>   -5.5823    1.0000 </r>
       <r>   -0.0188    0.0000 </r>
       <r>   -0.0188    0.0000 </r>
       <r>    6.2689    0.0000 </r>
       <r>    6.2689    0.0000 </r>
      </set>
      <set comment="kpoint 237">
       <r>  -17.9767    1.0000 </r>
       <r>  -17.9767    1.0000 </r>
       <r>  -13.4661    1.0000 </r>
       <r>  -13.4661    1.0000 </r>
       <r>  -11.3115    1.0000 </r>
       <r>  -11.3115    1.0000 </r>
       <r>   -5.5657    1.0000 </r>
       <r>   -5.5657    1.0000 </r>
       <r>   -0.0803    0.0000 </r>
       <r>   -0.0803    0.0000 </r>
       <r>    6.3094    0.0000 </r>
       <r>    6.3094    0.0000 </r>
      </set>
      <set comment="kpoint 238">
       <r>  -17.9309    1.0000 </r>
       <r>  -17.9309    1.0000 </r>
       <r>  -13.7514    1.0000 </r>
       <r>  -13.7514    1.0000 </r>
       <r>  -11.0126    1.0000 </r>
       <r>  -11.0126    1.0000 </r>
       <r>   -5.5388    1.0000 </r>
       <r>   -5.5388    1.0000 </r>
       <r>   -0.1767    0.0000 </r>
       <r>   -0.1767    0.0000 </r>
       <r>    6.3762    0.0000 </r>
       <r>    6.3762    0.0000 </r>
      </set>
      <set comment="kpoint 239">
       <r>  -17.8676    1.0000 </r>
       <r>  -17.8676    1.0000 </r>
       <r>  -14.0590    1.0000 </r>
       <r>  -14.0590    1.0000 </r>
       <r>  -10.6895    1.0000 </r>
       <r>  -10.6895    1.0000 </r>
       <r>   -5.5029    1.0000 </r>
       <r>   -5.5029    1.0000 </r>
       <r>   -0.3003    0.0000 </r>
       <r>   -0.3003    0.0000 </r>
       <r>    6.4658    0.0000 </r>
       <r>    6.4658    0.0000 </r>
      </set>
      <set comment="kpoint 240">
       <r>  -17.7874    1.0000 </r>
       <r>  -17.7874    1.0000 </r>
       <r>  -14.3701    1.0000 </r>
       <r>  -14.3701    1.0000 </r>
       <r>  -10.3643    1.0000 </r>
       <r>  -10.3643    1.0000 </r>
       <r>   -5.4596    1.0000 </r>
       <r>   -5.4596    1.0000 </r>
       <r>   -0.4416    0.0000 </r>
       <r>   -0.4416    0.0000 </r>
       <r>    6.5332    0.0000 </r>
       <r>    6.5332    0.0000 </r>
      </set>
      <set comment="kpoint 241">
       <r>  -17.6916    1.0000 </r>
       <r>  -17.6916    1.0000 </r>
       <r>  -14.6743    1.0000 </r>
       <r>  -14.6743    1.0000 </r>
       <r>  -10.0516    1.0000 </r>
       <r>  -10.0516    1.0000 </r>
       <r>   -5.4115    1.0000 </r>
       <r>   -5.4115    1.0000 </r>
       <r>   -0.5909    0.0000 </r>
       <r>   -0.5909    0.0000 </r>
       <r>    6.1789    0.0000 </r>
       <r>    6.1789    0.0000 </r>
      </set>
      <set comment="kpoint 242">
       <r>  -17.5824    1.0000 </r>
       <r>  -17.5824    1.0000 </r>
       <r>  -14.9649    1.0000 </r>
       <r>  -14.9649    1.0000 </r>
       <r>   -9.7625    1.0000 </r>
       <r>   -9.7625    1.0000 </r>
       <r>   -5.3613    1.0000 </r>
       <r>   -5.3613    1.0000 </r>
       <r>   -0.7381    0.0000 </r>
       <r>   -0.7381    0.0000 </r>
       <r>    5.7338    0.0000 </r>
       <r>    5.7338    0.0000 </r>
      </set>
      <set comment="kpoint 243">
       <r>  -17.4631    1.0000 </r>
       <r>  -17.4631    1.0000 </r>
       <r>  -15.2352    1.0000 </r>
       <r>  -15.2352    1.0000 </r>
       <r>   -9.5076    1.0000 </r>
       <r>   -9.5076    1.0000 </r>
       <r>   -5.3125    1.0000 </r>
       <r>   -5.3125    1.0000 </r>
       <r>   -0.8741    0.0000 </r>
       <r>   -0.8741    0.0000 </r>
       <r>    5.3436    0.0000 </r>
       <r>    5.3436    0.0000 </r>
      </set>
      <set comment="kpoint 244">
       <r>  -17.3400    1.0000 </r>
       <r>  -17.3400    1.0000 </r>
       <r>  -15.4773    1.0000 </r>
       <r>  -15.4773    1.0000 </r>
       <r>   -9.2966    1.0000 </r>
       <r>   -9.2966    1.0000 </r>
       <r>   -5.2690    1.0000 </r>
       <r>   -5.2690    1.0000 </r>
       <r>   -0.9903    0.0000 </r>
       <r>   -0.9903    0.0000 </r>
       <r>    5.0253    0.0000 </r>
       <r>    5.0253    0.0000 </r>
      </set>
      <set comment="kpoint 245">
       <r>  -17.2245    1.0000 </r>
       <r>  -17.2245    1.0000 </r>
       <r>  -15.6785    1.0000 </r>
       <r>  -15.6785    1.0000 </r>
       <r>   -9.1384    1.0000 </r>
       <r>   -9.1384    1.0000 </r>
       <r>   -5.2343    1.0000 </r>
       <r>   -5.2343    1.0000 </r>
       <r>   -1.0793    0.0000 </r>
       <r>   -1.0793    0.0000 </r>
       <r>    4.7895    0.0000 </r>
       <r>    4.7895    0.0000 </r>
      </set>
      <set comment="kpoint 246">
       <r>  -17.1364    1.0000 </r>
       <r>  -17.1364    1.0000 </r>
       <r>  -15.8183    1.0000 </r>
       <r>  -15.8183    1.0000 </r>
       <r>   -9.0402    1.0000 </r>
       <r>   -9.0402    1.0000 </r>
       <r>   -5.2120    1.0000 </r>
       <r>   -5.2120    1.0000 </r>
       <r>   -1.1352    0.0000 </r>
       <r>   -1.1352    0.0000 </r>
       <r>    4.6444    0.0000 </r>
       <r>    4.6444    0.0000 </r>
      </set>
      <set comment="kpoint 247">
       <r>  -17.1023    1.0000 </r>
       <r>  -17.1023    1.0000 </r>
       <r>  -15.8698    1.0000 </r>
       <r>  -15.8698    1.0000 </r>
       <r>   -9.0069    1.0000 </r>
       <r>   -9.0069    1.0000 </r>
       <r>   -5.2043    1.0000 </r>
       <r>   -5.2043    1.0000 </r>
       <r>   -1.1543    0.0000 </r>
       <r>   -1.1543    0.0000 </r>
       <r>    4.5955    0.0000 </r>
       <r>    4.5955    0.0000 </r>
      </set>
     </set>
    </set>
   </array>
  </eigenvalues>
  <separator name="orbital magnetization" >
   <v name="MAGDIPOLOUT">      0.00000000      0.00000000      0.00000000</v>
  </separator>
 </calculation>
 <structure name="finalpos" >
  <crystal>
   <varray name="basis" >
    <v>       4.25865580       0.00000000       0.00000000 </v>
    <v>       0.00000000       2.51640098       0.00000000 </v>
    <v>       0.00000000       0.00000000      19.67416455 </v>
   </varray>
   <i name="volume">    210.83790140 </i>
   <varray name="rec_basis" >
    <v>       0.23481588       0.00000000       0.00000000 </v>
    <v>       0.00000000       0.39739295       0.00000000 </v>
    <v>       0.00000000       0.00000000       0.05082808 </v>
   </varray>
  </crystal>
  <varray name="positions" >
   <v>       0.00051548       0.00000000      -0.00000000 </v>
   <v>       0.16615119       0.50000000       0.00000000 </v>
   <v>       0.50051548       0.50000000      -0.00000000 </v>
   <v>       0.66615119      -0.00000000       0.00000000 </v>
  </varray>
 </structure>
</modeling>
