gr                                      
           1
     4.258656    0.000000    0.000000
     0.000000    2.516401    0.000000
     0.000000    0.000000   19.674165
   C 
   4
Direct configuration=     1
   0.00051919  0.00000000  0.00000000
   0.16614747  0.50000000  0.00000000
   0.50051919  0.50000000  0.00000000
   0.66614747  0.00000000  0.00000000
Direct configuration=     2
   0.00050045  0.00000000 -0.00000000
   0.16616621  0.50000000  0.00000000
   0.50050045  0.50000000 -0.00000000
   0.66616621 -0.00000000  0.00000000
Direct configuration=     3
   0.00051547  0.00000000 -0.00000000
   0.16615119  0.50000000  0.00000000
   0.50051547  0.50000000 -0.00000000
   0.66615119 -0.00000000  0.00000000
Direct configuration=     4
   0.00051548  0.00000000 -0.00000000
   0.16615119  0.50000000  0.00000000
   0.50051548  0.50000000 -0.00000000
   0.66615119 -0.00000000  0.00000000
Direct configuration=     5
   0.00051548  0.00000000 -0.00000000
   0.16615119  0.50000000  0.00000000
   0.50051548  0.50000000 -0.00000000
   0.66615119 -0.00000000  0.00000000
