    4    4  400    1
  0.5270948E+02  0.4274323E-09  0.2467347E-09  0.1999176E-08  0.5000000E-15
  1.000000000000000E-004
  CAR 
 gr                                      
     16    247     12
 
  0.0000000E+00  0.0000000E+00  0.0000000E+00  0.1157407E-02
    1      -22.250925
    2      -17.021538
    3      -15.971021
    4      -10.356834
    5       -9.156149
    6       -5.787963
    7       -5.786396
    8       -5.112017
    9       -1.076693
   10        0.524193
   11        1.325224
   12        1.708321
 
  0.4166667E-01  0.0000000E+00  0.0000000E+00  0.2314815E-02
    1      -22.240680
    2      -17.186088
    3      -15.791210
    4      -10.344596
    5       -9.145969
    6       -5.830723
    7       -5.808951
    8       -5.178452
    9       -0.994281
   10        0.538088
   11        1.339302
   12        1.722569
 
  0.8333333E-01  0.0000000E+00  0.0000000E+00  0.2314815E-02
    1      -22.209952
    2      -17.522556
    3      -15.409046
    4      -10.307902
    5       -9.115479
    6       -5.957237
    7       -5.875368
    8       -5.362810
    9       -0.762162
   10        0.579774
   11        1.381533
   12        1.765314
 
  0.1250000E+00  0.0000000E+00  0.0000000E+00  0.2314815E-02
    1      -22.158760
    2      -17.898583
    3      -14.957147
    4      -10.246809
    5       -9.064834
    6       -6.162513
    7       -5.982114
    8       -5.631830
    9       -0.414114
   10        0.649258
   11        1.451904
   12        1.836557
 
  0.1666667E+00  0.0000000E+00  0.0000000E+00  0.2314815E-02
    1      -22.087138
    2      -18.277378
    3      -14.472746
    4      -10.161414
    5       -8.994294
    6       -6.439104
    7       -6.123929
    8       -5.952530
    9        0.016011
   10        0.746546
   11        1.550393
   12        1.936301
 
  0.2083333E+00  0.0000000E+00  0.0000000E+00  0.2314815E-02
    1      -21.995135
    2      -18.647551
    3      -13.967870
    4      -10.051858
    5       -8.904239
    6       -6.778113
    7       -6.300350
    8       -6.294537
    9        0.502403
   10        0.871636
   11        1.676967
   12        2.064544
 
  0.2500000E+00  0.0000000E+00  0.0000000E+00  0.2314815E-02
    1      -21.882813
    2      -19.004515
    3      -13.447948
    4       -9.918332
    5       -8.795176
    6       -7.170131
    7       -6.658920
    8       -6.487325
    9        1.024516
   10        1.027024
   11        1.831573
   12        2.221287
 
  0.2916667E+00  0.0000000E+00  0.0000000E+00  0.2314815E-02
    1      -21.750253
    2      -19.346004
    3      -12.916324
    4       -9.761078
    5       -8.667755
    6       -7.605951
    7       -7.017612
    8       -6.695858
    9        1.205163
   10        1.577071
   11        2.014135
   12        2.406527
 
  0.3333333E+00  0.0000000E+00  0.0000000E+00  0.2314815E-02
    1      -21.597553
    2      -19.670708
    3      -12.375645
    4       -9.580409
    5       -8.522795
    6       -8.077026
    7       -7.369452
    8       -6.914217
    9        1.413541
   10        2.142648
   11        2.224526
   12        2.620259
 
  0.3750000E+00  0.0000000E+00  0.0000000E+00  0.2314815E-02
    1      -21.424826
    2      -19.977784
    3      -11.828393
    4       -9.376713
    5       -8.575688
    6       -8.361309
    7       -7.709741
    8       -7.137157
    9        1.649595
   10        2.462529
   11        2.714427
   12        2.862475
 
  0.4166667E+00  0.0000000E+00  0.0000000E+00  0.2314815E-02
    1      -21.232210
    2      -20.266638
    3      -11.277147
    4       -9.150480
    5       -9.095213
    6       -8.184537
    7       -8.035219
    8       -7.360147
    9        1.913256
   10        2.727696
   11        3.133161
   12        3.241166
 
  0.4583333E+00  0.0000000E+00  0.0000000E+00  0.2314815E-02
    1      -21.019867
    2      -20.536823
    3      -10.724742
    4       -9.629780
    5       -8.902321
    6       -8.343548
    7       -7.993995
    8       -7.579344
    9        2.204425
   10        2.868666
   11        3.018857
   12        3.432297
 
  0.5000000E+00  0.0000000E+00  0.0000000E+00  0.1157407E-02
    1      -20.787994
    2      -20.787994
    3      -10.174388
    4      -10.174388
    5       -8.633013
    6       -8.633013
    7       -7.791522
    8       -7.791522
    9        2.522965
   10        2.522965
   11        3.331309
   12        3.331309
 
  0.0000000E+00  0.2777778E-01  0.0000000E+00  0.2314815E-02
    1      -22.237260
    2      -17.009813
    3      -15.959435
    4      -10.340512
    5       -9.217738
    6       -5.843216
    7       -5.818113
    8       -5.095390
    9       -1.080629
   10        0.542726
   11        1.344001
   12        1.727325
 
  0.4166667E-01  0.2777778E-01  0.0000000E+00  0.4629630E-02
    1      -22.227017
    2      -17.174194
    3      -15.779845
    4      -10.328278
    5       -9.207541
    6       -5.886215
    7       -5.839754
    8       -5.161970
    9       -0.998189
   10        0.556622
   11        1.358079
   12        1.741573
 
  0.8333333E-01  0.2777778E-01  0.0000000E+00  0.4629630E-02
    1      -22.196294
    2      -17.510402
    3      -15.398096
    4      -10.291597
    5       -9.177000
    6       -6.010232
    7       -5.906766
    8       -5.346662
    9       -0.766094
   10        0.598310
   11        1.400307
   12        1.784319
 
  0.1250000E+00  0.2777778E-01  0.0000000E+00  0.4629630E-02
    1      -22.145109
    2      -17.886201
    3      -14.946690
    4      -10.230524
    5       -9.126264
    6       -6.210481
    7       -6.015725
    8       -5.616025
    9       -0.418299
   10        0.667798
   11        1.470674
   12        1.855563
 
  0.1666667E+00  0.2777778E-01  0.0000000E+00  0.4629630E-02
    1      -22.073497
    2      -18.264802
    3      -14.462868
    4      -10.145159
    5       -9.055591
    6       -6.480708
    7       -6.160574
    8       -5.936977
    9        0.011243
   10        0.765091
   11        1.569157
   12        1.955307
 
  0.2083333E+00  0.2777778E-01  0.0000000E+00  0.4629630E-02
    1      -21.981508
    2      -18.634810
    3      -13.958673
    4      -10.035641
    5       -8.965347
    6       -6.812881
    7       -6.334532
    8       -6.284945
    9        0.496706
   10        0.890189
   11        1.695724
   12        2.083552
 
  0.2500000E+00  0.2777778E-01  0.0000000E+00  0.4629630E-02
    1      -21.869204
    2      -18.991634
    3      -13.439560
    4       -9.902160
    5       -8.856030
    6       -7.198193
    7       -6.643573
    8       -6.530656
    9        1.020073
   10        1.043080
   11        1.850322
   12        2.240297
 
  0.2916667E+00  0.2777778E-01  0.0000000E+00  0.4629630E-02
    1      -21.736667
    2      -19.333000
    3      -12.908899
    4       -9.744961
    5       -8.728273
    6       -7.627808
    7       -7.002261
    8       -6.742308
    9        1.223739
   10        1.568590
   11        2.032876
   12        2.425541
 
  0.3333333E+00  0.2777778E-01  0.0000000E+00  0.4629630E-02
    1      -21.583992
    2      -19.657600
    3      -12.369371
    4       -9.564354
    5       -8.582877
    6       -8.093358
    7       -7.354055
    8       -6.963455
    9        1.432130
   10        2.132440
   11        2.243261
   12        2.639277
 
  0.3750000E+00  0.2777778E-01  0.0000000E+00  0.4629630E-02
    1      -21.411297
    2      -19.964587
    3      -11.823499
    4       -9.360729
    5       -8.587228
    6       -8.420830
    7       -7.694275
    8       -7.188810
    9        1.668200
   10        2.481264
   11        2.702513
   12        2.881498
 
  0.4166667E+00  0.2777778E-01  0.0000000E+00  0.4629630E-02
    1      -21.218717
    2      -20.253363
    3      -11.273910
    4       -9.134574
    5       -9.102673
    6       -8.243345
    7       -8.019668
    8       -7.413845
    9        1.931878
   10        2.746441
   11        3.152192
   12        3.259988
 
  0.4583333E+00  0.2777778E-01  0.0000000E+00  0.4629630E-02
    1      -21.006417
    2      -20.523481
    3      -10.723497
    4       -9.633804
    5       -8.886500
    6       -8.327907
    7       -8.051904
    8       -7.634739
    9        2.223069
   10        2.887391
   11        3.037632
   12        3.451407
 
  0.5000000E+00  0.2777778E-01  0.0000000E+00  0.2314815E-02
    1      -20.774594
    2      -20.774594
    3      -10.175537
    4      -10.175537
    5       -8.617280
    6       -8.617280
    7       -7.848306
    8       -7.848306
    9        2.541640
   10        2.541640
   11        3.350060
   12        3.350060
 
  0.0000000E+00  0.5555556E-01  0.0000000E+00  0.2314815E-02
    1      -22.196278
    2      -16.974642
    3      -15.924829
    4      -10.291578
    5       -9.397576
    6       -6.009151
    7       -5.907835
    8       -5.045530
    9       -1.093269
   10        0.598331
   11        1.400327
   12        1.784339
 
  0.4166667E-01  0.5555556E-01  0.0000000E+00  0.4629630E-02
    1      -22.186039
    2      -17.138526
    3      -15.745895
    4      -10.279358
    5       -9.387323
    6       -6.052180
    7       -5.927471
    8       -5.112560
    9       -1.010742
   10        0.612228
   11        1.414402
   12        1.798588
 
  0.8333333E-01  0.5555556E-01  0.0000000E+00  0.4629630E-02
    1      -22.155328
    2      -17.473962
    3      -15.365397
    4      -10.242714
    5       -9.356611
    6       -6.173233
    7       -5.991864
    8       -5.298279
    9       -0.778706
   10        0.653920
   11        1.456622
   12        1.841334
 
  0.1250000E+00  0.5555556E-01  0.0000000E+00  0.4629630E-02
    1      -22.104166
    2      -17.849078
    3      -14.915492
    4      -10.181706
    5       -9.305579
    6       -6.362909
    7       -6.103096
    8       -5.568692
    9       -0.431677
   10        0.723416
   11        1.526975
   12        1.912580
 
  0.1666667E+00  0.5555556E-01  0.0000000E+00  0.4629630E-02
    1      -22.032587
    2      -18.227097
    3      -14.433437
    4      -10.096429
    5       -9.234461
    6       -6.615875
    7       -6.255331
    8       -5.890416
    9       -0.003916
   10        0.820723
   11        1.625440
   12        2.012327
 
  0.2083333E+00  0.5555556E-01  0.0000000E+00  0.4629630E-02
    1      -21.940641
    2      -18.596609
    3      -13.931336
    4       -9.987027
    5       -9.143597
    6       -6.927227
    7       -6.439737
    8       -6.238826
    9        0.478705
   10        0.945840
   11        1.751983
   12        2.140576
 
  0.2500000E+00  0.5555556E-01  0.0000000E+00  0.4629630E-02
    1      -21.828390
    2      -18.953007
    3      -13.414717
    4       -9.853686
    5       -9.033443
    6       -7.291032
    7       -6.647301
    8       -6.597629
    9        0.998244
   10        1.098755
   11        1.906557
   12        2.297328
 
  0.2916667E+00  0.5555556E-01  0.0000000E+00  0.4629630E-02
    1      -21.695919
    2      -19.294008
    3      -12.887038
    4       -9.696653
    5       -8.904581
    6       -7.700340
    7       -6.956301
    8       -6.869995
    9        1.279445
   10        1.542079
   11        2.089085
   12        2.482579
 
  0.3333333E+00  0.5555556E-01  0.0000000E+00  0.4629630E-02
    1      -21.543324
    2      -19.618293
    3      -12.351088
    4       -9.516237
    5       -8.757745
    6       -8.147740
    7       -7.307954
    8       -7.101061
    9        1.487869
   10        2.100616
   11        2.299451
   12        2.696325
 
  0.3750000E+00  0.5555556E-01  0.0000000E+00  0.4629630E-02
    1      -21.370722
    2      -19.925009
    3      -11.809524
    4       -9.312828
    5       -8.625929
    6       -8.593842
    7       -7.647956
    8       -7.334943
    9        1.723977
   10        2.537449
   11        2.665317
   12        2.938559
 
  0.4166667E+00  0.5555556E-01  0.0000000E+00  0.4629630E-02
    1      -21.178251
    2      -20.213551
    3      -11.265136
    4       -9.128101
    5       -9.086909
    6       -8.413985
    7       -7.973089
    8       -7.567104
    9        1.987699
   10        2.802659
   11        3.209270
   12        3.223957
 
  0.4583333E+00  0.5555556E-01  0.0000000E+00  0.4629630E-02
    1      -20.966079
    2      -20.483468
    3      -10.721014
    4       -9.648140
    5       -8.839092
    6       -8.281051
    7       -8.219533
    8       -7.793845
    9        2.278942
   10        2.943450
   11        3.093947
   12        3.508607
 
  0.5000000E+00  0.5555556E-01  0.0000000E+00  0.2314815E-02
    1      -20.734406
    2      -20.734406
    3      -10.180668
    4      -10.180668
    5       -8.570145
    6       -8.570145
    7       -8.012145
    8       -8.012145
    9        2.597584
   10        2.597584
   11        3.406288
   12        3.406288
 
  0.0000000E+00  0.8333333E-01  0.0000000E+00  0.2314815E-02
    1      -22.128013
    2      -16.916036
    3      -15.867689
    4      -10.210136
    5       -9.682236
    6       -6.271995
    7       -6.054981
    8       -4.962497
    9       -1.117110
   10        0.691020
   11        1.494179
   12        1.879366
 
  0.4166667E-01  0.8333333E-01  0.0000000E+00  0.4629630E-02
    1      -22.117781
    2      -17.079127
    3      -15.689825
    4      -10.197937
    5       -9.671874
    6       -6.316031
    7       -6.070468
    8       -5.030324
    9       -1.034409
   10        0.704916
   11        1.508249
   12        1.893614
 
  0.8333333E-01  0.8333333E-01  0.0000000E+00  0.4629630E-02
    1      -22.087093
    2      -17.413303
    3      -15.311431
    4      -10.161359
    5       -9.640823
    6       -6.437666
    7       -6.125359
    8       -5.217849
    9       -0.802440
   10        0.746609
   11        1.550453
   12        1.936361
 
  0.1250000E+00  0.8333333E-01  0.0000000E+00  0.4629630E-02
    1      -22.035969
    2      -17.787286
    3      -14.864103
    4      -10.100460
    5       -9.589201
    6       -6.621367
    7       -6.229217
    8       -5.490091
    9       -0.456709
   10        0.816109
   11        1.620782
   12        2.007608
 
  0.1666667E+00  0.8333333E-01  0.0000000E+00  0.4629630E-02
    1      -21.964444
    2      -18.164331
    3      -14.385120
    4      -10.015337
    5       -9.517202
    6       -6.857817
    7       -6.381937
    8       -5.813142
    9       -0.032011
   10        0.913426
   11        1.719212
   12        2.107358
 
  0.2083333E+00  0.8333333E-01  0.0000000E+00  0.4629630E-02
    1      -21.872568
    2      -18.533010
    3      -13.886691
    4       -9.906131
    5       -9.425107
    6       -7.142306
    7       -6.576200
    8       -6.162303
    9        0.445710
   10        1.038561
   11        1.845714
   12        2.235612
 
  0.2500000E+00  0.8333333E-01  0.0000000E+00  0.4629630E-02
    1      -21.760408
    2      -18.888694
    3      -13.374478
    4       -9.773032
    5       -9.313287
    6       -7.472330
    7       -6.800899
    8       -6.521391
    9        0.958648
   10        1.191502
   11        2.000238
   12        2.392371
 
  0.2916667E+00  0.8333333E-01  0.0000000E+00  0.4629630E-02
    1      -21.628048
    2      -19.229081
    3      -12.852115
    4       -9.616284
    5       -9.182220
    6       -7.845598
    7       -7.044206
    8       -6.880018
    9        1.372225
   10        1.494396
   11        2.182716
   12        2.577632
 
  0.3333333E+00  0.8333333E-01  0.0000000E+00  0.4629630E-02
    1      -21.475584
    2      -19.552838
    3      -12.322607
    4       -9.436196
    5       -9.032495
    6       -8.258586
    7       -7.295905
    8       -7.231415
    9        1.580690
   10        2.043688
   11        2.393040
   12        2.791391
 
  0.3750000E+00  0.8333333E-01  0.0000000E+00  0.4629630E-02
    1      -21.303137
    2      -19.859098
    3      -11.788881
    4       -9.233157
    5       -8.864837
    6       -8.706206
    7       -7.571031
    8       -7.548335
    9        1.816840
   10        2.598710
   11        2.631025
   12        3.033642
 
  0.4166667E+00  0.8333333E-01  0.0000000E+00  0.4629630E-02
    1      -21.110850
    2      -20.147248
    3      -11.254068
    4       -9.182390
    5       -9.007647
    6       -8.680127
    7       -7.895710
    8       -7.796146
    9        2.080607
   10        2.896288
   11        3.150515
   12        3.304375
 
  0.4583333E+00  0.8333333E-01  0.0000000E+00  0.4629630E-02
    1      -20.898894
    2      -20.416825
    3      -10.721679
    4       -9.680870
    5       -8.760273
    6       -8.479434
    7       -8.203188
    8       -8.035618
    9        2.371903
   10        3.036585
   11        3.187761
   12        3.603578
 
  0.5000000E+00  0.8333333E-01  0.0000000E+00  0.2314815E-02
    1      -20.667472
    2      -20.667472
    3      -10.195734
    4      -10.195734
    5       -8.491796
    6       -8.491796
    7       -8.264061
    8       -8.264061
    9        2.690614
   10        2.690614
   11        3.499896
   12        3.499896
 
  0.0000000E+00  0.1111111E+00  0.0000000E+00  0.2314815E-02
    1      -22.032527
    2      -16.834017
    3      -15.788928
    4      -10.096356
    5      -10.053000
    6       -6.615053
    7       -6.256107
    8       -4.846396
    9       -1.156273
   10        0.820807
   11        1.625520
   12        2.012408
 
  0.4166667E-01  0.1111111E+00  0.0000000E+00  0.4629630E-02
    1      -22.022305
    2      -16.996077
    3      -15.612520
    4      -10.084189
    5      -10.042442
    6       -6.660619
    7       -6.265968
    8       -4.915444
    9       -1.073263
   10        0.834700
   11        1.639581
   12        2.026656
 
  0.8333333E-01  0.1111111E+00  0.0000000E+00  0.4629630E-02
    1      -21.991649
    2      -17.328547
    3      -15.237126
    4      -10.047707
    5      -10.010794
    6       -6.785112
    7       -6.306302
    8       -5.105714
    9       -0.841289
   10        0.876384
   11        1.681762
   12        2.069402
 
  0.1250000E+00  0.1111111E+00  0.0000000E+00  0.4629630E-02
    1      -21.940578
    2      -17.700952
    3      -14.793594
    4       -9.986967
    5       -9.958128
    6       -6.968415
    7       -6.392854
    8       -5.380694
    9       -0.497397
   10        0.945874
   11        1.752049
   12        2.140648
 
  0.1666667E+00  0.1111111E+00  0.0000000E+00  0.4629630E-02
    1      -21.869129
    2      -18.076626
    3      -14.319226
    4       -9.902068
    5       -9.884565
    6       -7.196687
    7       -6.532215
    8       -5.705692
    9       -0.077165
   10        1.043183
   11        1.850423
   12        2.240399
 
  0.2083333E+00  0.1111111E+00  0.0000000E+00  0.4629630E-02
    1      -21.777354
    2      -18.444125
    3      -13.826395
    4       -9.793150
    5       -9.790273
    6       -7.462098
    7       -6.722389
    8       -6.055927
    9        0.393386
   10        1.168319
   11        1.976853
   12        2.368655
 
  0.2500000E+00  0.1111111E+00  0.0000000E+00  0.4629630E-02
    1      -21.665322
    2      -18.798796
    3      -13.321000
    4       -9.675463
    5       -9.660404
    6       -7.760970
    7       -6.955273
    8       -6.415395
    9        0.896668
   10        1.321271
   11        2.131293
   12        2.525420
 
  0.2916667E+00  0.1111111E+00  0.0000000E+00  0.4629630E-02
    1      -21.533114
    2      -19.138312
    3      -12.806986
    4       -9.540393
    5       -9.504074
    6       -8.092602
    7       -7.218702
    8       -6.773922
    9        1.420584
   10        1.502014
   11        2.313681
   12        2.710690
 
  0.3333333E+00  0.1111111E+00  0.0000000E+00  0.4629630E-02
    1      -21.380836
    2      -19.461320
    3      -12.287764
    4       -9.385357
    5       -9.324469
    6       -8.457888
    7       -7.498724
    8       -7.124910
    9        1.710505
   10        1.956267
   11        2.523923
   12        2.924461
 
  0.3750000E+00  0.1111111E+00  0.0000000E+00  0.4629630E-02
    1      -21.208609
    2      -19.766934
    3      -11.766788
    4       -9.210684
    5       -9.121973
    6       -8.857367
    7       -7.782298
    8       -7.463936
    9        1.946684
   10        2.496600
   11        2.761861
   12        3.166727
 
  0.4166667E+00  0.1111111E+00  0.0000000E+00  0.4629630E-02
    1      -21.016581
    2      -20.054529
    3      -11.247868
    4       -9.289514
    5       -9.016733
    6       -8.897067
    7       -8.059481
    8       -7.787928
    9        2.210478
   10        3.027185
   11        3.034923
   12        3.437480
 
  0.4583333E+00  0.1111111E+00  0.0000000E+00  0.4629630E-02
    1      -20.804929
    2      -20.323628
    3      -10.735363
    4       -9.750349
    5       -8.803913
    6       -8.650348
    7       -8.324063
    8       -8.094683
    9        2.501799
   10        3.166547
   11        3.318974
   12        3.558290
 
  0.5000000E+00  0.1111111E+00  0.0000000E+00  0.2314815E-02
    1      -20.573861
    2      -20.573861
    3      -10.234300
    4      -10.234300
    5       -8.572745
    6       -8.572745
    7       -8.382568
    8       -8.382568
    9        2.820537
   10        2.820537
   11        3.630472
   12        3.630472
 
  0.0000000E+00  0.1388889E+00  0.0000000E+00  0.2314815E-02
    1      -21.909907
    2      -16.728612
    3      -15.690101
    4      -10.489175
    5       -9.950490
    6       -7.020525
    7       -6.506674
    8       -4.697372
    9       -1.216395
   10        0.987700
   11        1.794293
   12        2.183470
 
  0.4166667E-01  0.1388889E+00  0.0000000E+00  0.4629630E-02
    1      -21.899699
    2      -16.889499
    3      -15.515490
    4      -10.478286
    5       -9.938366
    6       -7.067994
    7       -6.509831
    8       -4.768207
    9       -1.132834
   10        1.001585
   11        1.808341
   12        2.197717
 
  0.8333333E-01  0.1388889E+00  0.0000000E+00  0.4629630E-02
    1      -21.869083
    2      -17.219883
    3      -15.144088
    4      -10.445615
    5       -9.902014
    6       -7.196693
    7       -6.532158
    8       -4.962431
    9       -0.900614
   10        1.043247
   11        1.850483
   12        2.240459
 
  0.1250000E+00  0.1388889E+00  0.0000000E+00  0.4629630E-02
    1      -21.818081
    2      -17.590274
    3      -14.705860
    4      -10.391155
    5       -9.841491
    6       -7.382961
    7       -6.594603
    8       -5.241260
    9       -0.559051
   10        1.112704
   11        1.920705
   12        2.311701
 
  0.1666667E+00  0.1388889E+00  0.0000000E+00  0.4629630E-02
    1      -21.746732
    2      -17.964169
    3      -14.238126
    4      -10.314881
    5       -9.756896
    6       -7.609572
    7       -6.709487
    8       -5.568920
    9       -0.144797
   10        1.209978
   11        2.018987
   12        2.411447
 
  0.2083333E+00  0.1388889E+00  0.0000000E+00  0.4629630E-02
    1      -21.655088
    2      -18.330124
    3      -13.753529
    4      -10.216736
    5       -9.648372
    6       -7.865997
    7       -6.880036
    8       -5.920567
    9        0.316090
   10        1.335082
   11        2.145298
   12        2.539701
 
  0.2500000E+00  0.1388889E+00  0.0000000E+00  0.4629630E-02
    1      -21.543218
    2      -18.683468
    3      -13.258392
    4      -10.096606
    5       -9.516108
    6       -8.146149
    7       -7.102800
    8       -6.280479
    9        0.806378
   10        1.488012
   11        2.299594
   12        2.696466
 
  0.2916667E+00  0.1388889E+00  0.0000000E+00  0.4629630E-02
    1      -21.411211
    2      -19.021842
    3      -12.757247
    4       -9.954282
    5       -9.360349
    6       -8.447272
    7       -7.369329
    8       -6.638795
    9        1.314414
   10        1.668745
   11        2.481817
   12        2.881741
 
  0.3333333E+00  0.1388889E+00  0.0000000E+00  0.4629630E-02
    1      -21.259172
    2      -19.343869
    3      -12.254301
    4       -9.789412
    5       -9.181404
    6       -8.769499
    7       -7.667446
    8       -6.989162
    9        1.831814
   10        1.877232
   11        2.691887
   12        3.095521
 
  0.3750000E+00  0.1388889E+00  0.0000000E+00  0.4629630E-02
    1      -21.087230
    2      -19.648639
    3      -11.754062
    4       -9.601447
    5       -9.115355
    6       -8.979655
    7       -7.982564
    8       -7.327329
    9        2.113409
   10        2.352086
   11        2.929685
   12        3.337800
 
  0.4166667E+00  0.1388889E+00  0.0000000E+00  0.4629630E-02
    1      -20.895539
    2      -19.935507
    3      -11.261673
    4       -9.488518
    5       -9.389626
    6       -8.755579
    7       -8.299585
    8       -7.650344
    9        2.377197
   10        2.869808
   11        3.195009
   12        3.608568
 
  0.4583333E+00  0.1388889E+00  0.0000000E+00  0.4629630E-02
    1      -20.684283
    2      -20.203982
    3      -10.783011
    4       -9.891653
    5       -9.153093
    6       -8.605459
    7       -8.509765
    8       -7.956078
    9        2.668500
   10        3.333161
   11        3.379762
   12        3.487285
 
  0.5000000E+00  0.1388889E+00  0.0000000E+00  0.2314815E-02
    1      -20.453677
    2      -20.453677
    3      -10.324398
    4      -10.324398
    5       -8.891367
    6       -8.891367
    7       -8.242953
    8       -8.242953
    9        2.987202
   10        2.987202
   11        3.790866
   12        3.790869
 
  0.0000000E+00  0.1666667E+00  0.0000000E+00  0.2314815E-02
    1      -21.760272
    2      -16.599861
    3      -15.573822
    4      -10.970220
    5       -9.772868
    6       -7.471843
    7       -6.801309
    8       -4.515619
    9       -1.304333
   10        1.191691
   11        2.000418
   12        2.392553
 
  0.4166667E-01  0.1666667E+00  0.0000000E+00  0.4629630E-02
    1      -21.750081
    2      -16.759580
    3      -15.401306
    4      -10.958758
    5       -9.760801
    6       -7.521509
    7       -6.797029
    8       -4.589047
    9       -1.219770
   10        1.205563
   11        2.014446
   12        2.406798
 
  0.8333333E-01  0.1666667E+00  0.0000000E+00  0.4629630E-02
    1      -21.719516
    2      -17.087602
    3      -15.035112
    4      -10.924320
    5       -9.724619
    6       -7.655309
    7       -6.799085
    8       -4.788877
    9       -0.986705
   10        1.247187
   11        2.056525
   12        2.449535
 
  0.1250000E+00  0.1666667E+00  0.0000000E+00  0.4629630E-02
    1      -21.668600
    2      -17.455553
    3      -14.604282
    4      -10.866727
    5       -9.664382
    6       -7.846488
    7       -6.833060
    8       -5.072977
    9       -0.647783
   10        1.316586
   11        2.126641
   12        2.520767
 
  0.1666667E+00  0.1666667E+00  0.0000000E+00  0.4629630E-02
    1      -21.597372
    2      -17.827236
    3      -14.146179
    4      -10.785651
    5       -9.580188
    6       -8.075219
    7       -6.916174
    8       -5.404138
    9       -0.241051
   10        1.413787
   11        2.224770
   12        2.620501
 
  0.2083333E+00  0.1666667E+00  0.0000000E+00  0.4629630E-02
    1      -21.505887
    2      -18.191259
    3      -13.673949
    4      -10.680554
    5       -9.472181
    6       -8.329174
    7       -7.056086
    8       -5.757530
    9        0.207534
   10        1.538815
   11        2.350876
   12        2.748745
 
  0.2500000E+00  0.1666667E+00  0.0000000E+00  0.4629630E-02
    1      -21.394218
    2      -18.542933
    3      -13.194743
    4      -10.550602
    5       -9.340553
    6       -8.600707
    7       -7.253432
    8       -6.117885
    9        0.681329
   10        1.691676
   11        2.504910
   12        2.905501
 
  0.2916667E+00  0.1666667E+00  0.0000000E+00  0.4629630E-02
    1      -21.262457
    2      -18.879873
    3      -12.714286
    4      -10.394547
    5       -9.185549
    6       -8.885256
    7       -7.503613
    8       -6.475786
    9        1.169341
   10        1.872349
   11        2.686806
   12        3.090773
 
  0.3333333E+00  0.1666667E+00  0.0000000E+00  0.4629630E-02
    1      -21.110715
    2      -19.200667
    3      -12.238392
    4      -10.210619
    5       -9.180737
    6       -9.007479
    7       -7.798045
    8       -6.825217
    9        1.663827
   10        2.080789
   11        2.896480
   12        3.304555
 
  0.3750000E+00  0.1666667E+00  0.0000000E+00  0.4629630E-02
    1      -20.939126
    2      -19.504379
    3      -11.773545
    4       -9.996521
    5       -9.487446
    6       -8.806723
    7       -8.125099
    8       -7.162159
    9        2.158956
   10        2.316923
   11        3.133817
   12        3.546841
 
  0.4166667E+00  0.1666667E+00  0.0000000E+00  0.4629630E-02
    1      -20.747854
    2      -19.790338
    3      -11.326818
    4       -9.808111
    5       -9.749837
    6       -8.583754
    7       -8.470838
    8       -7.483810
    9        2.580661
   10        2.650054
   11        3.398660
   12        3.817620
 
  0.4583333E+00  0.1666667E+00  0.0000000E+00  0.4629630E-02
    1      -20.537089
    2      -20.058033
    3      -10.904850
    4      -10.147638
    5       -9.469266
    6       -8.819844
    7       -8.339154
    8       -7.788145
    9        2.871894
   10        3.133170
   11        3.536309
   12        3.690695
 
  0.5000000E+00  0.1666667E+00  0.0000000E+00  0.2314815E-02
    1      -20.307059
    2      -20.307059
    3      -10.511828
    4      -10.511828
    5       -9.156823
    6       -9.156823
    7       -8.073647
    8       -8.073647
    9        3.190494
   10        3.190494
   11        3.604689
   12        3.604690
 