 running on    8 total cores
 distrk:  each k-point on    8 cores,    1 groups
 distr:  one band on    2 cores,    4 groups
 using from now: INCAR     
 vasp.5.3.5 31Mar14 (build Mar 02 2015 18:14:16) complex                        
  
 POSCAR found type information on POSCAR  C 
 POSCAR found :  1 types and       4 ions
 LDA part: xc-table for Pade appr. of Perdew
 POSCAR, INCAR and KPOINTS ok, starting setup
 FFT: planning ...
 WAVECAR not read
 entering main loop
       N       E                     dE             d eps       ncg     rms          rms(c)
DAV:   1     0.190535184299E+03    0.19054E+03   -0.10595E+04  5928   0.274E+03
DAV:   2    -0.900870757263E+01   -0.19954E+03   -0.17594E+03 10276   0.260E+02
DAV:   3    -0.384180731804E+02   -0.29409E+02   -0.28839E+02  7456   0.120E+02    0.737E+00
RMM:   4    -0.377096213566E+02    0.70845E+00   -0.92787E+00  5928   0.261E+01    0.426E+00
RMM:   5    -0.369366006889E+02    0.77302E+00   -0.28647E+00  5930   0.116E+01    0.733E-01
RMM:   6    -0.369381186372E+02   -0.15179E-02   -0.83763E-02  6366   0.203E+00    0.525E-01
RMM:   7    -0.369284851331E+02    0.96335E-02   -0.33973E-02  5943   0.161E+00    0.351E-01
RMM:   8    -0.369225208237E+02    0.59643E-02   -0.80046E-03  5931   0.592E-01    0.136E-01
RMM:   9    -0.369221881916E+02    0.33263E-03   -0.21265E-02  5928   0.865E-01    0.164E-01
RMM:  10    -0.369219822814E+02    0.20591E-03   -0.26768E-03  5928   0.374E-01    0.298E-02
RMM:  11    -0.369245879589E+02   -0.26057E-02   -0.80490E-04  5931   0.186E-01    0.473E-02
RMM:  12    -0.369250384967E+02   -0.45054E-03   -0.25088E-04  5935   0.105E-01    0.476E-03
RMM:  13    -0.369253118884E+02   -0.27339E-03   -0.54964E-05  6008   0.413E-02    0.487E-03
RMM:  14    -0.369253987624E+02   -0.86874E-04   -0.12158E-05  5942   0.206E-02    0.244E-03
RMM:  15    -0.369254069671E+02   -0.82047E-05   -0.15192E-06  6002   0.740E-03    0.752E-04
RMM:  16    -0.369254179556E+02   -0.10989E-04   -0.35718E-07  6045   0.333E-03    0.376E-04
RMM:  17    -0.369254217099E+02   -0.37542E-05   -0.34487E-08  6055   0.148E-03    0.700E-04
RMM:  18    -0.369254234637E+02   -0.17538E-05   -0.59146E-08  5928   0.172E-03    0.649E-05
WARNING in EDDRMM: call to ZHEGV failed, returncode =   6  3  1
WARNING in EDDRMM: call to ZHEGV failed, returncode =   6  3  1
WARNING in EDDRMM: call to ZHEGV failed, returncode =   6  3  1
RMM:  19    -0.369254240539E+02   -0.59027E-06   -0.77330E-09  5998   0.448E-04    0.178E-05
RMM:  20    -0.369254241021E+02   -0.48206E-07   -0.91869E-10  4578   0.164E-04    0.325E-05
RMM:  21    -0.369254241243E+02   -0.22166E-07   -0.35079E-10  4463   0.110E-04    0.567E-06
RMM:  22    -0.369254241245E+02   -0.19065E-09   -0.29376E-12  3876   0.450E-05    0.183E-06
RMM:  23    -0.369254241249E+02   -0.45054E-09   -0.15995E-11  3504   0.385E-05    0.129E-06
RMM:  24    -0.369254241251E+02   -0.16530E-09   -0.61693E-12  3134   0.292E-05    0.603E-07
RMM:  25    -0.369254241251E+02    0.31832E-10   -0.40676E-12  2774   0.250E-05
   1 F= -.36925424E+02 E0= -.36925360E+02  d E =-.369254E+02
 BRION: g(F)=  0.573E-03 g(S)=  0.000E+00
 bond charge predicted
       N       E                     dE             d eps       ncg     rms          rms(c)
DAV:   1    -0.369245719148E+02    0.85221E-03   -0.77353E-02  6712   0.262E+00    0.566E-02
RMM:   2    -0.369246096113E+02   -0.37697E-04   -0.12429E-03  5930   0.315E-01    0.401E-02
RMM:   3    -0.369245693904E+02    0.40221E-04   -0.22099E-04  5971   0.120E-01    0.991E-03
RMM:   4    -0.369245656411E+02    0.37494E-05   -0.12899E-05  6089   0.284E-02    0.284E-03
RMM:   5    -0.369245657693E+02   -0.12828E-06   -0.99068E-07  6212   0.720E-03    0.138E-03
RMM:   6    -0.369245656975E+02    0.71882E-07   -0.16168E-07  6101   0.310E-03    0.106E-04
WARNING in EDDRMM: call to ZHEGV failed, returncode =   6  3  1
WARNING in EDDRMM: call to ZHEGV failed, returncode =   6  3  1
RMM:   7    -0.369245656987E+02   -0.12268E-08   -0.95658E-09  6093   0.704E-04    0.786E-05
WARNING in EDDRMM: call to ZHEGV failed, returncode =   6  3  1
RMM:   8    -0.369245656986E+02    0.13483E-09   -0.67737E-10  5239   0.205E-04    0.126E-05
RMM:   9    -0.369245656990E+02   -0.46305E-09   -0.37781E-11  3841   0.693E-05    0.277E-06
WARNING in EDDRMM: call to ZHEGV failed, returncode =   6  3  2
RMM:  10    -0.369245656989E+02    0.15393E-09   -0.33859E-11  3827   0.566E-05    0.374E-06
RMM:  11    -0.369245656990E+02   -0.84810E-10   -0.16752E-11  3569   0.425E-05
   2 F= -.36924566E+02 E0= -.36924519E+02  d E =0.858426E-03
 BRION: g(F)=  0.915E-02 g(S)=  0.000E+00 retain N=  1 mean eig= 0.20
 eig:   0.200
 bond charge predicted
       N       E                     dE             d eps       ncg     rms          rms(c)
DAV:   1    -0.369254883063E+02   -0.92261E-03   -0.49399E-02  6404   0.209E+00    0.454E-02
RMM:   2    -0.369255090963E+02   -0.20790E-04   -0.76810E-04  5928   0.250E-01    0.320E-02
RMM:   3    -0.369254836822E+02    0.25414E-04   -0.13994E-04  5952   0.954E-02    0.775E-03
RMM:   4    -0.369254813903E+02    0.22920E-05   -0.81329E-06  6097   0.228E-02    0.230E-03
RMM:   5    -0.369254814681E+02   -0.77809E-07   -0.63358E-07  6175   0.572E-03    0.112E-03
RMM:   6    -0.369254814224E+02    0.45708E-07   -0.10976E-07  6097   0.256E-03    0.806E-05
RMM:   7    -0.369254814214E+02    0.97691E-09   -0.59256E-09  6092   0.551E-04    0.623E-05
RMM:   8    -0.369254814204E+02    0.10189E-08   -0.42062E-10  4595   0.164E-04    0.106E-05
RMM:   9    -0.369254814207E+02   -0.34618E-09   -0.20796E-11  3820   0.642E-05    0.216E-06
RMM:  10    -0.369254814208E+02   -0.11778E-09   -0.30644E-11  3808   0.547E-05    0.336E-06
RMM:  11    -0.369254814221E+02   -0.12446E-08   -0.13964E-11  3533   0.412E-05    0.439E-07
RMM:  12    -0.369254814220E+02    0.11437E-09   -0.12407E-11  3243   0.337E-05    0.459E-07
RMM:  13    -0.369254814222E+02   -0.19179E-09   -0.53529E-12  3096   0.303E-05    0.298E-07
RMM:  14    -0.369254814223E+02   -0.12926E-09   -0.48979E-12  2851   0.267E-05    0.205E-07
RMM:  15    -0.369254814224E+02   -0.10516E-09   -0.36589E-12  2620   0.244E-05    0.769E-08
RMM:  16    -0.369254814225E+02   -0.10039E-09   -0.36811E-12  2391   0.224E-05    0.805E-08
RMM:  17    -0.369254814222E+02    0.33447E-09   -0.12905E-12  2248   0.206E-05    0.630E-08
RMM:  18    -0.369254814223E+02   -0.13961E-09   -0.57950E-13  2114   0.198E-05    0.551E-08
RMM:  19    -0.369254814223E+02   -0.14552E-10    0.85199E-14  2031   0.190E-05
   3 F= -.36925481E+02 E0= -.36925416E+02  d E =-.915723E-03
 BRION: g(F)=  0.105E-08 g(S)=  0.000E+00 retain N=  1 mean eig= 0.20
 eig:   0.200
 bond charge predicted
       N       E                     dE             d eps       ncg     rms          rms(c)
DAV:   1    -0.369254814220E+02    0.26967E-09    0.80193E-11  6804   0.713E-04    0.155E-05
RMM:   2    -0.369254814225E+02   -0.44793E-09   -0.55817E-11  3642   0.873E-05    0.109E-05
RMM:   3    -0.369254814222E+02    0.31741E-09   -0.28266E-11  3663   0.661E-05    0.283E-06
RMM:   4    -0.369254814224E+02   -0.21419E-09   -0.17950E-11  3115   0.427E-05    0.110E-06
RMM:   5    -0.369254814225E+02   -0.15621E-09   -0.58540E-12  2804   0.329E-05    0.252E-06
RMM:   6    -0.369254814226E+02   -0.54001E-10   -0.53550E-12  2481   0.277E-05
   4 F= -.36925481E+02 E0= -.36925416E+02  d E =-.270688E-09
 BRION: g(F)=  0.162E-13 g(S)=  0.000E+00 retain N=  1 mean eig= 0.20
 eig:   0.201
 reached required accuracy - stopping structural energy minimisation
