gr                                      
           1
     4.274323    0.000000    0.000000
     0.000000    2.467347    0.000000
     0.000000    0.000000   19.991759
   C 
   4
Direct configuration=     1
   0.99987391  0.00000000  0.00000000
   0.16679275  0.50000000  0.00000000
   0.49987391  0.50000000  0.00000000
   0.66679275  0.00000000  0.00000000
Direct configuration=     2
   1.00048917 -0.00000000  0.00000000
   0.16617750  0.50000000 -0.00000000
   0.50048917  0.50000000  0.00000000
   0.66617750 -0.00000000 -0.00000000
Direct configuration=     3
   0.99999710 -0.00000000  0.00000000
   0.16666956  0.50000000 -0.00000000
   0.49999710  0.50000000  0.00000000
   0.66666956 -0.00000000 -0.00000000
Direct configuration=     4
   0.99999693 -0.00000000  0.00000000
   0.16666973  0.50000000 -0.00000000
   0.49999693  0.50000000  0.00000000
   0.66666973 -0.00000000 -0.00000000
