 running on    8 total cores
 distrk:  each k-point on    8 cores,    1 groups
 distr:  one band on    2 cores,    4 groups
 using from now: INCAR     
 vasp.5.3.5 31Mar14 (build Mar 02 2015 18:14:16) complex                        
  
 POSCAR found type information on POSCAR  C 
 POSCAR found :  1 types and       4 ions
 LDA part: xc-table for Pade appr. of Perdew
 POSCAR, INCAR and KPOINTS ok, starting setup
 FFT: planning ...
 WAVECAR not read
 entering main loop
       N       E                     dE             d eps       ncg     rms          rms(c)
DAV:   1     0.190849739025E+03    0.19085E+03   -0.10649E+04  5928   0.275E+03
DAV:   2    -0.905697874533E+01   -0.19991E+03   -0.17819E+03 10352   0.261E+02
DAV:   3    -0.383600433114E+02   -0.29303E+02   -0.28667E+02  7416   0.120E+02    0.736E+00
RMM:   4    -0.377089996034E+02    0.65104E+00   -0.97634E+00  5929   0.265E+01    0.426E+00
RMM:   5    -0.369364528749E+02    0.77255E+00   -0.29144E+00  5934   0.117E+01    0.739E-01
RMM:   6    -0.369381440332E+02   -0.16912E-02   -0.88240E-02  6364   0.205E+00    0.526E-01
RMM:   7    -0.369284256446E+02    0.97184E-02   -0.34270E-02  5947   0.161E+00    0.349E-01
RMM:   8    -0.369224888167E+02    0.59368E-02   -0.80411E-03  5931   0.593E-01    0.135E-01
RMM:   9    -0.369221277747E+02    0.36104E-03   -0.20875E-02  5928   0.856E-01    0.162E-01
RMM:  10    -0.369220127318E+02    0.11504E-03   -0.27555E-03  5928   0.379E-01    0.311E-02
RMM:  11    -0.369245878403E+02   -0.25751E-02   -0.73976E-04  5931   0.177E-01    0.468E-02
RMM:  12    -0.369250553835E+02   -0.46754E-03   -0.26298E-04  5935   0.107E-01    0.410E-03
RMM:  13    -0.369253101786E+02   -0.25480E-03   -0.49491E-05  6016   0.390E-02    0.480E-03
RMM:  14    -0.369253977285E+02   -0.87550E-04   -0.12528E-05  5938   0.207E-02    0.250E-03
RMM:  15    -0.369254047734E+02   -0.70449E-05   -0.13716E-06  5999   0.719E-03    0.690E-04
RMM:  16    -0.369254159300E+02   -0.11157E-04   -0.33409E-07  6058   0.315E-03    0.345E-04
RMM:  17    -0.369254193195E+02   -0.33895E-05   -0.30116E-08  6058   0.142E-03    0.637E-04
RMM:  18    -0.369254214278E+02   -0.21083E-05   -0.72248E-08  5928   0.181E-03    0.844E-05
WARNING in EDDRMM: call to ZHEGV failed, returncode =   6  3  1
WARNING in EDDRMM: call to ZHEGV failed, returncode =   6  3  1
WARNING in EDDRMM: call to ZHEGV failed, returncode =   6  3  1
WARNING in EDDRMM: call to ZHEGV failed, returncode =   6  3  1
WARNING in EDDRMM: call to ZHEGV failed, returncode =   6  3  1
WARNING in EDDRMM: call to ZHEGV failed, returncode =   6  3  1
WARNING in EDDRMM: call to ZHEGV failed, returncode =   6  3  1
WARNING in EDDRMM: call to ZHEGV failed, returncode =   6  3  1
WARNING in EDDRMM: call to ZHEGV failed, returncode =   6  3  1
RMM:  19    -0.369254217604E+02   -0.33267E-06   -0.42018E-09  6010   0.394E-04    0.237E-05
RMM:  20    -0.369254218052E+02   -0.44759E-07   -0.70369E-10  4602   0.149E-04    0.229E-05
RMM:  21    -0.369254218207E+02   -0.15546E-07   -0.16150E-10  4276   0.766E-05    0.951E-06
RMM:  22    -0.369254218206E+02    0.12460E-09   -0.17073E-11  3890   0.496E-05    0.104E-06
RMM:  23    -0.369254218211E+02   -0.49977E-09   -0.18341E-11  3566   0.387E-05    0.180E-06
RMM:  24    -0.369254218211E+02    0.24329E-10   -0.52165E-12  3077   0.281E-05
   1 F= -.36925422E+02 E0= -.36925358E+02  d E =-.369254E+02
 BRION: g(F)=  0.632E-03 g(S)=  0.000E+00
 bond charge predicted
       N       E                     dE             d eps       ncg     rms          rms(c)
DAV:   1    -0.369244788178E+02    0.94300E-03   -0.85425E-02  6800   0.275E+00    0.599E-02
RMM:   2    -0.369245185740E+02   -0.39756E-04   -0.13757E-03  5928   0.331E-01    0.424E-02
RMM:   3    -0.369244737875E+02    0.44786E-04   -0.24956E-04  5954   0.127E-01    0.106E-02
RMM:   4    -0.369244694774E+02    0.43101E-05   -0.14835E-05  6093   0.307E-02    0.302E-03
RMM:   5    -0.369244696269E+02   -0.14951E-06   -0.11523E-06  6183   0.766E-03    0.149E-03
RMM:   6    -0.369244695443E+02    0.82557E-07   -0.19446E-07  6102   0.340E-03    0.109E-04
RMM:   7    -0.369244695443E+02    0.51500E-10   -0.10941E-08  6086   0.750E-04    0.866E-05
RMM:   8    -0.369244695435E+02    0.82355E-09   -0.81692E-10  5477   0.224E-04    0.140E-05
RMM:   9    -0.369244695438E+02   -0.36562E-09   -0.47984E-11  3864   0.694E-05    0.368E-06
RMM:  10    -0.369244695436E+02    0.18645E-09   -0.23653E-11  3791   0.529E-05    0.855E-07
RMM:  11    -0.369244695436E+02   -0.15461E-10   -0.93976E-12  3456   0.401E-05
   2 F= -.36924470E+02 E0= -.36924424E+02  d E =0.952277E-03
 BRION: g(F)=  0.103E-01 g(S)=  0.000E+00 retain N=  1 mean eig= 0.20
 eig:   0.199
 bond charge predicted
       N       E                     dE             d eps       ncg     rms          rms(c)
DAV:   1    -0.369254930239E+02   -0.10235E-02   -0.54855E-02  6436   0.221E+00    0.481E-02
RMM:   2    -0.369255168801E+02   -0.23856E-04   -0.86907E-04  5928   0.266E-01    0.340E-02
RMM:   3    -0.369254876257E+02    0.29254E-04   -0.15625E-04  5970   0.101E-01    0.815E-03
RMM:   4    -0.369254850877E+02    0.25380E-05   -0.87812E-06  6077   0.235E-02    0.241E-03
RMM:   5    -0.369254851660E+02   -0.78337E-07   -0.68806E-07  6196   0.599E-03    0.115E-03
RMM:   6    -0.369254851181E+02    0.47902E-07   -0.11414E-07  6098   0.260E-03    0.862E-05
WARNING in EDDRMM: call to ZHEGV failed, returncode =   6  3  1
RMM:   7    -0.369254851200E+02   -0.18656E-08   -0.66683E-09  6090   0.588E-04    0.677E-05
RMM:   8    -0.369254851202E+02   -0.21942E-09   -0.47350E-10  4810   0.174E-04    0.109E-05
RMM:   9    -0.369254851206E+02   -0.42257E-09   -0.21914E-11  3825   0.636E-05    0.317E-06
RMM:  10    -0.369254851210E+02   -0.32958E-09   -0.23320E-11  3760   0.528E-05    0.829E-07
RMM:  11    -0.369254851210E+02   -0.72987E-10   -0.10549E-11  3418   0.394E-05
   3 F= -.36925485E+02 E0= -.36925420E+02  d E =-.101558E-02
 BRION: g(F)=  0.516E-07 g(S)=  0.000E+00 retain N=  1 mean eig= 0.20
 eig:   0.198
 bond charge predicted
       N       E                     dE             d eps       ncg     rms          rms(c)
DAV:   1    -0.369254851255E+02   -0.45088E-08   -0.26655E-07  6712   0.492E-03    0.107E-04
RMM:   2    -0.369254851259E+02   -0.38028E-09   -0.43010E-09  5858   0.591E-04    0.754E-05
WARNING in EDDRMM: call to ZHEGV failed, returncode =   6  3  1
RMM:   3    -0.369254851261E+02   -0.25034E-09   -0.78804E-10  5818   0.228E-04    0.179E-05
 num prob  num prob  num prob  num prob  num prob  num prob  num prob  num prob  num prob  num prob  num prob RMM:   4    -0.369254851261E+02    0.60027E-10   -0.13665E-11  3610   0.572E-05    0.500E-06
RMM:   5    -0.369254851260E+02    0.92200E-10   -0.36523E-11  3704   0.594E-05
   4 F= -.36925485E+02 E0= -.36925420E+02  d E =-.491423E-08
 BRION: g(F)=  0.142E-10 g(S)=  0.000E+00 retain N=  1 mean eig= 0.19
 eig:   0.195
 bond charge predicted
       N       E                     dE             d eps       ncg     rms          rms(c)
DAV:   1    -0.369254851255E+02    0.50829E-09    0.57193E-09  4980   0.945E-05    0.947E-07
RMM:   2    -0.369254851260E+02   -0.49477E-09    0.21227E-12  3113   0.290E-05    0.505E-07
RMM:   3    -0.369254851263E+02   -0.24613E-09   -0.16831E-12  2794   0.290E-05    0.159E-07
RMM:   4    -0.369254851262E+02    0.12972E-09   -0.28948E-12  2434   0.264E-05    0.142E-07
RMM:   5    -0.369254851263E+02   -0.16848E-09   -0.19294E-12  2262   0.237E-05    0.284E-07
RMM:   6    -0.369254851260E+02    0.35527E-09   -0.29364E-12  1900   0.222E-05    0.141E-07
RMM:   7    -0.369254851262E+02   -0.23181E-09   -0.11563E-13  1561   0.208E-05    0.196E-07
RMM:   8    -0.369254851261E+02    0.13881E-09   -0.16590E-12  1421   0.198E-05    0.237E-07
RMM:   9    -0.369254851260E+02    0.17621E-10   -0.77378E-13  1175   0.188E-05
   5 F= -.36925485E+02 E0= -.36925420E+02  d E =-.836735E-10
 BRION: g(F)=  0.235E-10 g(S)=  0.000E+00 retain N=  1 mean eig= 0.09
 eig:   0.085
 bond charge predicted
       N       E                     dE             d eps       ncg     rms          rms(c)
DAV:   1    -0.369254851253E+02    0.78421E-09    0.57885E-09  4168   0.430E-05    0.572E-07
RMM:   2    -0.369254851260E+02   -0.70645E-09    0.12751E-13  1086   0.119E-05    0.352E-07
RMM:   3    -0.369254851262E+02   -0.26580E-09    0.11102E-13  1087   0.118E-05    0.100E-08
RMM:   4    -0.369254851259E+02    0.39006E-09   -0.94862E-14   717   0.118E-05    0.730E-09
RMM:   5    -0.369254851263E+02   -0.43713E-09    0.82239E-15  1097   0.117E-05    0.330E-09
RMM:   6    -0.369254851261E+02    0.15984E-09   -0.10485E-13   865   0.117E-05    0.264E-09
RMM:   7    -0.369254851261E+02    0.54342E-10    0.15609E-13   698   0.116E-05
   6 F= -.36925485E+02 E0= -.36925420E+02  d E =-.385398E-10
 BRION: g(F)=  0.586E-12 g(S)=  0.000E+00 retain N=  1 mean eig= 0.10
 eig:   0.101
 bond charge predicted
       N       E                     dE             d eps       ncg     rms          rms(c)
DAV:   1    -0.369254851254E+02    0.71952E-09    0.58024E-09  3788   0.171E-05    0.425E-07
RMM:   2    -0.369254851261E+02   -0.69451E-09   -0.77716E-14   365   0.549E-06    0.261E-07
RMM:   3    -0.369254851260E+02    0.93337E-10    0.74097E-14   471   0.548E-06    0.520E-09
RMM:   4    -0.369254851261E+02   -0.72760E-10   -0.64557E-14   667   0.551E-06    0.282E-09
RMM:   5    -0.369254851259E+02    0.21612E-09   -0.32895E-14   354   0.545E-06    0.155E-09
RMM:   6    -0.369254851262E+02   -0.31753E-09    0.49508E-14   688   0.546E-06    0.834E-10
RMM:   7    -0.369254851259E+02    0.28376E-09    0.15000E-13   537   0.546E-06    0.190E-09
RMM:   8    -0.369254851260E+02   -0.10550E-09   -0.14112E-13   538   0.552E-06    0.164E-09
RMM:   9    -0.369254851263E+02   -0.24261E-09    0.83884E-15   382   0.545E-06    0.174E-09
RMM:  10    -0.369254851258E+02    0.46407E-09    0.00000E+00   638   0.543E-06    0.243E-09
RMM:  11    -0.369254851261E+02   -0.32287E-09   -0.53537E-14   933   0.543E-06    0.235E-09
RMM:  12    -0.369254851260E+02    0.80036E-10    0.22862E-14   580   0.543E-06
   7 F= -.36925485E+02 E0= -.36925420E+02  d E =0.467253E-10
 BRION: g(F)=  0.886E-12 g(S)=  0.000E+00 retain N=  1 mean eig= 0.44
 eig:   0.441
 bond charge predicted
       N       E                     dE             d eps       ncg     rms          rms(c)
DAV:   1    -0.369254851255E+02    0.65302E-09    0.57860E-09  3572   0.445E-05    0.818E-07
RMM:   2    -0.369254851259E+02   -0.42905E-09    0.00000E+00   335   0.109E-05    0.505E-07
RMM:   3    -0.369254851263E+02   -0.36925E-09    0.00000E+00   312   0.107E-05    0.964E-09
RMM:   4    -0.369254851258E+02    0.43508E-09    0.00000E+00   510   0.107E-05    0.367E-09
RMM:   5    -0.369254851259E+02   -0.58094E-10    0.00000E+00   672   0.107E-05
   8 F= -.36925485E+02 E0= -.36925420E+02  d E =0.151658E-09
 BRION: g(F)=  0.114E-10 g(S)=  0.000E+00 retain N=  1 mean eig= 0.17
 eig:   0.170
 bond charge predicted
       N       E                     dE             d eps       ncg     rms          rms(c)
DAV:   1    -0.369254851253E+02    0.52967E-09    0.57624E-09  3284   0.612E-05    0.114E-06
RMM:   2    -0.369254851261E+02   -0.81081E-09    0.21483E-13   825   0.156E-05    0.707E-07
RMM:   3    -0.369254851258E+02    0.28967E-09   -0.60493E-13   666   0.153E-05    0.155E-08
RMM:   4    -0.369254851261E+02   -0.27217E-09    0.23084E-13   643   0.153E-05    0.982E-09
RMM:   5    -0.369254851259E+02    0.16087E-09   -0.20714E-13   610   0.153E-05    0.301E-09
RMM:   6    -0.369254851261E+02   -0.17371E-09   -0.27990E-13   543   0.153E-05    0.883E-09
RMM:   7    -0.369254851260E+02    0.84697E-10   -0.11606E-13   498   0.151E-05
   9 F= -.36925485E+02 E0= -.36925420E+02  d E =-.133696E-09
 BRION: g(F)=  0.866E-14 g(S)=  0.000E+00 retain N=  1 mean eig= 0.17
 eig:   0.166
 reached required accuracy - stopping structural energy minimisation
