    4    4  400    1
  0.5270948E+02  0.4273639E-09  0.2467546E-09  0.1999335E-08  0.5000000E-15
  1.000000000000000E-004
  CAR 
 gr                                      
     16    247     12
 
  0.0000000E+00  0.0000000E+00  0.0000000E+00  0.1157407E-02
    1      -22.251597
    2      -17.019330
    3      -15.971573
    4      -10.357353
    5       -9.159093
    6       -5.787259
    7       -5.786435
    8       -5.110151
    9       -1.076098
   10        0.524115
   11        1.325162
   12        1.708230
 
  0.4166667E-01  0.0000000E+00  0.0000000E+00  0.2314815E-02
    1      -22.241349
    2      -17.184297
    3      -15.791345
    4      -10.345111
    5       -9.148908
    6       -5.829179
    7       -5.809832
    8       -5.176643
    9       -0.993630
   10        0.538015
   11        1.339245
   12        1.722483
 
  0.8333333E-01  0.0000000E+00  0.0000000E+00  0.2314815E-02
    1      -22.210611
    2      -17.521241
    3      -15.408702
    4      -10.308404
    5       -9.118402
    6       -5.955650
    7       -5.876303
    8       -5.361148
    9       -0.761369
   10        0.579715
   11        1.381489
   12        1.765242
 
  0.1250000E+00  0.0000000E+00  0.0000000E+00  0.2314815E-02
    1      -22.159403
    2      -17.897579
    3      -14.956486
    4      -10.247289
    5       -9.067731
    6       -6.160863
    7       -5.983133
    8       -5.630356
    9       -0.413139
   10        0.649223
   11        1.451883
   12        1.836509
 
  0.1666667E+00  0.0000000E+00  0.0000000E+00  0.2314815E-02
    1      -22.087757
    2      -18.276598
    3      -14.471854
    4      -10.161864
    5       -8.997156
    6       -6.437380
    7       -6.125057
    8       -5.951252
    9        0.017172
   10        0.746543
   11        1.550405
   12        1.936284
 
  0.2083333E+00  0.0000000E+00  0.0000000E+00  0.2314815E-02
    1      -21.995724
    2      -18.646950
    3      -13.966790
    4      -10.052270
    5       -8.907055
    6       -6.776315
    7       -6.299261
    8       -6.295792
    9        0.503739
   10        0.871674
   11        1.677020
   12        2.064568
 
  0.2500000E+00  0.0000000E+00  0.0000000E+00  0.2314815E-02
    1      -21.883366
    2      -19.004066
    3      -13.446708
    4       -9.918696
    5       -8.797936
    6       -7.168267
    7       -6.658007
    8       -6.488717
    9        1.024605
   10        1.028516
   11        1.831677
   12        2.221362
 
  0.2916667E+00  0.0000000E+00  0.0000000E+00  0.2314815E-02
    1      -21.750763
    2      -19.345688
    3      -12.914943
    4       -9.761387
    5       -8.670449
    6       -7.604037
    7       -7.016863
    8       -6.697394
    9        1.205312
   10        1.578703
   11        2.014299
   12        2.406662
 
  0.3333333E+00  0.0000000E+00  0.0000000E+00  0.2314815E-02
    1      -21.598013
    2      -19.670513
    3      -12.374138
    4       -9.580653
    5       -8.525413
    6       -8.075080
    7       -7.368853
    8       -6.915897
    9        1.413757
   10        2.144403
   11        2.224761
   12        2.620463
 
  0.3750000E+00  0.0000000E+00  0.0000000E+00  0.2314815E-02
    1      -21.425229
    2      -19.977699
    3      -11.826774
    4       -9.376884
    5       -8.573731
    6       -8.363840
    7       -7.709282
    8       -7.138979
    9        1.649889
   10        2.462844
   11        2.716291
   12        2.862757
 
  0.4166667E+00  0.0000000E+00  0.0000000E+00  0.2314815E-02
    1      -21.232550
    2      -20.266654
    3      -11.275431
    4       -9.150569
    5       -9.093266
    6       -8.186973
    7       -8.034889
    8       -7.362107
    9        1.913635
   10        2.728104
   11        3.133529
   12        3.241966
 
  0.4583333E+00  0.0000000E+00  0.0000000E+00  0.2314815E-02
    1      -21.020136
    2      -20.536931
    3      -10.722942
    4       -9.627864
    5       -8.902320
    6       -8.343337
    7       -7.996325
    8       -7.581435
    9        2.204898
   10        2.869351
   11        3.019375
   12        3.432754
 
  0.5000000E+00  0.0000000E+00  0.0000000E+00  0.1157407E-02
    1      -20.788186
    2      -20.788186
    3      -10.172521
    4      -10.172521
    5       -8.632911
    6       -8.632911
    7       -7.793737
    8       -7.793737
    9        2.523540
   10        2.523540
   11        3.331982
   12        3.331982
 
  0.0000000E+00  0.2777778E-01  0.0000000E+00  0.2314815E-02
    1      -22.237935
    2      -17.007608
    3      -15.959991
    4      -10.341033
    5       -9.220663
    6       -5.844057
    7       -5.816616
    8       -5.093526
    9       -1.080049
   10        0.542645
   11        1.343937
   12        1.727232
 
  0.4166667E-01  0.2777778E-01  0.0000000E+00  0.4629630E-02
    1      -22.227689
    2      -17.172405
    3      -15.779984
    4      -10.328795
    5       -9.210461
    6       -5.886095
    7       -5.839220
    8       -5.160165
    9       -0.997553
   10        0.556545
   11        1.358019
   12        1.741485
 
  0.8333333E-01  0.2777778E-01  0.0000000E+00  0.4629630E-02
    1      -22.196955
    2      -17.509089
    3      -15.397756
    4      -10.292101
    5       -9.179904
    6       -6.009354
    7       -5.906999
    8       -5.345003
    9       -0.765315
   10        0.598248
   11        1.400260
   12        1.784244
 
  0.1250000E+00  0.2777778E-01  0.0000000E+00  0.4629630E-02
    1      -22.145754
    2      -17.885200
    3      -14.946034
    4      -10.231007
    5       -9.129143
    6       -6.209241
    7       -6.016338
    8       -5.614555
    9       -0.417338
   10        0.667759
   11        1.470650
   12        1.855511
 
  0.1666667E+00  0.2777778E-01  0.0000000E+00  0.4629630E-02
    1      -22.074119
    2      -18.264024
    3      -14.461981
    4      -10.145612
    5       -9.058433
    6       -6.479250
    7       -6.161436
    8       -5.935704
    9        0.012389
   10        0.765085
   11        1.569166
   12        1.955288
 
  0.2083333E+00  0.2777778E-01  0.0000000E+00  0.4629630E-02
    1      -21.982100
    2      -18.634211
    3      -13.957600
    4      -10.036055
    5       -8.968143
    6       -6.811268
    7       -6.335600
    8       -6.283860
    9        0.498024
   10        0.890225
   11        1.695773
   12        2.083574
 
  0.2500000E+00  0.2777778E-01  0.0000000E+00  0.4629630E-02
    1      -21.869759
    2      -18.991187
    3      -13.438327
    4       -9.902527
    5       -8.858769
    6       -7.196464
    7       -6.642664
    8       -6.531909
    9        1.021548
   10        1.043166
   11        1.850423
   12        2.240370
 
  0.2916667E+00  0.2777778E-01  0.0000000E+00  0.4629630E-02
    1      -21.737179
    2      -19.332687
    3      -12.907527
    4       -9.745273
    5       -8.730945
    6       -7.625993
    7       -7.001515
    8       -6.743737
    9        1.223884
   10        1.570202
   11        2.033037
   12        2.425673
 
  0.3333333E+00  0.2777778E-01  0.0000000E+00  0.4629630E-02
    1      -21.584455
    2      -19.657408
    3      -12.367875
    4       -9.564601
    5       -8.585471
    6       -8.091486
    7       -7.353461
    8       -6.965052
    9        1.432343
   10        2.134172
   11        2.243492
   12        2.639478
 
  0.3750000E+00  0.2777778E-01  0.0000000E+00  0.4629630E-02
    1      -21.411702
    2      -19.964504
    3      -11.821893
    4       -9.360903
    5       -8.585328
    6       -8.423335
    7       -7.693819
    8       -7.190566
    9        1.668490
   10        2.481576
   11        2.704352
   12        2.881777
 
  0.4166667E+00  0.2777778E-01  0.0000000E+00  0.4629630E-02
    1      -21.219059
    2      -20.253380
    3      -11.272209
    4       -9.134666
    5       -9.100769
    6       -8.245751
    7       -8.019341
    8       -7.415751
    9        1.932254
   10        2.746846
   11        3.152556
   12        3.260794
 
  0.4583333E+00  0.2777778E-01  0.0000000E+00  0.4629630E-02
    1      -21.006688
    2      -20.523591
    3      -10.721717
    4       -9.631921
    5       -8.886501
    6       -8.327699
    7       -8.054200
    8       -7.636785
    9        2.223539
   10        2.888073
   11        3.038148
   12        3.451792
 
  0.5000000E+00  0.2777778E-01  0.0000000E+00  0.2314815E-02
    1      -20.774788
    2      -20.774788
    3      -10.173696
    4      -10.173696
    5       -8.617182
    6       -8.617182
    7       -7.850483
    8       -7.850483
    9        2.542212
   10        2.542212
   11        3.350730
   12        3.350730
 
  0.0000000E+00  0.5555556E-01  0.0000000E+00  0.2314815E-02
    1      -22.196961
    2      -16.972445
    3      -15.925397
    4      -10.292108
    5       -9.400447
    6       -6.009928
    7       -5.906426
    8       -5.043673
    9       -1.092734
   10        0.598240
   11        1.400253
   12        1.784236
 
  0.4166667E-01  0.5555556E-01  0.0000000E+00  0.4629630E-02
    1      -22.186718
    2      -17.136745
    3      -15.746046
    4      -10.279883
    5       -9.390189
    6       -6.052668
    7       -5.926354
    8       -5.110762
    9       -1.010150
   10        0.612141
   11        1.414332
   12        1.798490
 
  0.8333333E-01  0.5555556E-01  0.0000000E+00  0.4629630E-02
    1      -22.155997
    2      -17.472656
    3      -15.365071
    4      -10.243226
    5       -9.359462
    6       -6.173262
    7       -5.991209
    8       -5.296630
    9       -0.777971
   10        0.653847
   11        1.456566
   12        1.841250
 
  0.1250000E+00  0.5555556E-01  0.0000000E+00  0.4629630E-02
    1      -22.104818
    2      -17.848084
    3      -14.914850
    4      -10.182196
    5       -9.308402
    6       -6.362534
    7       -6.102858
    8       -5.567234
    9       -0.430761
   10        0.723367
   11        1.526942
   12        1.912519
 
  0.1666667E+00  0.5555556E-01  0.0000000E+00  0.4629630E-02
    1      -22.033216
    2      -18.226327
    3      -14.432566
    4      -10.096890
    5       -9.237246
    6       -6.615146
    7       -6.255470
    8       -5.889154
    9       -0.002817
   10        0.820706
   11        1.625439
   12        2.012298
 
  0.2083333E+00  0.5555556E-01  0.0000000E+00  0.4629630E-02
    1      -21.941240
    2      -18.596017
    3      -13.930282
    4       -9.987449
    5       -9.146334
    6       -6.926193
    7       -6.440221
    8       -6.237753
    9        0.479973
   10        0.945865
   11        1.752024
   12        2.140589
 
  0.2500000E+00  0.5555556E-01  0.0000000E+00  0.4629630E-02
    1      -21.828953
    2      -18.952567
    3      -13.413506
    4       -9.854061
    5       -9.036119
    6       -7.289748
    7       -6.648098
    8       -6.596732
    9        0.999663
   10        1.098831
   11        1.906648
   12        2.297391
 
  0.2916667E+00  0.5555556E-01  0.0000000E+00  0.4629630E-02
    1      -21.696439
    2      -19.293702
    3      -12.885692
    4       -9.696973
    5       -8.907186
    6       -7.698863
    7       -6.955567
    8       -6.871069
    9        1.279580
   10        1.543629
   11        2.089236
   12        2.482702
 
  0.3333333E+00  0.5555556E-01  0.0000000E+00  0.4629630E-02
    1      -21.543793
    2      -19.618108
    3      -12.349624
    4       -9.516493
    5       -8.760266
    6       -8.146123
    7       -7.307370
    8       -7.102381
    9        1.488073
   10        2.102279
   11        2.299672
   12        2.696517
 
  0.3750000E+00  0.5555556E-01  0.0000000E+00  0.4629630E-02
    1      -21.371134
    2      -19.924933
    3      -11.807958
    4       -9.313010
    5       -8.624219
    6       -8.596268
    7       -7.647511
    8       -7.336480
    9        1.724259
   10        2.537751
   11        2.667079
   12        2.938829
 
  0.4166667E+00  0.5555556E-01  0.0000000E+00  0.4629630E-02
    1      -21.178601
    2      -20.213576
    3      -11.263486
    4       -9.126341
    5       -9.087010
    6       -8.416301
    7       -7.972773
    8       -7.568835
    9        1.988066
   10        2.803054
   11        3.209627
   12        3.225812
 
  0.4583333E+00  0.5555556E-01  0.0000000E+00  0.4629630E-02
    1      -20.966358
    2      -20.483585
    3      -10.719300
    4       -9.646366
    5       -8.839102
    6       -8.280853
    7       -8.221727
    8       -7.795748
    9        2.279403
   10        2.944125
   11        3.094453
   12        3.508891
 
  0.5000000E+00  0.5555556E-01  0.0000000E+00  0.2314815E-02
    1      -20.734608
    2      -20.734608
    3      -10.178911
    4      -10.178911
    5       -8.570055
    6       -8.570055
    7       -8.014201
    8       -8.014201
    9        2.598148
   10        2.598148
   11        3.406953
   12        3.406953
 
  0.0000000E+00  0.8333333E-01  0.0000000E+00  0.2314815E-02
    1      -22.128708
    2      -16.913854
    3      -15.868276
    4      -10.210678
    5       -9.685024
    6       -6.272676
    7       -6.053711
    8       -4.960653
    9       -1.116648
   10        0.690912
   11        1.494090
   12        1.879248
 
  0.4166667E-01  0.8333333E-01  0.0000000E+00  0.4629630E-02
    1      -22.118473
    2      -17.077360
    3      -15.689998
    4      -10.198474
    5       -9.674655
    6       -6.316613
    7       -6.069295
    8       -5.028539
    9       -1.033890
   10        0.704813
   11        1.508164
   12        1.893501
 
  0.8333333E-01  0.8333333E-01  0.0000000E+00  0.4629630E-02
    1      -22.087774
    2      -17.412010
    3      -15.311128
    4      -10.161884
    5       -9.643587
    6       -6.438072
    7       -6.124361
    8       -5.216216
    9       -0.801776
   10        0.746520
   11        1.550383
   12        1.936262
 
  0.1250000E+00  0.8333333E-01  0.0000000E+00  0.4629630E-02
    1      -22.036633
    2      -17.786304
    3      -14.863487
    4      -10.100963
    5       -9.591936
    6       -6.621593
    7       -6.228401
    8       -5.488651
    9       -0.455866
   10        0.816043
   11        1.620734
   12        2.007532
 
  0.1666667E+00  0.8333333E-01  0.0000000E+00  0.4629630E-02
    1      -21.965085
    2      -18.163574
    3      -14.384278
    4      -10.015810
    5       -9.519896
    6       -6.857836
    7       -6.381340
    8       -5.811900
    9       -0.030990
   10        0.913393
   11        1.719197
   12        2.107314
 
  0.2083333E+00  0.8333333E-01  0.0000000E+00  0.4629630E-02
    1      -21.873180
    2      -18.532431
    3      -13.885670
    4       -9.906566
    5       -9.427748
    6       -7.142068
    7       -6.575888
    8       -6.161250
    9        0.446894
   10        1.038570
   11        1.845739
   12        2.235610
 
  0.2500000E+00  0.8333333E-01  0.0000000E+00  0.4629630E-02
    1      -21.760983
    2      -18.888266
    3      -13.373308
    4       -9.773420
    5       -9.315862
    6       -7.471796
    7       -6.800933
    8       -6.520513
    9        0.959974
   10        1.191562
   11        2.000314
   12        2.392419
 
  0.2916667E+00  0.8333333E-01  0.0000000E+00  0.4629630E-02
    1      -21.628579
    2      -19.228787
    3      -12.850818
    4       -9.616617
    5       -9.184715
    6       -7.844764
    7       -7.044614
    8       -6.879303
    9        1.372345
   10        1.495844
   11        2.182852
   12        2.577740
 
  0.3333333E+00  0.8333333E-01  0.0000000E+00  0.4629630E-02
    1      -21.476066
    2      -19.552664
    3      -12.321203
    4       -9.436465
    5       -9.034895
    6       -8.257484
    7       -7.296676
    8       -7.230848
    9        1.580878
   10        2.045238
   11        2.393246
   12        2.791568
 
  0.3750000E+00  0.8333333E-01  0.0000000E+00  0.4629630E-02
    1      -21.303562
    2      -19.859034
    3      -11.787391
    4       -9.233353
    5       -8.867126
    6       -8.704893
    7       -7.570603
    8       -7.549434
    9        1.817106
   10        2.600345
   11        2.631310
   12        3.033896
 
  0.4166667E+00  0.8333333E-01  0.0000000E+00  0.4629630E-02
    1      -21.111212
    2      -20.147285
    3      -11.252516
    4       -9.180930
    5       -9.007762
    6       -8.682287
    7       -7.895410
    8       -7.797530
    9        2.080959
   10        2.896666
   11        3.152229
   12        3.304716
 
  0.4583333E+00  0.8333333E-01  0.0000000E+00  0.4629630E-02
    1      -20.899185
    2      -20.416955
    3      -10.720092
    4       -9.679321
    5       -8.760298
    6       -8.481443
    7       -8.203006
    8       -8.037245
    9        2.372350
   10        3.037247
   11        3.188250
   12        3.604012
 
  0.5000000E+00  0.8333333E-01  0.0000000E+00  0.2314815E-02
    1      -20.667686
    2      -20.667686
    3      -10.194146
    4      -10.194146
    5       -8.491722
    6       -8.491722
    7       -8.265894
    8       -8.265894
    9        2.691164
   10        2.691164
   11        3.500554
   12        3.500554
 
  0.0000000E+00  0.1111111E+00  0.0000000E+00  0.2314815E-02
    1      -22.033239
    2      -16.831855
    3      -15.789545
    4      -10.096916
    5      -10.055676
    6       -6.615615
    7       -6.255013
    8       -4.844568
    9       -1.155915
   10        0.820675
   11        1.625410
   12        2.012268
 
  0.4166667E-01  0.1111111E+00  0.0000000E+00  0.4629630E-02
    1      -22.023014
    2      -16.994329
    3      -15.612724
    4      -10.084745
    5      -10.045112
    6       -6.661157
    7       -6.264893
    8       -4.913678
    9       -1.072846
   10        0.834573
   11        1.639476
   12        2.026521
 
  0.8333333E-01  0.1111111E+00  0.0000000E+00  0.4629630E-02
    1      -21.992348
    2      -17.327272
    3      -15.236856
    4      -10.048250
    5      -10.013444
    6       -6.785617
    7       -6.305251
    8       -5.104105
    9       -0.840726
   10        0.876272
   11        1.681670
   12        2.069281
 
  0.1250000E+00  0.1111111E+00  0.0000000E+00  0.4629630E-02
    1      -21.941260
    2      -17.699988
    3      -14.793016
    4       -9.987489
    5       -9.960746
    6       -6.968896
    7       -6.391818
    8       -5.379281
    9       -0.496656
   10        0.945785
   11        1.751980
   12        2.140550
 
  0.1666667E+00  0.1111111E+00  0.0000000E+00  0.4629630E-02
    1      -21.869788
    2      -18.075886
    3      -14.318428
    4       -9.902560
    5       -9.887137
    6       -7.197129
    7       -6.531217
    8       -5.704478
    9       -0.076251
   10        1.043128
   11        1.850386
   12        2.240333
 
  0.2083333E+00  0.1111111E+00  0.0000000E+00  0.4629630E-02
    1      -21.777983
    2      -18.443563
    3      -13.825426
    4       -9.793604
    5       -9.792783
    6       -7.462454
    7       -6.721490
    8       -6.054902
    9        0.394454
   10        1.168305
   11        1.976856
   12        2.368631
 
  0.2500000E+00  0.1111111E+00  0.0000000E+00  0.4629630E-02
    1      -21.665914
    2      -18.798385
    3      -13.319893
    4       -9.677897
    5       -9.660811
    6       -7.761171
    7       -6.954563
    8       -6.414545
    9        0.897866
   10        1.321309
   11        2.131347
   12        2.525446
 
  0.2916667E+00  0.1111111E+00  0.0000000E+00  0.4629630E-02
    1      -21.533663
    2      -19.138035
    3      -12.805768
    4       -9.542733
    5       -9.504426
    6       -8.092572
    7       -7.218282
    8       -6.773233
    9        1.421890
   10        1.502112
   11        2.313795
   12        2.710776
 
  0.3333333E+00  0.1111111E+00  0.0000000E+00  0.4629630E-02
    1      -21.381335
    2      -19.461164
    3      -12.286461
    4       -9.387581
    5       -9.324757
    6       -8.457566
    7       -7.498680
    8       -7.124369
    9        1.710671
   10        1.957660
   11        2.524106
   12        2.924616
 
  0.3750000E+00  0.1111111E+00  0.0000000E+00  0.4629630E-02
    1      -21.209051
    2      -19.766888
    3      -11.765431
    4       -9.212768
    5       -9.122189
    6       -8.856734
    7       -7.782671
    8       -7.463532
    9        1.946928
   10        2.498061
   11        2.762123
   12        3.166961
 
  0.4166667E+00  0.1111111E+00  0.0000000E+00  0.4629630E-02
    1      -21.016960
    2      -20.054583
    3      -11.246491
    4       -9.288602
    5       -9.018647
    6       -8.897202
    7       -8.060263
    8       -7.787651
    9        2.210809
   10        3.027538
   11        3.036441
   12        3.437800
 
  0.4583333E+00  0.1111111E+00  0.0000000E+00  0.4629630E-02
    1      -20.805238
    2      -20.323774
    3      -10.734010
    4       -9.749220
    5       -8.805619
    6       -8.650393
    7       -8.325209
    8       -8.094522
    9        2.502225
   10        3.167188
   11        3.319438
   12        3.559875
 
  0.5000000E+00  0.1111111E+00  0.0000000E+00  0.2314815E-02
    1      -20.574092
    2      -20.574092
    3      -10.233026
    4      -10.233026
    5       -8.574199
    6       -8.574199
    7       -8.382515
    8       -8.382515
    9        2.821066
   10        2.821066
   11        3.631131
   12        3.631131
 
  0.0000000E+00  0.1388889E+00  0.0000000E+00  0.2314815E-02
    1      -21.910642
    2      -16.726476
    3      -15.690760
    4      -10.491717
    5       -9.951072
    6       -7.020952
    7       -6.505779
    8       -4.695564
    9       -1.216169
   10        0.987538
   11        1.794156
   12        2.183302
 
  0.4166667E-01  0.1388889E+00  0.0000000E+00  0.4629630E-02
    1      -21.900431
    2      -16.887775
    3      -15.515738
    4      -10.480820
    5       -9.938944
    6       -7.068436
    7       -6.508916
    8       -4.766466
    9       -1.132547
   10        1.001428
   11        1.808209
   12        2.197554
 
  0.8333333E-01  0.1388889E+00  0.0000000E+00  0.4629630E-02
    1      -21.869805
    2      -17.218633
    3      -15.143866
    4      -10.448128
    5       -9.902579
    6       -7.197179
    7       -6.531182
    8       -4.960854
    9       -0.900178
   10        1.043104
   11        1.850364
   12        2.240310
 
  0.1250000E+00  0.1388889E+00  0.0000000E+00  0.4629630E-02
    1      -21.818786
    2      -17.589334
    3      -14.705336
    4      -10.393629
    5       -9.842035
    6       -7.383512
    7       -6.593543
    8       -5.239883
    9       -0.558439
   10        1.112586
   11        1.920609
   12        2.311575
 
  0.1666667E+00  0.1388889E+00  0.0000000E+00  0.4629630E-02
    1      -21.747413
    2      -17.963452
    3      -14.237391
    4      -10.317300
    5       -9.757411
    6       -7.610183
    7       -6.708351
    8       -5.567745
    9       -0.144019
   10        1.209893
   11        2.018922
   12        2.411353
 
  0.2083333E+00  0.1388889E+00  0.0000000E+00  0.4629630E-02
    1      -21.655739
    2      -18.329586
    3      -13.752638
    4      -10.219080
    5       -9.648848
    6       -7.866645
    7       -6.878861
    8       -5.919580
    9        0.317011
   10        1.335039
   11        2.145274
   12        2.539649
 
  0.2500000E+00  0.1388889E+00  0.0000000E+00  0.4629630E-02
    1      -21.543833
    2      -18.683080
    3      -13.257383
    4      -10.098854
    5       -9.516538
    6       -8.146790
    7       -7.101649
    8       -6.279666
    9        0.807415
   10        1.488021
   11        2.299620
   12        2.696465
 
  0.2916667E+00  0.1388889E+00  0.0000000E+00  0.4629630E-02
    1      -21.411782
    2      -19.021588
    3      -12.756157
    4       -9.956408
    5       -9.360725
    6       -8.447844
    7       -7.368290
    8       -6.638141
    9        1.315542
   10        1.668813
   11        2.481902
   12        2.881800
 
  0.3333333E+00  0.1388889E+00  0.0000000E+00  0.4629630E-02
    1      -21.259693
    2      -19.343735
    3      -12.253168
    4       -9.791382
    5       -9.181716
    6       -8.769922
    7       -7.666624
    8       -6.988655
    9        1.833010
   10        1.877370
   11        2.692040
   12        3.095649
 
  0.3750000E+00  0.1388889E+00  0.0000000E+00  0.4629630E-02
    1      -21.087694
    2      -19.648615
    3      -11.752932
    4       -9.603221
    5       -9.115545
    6       -8.979896
    7       -7.982070
    8       -7.326957
    9        2.113625
   10        2.353331
   11        2.929916
   12        3.338005
 
  0.4166667E+00  0.1388889E+00  0.0000000E+00  0.4629630E-02
    1      -20.895940
    2      -19.935583
    3      -11.260606
    4       -9.488408
    5       -9.391150
    6       -8.755740
    7       -8.299511
    8       -7.650097
    9        2.377500
   10        2.871087
   11        3.195329
   12        3.608861
 
  0.4583333E+00  0.1388889E+00  0.0000000E+00  0.4629630E-02
    1      -20.684613
    2      -20.204150
    3      -10.782079
    4       -9.891222
    5       -9.154303
    6       -8.605843
    7       -8.509837
    8       -7.955947
    9        2.668898
   10        3.333776
   11        3.381068
   12        3.487713
 
  0.5000000E+00  0.1388889E+00  0.0000000E+00  0.2314815E-02
    1      -20.453930
    2      -20.453930
    3      -10.323681
    4      -10.323681
    5       -8.892194
    6       -8.892194
    7       -8.242928
    8       -8.242928
    9        2.987704
   10        2.987704
   11        3.791728
   12        3.791728
 
  0.0000000E+00  0.1666667E+00  0.0000000E+00  0.2314815E-02
    1      -21.761034
    2      -16.597756
    3      -15.574538
    4      -10.972606
    5       -9.773478
    6       -7.472126
    7       -6.800622
    8       -4.513837
    9       -1.304266
   10        1.191494
   11        2.000248
   12        2.392352
 
  0.4166667E-01  0.1666667E+00  0.0000000E+00  0.4629630E-02
    1      -21.750840
    2      -16.757889
    3      -15.401611
    4      -10.961136
    5       -9.761406
    6       -7.521830
    7       -6.796297
    8       -4.587337
    9       -1.219637
   10        1.205370
   11        2.014281
   12        2.406602
 
  0.8333333E-01  0.1666667E+00  0.0000000E+00  0.4629630E-02
    1      -21.720265
    2      -17.086384
    3      -15.034953
    4      -10.926669
    5       -9.725212
    6       -7.655723
    7       -6.798239
    8       -4.787341
    9       -0.986418
   10        1.247009
   11        2.056373
   12        2.449352
 
  0.1250000E+00  0.1666667E+00  0.0000000E+00  0.4629630E-02
    1      -21.669332
    2      -17.454644
    3      -14.603834
    4      -10.869027
    5       -9.664953
    6       -7.847019
    7       -6.832070
    8       -5.071648
    9       -0.647321
   10        1.316432
   11        2.126511
   12        2.520607
 
  0.1666667E+00  0.1666667E+00  0.0000000E+00  0.4629630E-02
    1      -21.598081
    2      -17.826549
    3      -14.145539
    4      -10.787880
    5       -9.580730
    6       -8.075866
    7       -6.915040
    8       -5.403012
    9       -0.240431
   10        1.413667
   11        2.224672
   12        2.620374
 
  0.2083333E+00  0.1666667E+00  0.0000000E+00  0.4629630E-02
    1      -21.506565
    2      -18.190749
    3      -13.673179
    4      -10.682685
    5       -9.472686
    6       -8.329925
    7       -7.054833
    8       -5.756592
    9        0.208283
   10        1.538737
   11        2.350818
   12        2.748659
 
  0.2500000E+00  0.1666667E+00  0.0000000E+00  0.4629630E-02
    1      -21.394860
    2      -18.542573
    3      -13.193894
    4      -10.552599
    5       -9.341012
    6       -8.601536
    7       -7.252101
    8       -6.117118
    9        0.682178
   10        1.691649
   11        2.504901
   12        2.905467
 
  0.2916667E+00  0.1666667E+00  0.0000000E+00  0.4629630E-02
    1      -21.263056
    2      -18.879646
    3      -12.713411
    4      -10.396368
    5       -9.185954
    6       -8.886127
    7       -7.502265
    8       -6.475177
    9        1.170263
   10        1.872383
   11        2.686856
   12        3.090798
 
  0.3333333E+00  0.1666667E+00  0.0000000E+00  0.4629630E-02
    1      -21.111263
    2      -19.200560
    3      -12.237554
    4      -10.212206
    5       -9.181603
    6       -9.007821
    7       -7.796756
    8       -6.824752
    9        1.664799
   10        2.080893
   11        2.896596
   12        3.304650
 
  0.3750000E+00  0.1666667E+00  0.0000000E+00  0.4629630E-02
    1      -20.939618
    2      -19.504382
    3      -11.772823
    4       -9.997802
    5       -9.488240
    6       -8.806995
    7       -8.123962
    8       -7.161826
    9        2.159957
   10        2.317105
   11        3.134007
   12        3.547014
 
  0.4166667E+00  0.1666667E+00  0.0000000E+00  0.4629630E-02
    1      -20.748282
    2      -19.790441
    3      -11.326300
    4       -9.808753
    5       -9.750731
    6       -8.583946
    7       -8.469959
    8       -7.483600
    9        2.580930
   10        2.651068
   11        3.398932
   12        3.817880
 
  0.4583333E+00  0.1666667E+00  0.0000000E+00  0.4629630E-02
    1      -20.537447
    2      -20.058228
    3      -10.904617
    4      -10.148040
    5       -9.469701
    6       -8.819334
    7       -8.339259
    8       -7.788049
    9        2.872259
   10        3.134185
   11        3.536892
   12        3.691050
 
  0.5000000E+00  0.1666667E+00  0.0000000E+00  0.2314815E-02
    1      -20.307339
    2      -20.307339
    3      -10.511922
    4      -10.511922
    5       -9.156770
    6       -9.156770
    7       -8.073656
    8       -8.073656
    9        3.190964
   10        3.190964
   11        3.605686
   12        3.605686
 