<?xml version="1.0" encoding="ISO-8859-1"?>
<modeling>
 <generator>
  <i name="program" type="string">vasp </i>
  <i name="version" type="string">5.3.5  </i>
  <i name="subversion" type="string">31Mar14 (build Mar 02 2015 18:14:16) complex                          parallel </i>
  <i name="platform" type="string">LinuxIFC </i>
  <i name="date" type="string">2018 08 10 </i>
  <i name="time" type="string">15:18:32 </i>
 </generator>
 <incar>
  <i type="string" name="SYSTEM">  gr</i>
  <i type="string" name="PREC">accurate : accuracy</i>
  <i type="string" name="ALGO"> FAST.</i>
  <i type="int" name="NELM">   100</i>
  <i type="int" name="NELMDL">    -3</i>
  <i type="int" name="NELMIN">     5</i>
  <i type="int" name="IBRION">     1</i>
  <i name="EDIFF">      0.00000000</i>
  <i name="EDIFFG">     -0.00000100</i>
  <i type="int" name="NSW">   400</i>
  <i type="int" name="ISIF">     2</i>
  <i name="ENCUT">   2000.00000000</i>
  <i type="int" name="ISMEAR">     0</i>
  <i name="SIGMA">      0.05000000</i>
  <i type="int" name="NWRITE">     2</i>
  <i type="logical" name="LWAVE"> F  </i>
  <i type="logical" name="LCHARG"> F  </i>
  <i type="int" name="NELM">   100</i>
 </incar>
 <kpoints>
  <generation param="Gamma">
   <v type="int" name="divisions">      24       36        1 </v>
   <v name="usershift">      0.00000000       0.00000000       0.00000000 </v>
   <v name="genvec1">      0.04166667       0.00000000       0.00000000 </v>
   <v name="genvec2">      0.00000000       0.02777778       0.00000000 </v>
   <v name="genvec3">      0.00000000       0.00000000       1.00000000 </v>
   <v name="shift">      0.00000000       0.00000000       0.00000000 </v>
  </generation>
  <varray name="kpointlist" >
   <v>       0.00000000       0.00000000       0.00000000 </v>
   <v>       0.04166667       0.00000000       0.00000000 </v>
   <v>       0.08333333       0.00000000       0.00000000 </v>
   <v>       0.12500000       0.00000000       0.00000000 </v>
   <v>       0.16666667       0.00000000       0.00000000 </v>
   <v>       0.20833333       0.00000000       0.00000000 </v>
   <v>       0.25000000       0.00000000       0.00000000 </v>
   <v>       0.29166667       0.00000000       0.00000000 </v>
   <v>       0.33333333       0.00000000       0.00000000 </v>
   <v>       0.37500000       0.00000000       0.00000000 </v>
   <v>       0.41666667       0.00000000       0.00000000 </v>
   <v>       0.45833333       0.00000000       0.00000000 </v>
   <v>       0.50000000       0.00000000       0.00000000 </v>
   <v>       0.00000000       0.02777778       0.00000000 </v>
   <v>       0.04166667       0.02777778       0.00000000 </v>
   <v>       0.08333333       0.02777778       0.00000000 </v>
   <v>       0.12500000       0.02777778       0.00000000 </v>
   <v>       0.16666667       0.02777778       0.00000000 </v>
   <v>       0.20833333       0.02777778       0.00000000 </v>
   <v>       0.25000000       0.02777778       0.00000000 </v>
   <v>       0.29166667       0.02777778       0.00000000 </v>
   <v>       0.33333333       0.02777778       0.00000000 </v>
   <v>       0.37500000       0.02777778       0.00000000 </v>
   <v>       0.41666667       0.02777778       0.00000000 </v>
   <v>       0.45833333       0.02777778       0.00000000 </v>
   <v>       0.50000000       0.02777778       0.00000000 </v>
   <v>       0.00000000       0.05555556       0.00000000 </v>
   <v>       0.04166667       0.05555556       0.00000000 </v>
   <v>       0.08333333       0.05555556       0.00000000 </v>
   <v>       0.12500000       0.05555556       0.00000000 </v>
   <v>       0.16666667       0.05555556       0.00000000 </v>
   <v>       0.20833333       0.05555556       0.00000000 </v>
   <v>       0.25000000       0.05555556       0.00000000 </v>
   <v>       0.29166667       0.05555556       0.00000000 </v>
   <v>       0.33333333       0.05555556       0.00000000 </v>
   <v>       0.37500000       0.05555556       0.00000000 </v>
   <v>       0.41666667       0.05555556       0.00000000 </v>
   <v>       0.45833333       0.05555556       0.00000000 </v>
   <v>       0.50000000       0.05555556       0.00000000 </v>
   <v>       0.00000000       0.08333333       0.00000000 </v>
   <v>       0.04166667       0.08333333       0.00000000 </v>
   <v>       0.08333333       0.08333333       0.00000000 </v>
   <v>       0.12500000       0.08333333       0.00000000 </v>
   <v>       0.16666667       0.08333333       0.00000000 </v>
   <v>       0.20833333       0.08333333       0.00000000 </v>
   <v>       0.25000000       0.08333333       0.00000000 </v>
   <v>       0.29166667       0.08333333       0.00000000 </v>
   <v>       0.33333333       0.08333333       0.00000000 </v>
   <v>       0.37500000       0.08333333       0.00000000 </v>
   <v>       0.41666667       0.08333333       0.00000000 </v>
   <v>       0.45833333       0.08333333       0.00000000 </v>
   <v>       0.50000000       0.08333333       0.00000000 </v>
   <v>       0.00000000       0.11111111       0.00000000 </v>
   <v>       0.04166667       0.11111111       0.00000000 </v>
   <v>       0.08333333       0.11111111       0.00000000 </v>
   <v>       0.12500000       0.11111111       0.00000000 </v>
   <v>       0.16666667       0.11111111       0.00000000 </v>
   <v>       0.20833333       0.11111111       0.00000000 </v>
   <v>       0.25000000       0.11111111       0.00000000 </v>
   <v>       0.29166667       0.11111111       0.00000000 </v>
   <v>       0.33333333       0.11111111       0.00000000 </v>
   <v>       0.37500000       0.11111111       0.00000000 </v>
   <v>       0.41666667       0.11111111       0.00000000 </v>
   <v>       0.45833333       0.11111111       0.00000000 </v>
   <v>       0.50000000       0.11111111       0.00000000 </v>
   <v>       0.00000000       0.13888889       0.00000000 </v>
   <v>       0.04166667       0.13888889       0.00000000 </v>
   <v>       0.08333333       0.13888889       0.00000000 </v>
   <v>       0.12500000       0.13888889       0.00000000 </v>
   <v>       0.16666667       0.13888889       0.00000000 </v>
   <v>       0.20833333       0.13888889       0.00000000 </v>
   <v>       0.25000000       0.13888889       0.00000000 </v>
   <v>       0.29166667       0.13888889       0.00000000 </v>
   <v>       0.33333333       0.13888889       0.00000000 </v>
   <v>       0.37500000       0.13888889       0.00000000 </v>
   <v>       0.41666667       0.13888889       0.00000000 </v>
   <v>       0.45833333       0.13888889       0.00000000 </v>
   <v>       0.50000000       0.13888889       0.00000000 </v>
   <v>       0.00000000       0.16666667       0.00000000 </v>
   <v>       0.04166667       0.16666667       0.00000000 </v>
   <v>       0.08333333       0.16666667       0.00000000 </v>
   <v>       0.12500000       0.16666667       0.00000000 </v>
   <v>       0.16666667       0.16666667       0.00000000 </v>
   <v>       0.20833333       0.16666667       0.00000000 </v>
   <v>       0.25000000       0.16666667       0.00000000 </v>
   <v>       0.29166667       0.16666667       0.00000000 </v>
   <v>       0.33333333       0.16666667       0.00000000 </v>
   <v>       0.37500000       0.16666667       0.00000000 </v>
   <v>       0.41666667       0.16666667       0.00000000 </v>
   <v>       0.45833333       0.16666667       0.00000000 </v>
   <v>       0.50000000       0.16666667       0.00000000 </v>
   <v>       0.00000000       0.19444444       0.00000000 </v>
   <v>       0.04166667       0.19444444       0.00000000 </v>
   <v>       0.08333333       0.19444444       0.00000000 </v>
   <v>       0.12500000       0.19444444       0.00000000 </v>
   <v>       0.16666667       0.19444444       0.00000000 </v>
   <v>       0.20833333       0.19444444       0.00000000 </v>
   <v>       0.25000000       0.19444444       0.00000000 </v>
   <v>       0.29166667       0.19444444       0.00000000 </v>
   <v>       0.33333333       0.19444444       0.00000000 </v>
   <v>       0.37500000       0.19444444       0.00000000 </v>
   <v>       0.41666667       0.19444444       0.00000000 </v>
   <v>       0.45833333       0.19444444       0.00000000 </v>
   <v>       0.50000000       0.19444444       0.00000000 </v>
   <v>       0.00000000       0.22222222       0.00000000 </v>
   <v>       0.04166667       0.22222222       0.00000000 </v>
   <v>       0.08333333       0.22222222       0.00000000 </v>
   <v>       0.12500000       0.22222222       0.00000000 </v>
   <v>       0.16666667       0.22222222       0.00000000 </v>
   <v>       0.20833333       0.22222222       0.00000000 </v>
   <v>       0.25000000       0.22222222       0.00000000 </v>
   <v>       0.29166667       0.22222222       0.00000000 </v>
   <v>       0.33333333       0.22222222       0.00000000 </v>
   <v>       0.37500000       0.22222222       0.00000000 </v>
   <v>       0.41666667       0.22222222       0.00000000 </v>
   <v>       0.45833333       0.22222222       0.00000000 </v>
   <v>       0.50000000       0.22222222       0.00000000 </v>
   <v>       0.00000000       0.25000000       0.00000000 </v>
   <v>       0.04166667       0.25000000       0.00000000 </v>
   <v>       0.08333333       0.25000000       0.00000000 </v>
   <v>       0.12500000       0.25000000       0.00000000 </v>
   <v>       0.16666667       0.25000000       0.00000000 </v>
   <v>       0.20833333       0.25000000       0.00000000 </v>
   <v>       0.25000000       0.25000000       0.00000000 </v>
   <v>       0.29166667       0.25000000       0.00000000 </v>
   <v>       0.33333333       0.25000000       0.00000000 </v>
   <v>       0.37500000       0.25000000       0.00000000 </v>
   <v>       0.41666667       0.25000000       0.00000000 </v>
   <v>       0.45833333       0.25000000       0.00000000 </v>
   <v>       0.50000000       0.25000000       0.00000000 </v>
   <v>       0.00000000       0.27777778       0.00000000 </v>
   <v>       0.04166667       0.27777778       0.00000000 </v>
   <v>       0.08333333       0.27777778       0.00000000 </v>
   <v>       0.12500000       0.27777778       0.00000000 </v>
   <v>       0.16666667       0.27777778       0.00000000 </v>
   <v>       0.20833333       0.27777778       0.00000000 </v>
   <v>       0.25000000       0.27777778       0.00000000 </v>
   <v>       0.29166667       0.27777778       0.00000000 </v>
   <v>       0.33333333       0.27777778       0.00000000 </v>
   <v>       0.37500000       0.27777778       0.00000000 </v>
   <v>       0.41666667       0.27777778       0.00000000 </v>
   <v>       0.45833333       0.27777778       0.00000000 </v>
   <v>       0.50000000       0.27777778       0.00000000 </v>
   <v>       0.00000000       0.30555556       0.00000000 </v>
   <v>       0.04166667       0.30555556       0.00000000 </v>
   <v>       0.08333333       0.30555556       0.00000000 </v>
   <v>       0.12500000       0.30555556       0.00000000 </v>
   <v>       0.16666667       0.30555556       0.00000000 </v>
   <v>       0.20833333       0.30555556       0.00000000 </v>
   <v>       0.25000000       0.30555556       0.00000000 </v>
   <v>       0.29166667       0.30555556       0.00000000 </v>
   <v>       0.33333333       0.30555556       0.00000000 </v>
   <v>       0.37500000       0.30555556       0.00000000 </v>
   <v>       0.41666667       0.30555556       0.00000000 </v>
   <v>       0.45833333       0.30555556       0.00000000 </v>
   <v>       0.50000000       0.30555556       0.00000000 </v>
   <v>       0.00000000       0.33333333       0.00000000 </v>
   <v>       0.04166667       0.33333333       0.00000000 </v>
   <v>       0.08333333       0.33333333       0.00000000 </v>
   <v>       0.12500000       0.33333333       0.00000000 </v>
   <v>       0.16666667       0.33333333       0.00000000 </v>
   <v>       0.20833333       0.33333333       0.00000000 </v>
   <v>       0.25000000       0.33333333       0.00000000 </v>
   <v>       0.29166667       0.33333333       0.00000000 </v>
   <v>       0.33333333       0.33333333       0.00000000 </v>
   <v>       0.37500000       0.33333333       0.00000000 </v>
   <v>       0.41666667       0.33333333       0.00000000 </v>
   <v>       0.45833333       0.33333333       0.00000000 </v>
   <v>       0.50000000       0.33333333       0.00000000 </v>
   <v>       0.00000000       0.36111111       0.00000000 </v>
   <v>       0.04166667       0.36111111       0.00000000 </v>
   <v>       0.08333333       0.36111111       0.00000000 </v>
   <v>       0.12500000       0.36111111       0.00000000 </v>
   <v>       0.16666667       0.36111111       0.00000000 </v>
   <v>       0.20833333       0.36111111       0.00000000 </v>
   <v>       0.25000000       0.36111111       0.00000000 </v>
   <v>       0.29166667       0.36111111       0.00000000 </v>
   <v>       0.33333333       0.36111111       0.00000000 </v>
   <v>       0.37500000       0.36111111       0.00000000 </v>
   <v>       0.41666667       0.36111111       0.00000000 </v>
   <v>       0.45833333       0.36111111       0.00000000 </v>
   <v>       0.50000000       0.36111111       0.00000000 </v>
   <v>       0.00000000       0.38888889       0.00000000 </v>
   <v>       0.04166667       0.38888889       0.00000000 </v>
   <v>       0.08333333       0.38888889       0.00000000 </v>
   <v>       0.12500000       0.38888889       0.00000000 </v>
   <v>       0.16666667       0.38888889       0.00000000 </v>
   <v>       0.20833333       0.38888889       0.00000000 </v>
   <v>       0.25000000       0.38888889       0.00000000 </v>
   <v>       0.29166667       0.38888889       0.00000000 </v>
   <v>       0.33333333       0.38888889       0.00000000 </v>
   <v>       0.37500000       0.38888889       0.00000000 </v>
   <v>       0.41666667       0.38888889       0.00000000 </v>
   <v>       0.45833333       0.38888889       0.00000000 </v>
   <v>       0.50000000       0.38888889       0.00000000 </v>
   <v>       0.00000000       0.41666667       0.00000000 </v>
   <v>       0.04166667       0.41666667       0.00000000 </v>
   <v>       0.08333333       0.41666667       0.00000000 </v>
   <v>       0.12500000       0.41666667       0.00000000 </v>
   <v>       0.16666667       0.41666667       0.00000000 </v>
   <v>       0.20833333       0.41666667       0.00000000 </v>
   <v>       0.25000000       0.41666667       0.00000000 </v>
   <v>       0.29166667       0.41666667       0.00000000 </v>
   <v>       0.33333333       0.41666667       0.00000000 </v>
   <v>       0.37500000       0.41666667       0.00000000 </v>
   <v>       0.41666667       0.41666667       0.00000000 </v>
   <v>       0.45833333       0.41666667       0.00000000 </v>
   <v>       0.50000000       0.41666667       0.00000000 </v>
   <v>       0.00000000       0.44444444       0.00000000 </v>
   <v>       0.04166667       0.44444444       0.00000000 </v>
   <v>       0.08333333       0.44444444       0.00000000 </v>
   <v>       0.12500000       0.44444444       0.00000000 </v>
   <v>       0.16666667       0.44444444       0.00000000 </v>
   <v>       0.20833333       0.44444444       0.00000000 </v>
   <v>       0.25000000       0.44444444       0.00000000 </v>
   <v>       0.29166667       0.44444444       0.00000000 </v>
   <v>       0.33333333       0.44444444       0.00000000 </v>
   <v>       0.37500000       0.44444444       0.00000000 </v>
   <v>       0.41666667       0.44444444       0.00000000 </v>
   <v>       0.45833333       0.44444444       0.00000000 </v>
   <v>       0.50000000       0.44444444       0.00000000 </v>
   <v>       0.00000000       0.47222222       0.00000000 </v>
   <v>       0.04166667       0.47222222       0.00000000 </v>
   <v>       0.08333333       0.47222222       0.00000000 </v>
   <v>       0.12500000       0.47222222       0.00000000 </v>
   <v>       0.16666667       0.47222222       0.00000000 </v>
   <v>       0.20833333       0.47222222       0.00000000 </v>
   <v>       0.25000000       0.47222222       0.00000000 </v>
   <v>       0.29166667       0.47222222       0.00000000 </v>
   <v>       0.33333333       0.47222222       0.00000000 </v>
   <v>       0.37500000       0.47222222       0.00000000 </v>
   <v>       0.41666667       0.47222222       0.00000000 </v>
   <v>       0.45833333       0.47222222       0.00000000 </v>
   <v>       0.50000000       0.47222222       0.00000000 </v>
   <v>       0.00000000       0.50000000       0.00000000 </v>
   <v>       0.04166667       0.50000000       0.00000000 </v>
   <v>       0.08333333       0.50000000       0.00000000 </v>
   <v>       0.12500000       0.50000000       0.00000000 </v>
   <v>       0.16666667       0.50000000       0.00000000 </v>
   <v>       0.20833333       0.50000000       0.00000000 </v>
   <v>       0.25000000       0.50000000       0.00000000 </v>
   <v>       0.29166667       0.50000000       0.00000000 </v>
   <v>       0.33333333       0.50000000       0.00000000 </v>
   <v>       0.37500000       0.50000000       0.00000000 </v>
   <v>       0.41666667       0.50000000       0.00000000 </v>
   <v>       0.45833333       0.50000000       0.00000000 </v>
   <v>       0.50000000       0.50000000       0.00000000 </v>
  </varray>
  <varray name="weights" >
   <v>       0.00115741 </v>
   <v>       0.00231481 </v>
   <v>       0.00231481 </v>
   <v>       0.00231481 </v>
   <v>       0.00231481 </v>
   <v>       0.00231481 </v>
   <v>       0.00231481 </v>
   <v>       0.00231481 </v>
   <v>       0.00231481 </v>
   <v>       0.00231481 </v>
   <v>       0.00231481 </v>
   <v>       0.00231481 </v>
   <v>       0.00115741 </v>
   <v>       0.00231481 </v>
   <v>       0.00462963 </v>
   <v>       0.00462963 </v>
   <v>       0.00462963 </v>
   <v>       0.00462963 </v>
   <v>       0.00462963 </v>
   <v>       0.00462963 </v>
   <v>       0.00462963 </v>
   <v>       0.00462963 </v>
   <v>       0.00462963 </v>
   <v>       0.00462963 </v>
   <v>       0.00462963 </v>
   <v>       0.00231481 </v>
   <v>       0.00231481 </v>
   <v>       0.00462963 </v>
   <v>       0.00462963 </v>
   <v>       0.00462963 </v>
   <v>       0.00462963 </v>
   <v>       0.00462963 </v>
   <v>       0.00462963 </v>
   <v>       0.00462963 </v>
   <v>       0.00462963 </v>
   <v>       0.00462963 </v>
   <v>       0.00462963 </v>
   <v>       0.00462963 </v>
   <v>       0.00231481 </v>
   <v>       0.00231481 </v>
   <v>       0.00462963 </v>
   <v>       0.00462963 </v>
   <v>       0.00462963 </v>
   <v>       0.00462963 </v>
   <v>       0.00462963 </v>
   <v>       0.00462963 </v>
   <v>       0.00462963 </v>
   <v>       0.00462963 </v>
   <v>       0.00462963 </v>
   <v>       0.00462963 </v>
   <v>       0.00462963 </v>
   <v>       0.00231481 </v>
   <v>       0.00231481 </v>
   <v>       0.00462963 </v>
   <v>       0.00462963 </v>
   <v>       0.00462963 </v>
   <v>       0.00462963 </v>
   <v>       0.00462963 </v>
   <v>       0.00462963 </v>
   <v>       0.00462963 </v>
   <v>       0.00462963 </v>
   <v>       0.00462963 </v>
   <v>       0.00462963 </v>
   <v>       0.00462963 </v>
   <v>       0.00231481 </v>
   <v>       0.00231481 </v>
   <v>       0.00462963 </v>
   <v>       0.00462963 </v>
   <v>       0.00462963 </v>
   <v>       0.00462963 </v>
   <v>       0.00462963 </v>
   <v>       0.00462963 </v>
   <v>       0.00462963 </v>
   <v>       0.00462963 </v>
   <v>       0.00462963 </v>
   <v>       0.00462963 </v>
   <v>       0.00462963 </v>
   <v>       0.00231481 </v>
   <v>       0.00231481 </v>
   <v>       0.00462963 </v>
   <v>       0.00462963 </v>
   <v>       0.00462963 </v>
   <v>       0.00462963 </v>
   <v>       0.00462963 </v>
   <v>       0.00462963 </v>
   <v>       0.00462963 </v>
   <v>       0.00462963 </v>
   <v>       0.00462963 </v>
   <v>       0.00462963 </v>
   <v>       0.00462963 </v>
   <v>       0.00231481 </v>
   <v>       0.00231481 </v>
   <v>       0.00462963 </v>
   <v>       0.00462963 </v>
   <v>       0.00462963 </v>
   <v>       0.00462963 </v>
   <v>       0.00462963 </v>
   <v>       0.00462963 </v>
   <v>       0.00462963 </v>
   <v>       0.00462963 </v>
   <v>       0.00462963 </v>
   <v>       0.00462963 </v>
   <v>       0.00462963 </v>
   <v>       0.00231481 </v>
   <v>       0.00231481 </v>
   <v>       0.00462963 </v>
   <v>       0.00462963 </v>
   <v>       0.00462963 </v>
   <v>       0.00462963 </v>
   <v>       0.00462963 </v>
   <v>       0.00462963 </v>
   <v>       0.00462963 </v>
   <v>       0.00462963 </v>
   <v>       0.00462963 </v>
   <v>       0.00462963 </v>
   <v>       0.00462963 </v>
   <v>       0.00231481 </v>
   <v>       0.00231481 </v>
   <v>       0.00462963 </v>
   <v>       0.00462963 </v>
   <v>       0.00462963 </v>
   <v>       0.00462963 </v>
   <v>       0.00462963 </v>
   <v>       0.00462963 </v>
   <v>       0.00462963 </v>
   <v>       0.00462963 </v>
   <v>       0.00462963 </v>
   <v>       0.00462963 </v>
   <v>       0.00462963 </v>
   <v>       0.00231481 </v>
   <v>       0.00231481 </v>
   <v>       0.00462963 </v>
   <v>       0.00462963 </v>
   <v>       0.00462963 </v>
   <v>       0.00462963 </v>
   <v>       0.00462963 </v>
   <v>       0.00462963 </v>
   <v>       0.00462963 </v>
   <v>       0.00462963 </v>
   <v>       0.00462963 </v>
   <v>       0.00462963 </v>
   <v>       0.00462963 </v>
   <v>       0.00231481 </v>
   <v>       0.00231481 </v>
   <v>       0.00462963 </v>
   <v>       0.00462963 </v>
   <v>       0.00462963 </v>
   <v>       0.00462963 </v>
   <v>       0.00462963 </v>
   <v>       0.00462963 </v>
   <v>       0.00462963 </v>
   <v>       0.00462963 </v>
   <v>       0.00462963 </v>
   <v>       0.00462963 </v>
   <v>       0.00462963 </v>
   <v>       0.00231481 </v>
   <v>       0.00231481 </v>
   <v>       0.00462963 </v>
   <v>       0.00462963 </v>
   <v>       0.00462963 </v>
   <v>       0.00462963 </v>
   <v>       0.00462963 </v>
   <v>       0.00462963 </v>
   <v>       0.00462963 </v>
   <v>       0.00462963 </v>
   <v>       0.00462963 </v>
   <v>       0.00462963 </v>
   <v>       0.00462963 </v>
   <v>       0.00231481 </v>
   <v>       0.00231481 </v>
   <v>       0.00462963 </v>
   <v>       0.00462963 </v>
   <v>       0.00462963 </v>
   <v>       0.00462963 </v>
   <v>       0.00462963 </v>
   <v>       0.00462963 </v>
   <v>       0.00462963 </v>
   <v>       0.00462963 </v>
   <v>       0.00462963 </v>
   <v>       0.00462963 </v>
   <v>       0.00462963 </v>
   <v>       0.00231481 </v>
   <v>       0.00231481 </v>
   <v>       0.00462963 </v>
   <v>       0.00462963 </v>
   <v>       0.00462963 </v>
   <v>       0.00462963 </v>
   <v>       0.00462963 </v>
   <v>       0.00462963 </v>
   <v>       0.00462963 </v>
   <v>       0.00462963 </v>
   <v>       0.00462963 </v>
   <v>       0.00462963 </v>
   <v>       0.00462963 </v>
   <v>       0.00231481 </v>
   <v>       0.00231481 </v>
   <v>       0.00462963 </v>
   <v>       0.00462963 </v>
   <v>       0.00462963 </v>
   <v>       0.00462963 </v>
   <v>       0.00462963 </v>
   <v>       0.00462963 </v>
   <v>       0.00462963 </v>
   <v>       0.00462963 </v>
   <v>       0.00462963 </v>
   <v>       0.00462963 </v>
   <v>       0.00462963 </v>
   <v>       0.00231481 </v>
   <v>       0.00231481 </v>
   <v>       0.00462963 </v>
   <v>       0.00462963 </v>
   <v>       0.00462963 </v>
   <v>       0.00462963 </v>
   <v>       0.00462963 </v>
   <v>       0.00462963 </v>
   <v>       0.00462963 </v>
   <v>       0.00462963 </v>
   <v>       0.00462963 </v>
   <v>       0.00462963 </v>
   <v>       0.00462963 </v>
   <v>       0.00231481 </v>
   <v>       0.00231481 </v>
   <v>       0.00462963 </v>
   <v>       0.00462963 </v>
   <v>       0.00462963 </v>
   <v>       0.00462963 </v>
   <v>       0.00462963 </v>
   <v>       0.00462963 </v>
   <v>       0.00462963 </v>
   <v>       0.00462963 </v>
   <v>       0.00462963 </v>
   <v>       0.00462963 </v>
   <v>       0.00462963 </v>
   <v>       0.00231481 </v>
   <v>       0.00115741 </v>
   <v>       0.00231481 </v>
   <v>       0.00231481 </v>
   <v>       0.00231481 </v>
   <v>       0.00231481 </v>
   <v>       0.00231481 </v>
   <v>       0.00231481 </v>
   <v>       0.00231481 </v>
   <v>       0.00231481 </v>
   <v>       0.00231481 </v>
   <v>       0.00231481 </v>
   <v>       0.00231481 </v>
   <v>       0.00115741 </v>
  </varray>
 </kpoints>
 <parameters>
  <separator name="general" >
   <i type="string" name="SYSTEM">gr</i>
   <i type="logical" name="LCOMPAT"> F  </i>
  </separator>
  <separator name="electronic" >
   <i type="string" name="PREC">accura</i>
   <i name="ENMAX">   2000.00000000</i>
   <i name="ENAUG">    644.87300000</i>
   <i name="EDIFF">      0.00000000</i>
   <i type="int" name="IALGO">    68</i>
   <i type="int" name="IWAVPR">    11</i>
   <i type="int" name="NBANDS">    12</i>
   <i name="NELECT">     16.00000000</i>
   <i type="int" name="TURBO">     0</i>
   <i type="int" name="IRESTART">     0</i>
   <i type="int" name="NREBOOT">     0</i>
   <i type="int" name="NMIN">     0</i>
   <i name="EREF">      0.00000000</i>
   <separator name="electronic smearing" >
    <i type="int" name="ISMEAR">     0</i>
    <i name="SIGMA">      0.05000000</i>
    <i name="KSPACING">      0.50000000</i>
    <i type="logical" name="KGAMMA"> T  </i>
   </separator>
   <separator name="electronic projectors" >
    <i type="logical" name="LREAL"> F  </i>
    <v name="ROPT">      0.00000000</v>
    <i type="int" name="LMAXPAW">  -100</i>
    <i type="int" name="LMAXMIX">     2</i>
    <i type="logical" name="NLSPLINE"> F  </i>
   </separator>
   <separator name="electronic startup" >
    <i type="int" name="ISTART">     0</i>
    <i type="int" name="ICHARG">     2</i>
    <i type="int" name="INIWAV">     1</i>
   </separator>
   <separator name="electronic spin" >
    <i type="int" name="ISPIN">     1</i>
    <i type="logical" name="LNONCOLLINEAR"> F  </i>
    <v name="MAGMOM">      1.00000000      1.00000000      1.00000000      1.00000000</v>
    <i name="NUPDOWN">     -1.00000000</i>
    <i type="logical" name="LSORBIT"> F  </i>
    <v name="SAXIS">      0.00000000      0.00000000      1.00000000</v>
    <i type="logical" name="LSPIRAL"> F  </i>
    <v name="QSPIRAL">      0.00000000      0.00000000      0.00000000</v>
    <i type="logical" name="LZEROZ"> F  </i>
   </separator>
   <separator name="electronic exchange-correlation" >
    <i type="logical" name="LASPH"> F  </i>
    <i type="logical" name="LMETAGGA"> F  </i>
   </separator>
   <separator name="electronic convergence" >
    <i type="int" name="NELM">   100</i>
    <i type="int" name="NELMDL">    -3</i>
    <i type="int" name="NELMIN">     5</i>
    <i name="ENINI">   2000.00000000</i>
    <separator name="electronic convergence detail" >
     <i type="logical" name="LDIAG"> T  </i>
     <i type="logical" name="LSUBROT"> F  </i>
     <i name="WEIMIN">      0.00100000</i>
     <i name="EBREAK">      0.00000000</i>
     <i name="DEPER">      0.30000000</i>
     <i type="int" name="NRMM">     4</i>
     <i name="TIME">      0.40000000</i>
    </separator>
   </separator>
   <separator name="electronic mixer" >
    <i name="AMIX">      0.40000000</i>
    <i name="BMIX">      1.00000000</i>
    <i name="AMIN">      0.10000000</i>
    <i name="AMIX_MAG">      1.60000000</i>
    <i name="BMIX_MAG">      1.00000000</i>
    <separator name="electronic mixer details" >
     <i type="int" name="IMIX">     4</i>
     <i type="int" name="MAXMIX">   -45</i>
     <i name="WC">    100.00000000</i>
     <i type="int" name="INIMIX">     1</i>
     <i type="int" name="MIXPRE">     1</i>
     <i type="int" name="MREMOVE">     5</i>
    </separator>
   </separator>
   <separator name="electronic dipolcorrection" >
    <i type="logical" name="LDIPOL"> F  </i>
    <i type="logical" name="LMONO"> F  </i>
    <i type="int" name="IDIPOL">     0</i>
    <i name="EPSILON">      1.00000000</i>
    <v name="DIPOL">   -100.00000000   -100.00000000   -100.00000000</v>
    <i name="EFIELD">      0.00000000</i>
   </separator>
  </separator>
  <separator name="grids" >
   <i type="int" name="NGX">    64</i>
   <i type="int" name="NGY">    36</i>
   <i type="int" name="NGZ">   294</i>
   <i type="int" name="NGXF">   128</i>
   <i type="int" name="NGYF">    72</i>
   <i type="int" name="NGZF">   588</i>
   <i type="logical" name="ADDGRID"> F  </i>
  </separator>
  <separator name="ionic" >
   <i type="int" name="NSW">   400</i>
   <i type="int" name="IBRION">     1</i>
   <i type="int" name="ISIF">     2</i>
   <i name="PSTRESS">      0.00000000</i>
   <i name="EDIFFG">     -0.00000100</i>
   <i type="int" name="NFREE">     0</i>
   <i name="POTIM">      0.50000000</i>
   <i name="SMASS">     -3.00000000</i>
   <i name="SCALEE">      1.00000000</i>
  </separator>
  <separator name="ionic md" >
   <i name="TEBEG">      0.00010000</i>
   <i name="TEEND">      0.00010000</i>
   <i type="int" name="NBLOCK">     1</i>
   <i type="int" name="KBLOCK">   400</i>
   <i type="int" name="NPACO">   256</i>
   <i name="APACO">     16.00000000</i>
  </separator>
  <separator name="symmetry" >
   <i type="int" name="ISYM">     2</i>
   <i name="SYMPREC">      0.00001000</i>
  </separator>
  <separator name="dos" >
   <i type="logical" name="LORBIT"> F  </i>
   <v name="RWIGS">     -1.00000000</v>
   <i type="int" name="NEDOS">   301</i>
   <i name="EMIN">     10.00000000</i>
   <i name="EMAX">    -10.00000000</i>
   <i name="EFERMI">      0.00000000</i>
  </separator>
  <separator name="writing" >
   <i type="int" name="NWRITE">     2</i>
   <i type="logical" name="LWAVE"> F  </i>
   <i type="logical" name="LCHARG"> F  </i>
   <i type="logical" name="LPARD"> F  </i>
   <i type="logical" name="LVTOT"> F  </i>
   <i type="logical" name="LVHAR"> F  </i>
   <i type="logical" name="LELF"> F  </i>
   <i type="logical" name="LOPTICS"> F  </i>
   <v name="STM">      0.00000000      0.00000000      0.00000000      0.00000000      0.00000000      0.00000000      0.00000000</v>
  </separator>
  <separator name="performance" >
   <i type="int" name="NPAR">     4</i>
   <i type="int" name="NSIM">     4</i>
   <i type="int" name="NBLK">    -1</i>
   <i type="logical" name="LPLANE"> T  </i>
   <i type="logical" name="LSCALAPACK"> F  </i>
   <i type="logical" name="LSCAAWARE"> F  </i>
   <i type="logical" name="LSCALU"> F  </i>
   <i type="logical" name="LASYNC"> F  </i>
   <i type="logical" name="LORBITALREAL"> F  </i>
  </separator>
  <separator name="miscellaneous" >
   <i type="int" name="IDIOT">     3</i>
   <i type="logical" name="LMUSIC"> F  </i>
   <v name="POMASS">     12.01100000</v>
   <v name="DARWINR">      0.00000000</v>
   <v name="DARWINV">      1.00000000</v>
   <i type="logical" name="LCORR"> T  </i>
  </separator>
  <i type="logical" name="GGA_COMPAT"> T  </i>
  <i type="logical" name="LBERRY"> F  </i>
  <i type="int" name="ICORELEVEL">     0</i>
  <i type="logical" name="LDAU"> F  </i>
  <i type="int" name="I_CONSTRAINED_M">     0</i>
  <separator name="electronic exchange-correlation" >
   <i type="string" name="GGA">--</i>
   <i type="int" name="VOSKOWN">     0</i>
   <i type="logical" name="LHFCALC"> F  </i>
   <i type="string" name="PRECFOCK"></i>
   <i type="logical" name="LSYMGRAD"> F  </i>
   <i type="logical" name="LHFONE"> F  </i>
   <i type="logical" name="LRHFCALC"> F  </i>
   <i type="logical" name="LTHOMAS"> F  </i>
   <i type="logical" name="LMODELHF"> F  </i>
   <i name="ENCUT4O">     -1.00000000</i>
   <i type="int" name="EXXOEP">     0</i>
   <i type="int" name="FOURORBIT">     0</i>
   <i name="AEXX">      0.00000000</i>
   <i name="HFALPHA">      0.00000000</i>
   <i name="MCALPHA">      0.00000000</i>
   <i name="ALDAX">      1.00000000</i>
   <i name="AGGAX">      1.00000000</i>
   <i name="ALDAC">      1.00000000</i>
   <i name="AGGAC">      1.00000000</i>
   <i type="int" name="NKREDX">     1</i>
   <i type="int" name="NKREDY">     1</i>
   <i type="int" name="NKREDZ">     1</i>
   <i type="logical" name="SHIFTRED"> F  </i>
   <i type="logical" name="ODDONLY"> F  </i>
   <i type="logical" name="EVENONLY"> F  </i>
   <i type="int" name="LMAXFOCK">     0</i>
   <i type="int" name="NMAXFOCKAE">     0</i>
   <i type="logical" name="LFOCKAEDFT"> F  </i>
   <i name="HFSCREEN">      0.00000000</i>
   <i name="HFSCREENC">      0.00000000</i>
   <i type="int" name="NBANDSGWLOW">     0</i>
  </separator>
  <separator name="vdW DFT" >
   <i type="logical" name="LUSE_VDW"> F  </i>
   <i name="Zab_VDW">     -0.84910000</i>
   <i name="PARAM1">      0.12340000</i>
   <i name="PARAM2">      1.00000000</i>
   <i name="PARAM3">      0.00000000</i>
  </separator>
  <separator name="model GW" >
   <i type="int" name="MODEL_GW">     0</i>
   <i name="MODEL_EPS0">     31.62568521</i>
   <i name="MODEL_ALPHA">      1.00000000</i>
  </separator>
  <separator name="linear response parameters" >
   <i type="logical" name="LEPSILON"> F  </i>
   <i type="logical" name="LRPA"> F  </i>
   <i type="logical" name="LNABLA"> F  </i>
   <i type="logical" name="LVEL"> F  </i>
   <i type="int" name="KINTER">     0</i>
   <i name="CSHIFT">      0.10000000</i>
   <i name="OMEGAMAX">     -1.00000000</i>
   <i name="DEG_THRESHOLD">      0.00200000</i>
  </separator>
  <separator name="orbital magnetization" >
   <i type="logical" name="NUCIND"> F  </i>
   <v name="MAGPOS">      0.00000000      0.00000000      0.00000000</v>
   <i type="logical" name="LNICSALL"> T  </i>
   <i type="logical" name="ORBITALMAG"> F  </i>
   <i type="logical" name="LMAGBLOCH"> F  </i>
   <i type="logical" name="LCHIMAG"> F  </i>
   <i type="logical" name="LGAUGE"> T  </i>
   <i type="int" name="MAGATOM">     0</i>
   <v name="MAGDIPOL">      0.00000000      0.00000000      0.00000000</v>
   <v name="AVECCONST">      0.00000000      0.00000000      0.00000000</v>
  </separator>
  <separator name="response functions" >
   <i type="logical" name="LADDER"> F  </i>
   <i type="logical" name="LFXC"> F  </i>
   <i type="logical" name="LHARTREE"> T  </i>
   <i type="int" name="IBSE">     0</i>
   <i type="logical" name="LTCTE"> F  </i>
   <i type="logical" name="LTETE"> F  </i>
   <i type="logical" name="LTRIPLET"> F  </i>
   <i type="logical" name="LFXCEPS"> F  </i>
   <i type="logical" name="LFXHEG"> F  </i>
   <i type="logical" name="L2ORDER"> F  </i>
   <i type="logical" name="LUSEW"> F  </i>
   <i name="ENCUTGW">     -2.00000000</i>
   <i name="ENCUTGWSOFT">     -2.00000000</i>
   <i name="ENCUTLF">     -1.00000000</i>
   <i type="int" name="LMAXMP2">    -1</i>
   <i name="SCISSOR">      0.00000000</i>
   <i type="int" name="NOMEGA">     0</i>
   <i type="int" name="NOMEGAR">     0</i>
   <i type="int" name="NBANDSGW">    -1</i>
   <i type="int" name="NBANDSO">    -1</i>
   <i type="int" name="NBANDSV">    -1</i>
   <i type="int" name="NELM">   100</i>
   <i type="int" name="DIM">     3</i>
   <i type="int" name="ANTIRES">     0</i>
   <i name="OMEGAMAX">    -30.00000000</i>
   <i name="OMEGAMIN">    -30.00000000</i>
   <i name="OMEGATL">   -200.00000000</i>
   <i type="int" name="OMEGAGRID">     0</i>
   <i name="CSHIFT">     -0.10000000</i>
   <i type="logical" name="SELFENERGY"> F  </i>
   <i type="logical" name="LSPECTRAL"> F  </i>
   <i type="logical" name="ODDONLYGW"> F  </i>
   <i type="logical" name="EVENONLYGW"> F  </i>
   <i type="int" name="NKREDLFX">     1</i>
   <i type="int" name="NKREDLFY">     1</i>
   <i type="int" name="NKREDLFZ">     1</i>
   <i type="int" name="MAXMEM">  1800</i>
   <i type="int" name="TELESCOPE">     0</i>
   <i type="int" name="TAUPAR">     1</i>
  </separator>
  <separator name="External order field" >
   <i name="OFIELD_KAPPA">      0.00000000</i>
   <v name="OFIELD_K">      0.00000000      0.00000000      0.00000000</v>
   <i name="OFIELD_Q6_NEAR">      0.00000000</i>
   <i name="OFIELD_Q6_FAR">      0.00000000</i>
   <i name="OFIELD_A">      0.00000000</i>
  </separator>
 </parameters>
 <atominfo>
  <atoms>       4 </atoms>
  <types>       1 </types>
  <array name="atoms" >
   <dimension dim="1">ion</dimension>
   <field type="string">element</field>
   <field type="int">atomtype</field>
   <set>
    <rc><c>C </c><c>   1</c></rc>
    <rc><c>C </c><c>   1</c></rc>
    <rc><c>C </c><c>   1</c></rc>
    <rc><c>C </c><c>   1</c></rc>
   </set>
  </array>
  <array name="atomtypes" >
   <dimension dim="1">type</dimension>
   <field type="int">atomspertype</field>
   <field type="string">element</field>
   <field>mass</field>
   <field>valence</field>
   <field type="string">pseudopotential</field>
   <set>
    <rc><c>   4</c><c>C </c><c>     12.01100000</c><c>      4.00000000</c><c> PAW_PBE C 08Apr2002                    </c></rc>
   </set>
  </array>
 </atominfo>
 <structure name="initialpos" >
  <crystal>
   <varray name="basis" >
    <v>       4.27363885       0.00000000       0.00000000 </v>
    <v>       0.00000000       2.46754601       0.00000000 </v>
    <v>       0.00000000       0.00000000      19.99335176 </v>
   </varray>
   <i name="volume">    210.83790140 </i>
   <varray name="rec_basis" >
    <v>       0.23399263       0.00000000       0.00000000 </v>
    <v>       0.00000000       0.40526093       0.00000000 </v>
    <v>       0.00000000       0.00000000       0.05001663 </v>
   </varray>
  </crystal>
  <varray name="positions" >
   <v>       0.00013158       0.00000000       0.00000000 </v>
   <v>       0.16653509       0.50000000       0.00000000 </v>
   <v>       0.50013158       0.50000000       0.00000000 </v>
   <v>       0.66653509       0.00000000       0.00000000 </v>
  </varray>
 </structure>
 <calculation>
  <scstep>
   <time name="dav">  292.26  292.50</time>
   <time name="total">  294.72  294.99</time>
   <energy>
    <i name="alphaZ">      6.18334092 </i>
    <i name="ewald">   2584.60984913 </i>
    <i name="hartreedc">  -3010.05767289 </i>
    <i name="XCdc">     55.09311898 </i>
    <i name="pawpsdc">    151.32577238 </i>
    <i name="pawaedc">   -155.92769107 </i>
    <i name="eentropy">     -0.00178902 </i>
    <i name="bandstr">    -28.99871631 </i>
    <i name="atom">    588.62352690 </i>
    <i name="e_fr_energy">    190.84973903 </i>
    <i name="e_wo_entrp">    190.85152804 </i>
    <i name="e_0_energy">    190.85063353 </i>
   </energy>
  </scstep>
  <scstep>
   <time name="dav">  441.38  442.49</time>
   <time name="total">  441.39  442.50</time>
   <energy>
    <i name="e_fr_energy">     -9.05697875 </i>
    <i name="e_wo_entrp">     -9.05651956 </i>
    <i name="e_0_energy">     -9.05674915 </i>
   </energy>
  </scstep>
  <scstep>
   <time name="dav">  339.95  341.50</time>
   <time name="total">  370.26  371.98</time>
   <energy>
    <i name="e_fr_energy">    -38.36004331 </i>
    <i name="e_wo_entrp">    -38.36000285 </i>
    <i name="e_0_energy">    -38.36002308 </i>
   </energy>
  </scstep>
  <scstep>
   <time name="diag">   79.46   79.83</time>
   <time name="diis">  337.65  338.60</time>
   <time name="orth">    3.14    3.14</time>
   <time name="total">  452.90  454.44</time>
   <energy>
    <i name="e_fr_energy">    -37.70899960 </i>
    <i name="e_wo_entrp">    -37.70887456 </i>
    <i name="e_0_energy">    -37.70893708 </i>
   </energy>
  </scstep>
  <scstep>
   <time name="diag">   79.85   79.87</time>
   <time name="diis">  335.98  336.03</time>
   <time name="orth">    3.10    3.10</time>
   <time name="total">  451.63  451.75</time>
   <energy>
    <i name="e_fr_energy">    -36.93645287 </i>
    <i name="e_wo_entrp">    -36.93632466 </i>
    <i name="e_0_energy">    -36.93638877 </i>
   </energy>
  </scstep>
  <scstep>
   <time name="diag">   79.81   79.82</time>
   <time name="diis">  366.65  366.75</time>
   <time name="orth">    3.09    3.09</time>
   <time name="total">  482.24  482.43</time>
   <energy>
    <i name="e_fr_energy">    -36.93814403 </i>
    <i name="e_wo_entrp">    -36.93801577 </i>
    <i name="e_0_energy">    -36.93807990 </i>
   </energy>
  </scstep>
  <scstep>
   <time name="diag">   79.80   79.82</time>
   <time name="diis">  333.73  333.97</time>
   <time name="orth">    3.06    3.07</time>
   <time name="total">  449.37  449.64</time>
   <energy>
    <i name="e_fr_energy">    -36.92842564 </i>
    <i name="e_wo_entrp">    -36.92829761 </i>
    <i name="e_0_energy">    -36.92836163 </i>
   </energy>
  </scstep>
  <scstep>
   <time name="diag">   79.44   79.79</time>
   <time name="diis">  333.32  333.54</time>
   <time name="orth">    3.07    3.07</time>
   <time name="total">  448.53  449.11</time>
   <energy>
    <i name="e_fr_energy">    -36.92248882 </i>
    <i name="e_wo_entrp">    -36.92236079 </i>
    <i name="e_0_energy">    -36.92242481 </i>
   </energy>
  </scstep>
  <scstep>
   <time name="diag">   79.76   79.77</time>
   <time name="diis">  323.93  323.99</time>
   <time name="orth">    3.07    3.08</time>
   <time name="total">  439.48  439.63</time>
   <energy>
    <i name="e_fr_energy">    -36.92212777 </i>
    <i name="e_wo_entrp">    -36.92199978 </i>
    <i name="e_0_energy">    -36.92206378 </i>
   </energy>
  </scstep>
  <scstep>
   <time name="diag">   79.75   79.77</time>
   <time name="diis">  324.67  324.75</time>
   <time name="orth">    3.08    3.08</time>
   <time name="total">  440.19  440.28</time>
   <energy>
    <i name="e_fr_energy">    -36.92201273 </i>
    <i name="e_wo_entrp">    -36.92188473 </i>
    <i name="e_0_energy">    -36.92194873 </i>
   </energy>
  </scstep>
  <scstep>
   <time name="diag">   79.59   79.72</time>
   <time name="diis">  325.91  326.92</time>
   <time name="orth">    3.15    3.15</time>
   <time name="total">  441.32  442.51</time>
   <energy>
    <i name="e_fr_energy">    -36.92458784 </i>
    <i name="e_wo_entrp">    -36.92445982 </i>
    <i name="e_0_energy">    -36.92452383 </i>
   </energy>
  </scstep>
  <scstep>
   <time name="diag">   79.70   79.72</time>
   <time name="diis">  324.15  324.20</time>
   <time name="orth">    3.09    3.09</time>
   <time name="total">  439.70  439.78</time>
   <energy>
    <i name="e_fr_energy">    -36.92505538 </i>
    <i name="e_wo_entrp">    -36.92492738 </i>
    <i name="e_0_energy">    -36.92499138 </i>
   </energy>
  </scstep>
  <scstep>
   <time name="diag">   79.60   79.72</time>
   <time name="diis">  331.58  331.64</time>
   <time name="orth">    3.07    3.07</time>
   <time name="total">  446.94  447.26</time>
   <energy>
    <i name="e_fr_energy">    -36.92531018 </i>
    <i name="e_wo_entrp">    -36.92518218 </i>
    <i name="e_0_energy">    -36.92524618 </i>
   </energy>
  </scstep>
  <scstep>
   <time name="diag">   79.39   79.65</time>
   <time name="diis">  324.46  325.39</time>
   <time name="orth">    3.09    3.09</time>
   <time name="total">  439.64  440.85</time>
   <energy>
    <i name="e_fr_energy">    -36.92539773 </i>
    <i name="e_wo_entrp">    -36.92526972 </i>
    <i name="e_0_energy">    -36.92533373 </i>
   </energy>
  </scstep>
  <scstep>
   <time name="diag">   79.67   79.69</time>
   <time name="diis">  328.49  328.58</time>
   <time name="orth">    3.07    3.07</time>
   <time name="total">  443.94  444.08</time>
   <energy>
    <i name="e_fr_energy">    -36.92540477 </i>
    <i name="e_wo_entrp">    -36.92527677 </i>
    <i name="e_0_energy">    -36.92534077 </i>
   </energy>
  </scstep>
  <scstep>
   <time name="diag">   79.71   79.73</time>
   <time name="diis">  331.67  331.73</time>
   <time name="orth">    3.09    3.09</time>
   <time name="total">  447.26  447.37</time>
   <energy>
    <i name="e_fr_energy">    -36.92541593 </i>
    <i name="e_wo_entrp">    -36.92528793 </i>
    <i name="e_0_energy">    -36.92535193 </i>
   </energy>
  </scstep>
  <scstep>
   <time name="diag">   79.79   79.81</time>
   <time name="diis">  330.86  330.95</time>
   <time name="orth">    3.09    3.09</time>
   <time name="total">  446.44  446.98</time>
   <energy>
    <i name="e_fr_energy">    -36.92541932 </i>
    <i name="e_wo_entrp">    -36.92529132 </i>
    <i name="e_0_energy">    -36.92535532 </i>
   </energy>
  </scstep>
  <scstep>
   <time name="diag">   79.75   79.76</time>
   <time name="diis">  322.44  323.14</time>
   <time name="orth">    3.09    3.09</time>
   <time name="total">  438.08  438.82</time>
   <energy>
    <i name="e_fr_energy">    -36.92542143 </i>
    <i name="e_wo_entrp">    -36.92529342 </i>
    <i name="e_0_energy">    -36.92535743 </i>
   </energy>
  </scstep>
  <scstep>
   <time name="diag">   79.73   79.74</time>
   <time name="diis">  331.61  331.71</time>
   <time name="orth">    3.07    3.07</time>
   <time name="total">  447.21  447.33</time>
   <energy>
    <i name="e_fr_energy">    -36.92542176 </i>
    <i name="e_wo_entrp">    -36.92529376 </i>
    <i name="e_0_energy">    -36.92535776 </i>
   </energy>
  </scstep>
  <scstep>
   <time name="diag">   79.77   79.80</time>
   <time name="diis">  258.81  260.00</time>
   <time name="orth">    3.07    3.07</time>
   <time name="total">  374.27  375.66</time>
   <energy>
    <i name="e_fr_energy">    -36.92542181 </i>
    <i name="e_wo_entrp">    -36.92529380 </i>
    <i name="e_0_energy">    -36.92535780 </i>
   </energy>
  </scstep>
  <scstep>
   <time name="diag">   79.53   79.77</time>
   <time name="diis">  244.05  244.09</time>
   <time name="orth">    3.07    3.07</time>
   <time name="total">  359.43  359.74</time>
   <energy>
    <i name="e_fr_energy">    -36.92542182 </i>
    <i name="e_wo_entrp">    -36.92529382 </i>
    <i name="e_0_energy">    -36.92535782 </i>
   </energy>
  </scstep>
  <scstep>
   <time name="diag">   79.77   79.79</time>
   <time name="diis">  222.19  222.23</time>
   <time name="orth">    3.10    3.10</time>
   <time name="total">  337.82  337.89</time>
   <energy>
    <i name="e_fr_energy">    -36.92542182 </i>
    <i name="e_wo_entrp">    -36.92529382 </i>
    <i name="e_0_energy">    -36.92535782 </i>
   </energy>
  </scstep>
  <scstep>
   <time name="diag">   79.77   79.79</time>
   <time name="diis">  214.05  214.09</time>
   <time name="orth">    3.09    3.09</time>
   <time name="total">  329.67  329.73</time>
   <energy>
    <i name="e_fr_energy">    -36.92542182 </i>
    <i name="e_wo_entrp">    -36.92529382 </i>
    <i name="e_0_energy">    -36.92535782 </i>
   </energy>
  </scstep>
  <scstep>
   <time name="diag">   79.61   79.62</time>
   <time name="diis">  199.29  199.33</time>
   <time name="orth">    3.09    3.09</time>
   <time name="total">  284.37  284.43</time>
   <energy>
    <i name="alphaZ">      6.18334092 </i>
    <i name="ewald">   2584.60984913 </i>
    <i name="hartreedc">  -3078.56059009 </i>
    <i name="XCdc">     57.51648522 </i>
    <i name="pawpsdc">    276.94570492 </i>
    <i name="pawaedc">   -282.09395923 </i>
    <i name="eentropy">     -0.00012800 </i>
    <i name="bandstr">   -190.14965161 </i>
    <i name="atom">    588.62352690 </i>
    <i name="e_fr_energy">    -36.92542182 </i>
    <i name="e_wo_entrp">    -36.92529382 </i>
    <i name="e_0_energy">    -36.92535782 </i>
   </energy>
  </scstep>
  <structure>
   <crystal>
    <varray name="basis" >
     <v>       4.27363885       0.00000000       0.00000000 </v>
     <v>       0.00000000       2.46754601       0.00000000 </v>
     <v>       0.00000000       0.00000000      19.99335176 </v>
    </varray>
    <i name="volume">    210.83790140 </i>
    <varray name="rec_basis" >
     <v>       0.23399263       0.00000000       0.00000000 </v>
     <v>       0.00000000       0.40526093       0.00000000 </v>
     <v>       0.00000000       0.00000000       0.05001663 </v>
    </varray>
   </crystal>
   <varray name="positions" >
    <v>       0.00013158       0.00000000       0.00000000 </v>
    <v>       0.16653509       0.50000000       0.00000000 </v>
    <v>       0.50013158       0.50000000       0.00000000 </v>
    <v>       0.66653509       0.00000000       0.00000000 </v>
   </varray>
  </structure>
  <varray name="forces" >
   <v>      -0.05722147       0.00000000      -0.00000000 </v>
   <v>       0.05722147      -0.00000000       0.00000000 </v>
   <v>      -0.05722147      -0.00000000      -0.00000000 </v>
   <v>       0.05722147       0.00000000       0.00000000 </v>
  </varray>
  <varray name="stress" >
   <v>      -0.31654135       0.00000000       0.00000000 </v>
   <v>       0.00000000      -0.09242605       0.00000000 </v>
   <v>       0.00000000       0.00000000      -0.01001195 </v>
  </varray>
  <energy>
   <i name="e_fr_energy">    -36.92542182 </i>
   <i name="e_wo_entrp">    -36.92535782 </i>
   <i name="e_0_energy">     -0.00012800 </i>
  </energy>
  <time name="totalsc">10047.0810059.76</time>
 </calculation>
 <calculation>
  <scstep>
   <time name="dav">  321.37  321.96</time>
   <time name="total">  353.91  354.68</time>
   <energy>
    <i name="alphaZ">      6.18334092 </i>
    <i name="ewald">   2584.61322964 </i>
    <i name="hartreedc">  -3078.56104924 </i>
    <i name="XCdc">     57.51651607 </i>
    <i name="pawpsdc">    276.94571723 </i>
    <i name="pawaedc">   -282.09397171 </i>
    <i name="eentropy">     -0.00008417 </i>
    <i name="bandstr">   -190.15170447 </i>
    <i name="atom">    588.62352690 </i>
    <i name="e_fr_energy">    -36.92447882 </i>
    <i name="e_wo_entrp">    -36.92439465 </i>
    <i name="e_0_energy">    -36.92443673 </i>
   </energy>
  </scstep>
  <scstep>
   <time name="diag">   79.40   79.78</time>
   <time name="diis">  324.67  325.70</time>
   <time name="orth">    3.07    3.07</time>
   <time name="total">  439.87  441.30</time>
   <energy>
    <i name="e_fr_energy">    -36.92451857 </i>
    <i name="e_wo_entrp">    -36.92443132 </i>
    <i name="e_0_energy">    -36.92447495 </i>
   </energy>
  </scstep>
  <scstep>
   <time name="diag">   79.77   79.79</time>
   <time name="diis">  328.98  329.06</time>
   <time name="orth">    3.09    3.09</time>
   <time name="total">  444.58  444.69</time>
   <energy>
    <i name="e_fr_energy">    -36.92447379 </i>
    <i name="e_wo_entrp">    -36.92438114 </i>
    <i name="e_0_energy">    -36.92442746 </i>
   </energy>
  </scstep>
  <scstep>
   <time name="diag">   79.73   79.74</time>
   <time name="diis">  336.27  336.33</time>
   <time name="orth">    3.07    3.07</time>
   <time name="total">  451.77  451.86</time>
   <energy>
    <i name="e_fr_energy">    -36.92446948 </i>
    <i name="e_wo_entrp">    -36.92437813 </i>
    <i name="e_0_energy">    -36.92442380 </i>
   </energy>
  </scstep>
  <scstep>
   <time name="diag">   79.69   79.71</time>
   <time name="diis">  341.91  341.97</time>
   <time name="orth">    3.09    3.09</time>
   <time name="total">  457.41  457.53</time>
   <energy>
    <i name="e_fr_energy">    -36.92446963 </i>
    <i name="e_wo_entrp">    -36.92437843 </i>
    <i name="e_0_energy">    -36.92442403 </i>
   </energy>
  </scstep>
  <scstep>
   <time name="diag">   79.69   79.72</time>
   <time name="diis">  336.97  337.05</time>
   <time name="orth">    3.07    3.07</time>
   <time name="total">  452.61  452.72</time>
   <energy>
    <i name="e_fr_energy">    -36.92446954 </i>
    <i name="e_wo_entrp">    -36.92437818 </i>
    <i name="e_0_energy">    -36.92442386 </i>
   </energy>
  </scstep>
  <scstep>
   <time name="diag">   79.73   79.74</time>
   <time name="diis">  331.69  331.75</time>
   <time name="orth">    3.09    3.09</time>
   <time name="total">  447.27  447.59</time>
   <energy>
    <i name="e_fr_energy">    -36.92446954 </i>
    <i name="e_wo_entrp">    -36.92437817 </i>
    <i name="e_0_energy">    -36.92442386 </i>
   </energy>
  </scstep>
  <scstep>
   <time name="diag">   79.70   79.71</time>
   <time name="diis">  302.69  302.74</time>
   <time name="orth">    3.09    3.09</time>
   <time name="total">  418.33  418.40</time>
   <energy>
    <i name="e_fr_energy">    -36.92446954 </i>
    <i name="e_wo_entrp">    -36.92437818 </i>
    <i name="e_0_energy">    -36.92442386 </i>
   </energy>
  </scstep>
  <scstep>
   <time name="diag">   79.73   79.75</time>
   <time name="diis">  220.33  220.52</time>
   <time name="orth">    3.08    3.09</time>
   <time name="total">  335.86  336.12</time>
   <energy>
    <i name="e_fr_energy">    -36.92446954 </i>
    <i name="e_wo_entrp">    -36.92437818 </i>
    <i name="e_0_energy">    -36.92442386 </i>
   </energy>
  </scstep>
  <scstep>
   <time name="diag">   79.66   79.70</time>
   <time name="diis">  217.97  218.03</time>
   <time name="orth">    3.20    3.20</time>
   <time name="total">  333.65  333.75</time>
   <energy>
    <i name="e_fr_energy">    -36.92446954 </i>
    <i name="e_wo_entrp">    -36.92437818 </i>
    <i name="e_0_energy">    -36.92442386 </i>
   </energy>
  </scstep>
  <scstep>
   <time name="diag">   79.73   79.74</time>
   <time name="diis">  207.38  207.45</time>
   <time name="orth">    3.07    3.07</time>
   <time name="total">  292.55  292.68</time>
   <energy>
    <i name="alphaZ">      6.18334092 </i>
    <i name="ewald">   2584.61322964 </i>
    <i name="hartreedc">  -3078.56322110 </i>
    <i name="XCdc">     57.51661954 </i>
    <i name="pawpsdc">    276.95220779 </i>
    <i name="pawaedc">   -282.10049782 </i>
    <i name="eentropy">     -0.00009137 </i>
    <i name="bandstr">   -190.14958406 </i>
    <i name="atom">    588.62352690 </i>
    <i name="e_fr_energy">    -36.92446954 </i>
    <i name="e_wo_entrp">    -36.92437818 </i>
    <i name="e_0_energy">    -36.92442386 </i>
   </energy>
  </scstep>
  <structure>
   <crystal>
    <varray name="basis" >
     <v>       4.27363885       0.00000000       0.00000000 </v>
     <v>       0.00000000       2.46754601       0.00000000 </v>
     <v>       0.00000000       0.00000000      19.99335176 </v>
    </varray>
    <i name="volume">    210.83790140 </i>
    <varray name="rec_basis" >
     <v>       0.23399263       0.00000000       0.00000000 </v>
     <v>       0.00000000       0.40526093       0.00000000 </v>
     <v>       0.00000000       0.00000000       0.05001663 </v>
    </varray>
   </crystal>
   <varray name="positions" >
    <v>      -0.00051436       0.00000000      -0.00000000 </v>
    <v>       0.16718103       0.50000000       0.00000000 </v>
    <v>       0.49948564       0.50000000      -0.00000000 </v>
    <v>       0.66718103       0.00000000       0.00000000 </v>
   </varray>
  </structure>
  <varray name="forces" >
   <v>       0.23098888       0.00000000      -0.00000000 </v>
   <v>      -0.23098888       0.00000000       0.00000000 </v>
   <v>       0.23098888      -0.00000000      -0.00000000 </v>
   <v>      -0.23098888       0.00000000       0.00000000 </v>
  </varray>
  <varray name="stress" >
   <v>       0.53496833       0.00000000       0.00000000 </v>
   <v>       0.00000000      -0.90214143       0.00000000 </v>
   <v>       0.00000000       0.00000000      -0.01004195 </v>
  </varray>
  <energy>
   <i name="e_fr_energy">    -36.92446954 </i>
   <i name="e_wo_entrp">    -36.92442386 </i>
   <i name="e_0_energy">     -0.00009137 </i>
  </energy>
  <time name="totalsc"> 4529.29 4538.63</time>
 </calculation>
 <calculation>
  <scstep>
   <time name="dav">  304.65  305.50</time>
   <time name="total">  337.11  338.12</time>
   <energy>
    <i name="alphaZ">      6.18334092 </i>
    <i name="ewald">   2584.60965606 </i>
    <i name="hartreedc">  -3078.56190785 </i>
    <i name="XCdc">     57.51652485 </i>
    <i name="pawpsdc">    276.95220825 </i>
    <i name="pawaedc">   -282.10049828 </i>
    <i name="eentropy">     -0.00013031 </i>
    <i name="bandstr">   -190.14821358 </i>
    <i name="atom">    588.62352690 </i>
    <i name="e_fr_energy">    -36.92549302 </i>
    <i name="e_wo_entrp">    -36.92536272 </i>
    <i name="e_0_energy">    -36.92542787 </i>
   </energy>
  </scstep>
  <scstep>
   <time name="diag">   79.30   79.69</time>
   <time name="diis">  321.18  321.61</time>
   <time name="orth">    3.09    3.09</time>
   <time name="total">  436.34  437.20</time>
   <energy>
    <i name="e_fr_energy">    -36.92551688 </i>
    <i name="e_wo_entrp">    -36.92538636 </i>
    <i name="e_0_energy">    -36.92545162 </i>
   </energy>
  </scstep>
  <scstep>
   <time name="diag">   79.72   79.73</time>
   <time name="diis">  325.14  325.20</time>
   <time name="orth">    3.09    3.09</time>
   <time name="total">  440.61  440.69</time>
   <energy>
    <i name="e_fr_energy">    -36.92548763 </i>
    <i name="e_wo_entrp">    -36.92535705 </i>
    <i name="e_0_energy">    -36.92542234 </i>
   </energy>
  </scstep>
  <scstep>
   <time name="diag">   79.71   79.73</time>
   <time name="diis">  330.67  330.75</time>
   <time name="orth">    3.09    3.09</time>
   <time name="total">  446.17  446.31</time>
   <energy>
    <i name="e_fr_energy">    -36.92548509 </i>
    <i name="e_wo_entrp">    -36.92535449 </i>
    <i name="e_0_energy">    -36.92541979 </i>
   </energy>
  </scstep>
  <scstep>
   <time name="diag">   79.63   79.69</time>
   <time name="diis">  340.78  341.08</time>
   <time name="orth">    3.07    3.07</time>
   <time name="total">  456.18  456.58</time>
   <energy>
    <i name="e_fr_energy">    -36.92548517 </i>
    <i name="e_wo_entrp">    -36.92535457 </i>
    <i name="e_0_energy">    -36.92541987 </i>
   </energy>
  </scstep>
  <scstep>
   <time name="diag">   79.71   79.73</time>
   <time name="diis">  331.08  332.37</time>
   <time name="orth">    3.14    3.14</time>
   <time name="total">  446.75  448.10</time>
   <energy>
    <i name="e_fr_energy">    -36.92548512 </i>
    <i name="e_wo_entrp">    -36.92535452 </i>
    <i name="e_0_energy">    -36.92541982 </i>
   </energy>
  </scstep>
  <scstep>
   <time name="diag">   79.82   79.83</time>
   <time name="diis">  334.26  334.32</time>
   <time name="orth">    3.09    3.09</time>
   <time name="total">  449.96  450.07</time>
   <energy>
    <i name="e_fr_energy">    -36.92548512 </i>
    <i name="e_wo_entrp">    -36.92535452 </i>
    <i name="e_0_energy">    -36.92541982 </i>
   </energy>
  </scstep>
  <scstep>
   <time name="diag">   79.73   79.76</time>
   <time name="diis">  275.63  275.68</time>
   <time name="orth">    3.07    3.07</time>
   <time name="total">  391.26  391.34</time>
   <energy>
    <i name="e_fr_energy">    -36.92548512 </i>
    <i name="e_wo_entrp">    -36.92535452 </i>
    <i name="e_0_energy">    -36.92541982 </i>
   </energy>
  </scstep>
  <scstep>
   <time name="diag">   79.76   79.77</time>
   <time name="diis">  220.82  220.86</time>
   <time name="orth">    3.10    3.10</time>
   <time name="total">  336.43  336.53</time>
   <energy>
    <i name="e_fr_energy">    -36.92548512 </i>
    <i name="e_wo_entrp">    -36.92535452 </i>
    <i name="e_0_energy">    -36.92541982 </i>
   </energy>
  </scstep>
  <scstep>
   <time name="diag">   79.76   79.77</time>
   <time name="diis">  218.93  219.21</time>
   <time name="orth">    3.09    3.09</time>
   <time name="total">  334.47  334.82</time>
   <energy>
    <i name="e_fr_energy">    -36.92548512 </i>
    <i name="e_wo_entrp">    -36.92535452 </i>
    <i name="e_0_energy">    -36.92541982 </i>
   </energy>
  </scstep>
  <scstep>
   <time name="diag">   79.71   79.73</time>
   <time name="diis">  208.71  208.76</time>
   <time name="orth">    3.07    3.07</time>
   <time name="total">  293.87  293.94</time>
   <energy>
    <i name="alphaZ">      6.18334092 </i>
    <i name="ewald">   2584.60965606 </i>
    <i name="hartreedc">  -3078.56045594 </i>
    <i name="XCdc">     57.51647832 </i>
    <i name="pawpsdc">    276.94534313 </i>
    <i name="pawaedc">   -282.09359556 </i>
    <i name="eentropy">     -0.00013060 </i>
    <i name="bandstr">   -190.14964836 </i>
    <i name="atom">    588.62352690 </i>
    <i name="e_fr_energy">    -36.92548512 </i>
    <i name="e_wo_entrp">    -36.92535452 </i>
    <i name="e_0_energy">    -36.92541982 </i>
   </energy>
  </scstep>
  <structure>
   <crystal>
    <varray name="basis" >
     <v>       4.27363885       0.00000000       0.00000000 </v>
     <v>       0.00000000       2.46754601       0.00000000 </v>
     <v>       0.00000000       0.00000000      19.99335176 </v>
    </varray>
    <i name="volume">    210.83790140 </i>
    <varray name="rec_basis" >
     <v>       0.23399263       0.00000000       0.00000000 </v>
     <v>       0.00000000       0.40526093       0.00000000 </v>
     <v>       0.00000000       0.00000000       0.05001663 </v>
    </varray>
   </crystal>
   <varray name="positions" >
    <v>       0.00000333       0.00000000      -0.00000000 </v>
    <v>       0.16666333       0.50000000       0.00000000 </v>
    <v>       0.50000333       0.50000000      -0.00000000 </v>
    <v>       0.66666333       0.00000000       0.00000000 </v>
   </varray>
  </structure>
  <varray name="forces" >
   <v>      -0.00051731      -0.00000000       0.00000000 </v>
   <v>       0.00051731       0.00000000       0.00000000 </v>
   <v>      -0.00051731       0.00000000       0.00000000 </v>
   <v>       0.00051731      -0.00000000      -0.00000000 </v>
  </varray>
  <varray name="stress" >
   <v>      -0.15693035       0.00000000       0.00000000 </v>
   <v>       0.00000000      -0.25450861       0.00000000 </v>
   <v>       0.00000000       0.00000000      -0.00999852 </v>
  </varray>
  <energy>
   <i name="e_fr_energy">    -36.92548512 </i>
   <i name="e_wo_entrp">    -36.92541982 </i>
   <i name="e_0_energy">     -0.00013060 </i>
  </energy>
  <time name="totalsc"> 4470.93 4475.73</time>
 </calculation>
 <calculation>
  <scstep>
   <time name="dav">  315.38  315.45</time>
   <time name="total">  348.05  348.13</time>
   <energy>
    <i name="alphaZ">      6.18334092 </i>
    <i name="ewald">   2584.60965626 </i>
    <i name="hartreedc">  -3078.56045801 </i>
    <i name="XCdc">     57.51647836 </i>
    <i name="pawpsdc">    276.94534230 </i>
    <i name="pawaedc">   -282.09359472 </i>
    <i name="eentropy">     -0.00013059 </i>
    <i name="bandstr">   -190.14964654 </i>
    <i name="atom">    588.62352690 </i>
    <i name="e_fr_energy">    -36.92548513 </i>
    <i name="e_wo_entrp">    -36.92535453 </i>
    <i name="e_0_energy">    -36.92541983 </i>
   </energy>
  </scstep>
  <scstep>
   <time name="diag">   79.79   79.81</time>
   <time name="diis">  320.10  320.16</time>
   <time name="orth">    3.07    3.07</time>
   <time name="total">  435.66  435.80</time>
   <energy>
    <i name="e_fr_energy">    -36.92548513 </i>
    <i name="e_wo_entrp">    -36.92535453 </i>
    <i name="e_0_energy">    -36.92541983 </i>
   </energy>
  </scstep>
  <scstep>
   <time name="diag">   79.58   79.79</time>
   <time name="diis">  318.87  318.97</time>
   <time name="orth">    3.07    3.07</time>
   <time name="total">  434.17  434.54</time>
   <energy>
    <i name="e_fr_energy">    -36.92548513 </i>
    <i name="e_wo_entrp">    -36.92535453 </i>
    <i name="e_0_energy">    -36.92541983 </i>
   </energy>
  </scstep>
  <scstep>
   <time name="diag">   79.74   79.77</time>
   <time name="diis">  212.70  212.76</time>
   <time name="orth">    3.14    3.14</time>
   <time name="total">  328.21  328.31</time>
   <energy>
    <i name="e_fr_energy">    -36.92548513 </i>
    <i name="e_wo_entrp">    -36.92535453 </i>
    <i name="e_0_energy">    -36.92541983 </i>
   </energy>
  </scstep>
  <scstep>
   <time name="diag">   79.72   79.78</time>
   <time name="diis">  215.37  215.54</time>
   <time name="orth">    3.06    3.07</time>
   <time name="total">  300.50  300.81</time>
   <energy>
    <i name="alphaZ">      6.18334092 </i>
    <i name="ewald">   2584.60965626 </i>
    <i name="hartreedc">  -3078.56045859 </i>
    <i name="XCdc">     57.51647836 </i>
    <i name="pawpsdc">    276.94533884 </i>
    <i name="pawaedc">   -282.09359128 </i>
    <i name="eentropy">     -0.00013059 </i>
    <i name="bandstr">   -190.14964595 </i>
    <i name="atom">    588.62352690 </i>
    <i name="e_fr_energy">    -36.92548513 </i>
    <i name="e_wo_entrp">    -36.92535453 </i>
    <i name="e_0_energy">    -36.92541983 </i>
   </energy>
  </scstep>
  <structure>
   <crystal>
    <varray name="basis" >
     <v>       4.27363885       0.00000000       0.00000000 </v>
     <v>       0.00000000       2.46754601       0.00000000 </v>
     <v>       0.00000000       0.00000000      19.99335176 </v>
    </varray>
    <i name="volume">    210.83790140 </i>
    <varray name="rec_basis" >
     <v>       0.23399263       0.00000000       0.00000000 </v>
     <v>       0.00000000       0.40526093       0.00000000 </v>
     <v>       0.00000000       0.00000000       0.05001663 </v>
    </varray>
   </crystal>
   <varray name="positions" >
    <v>       0.00000218      -0.00000000      -0.00000000 </v>
    <v>       0.16666449       0.50000000       0.00000000 </v>
    <v>       0.50000218       0.50000000      -0.00000000 </v>
    <v>       0.66666449      -0.00000000       0.00000000 </v>
   </varray>
  </structure>
  <varray name="forces" >
   <v>       0.00000858      -0.00000000      -0.00000000 </v>
   <v>      -0.00000858       0.00000000       0.00000000 </v>
   <v>       0.00000858       0.00000000      -0.00000000 </v>
   <v>      -0.00000858       0.00000000       0.00000000 </v>
  </varray>
  <varray name="stress" >
   <v>      -0.15550892       0.00000000       0.00000000 </v>
   <v>       0.00000000      -0.25593534       0.00000000 </v>
   <v>       0.00000000       0.00000000      -0.01000856 </v>
  </varray>
  <energy>
   <i name="e_fr_energy">    -36.92548513 </i>
   <i name="e_wo_entrp">    -36.92541983 </i>
   <i name="e_0_energy">     -0.00013059 </i>
  </energy>
  <time name="totalsc"> 1949.27 1950.74</time>
 </calculation>
 <calculation>
  <scstep>
   <time name="dav">  259.72  259.87</time>
   <time name="total">  292.48  292.64</time>
   <energy>
    <i name="alphaZ">      6.18334092 </i>
    <i name="ewald">   2584.60965626 </i>
    <i name="hartreedc">  -3078.56045884 </i>
    <i name="XCdc">     57.51647836 </i>
    <i name="pawpsdc">    276.94534591 </i>
    <i name="pawaedc">   -282.09359833 </i>
    <i name="eentropy">     -0.00013059 </i>
    <i name="bandstr">   -190.14964572 </i>
    <i name="atom">    588.62352690 </i>
    <i name="e_fr_energy">    -36.92548513 </i>
    <i name="e_wo_entrp">    -36.92535453 </i>
    <i name="e_0_energy">    -36.92541983 </i>
   </energy>
  </scstep>
  <scstep>
   <time name="diag">   79.60   79.91</time>
   <time name="diis">  195.49  196.45</time>
   <time name="orth">    3.07    3.09</time>
   <time name="total">  310.76  312.22</time>
   <energy>
    <i name="e_fr_energy">    -36.92548513 </i>
    <i name="e_wo_entrp">    -36.92535453 </i>
    <i name="e_0_energy">    -36.92541983 </i>
   </energy>
  </scstep>
  <scstep>
   <time name="diag">   79.33   79.78</time>
   <time name="diis">  186.19  187.22</time>
   <time name="orth">    3.08    3.08</time>
   <time name="total">  301.13  303.05</time>
   <energy>
    <i name="e_fr_energy">    -36.92548513 </i>
    <i name="e_wo_entrp">    -36.92535453 </i>
    <i name="e_0_energy">    -36.92541983 </i>
   </energy>
  </scstep>
  <scstep>
   <time name="diag">   79.60   79.76</time>
   <time name="diis">  174.55  175.55</time>
   <time name="orth">    3.07    3.09</time>
   <time name="total">  289.50  291.15</time>
   <energy>
    <i name="e_fr_energy">    -36.92548513 </i>
    <i name="e_wo_entrp">    -36.92535453 </i>
    <i name="e_0_energy">    -36.92541983 </i>
   </energy>
  </scstep>
  <scstep>
   <time name="diag">   78.90   79.71</time>
   <time name="diis">  169.31  171.23</time>
   <time name="orth">    3.07    3.10</time>
   <time name="total">  283.71  286.80</time>
   <energy>
    <i name="e_fr_energy">    -36.92548513 </i>
    <i name="e_wo_entrp">    -36.92535453 </i>
    <i name="e_0_energy">    -36.92541983 </i>
   </energy>
  </scstep>
  <scstep>
   <time name="diag">   78.98   79.83</time>
   <time name="diis">  156.49  158.17</time>
   <time name="orth">    3.06    3.09</time>
   <time name="total">  270.84  273.83</time>
   <energy>
    <i name="e_fr_energy">    -36.92548513 </i>
    <i name="e_wo_entrp">    -36.92535453 </i>
    <i name="e_0_energy">    -36.92541983 </i>
   </energy>
  </scstep>
  <scstep>
   <time name="diag">   79.12   79.69</time>
   <time name="diis">  147.80  149.11</time>
   <time name="orth">    3.09    3.10</time>
   <time name="total">  262.58  264.70</time>
   <energy>
    <i name="e_fr_energy">    -36.92548513 </i>
    <i name="e_wo_entrp">    -36.92535453 </i>
    <i name="e_0_energy">    -36.92541983 </i>
   </energy>
  </scstep>
  <scstep>
   <time name="diag">   79.57   79.72</time>
   <time name="diis">  144.84  145.73</time>
   <time name="orth">    3.08    3.10</time>
   <time name="total">  259.72  261.31</time>
   <energy>
    <i name="e_fr_energy">    -36.92548513 </i>
    <i name="e_wo_entrp">    -36.92535453 </i>
    <i name="e_0_energy">    -36.92541983 </i>
   </energy>
  </scstep>
  <scstep>
   <time name="diag">   79.02   79.71</time>
   <time name="diis">  136.07  137.28</time>
   <time name="orth">    3.10    3.11</time>
   <time name="total">  220.54  222.52</time>
   <energy>
    <i name="alphaZ">      6.18334092 </i>
    <i name="ewald">   2584.60965626 </i>
    <i name="hartreedc">  -3078.56045837 </i>
    <i name="XCdc">     57.51647836 </i>
    <i name="pawpsdc">    276.94534214 </i>
    <i name="pawaedc">   -282.09359456 </i>
    <i name="eentropy">     -0.00013059 </i>
    <i name="bandstr">   -190.14964618 </i>
    <i name="atom">    588.62352690 </i>
    <i name="e_fr_energy">    -36.92548513 </i>
    <i name="e_wo_entrp">    -36.92535453 </i>
    <i name="e_0_energy">    -36.92541983 </i>
   </energy>
  </scstep>
  <structure>
   <crystal>
    <varray name="basis" >
     <v>       4.27363885       0.00000000       0.00000000 </v>
     <v>       0.00000000       2.46754601       0.00000000 </v>
     <v>       0.00000000       0.00000000      19.99335176 </v>
    </varray>
    <i name="volume">    210.83790140 </i>
    <varray name="rec_basis" >
     <v>       0.23399263       0.00000000       0.00000000 </v>
     <v>       0.00000000       0.40526093       0.00000000 </v>
     <v>       0.00000000       0.00000000       0.05001663 </v>
    </varray>
   </crystal>
   <varray name="positions" >
    <v>       0.00000220      -0.00000000      -0.00000000 </v>
    <v>       0.16666447       0.50000000       0.00000000 </v>
    <v>       0.50000220       0.50000000      -0.00000000 </v>
    <v>       0.66666447      -0.00000000       0.00000000 </v>
   </varray>
  </structure>
  <varray name="forces" >
   <v>      -0.00001105       0.00000000      -0.00000000 </v>
   <v>       0.00001105      -0.00000000       0.00000000 </v>
   <v>      -0.00001105      -0.00000000      -0.00000000 </v>
   <v>       0.00001105       0.00000000       0.00000000 </v>
  </varray>
  <varray name="stress" >
   <v>      -0.15548957       0.00000000       0.00000000 </v>
   <v>       0.00000000      -0.25594635       0.00000000 </v>
   <v>       0.00000000       0.00000000      -0.01001025 </v>
  </varray>
  <energy>
   <i name="e_fr_energy">    -36.92548513 </i>
   <i name="e_wo_entrp">    -36.92541983 </i>
   <i name="e_0_energy">     -0.00013059 </i>
  </energy>
  <time name="totalsc"> 2592.59 2610.59</time>
 </calculation>
 <calculation>
  <scstep>
   <time name="dav">  232.67  233.68</time>
   <time name="total">  265.19  266.40</time>
   <energy>
    <i name="alphaZ">      6.18334092 </i>
    <i name="ewald">   2584.60965626 </i>
    <i name="hartreedc">  -3078.56045837 </i>
    <i name="XCdc">     57.51647836 </i>
    <i name="pawpsdc">    276.94534214 </i>
    <i name="pawaedc">   -282.09359456 </i>
    <i name="eentropy">     -0.00013059 </i>
    <i name="bandstr">   -190.14964618 </i>
    <i name="atom">    588.62352690 </i>
    <i name="e_fr_energy">    -36.92548513 </i>
    <i name="e_wo_entrp">    -36.92535453 </i>
    <i name="e_0_energy">    -36.92541983 </i>
   </energy>
  </scstep>
  <scstep>
   <time name="diag">   79.15   79.71</time>
   <time name="diis">  137.12  138.37</time>
   <time name="orth">    3.06    3.09</time>
   <time name="total">  251.62  253.85</time>
   <energy>
    <i name="e_fr_energy">    -36.92548513 </i>
    <i name="e_wo_entrp">    -36.92535453 </i>
    <i name="e_0_energy">    -36.92541983 </i>
   </energy>
  </scstep>
  <scstep>
   <time name="diag">   78.86   79.67</time>
   <time name="diis">  138.12  139.20</time>
   <time name="orth">    3.07    3.09</time>
   <time name="total">  252.56  254.78</time>
   <energy>
    <i name="e_fr_energy">    -36.92548513 </i>
    <i name="e_wo_entrp">    -36.92535453 </i>
    <i name="e_0_energy">    -36.92541983 </i>
   </energy>
  </scstep>
  <scstep>
   <time name="diag">   78.77   79.65</time>
   <time name="diis">  124.37  125.07</time>
   <time name="orth">    3.06    3.09</time>
   <time name="total">  238.55  240.54</time>
   <energy>
    <i name="e_fr_energy">    -36.92548513 </i>
    <i name="e_wo_entrp">    -36.92535453 </i>
    <i name="e_0_energy">    -36.92541983 </i>
   </energy>
  </scstep>
  <scstep>
   <time name="diag">   78.76   79.66</time>
   <time name="diis">  138.85  140.14</time>
   <time name="orth">    3.08    3.08</time>
   <time name="total">  253.22  255.95</time>
   <energy>
    <i name="e_fr_energy">    -36.92548513 </i>
    <i name="e_wo_entrp">    -36.92535453 </i>
    <i name="e_0_energy">    -36.92541983 </i>
   </energy>
  </scstep>
  <scstep>
   <time name="diag">   79.37   79.70</time>
   <time name="diis">  128.29  129.22</time>
   <time name="orth">    3.07    3.07</time>
   <time name="total">  243.42  244.79</time>
   <energy>
    <i name="e_fr_energy">    -36.92548513 </i>
    <i name="e_wo_entrp">    -36.92535453 </i>
    <i name="e_0_energy">    -36.92541983 </i>
   </energy>
  </scstep>
  <scstep>
   <time name="diag">   79.18   79.75</time>
   <time name="diis">  119.52  120.37</time>
   <time name="orth">    3.07    3.07</time>
   <time name="total">  204.13  205.62</time>
   <energy>
    <i name="alphaZ">      6.18334092 </i>
    <i name="ewald">   2584.60965626 </i>
    <i name="hartreedc">  -3078.56045857 </i>
    <i name="XCdc">     57.51647836 </i>
    <i name="pawpsdc">    276.94534338 </i>
    <i name="pawaedc">   -282.09359580 </i>
    <i name="eentropy">     -0.00013059 </i>
    <i name="bandstr">   -190.14964598 </i>
    <i name="atom">    588.62352690 </i>
    <i name="e_fr_energy">    -36.92548513 </i>
    <i name="e_wo_entrp">    -36.92535453 </i>
    <i name="e_0_energy">    -36.92541983 </i>
   </energy>
  </scstep>
  <structure>
   <crystal>
    <varray name="basis" >
     <v>       4.27363885       0.00000000       0.00000000 </v>
     <v>       0.00000000       2.46754601       0.00000000 </v>
     <v>       0.00000000       0.00000000      19.99335176 </v>
    </varray>
    <i name="volume">    210.83790140 </i>
    <varray name="rec_basis" >
     <v>       0.23399263       0.00000000       0.00000000 </v>
     <v>       0.00000000       0.40526093       0.00000000 </v>
     <v>       0.00000000       0.00000000       0.05001663 </v>
    </varray>
   </crystal>
   <varray name="positions" >
    <v>       0.00000218      -0.00000000      -0.00000000 </v>
    <v>       0.16666448       0.50000000       0.00000000 </v>
    <v>       0.50000218       0.50000000      -0.00000000 </v>
    <v>       0.66666448      -0.00000000       0.00000000 </v>
   </varray>
  </structure>
  <varray name="forces" >
   <v>      -0.00000174       0.00000000       0.00000000 </v>
   <v>       0.00000174      -0.00000000       0.00000000 </v>
   <v>      -0.00000174      -0.00000000       0.00000000 </v>
   <v>       0.00000174       0.00000000       0.00000000 </v>
  </varray>
  <varray name="stress" >
   <v>      -0.15545997       0.00000000       0.00000000 </v>
   <v>       0.00000000      -0.25598098       0.00000000 </v>
   <v>       0.00000000       0.00000000      -0.01000826 </v>
  </varray>
  <energy>
   <i name="e_fr_energy">    -36.92548513 </i>
   <i name="e_wo_entrp">    -36.92541983 </i>
   <i name="e_0_energy">     -0.00013059 </i>
  </energy>
  <time name="totalsc"> 1809.52 1823.76</time>
 </calculation>
 <calculation>
  <scstep>
   <time name="dav">  219.47  221.27</time>
   <time name="total">  251.69  253.95</time>
   <energy>
    <i name="alphaZ">      6.18334092 </i>
    <i name="ewald">   2584.60965626 </i>
    <i name="hartreedc">  -3078.56045857 </i>
    <i name="XCdc">     57.51647836 </i>
    <i name="pawpsdc">    276.94534338 </i>
    <i name="pawaedc">   -282.09359580 </i>
    <i name="eentropy">     -0.00013059 </i>
    <i name="bandstr">   -190.14964598 </i>
    <i name="atom">    588.62352690 </i>
    <i name="e_fr_energy">    -36.92548513 </i>
    <i name="e_wo_entrp">    -36.92535453 </i>
    <i name="e_0_energy">    -36.92541983 </i>
   </energy>
  </scstep>
  <scstep>
   <time name="diag">   79.83   79.85</time>
   <time name="diis">  111.48  111.52</time>
   <time name="orth">    3.09    3.09</time>
   <time name="total">  227.23  227.31</time>
   <energy>
    <i name="e_fr_energy">    -36.92548513 </i>
    <i name="e_wo_entrp">    -36.92535453 </i>
    <i name="e_0_energy">    -36.92541983 </i>
   </energy>
  </scstep>
  <scstep>
   <time name="diag">   79.80   79.84</time>
   <time name="diis">  112.45  112.47</time>
   <time name="orth">    3.09    3.09</time>
   <time name="total">  228.14  228.22</time>
   <energy>
    <i name="e_fr_energy">    -36.92548513 </i>
    <i name="e_wo_entrp">    -36.92535453 </i>
    <i name="e_0_energy">    -36.92541983 </i>
   </energy>
  </scstep>
  <scstep>
   <time name="diag">   79.83   79.84</time>
   <time name="diis">  116.64  116.66</time>
   <time name="orth">    3.08    3.08</time>
   <time name="total">  232.37  232.42</time>
   <energy>
    <i name="e_fr_energy">    -36.92548513 </i>
    <i name="e_wo_entrp">    -36.92535453 </i>
    <i name="e_0_energy">    -36.92541983 </i>
   </energy>
  </scstep>
  <scstep>
   <time name="diag">   79.78   79.80</time>
   <time name="diis">  110.08  110.10</time>
   <time name="orth">    3.07    3.07</time>
   <time name="total">  225.73  225.78</time>
   <energy>
    <i name="e_fr_energy">    -36.92548513 </i>
    <i name="e_wo_entrp">    -36.92535453 </i>
    <i name="e_0_energy">    -36.92541983 </i>
   </energy>
  </scstep>
  <scstep>
   <time name="diag">   79.81   79.85</time>
   <time name="diis">  126.48  126.51</time>
   <time name="orth">    3.09    3.09</time>
   <time name="total">  242.18  242.30</time>
   <energy>
    <i name="e_fr_energy">    -36.92548513 </i>
    <i name="e_wo_entrp">    -36.92535453 </i>
    <i name="e_0_energy">    -36.92541983 </i>
   </energy>
  </scstep>
  <scstep>
   <time name="diag">   79.70   79.72</time>
   <time name="diis">  120.93  121.01</time>
   <time name="orth">    3.09    3.10</time>
   <time name="total">  236.51  236.64</time>
   <energy>
    <i name="e_fr_energy">    -36.92548513 </i>
    <i name="e_wo_entrp">    -36.92535453 </i>
    <i name="e_0_energy">    -36.92541983 </i>
   </energy>
  </scstep>
  <scstep>
   <time name="diag">   79.75   79.77</time>
   <time name="diis">  120.32  120.34</time>
   <time name="orth">    3.07    3.07</time>
   <time name="total">  235.88  236.02</time>
   <energy>
    <i name="e_fr_energy">    -36.92548513 </i>
    <i name="e_wo_entrp">    -36.92535453 </i>
    <i name="e_0_energy">    -36.92541983 </i>
   </energy>
  </scstep>
  <scstep>
   <time name="diag">   79.76   79.77</time>
   <time name="diis">  111.45  111.46</time>
   <time name="orth">    3.09    3.09</time>
   <time name="total">  227.07  227.11</time>
   <energy>
    <i name="e_fr_energy">    -36.92548513 </i>
    <i name="e_wo_entrp">    -36.92535453 </i>
    <i name="e_0_energy">    -36.92541983 </i>
[...]
       <r>   -9.2035    1.0000 </r>
       <r>   -5.5953    1.0000 </r>
       <r>   -5.5953    1.0000 </r>
       <r>   -0.4231    0.0000 </r>
       <r>   -0.4231    0.0000 </r>
       <r>    4.8361    0.0000 </r>
       <r>    4.8361    0.0000 </r>
      </set>
      <set comment="kpoint 209">
       <r>  -18.8385    1.0000 </r>
       <r>  -17.0480    1.0000 </r>
       <r>  -14.0483    1.0000 </r>
       <r>  -12.4208    1.0000 </r>
       <r>  -12.4174    1.0000 </r>
       <r>  -10.8848    1.0000 </r>
       <r>   -6.4194    1.0000 </r>
       <r>   -4.5289    1.0000 </r>
       <r>   -0.9853    0.0000 </r>
       <r>    1.1817    0.0000 </r>
       <r>    5.2476    0.0000 </r>
       <r>    6.0361    0.0000 </r>
      </set>
      <set comment="kpoint 210">
       <r>  -18.8287    1.0000 </r>
       <r>  -17.0402    1.0000 </r>
       <r>  -14.1347    1.0000 </r>
       <r>  -12.5002    1.0000 </r>
       <r>  -12.3233    1.0000 </r>
       <r>  -10.8077    1.0000 </r>
       <r>   -6.4105    1.0000 </r>
       <r>   -4.5318    1.0000 </r>
       <r>   -0.9949    0.0000 </r>
       <r>    1.1561    0.0000 </r>
       <r>    5.2612    0.0000 </r>
       <r>    6.0522    0.0000 </r>
      </set>
      <set comment="kpoint 211">
       <r>  -18.7996    1.0000 </r>
       <r>  -17.0172    1.0000 </r>
       <r>  -14.3492    1.0000 </r>
       <r>  -12.7015    1.0000 </r>
       <r>  -12.0857    1.0000 </r>
       <r>  -10.6140    1.0000 </r>
       <r>   -6.3842    1.0000 </r>
       <r>   -4.5411    1.0000 </r>
       <r>   -1.0220    0.0000 </r>
       <r>    1.0812    0.0000 </r>
       <r>    5.3019    0.0000 </r>
       <r>    6.0999    0.0000 </r>
      </set>
      <set comment="kpoint 212">
       <r>  -18.7512    1.0000 </r>
       <r>  -16.9802    1.0000 </r>
       <r>  -14.6233    1.0000 </r>
       <r>  -12.9660    1.0000 </r>
       <r>  -11.7732    1.0000 </r>
       <r>  -10.3643    1.0000 </r>
       <r>   -6.3405    1.0000 </r>
       <r>   -4.5583    1.0000 </r>
       <r>   -1.0615    0.0000 </r>
       <r>    0.9624    0.0000 </r>
       <r>    5.3693    0.0000 </r>
       <r>    6.1784    0.0000 </r>
      </set>
      <set comment="kpoint 213">
       <r>  -18.6835    1.0000 </r>
       <r>  -16.9317    1.0000 </r>
       <r>  -14.9151    1.0000 </r>
       <r>  -13.2577    1.0000 </r>
       <r>  -11.4274    1.0000 </r>
       <r>  -10.0981    1.0000 </r>
       <r>   -6.2801    1.0000 </r>
       <r>   -4.5856    1.0000 </r>
       <r>   -1.1057    0.0000 </r>
       <r>    0.8073    0.0000 </r>
       <r>    5.4625    0.0000 </r>
       <r>    6.2861    0.0000 </r>
      </set>
      <set comment="kpoint 214">
       <r>  -18.5969    1.0000 </r>
       <r>  -16.8771    1.0000 </r>
       <r>  -15.2008    1.0000 </r>
       <r>  -13.5581    1.0000 </r>
       <r>  -11.0703    1.0000 </r>
       <r>   -9.8382    1.0000 </r>
       <r>   -6.2037    1.0000 </r>
       <r>   -4.6258    1.0000 </r>
       <r>   -1.1456    0.0000 </r>
       <r>    0.6246    0.0000 </r>
       <r>    5.5758    0.0000 </r>
       <r>    6.1670    0.0000 </r>
      </set>
      <set comment="kpoint 215">
       <r>  -18.4916    1.0000 </r>
       <r>  -16.8266    1.0000 </r>
       <r>  -15.4605    1.0000 </r>
       <r>  -13.8577    1.0000 </r>
       <r>  -10.7157    1.0000 </r>
       <r>   -9.6002    1.0000 </r>
       <r>   -6.1123    1.0000 </r>
       <r>   -4.6815    1.0000 </r>
       <r>   -1.1722    0.0000 </r>
       <r>    0.4232    0.0000 </r>
       <r>    5.6146    0.0000 </r>
       <r>    5.8355    0.0000 </r>
      </set>
      <set comment="kpoint 216">
       <r>  -18.3681    1.0000 </r>
       <r>  -16.8011    1.0000 </r>
       <r>  -15.6685    1.0000 </r>
       <r>  -14.1506    1.0000 </r>
       <r>  -10.3740    1.0000 </r>
       <r>   -9.3960    1.0000 </r>
       <r>   -6.0070    1.0000 </r>
       <r>   -4.7545    1.0000 </r>
       <r>   -1.1776    0.0000 </r>
       <r>    0.2115    0.0000 </r>
       <r>    5.3049    0.0000 </r>
       <r>    5.9450    0.0000 </r>
      </set>
      <set comment="kpoint 217">
       <r>  -18.2268    1.0000 </r>
       <r>  -16.8328    1.0000 </r>
       <r>  -15.7895    1.0000 </r>
       <r>  -14.4330    1.0000 </r>
       <r>  -10.0546    1.0000 </r>
       <r>   -9.2361    1.0000 </r>
       <r>   -5.8897    1.0000 </r>
       <r>   -4.8452    1.0000 </r>
       <r>   -1.1560    0.0000 </r>
       <r>   -0.0031    0.0000 </r>
       <r>    5.0105    0.0000 </r>
       <r>    5.8399    0.0000 </r>
      </set>
      <set comment="kpoint 218">
       <r>  -18.0687    1.0000 </r>
       <r>  -16.9420    1.0000 </r>
       <r>  -15.8014    1.0000 </r>
       <r>  -14.7017    1.0000 </r>
       <r>   -9.7667    1.0000 </r>
       <r>   -9.1292    1.0000 </r>
       <r>   -5.7622    1.0000 </r>
       <r>   -4.9527    1.0000 </r>
       <r>   -1.1040    0.0000 </r>
       <r>   -0.2137    0.0000 </r>
       <r>    4.7957    0.0000 </r>
       <r>    5.4427    0.0000 </r>
      </set>
      <set comment="kpoint 219">
       <r>  -17.8950    1.0000 </r>
       <r>  -17.1107    1.0000 </r>
       <r>  -15.7210    1.0000 </r>
       <r>  -14.9543    1.0000 </r>
       <r>   -9.5192    1.0000 </r>
       <r>   -9.0820    1.0000 </r>
       <r>   -5.6270    1.0000 </r>
       <r>   -5.0744    1.0000 </r>
       <r>   -1.0206    0.0000 </r>
       <r>   -0.4145    0.0000 </r>
       <r>    4.6712    0.0000 </r>
       <r>    5.1157    0.0000 </r>
      </set>
      <set comment="kpoint 220">
       <r>  -17.7076    1.0000 </r>
       <r>  -17.3070    1.0000 </r>
       <r>  -15.5796    1.0000 </r>
       <r>  -15.1877    1.0000 </r>
       <r>   -9.3208    1.0000 </r>
       <r>   -9.0982    1.0000 </r>
       <r>   -5.4870    1.0000 </r>
       <r>   -5.2067    1.0000 </r>
       <r>   -0.9070    0.0000 </r>
       <r>   -0.6000    0.0000 </r>
       <r>    4.6417    0.0000 </r>
       <r>    4.8682    0.0000 </r>
      </set>
      <set comment="kpoint 221">
       <r>  -17.5097    1.0000 </r>
       <r>  -17.5097    1.0000 </r>
       <r>  -15.3981    1.0000 </r>
       <r>  -15.3981    1.0000 </r>
       <r>   -9.1787    1.0000 </r>
       <r>   -9.1787    1.0000 </r>
       <r>   -5.3456    1.0000 </r>
       <r>   -5.3456    1.0000 </r>
       <r>   -0.7656    0.0000 </r>
       <r>   -0.7656    0.0000 </r>
       <r>    4.7083    0.0000 </r>
       <r>    4.7083    0.0000 </r>
      </set>
      <set comment="kpoint 222">
       <r>  -18.4158    1.0000 </r>
       <r>  -17.5169    1.0000 </r>
       <r>  -13.6716    1.0000 </r>
       <r>  -12.8571    1.0000 </r>
       <r>  -12.0670    1.0000 </r>
       <r>  -11.2960    1.0000 </r>
       <r>   -5.9591    1.0000 </r>
       <r>   -5.0085    1.0000 </r>
       <r>   -0.4769    0.0000 </r>
       <r>    0.6087    0.0000 </r>
       <r>    5.8476    0.0000 </r>
       <r>    6.5992    0.0000 </r>
      </set>
      <set comment="kpoint 223">
       <r>  -18.4063    1.0000 </r>
       <r>  -17.5081    1.0000 </r>
       <r>  -13.7578    1.0000 </r>
       <r>  -12.9393    1.0000 </r>
       <r>  -11.9757    1.0000 </r>
       <r>  -11.2135    1.0000 </r>
       <r>   -5.9516    1.0000 </r>
       <r>   -5.0061    1.0000 </r>
       <r>   -0.4932    0.0000 </r>
       <r>    0.5852    0.0000 </r>
       <r>    5.8611    0.0000 </r>
       <r>    6.6161    0.0000 </r>
      </set>
      <set comment="kpoint 224">
       <r>  -18.3777    1.0000 </r>
       <r>  -17.4818    1.0000 </r>
       <r>  -13.9729    1.0000 </r>
       <r>  -13.1465    1.0000 </r>
       <r>  -11.7458    1.0000 </r>
       <r>  -11.0061    1.0000 </r>
       <r>   -5.9292    1.0000 </r>
       <r>   -4.9993    1.0000 </r>
       <r>   -0.5403    0.0000 </r>
       <r>    0.5165    0.0000 </r>
       <r>    5.9016    0.0000 </r>
       <r>    6.6664    0.0000 </r>
      </set>
      <set comment="kpoint 225">
       <r>  -18.3301    1.0000 </r>
       <r>  -17.4385    1.0000 </r>
       <r>  -14.2501    1.0000 </r>
       <r>  -13.4169    1.0000 </r>
       <r>  -11.4452    1.0000 </r>
       <r>  -10.7371    1.0000 </r>
       <r>   -5.8924    1.0000 </r>
       <r>   -4.9893    1.0000 </r>
       <r>   -0.6131    0.0000 </r>
       <r>    0.4079    0.0000 </r>
       <r>    5.9686    0.0000 </r>
       <r>    6.7485    0.0000 </r>
      </set>
      <set comment="kpoint 226">
       <r>  -18.2638    1.0000 </r>
       <r>  -17.3791    1.0000 </r>
       <r>  -14.5497    1.0000 </r>
       <r>  -13.7134    1.0000 </r>
       <r>  -11.1150    1.0000 </r>
       <r>  -10.4470    1.0000 </r>
       <r>   -5.8419    1.0000 </r>
       <r>   -4.9779    1.0000 </r>
       <r>   -0.7038    0.0000 </r>
       <r>    0.2669    0.0000 </r>
       <r>    6.0598    0.0000 </r>
       <r>    6.8607    0.0000 </r>
      </set>
      <set comment="kpoint 227">
       <r>  -18.1791    1.0000 </r>
       <r>  -17.3051    1.0000 </r>
       <r>  -14.8517    1.0000 </r>
       <r>  -14.0173    1.0000 </r>
       <r>  -10.7777    1.0000 </r>
       <r>  -10.1584    1.0000 </r>
       <r>   -5.7790    1.0000 </r>
       <r>   -4.9676    1.0000 </r>
       <r>   -0.8028    0.0000 </r>
       <r>    0.1024    0.0000 </r>
       <r>    6.1540    0.0000 </r>
       <r>    6.4489    0.0000 </r>
      </set>
      <set comment="kpoint 228">
       <r>  -18.0764    1.0000 </r>
       <r>  -17.2194    1.0000 </r>
       <r>  -15.1439    1.0000 </r>
       <r>  -14.3187    1.0000 </r>
       <r>  -10.4472    1.0000 </r>
       <r>   -9.8862    1.0000 </r>
       <r>   -5.7050    1.0000 </r>
       <r>   -4.9615    1.0000 </r>
       <r>   -0.9002    0.0000 </r>
       <r>   -0.0764    0.0000 </r>
       <r>    5.9055    0.0000 </r>
       <r>    6.3705    0.0000 </r>
      </set>
      <set comment="kpoint 229">
       <r>  -17.9567    1.0000 </r>
       <r>  -17.1273    1.0000 </r>
       <r>  -15.4159    1.0000 </r>
       <r>  -14.6117    1.0000 </r>
       <r>  -10.1344    1.0000 </r>
       <r>   -9.6423    1.0000 </r>
       <r>   -5.6220    1.0000 </r>
       <r>   -4.9631    1.0000 </r>
       <r>   -0.9860    0.0000 </r>
       <r>   -0.2606    0.0000 </r>
       <r>    5.5006    0.0000 </r>
       <r>    5.9973    0.0000 </r>
      </set>
      <set comment="kpoint 230">
       <r>  -17.8209    1.0000 </r>
       <r>  -17.0396    1.0000 </r>
       <r>  -15.6540    1.0000 </r>
       <r>  -14.8919    1.0000 </r>
       <r>   -9.8493    1.0000 </r>
       <r>   -9.4371    1.0000 </r>
       <r>   -5.5324    1.0000 </r>
       <r>   -4.9758    1.0000 </r>
       <r>   -1.0513    0.0000 </r>
       <r>   -0.4419    0.0000 </r>
       <r>    5.1558    0.0000 </r>
       <r>    5.5724    0.0000 </r>
      </set>
      <set comment="kpoint 231">
       <r>  -17.6709    1.0000 </r>
       <r>  -16.9774    1.0000 </r>
       <r>  -15.8351    1.0000 </r>
       <r>  -15.1555    1.0000 </r>
       <r>   -9.6013    1.0000 </r>
       <r>   -9.2800    1.0000 </r>
       <r>   -5.4391    1.0000 </r>
       <r>   -5.0024    1.0000 </r>
       <r>   -1.0886    0.0000 </r>
       <r>   -0.6125    0.0000 </r>
       <r>    4.8885    0.0000 </r>
       <r>    5.2140    0.0000 </r>
      </set>
      <set comment="kpoint 232">
       <r>  -17.5097    1.0000 </r>
       <r>  -16.9734    1.0000 </r>
       <r>  -15.9254    1.0000 </r>
       <r>  -15.3980    1.0000 </r>
       <r>   -9.3993    1.0000 </r>
       <r>   -9.1787    1.0000 </r>
       <r>   -5.3456    1.0000 </r>
       <r>   -5.0443    1.0000 </r>
       <r>   -1.0929    0.0000 </r>
       <r>   -0.7656    0.0000 </r>
       <r>    4.7083    0.0000 </r>
       <r>    4.9321    0.0000 </r>
      </set>
      <set comment="kpoint 233">
       <r>  -17.3432    1.0000 </r>
       <r>  -17.0480    1.0000 </r>
       <r>  -15.9037    1.0000 </r>
       <r>  -15.6129    1.0000 </r>
       <r>   -9.2512    1.0000 </r>
       <r>   -9.1388    1.0000 </r>
       <r>   -5.2557    1.0000 </r>
       <r>   -5.1018    1.0000 </r>
       <r>   -1.0616    0.0000 </r>
       <r>   -0.8948    0.0000 </r>
       <r>    4.6213    0.0000 </r>
       <r>    4.7354    0.0000 </r>
      </set>
      <set comment="kpoint 234">
       <r>  -17.1821    1.0000 </r>
       <r>  -17.1821    1.0000 </r>
       <r>  -15.7887    1.0000 </r>
       <r>  -15.7887    1.0000 </r>
       <r>   -9.1631    1.0000 </r>
       <r>   -9.1631    1.0000 </r>
       <r>   -5.1732    1.0000 </r>
       <r>   -5.1732    1.0000 </r>
       <r>   -0.9948    0.0000 </r>
       <r>   -0.9948    0.0000 </r>
       <r>    4.6305    0.0000 </r>
       <r>    4.6305    0.0000 </r>
      </set>
      <set comment="kpoint 235">
       <r>  -17.9744    1.0000 </r>
       <r>  -17.9744    1.0000 </r>
       <r>  -13.2743    1.0000 </r>
       <r>  -13.2743    1.0000 </r>
       <r>  -11.6914    1.0000 </r>
       <r>  -11.6914    1.0000 </r>
       <r>   -5.4872    1.0000 </r>
       <r>   -5.4872    1.0000 </r>
       <r>    0.0551    0.0000 </r>
       <r>    0.0551    0.0000 </r>
       <r>    6.4791    0.0000 </r>
       <r>    6.4791    0.0000 </r>
      </set>
      <set comment="kpoint 236">
       <r>  -17.9651    1.0000 </r>
       <r>  -17.9651    1.0000 </r>
       <r>  -13.3589    1.0000 </r>
       <r>  -13.3589    1.0000 </r>
       <r>  -11.6041    1.0000 </r>
       <r>  -11.6041    1.0000 </r>
       <r>   -5.4816    1.0000 </r>
       <r>   -5.4816    1.0000 </r>
       <r>    0.0345    0.0000 </r>
       <r>    0.0345    0.0000 </r>
       <r>    6.4925    0.0000 </r>
       <r>    6.4925    0.0000 </r>
      </set>
      <set comment="kpoint 237">
       <r>  -17.9373    1.0000 </r>
       <r>  -17.9373    1.0000 </r>
       <r>  -13.5710    1.0000 </r>
       <r>  -13.5710    1.0000 </r>
       <r>  -11.3845    1.0000 </r>
       <r>  -11.3845    1.0000 </r>
       <r>   -5.4653    1.0000 </r>
       <r>   -5.4653    1.0000 </r>
       <r>   -0.0255    0.0000 </r>
       <r>   -0.0255    0.0000 </r>
       <r>    6.5328    0.0000 </r>
       <r>    6.5328    0.0000 </r>
      </set>
      <set comment="kpoint 238">
       <r>  -17.8911    1.0000 </r>
       <r>  -17.8911    1.0000 </r>
       <r>  -13.8460    1.0000 </r>
       <r>  -13.8460    1.0000 </r>
       <r>  -11.0986    1.0000 </r>
       <r>  -11.0986    1.0000 </r>
       <r>   -5.4389    1.0000 </r>
       <r>   -5.4389    1.0000 </r>
       <r>   -0.1197    0.0000 </r>
       <r>   -0.1197    0.0000 </r>
       <r>    6.5989    0.0000 </r>
       <r>    6.5989    0.0000 </r>
      </set>
      <set comment="kpoint 239">
       <r>  -17.8271    1.0000 </r>
       <r>  -17.8271    1.0000 </r>
       <r>  -14.1457    1.0000 </r>
       <r>  -14.1457    1.0000 </r>
       <r>  -10.7871    1.0000 </r>
       <r>  -10.7871    1.0000 </r>
       <r>   -5.4036    1.0000 </r>
       <r>   -5.4036    1.0000 </r>
       <r>   -0.2404    0.0000 </r>
       <r>   -0.2404    0.0000 </r>
       <r>    6.6858    0.0000 </r>
       <r>    6.6858    0.0000 </r>
      </set>
      <set comment="kpoint 240">
       <r>  -17.7458    1.0000 </r>
       <r>  -17.7458    1.0000 </r>
       <r>  -14.4509    1.0000 </r>
       <r>  -14.4509    1.0000 </r>
       <r>  -10.4726    1.0000 </r>
       <r>  -10.4726    1.0000 </r>
       <r>   -5.3611    1.0000 </r>
       <r>   -5.3611    1.0000 </r>
       <r>   -0.3786    0.0000 </r>
       <r>   -0.3786    0.0000 </r>
       <r>    6.6444    0.0000 </r>
       <r>    6.6444    0.0000 </r>
      </set>
      <set comment="kpoint 241">
       <r>  -17.6483    1.0000 </r>
       <r>  -17.6483    1.0000 </r>
       <r>  -14.7514    1.0000 </r>
       <r>  -14.7514    1.0000 </r>
       <r>  -10.1696    1.0000 </r>
       <r>  -10.1696    1.0000 </r>
       <r>   -5.3139    1.0000 </r>
       <r>   -5.3139    1.0000 </r>
       <r>   -0.5246    0.0000 </r>
       <r>   -0.5246    0.0000 </r>
       <r>    6.1791    0.0000 </r>
       <r>    6.1791    0.0000 </r>
      </set>
      <set comment="kpoint 242">
       <r>  -17.5363    1.0000 </r>
       <r>  -17.5363    1.0000 </r>
       <r>  -15.0402    1.0000 </r>
       <r>  -15.0402    1.0000 </r>
       <r>   -9.8894    1.0000 </r>
       <r>   -9.8894    1.0000 </r>
       <r>   -5.2647    1.0000 </r>
       <r>   -5.2647    1.0000 </r>
       <r>   -0.6688    0.0000 </r>
       <r>   -0.6688    0.0000 </r>
       <r>    5.7312    0.0000 </r>
       <r>    5.7312    0.0000 </r>
      </set>
      <set comment="kpoint 243">
       <r>  -17.4127    1.0000 </r>
       <r>  -17.4127    1.0000 </r>
       <r>  -15.3113    1.0000 </r>
       <r>  -15.3113    1.0000 </r>
       <r>   -9.6425    1.0000 </r>
       <r>   -9.6425    1.0000 </r>
       <r>   -5.2169    1.0000 </r>
       <r>   -5.2169    1.0000 </r>
       <r>   -0.8019    0.0000 </r>
       <r>   -0.8019    0.0000 </r>
       <r>    5.3435    0.0000 </r>
       <r>    5.3435    0.0000 </r>
      </set>
      <set comment="kpoint 244">
       <r>  -17.2831    1.0000 </r>
       <r>  -17.2831    1.0000 </r>
       <r>  -15.5573    1.0000 </r>
       <r>  -15.5573    1.0000 </r>
       <r>   -9.4382    1.0000 </r>
       <r>   -9.4382    1.0000 </r>
       <r>   -5.1741    1.0000 </r>
       <r>   -5.1741    1.0000 </r>
       <r>   -0.9157    0.0000 </r>
       <r>   -0.9157    0.0000 </r>
       <r>    5.0285    0.0000 </r>
       <r>    5.0285    0.0000 </r>
      </set>
      <set comment="kpoint 245">
       <r>  -17.1584    1.0000 </r>
       <r>  -17.1584    1.0000 </r>
       <r>  -15.7659    1.0000 </r>
       <r>  -15.7659    1.0000 </r>
       <r>   -9.2850    1.0000 </r>
       <r>   -9.2850    1.0000 </r>
       <r>   -5.1402    1.0000 </r>
       <r>   -5.1402    1.0000 </r>
       <r>   -1.0028    0.0000 </r>
       <r>   -1.0028    0.0000 </r>
       <r>    4.7957    0.0000 </r>
       <r>    4.7957    0.0000 </r>
      </set>
      <set comment="kpoint 246">
       <r>  -17.0598    1.0000 </r>
       <r>  -17.0598    1.0000 </r>
       <r>  -15.9152    1.0000 </r>
       <r>  -15.9152    1.0000 </r>
       <r>   -9.1901    1.0000 </r>
       <r>   -9.1901    1.0000 </r>
       <r>   -5.1184    1.0000 </r>
       <r>   -5.1184    1.0000 </r>
       <r>   -1.0576    0.0000 </r>
       <r>   -1.0576    0.0000 </r>
       <r>    4.6527    0.0000 </r>
       <r>    4.6527    0.0000 </r>
      </set>
      <set comment="kpoint 247">
       <r>  -17.0202    1.0000 </r>
       <r>  -17.0202    1.0000 </r>
       <r>  -15.9716    1.0000 </r>
       <r>  -15.9716    1.0000 </r>
       <r>   -9.1579    1.0000 </r>
       <r>   -9.1579    1.0000 </r>
       <r>   -5.1108    1.0000 </r>
       <r>   -5.1108    1.0000 </r>
       <r>   -1.0763    0.0000 </r>
       <r>   -1.0763    0.0000 </r>
       <r>    4.6044    0.0000 </r>
       <r>    4.6044    0.0000 </r>
      </set>
     </set>
    </set>
   </array>
  </eigenvalues>
  <separator name="orbital magnetization" >
   <v name="MAGDIPOLOUT">      0.00000000      0.00000000      0.00000000</v>
  </separator>
 </calculation>
 <structure name="finalpos" >
  <crystal>
   <varray name="basis" >
    <v>       4.27363885       0.00000000       0.00000000 </v>
    <v>       0.00000000       2.46754601       0.00000000 </v>
    <v>       0.00000000       0.00000000      19.99335176 </v>
   </varray>
   <i name="volume">    210.83790140 </i>
   <varray name="rec_basis" >
    <v>       0.23399263       0.00000000       0.00000000 </v>
    <v>       0.00000000       0.40526093       0.00000000 </v>
    <v>       0.00000000       0.00000000       0.05001663 </v>
   </varray>
  </crystal>
  <varray name="positions" >
   <v>       0.00000218      -0.00000000      -0.00000000 </v>
   <v>       0.16666449       0.50000000       0.00000000 </v>
   <v>       0.50000218       0.50000000      -0.00000000 </v>
   <v>       0.66666449       0.00000000       0.00000000 </v>
  </varray>
 </structure>
</modeling>
