gr                                      
           1
     4.273639    0.000000    0.000000
     0.000000    2.467546    0.000000
     0.000000    0.000000   19.993352
   C 
   4
Direct configuration=     1
   0.00013158  0.00000000  0.00000000
   0.16653509  0.50000000  0.00000000
   0.50013158  0.50000000  0.00000000
   0.66653509  0.00000000  0.00000000
Direct configuration=     2
  -0.00051436  0.00000000 -0.00000000
   0.16718103  0.50000000  0.00000000
   0.49948564  0.50000000 -0.00000000
   0.66718103  0.00000000  0.00000000
Direct configuration=     3
   0.00000333  0.00000000 -0.00000000
   0.16666333  0.50000000  0.00000000
   0.50000333  0.50000000 -0.00000000
   0.66666333  0.00000000  0.00000000
Direct configuration=     4
   0.00000218 -0.00000000 -0.00000000
   0.16666449  0.50000000  0.00000000
   0.50000218  0.50000000 -0.00000000
   0.66666449 -0.00000000  0.00000000
Direct configuration=     5
   0.00000220 -0.00000000 -0.00000000
   0.16666447  0.50000000  0.00000000
   0.50000220  0.50000000 -0.00000000
   0.66666447 -0.00000000  0.00000000
Direct configuration=     6
   0.00000218 -0.00000000 -0.00000000
   0.16666448  0.50000000  0.00000000
   0.50000218  0.50000000 -0.00000000
   0.66666448 -0.00000000  0.00000000
Direct configuration=     7
   0.00000218  0.00000000 -0.00000000
   0.16666448  0.50000000  0.00000000
   0.50000218  0.50000000 -0.00000000
   0.66666448  0.00000000  0.00000000
Direct configuration=     8
   0.00000219  0.00000000  0.00000000
   0.16666447  0.50000000 -0.00000000
   0.50000219  0.50000000  0.00000000
   0.66666447 -0.00000000 -0.00000000
Direct configuration=     9
   0.00000218 -0.00000000 -0.00000000
   0.16666449  0.50000000  0.00000000
   0.50000218  0.50000000 -0.00000000
   0.66666449  0.00000000  0.00000000
