    4    4  400    1
  0.5270948E+02  0.4251828E-09  0.2541445E-09  0.1951157E-08  0.5000000E-15
  1.000000000000000E-004
  CAR 
 gr                                      
     16    247     12
 
  0.0000000E+00  0.0000000E+00  0.0000000E+00  0.1157407E-02
    1      -22.047198
    2      -16.641956
    3      -15.844759
    4      -10.199577
    5       -9.529901
    6       -6.024394
    7       -5.739157
    8       -4.863863
    9       -1.160570
   10        0.548963
   11        1.346416
   12        1.741972
 
  0.4166667E-01  0.0000000E+00  0.0000000E+00  0.2314815E-02
    1      -22.036803
    2      -16.845697
    3      -15.626069
    4      -10.187256
    5       -9.519444
    6       -6.048376
    7       -5.778815
    8       -4.934842
    9       -1.075044
   10        0.563044
   11        1.360633
   12        1.756372
 
  0.8333333E-01  0.0000000E+00  0.0000000E+00  0.2314815E-02
    1      -22.005620
    2      -17.218211
    3      -15.208797
    4      -10.150311
    5       -9.488122
    6       -6.118922
    7       -5.896393
    8       -5.130071
    9       -0.836350
   10        0.605285
   11        1.403282
   12        1.799571
 
  0.1250000E+00  0.0000000E+00  0.0000000E+00  0.2314815E-02
    1      -21.953671
    2      -17.614177
    3      -14.738551
    4      -10.088800
    5       -9.436084
    6       -6.232095
    7       -6.087901
    8       -5.411498
    9       -0.483077
   10        0.675679
   11        1.474350
   12        1.871569
 
  0.1666667E+00  0.0000000E+00  0.0000000E+00  0.2314815E-02
    1      -21.880991
    2      -18.005735
    3      -14.243680
    4      -10.002819
    5       -9.363586
    6       -6.382072
    7       -6.347283
    8       -5.743336
    9       -0.051910
   10        0.774217
   11        1.573820
   12        1.972364
 
  0.2083333E+00  0.0000000E+00  0.0000000E+00  0.2314815E-02
    1      -21.787630
    2      -18.385253
    3      -13.732518
    4       -9.892508
    5       -9.270998
    6       -6.667126
    7       -6.561979
    8       -6.100282
    9        0.430587
   10        0.900880
   11        1.701661
   12        2.101955
 
  0.2500000E+00  0.0000000E+00  0.0000000E+00  0.2314815E-02
    1      -21.673650
    2      -18.749701
    3      -13.209020
    4       -9.758055
    5       -9.158812
    6       -7.039376
    7       -6.764659
    8       -6.466124
    9        0.946575
   10        1.055644
   11        1.857832
   12        2.260337
 
  0.2916667E+00  0.0000000E+00  0.0000000E+00  0.2314815E-02
    1      -21.539135
    2      -19.097532
    3      -12.675910
    4       -9.599701
    5       -9.027667
    6       -7.455914
    7       -6.983242
    8       -6.830625
    9        1.238473
   10        1.483793
   11        2.042272
   12        2.447505
 
  0.3333333E+00  0.0000000E+00  0.0000000E+00  0.2314815E-02
    1      -21.384178
    2      -19.427808
    3      -12.135583
    4       -9.417752
    5       -8.878365
    6       -7.908975
    7       -7.211480
    8       -7.187176
    9        1.449322
   10        2.033157
   11        2.254891
   12        2.663447
 
  0.3750000E+00  0.0000000E+00  0.0000000E+00  0.2314815E-02
    1      -21.208897
    2      -19.739883
    3      -11.590453
    4       -9.212589
    5       -8.711901
    6       -8.391393
    7       -7.531360
    8       -7.443905
    9        1.688123
   10        2.495542
   11        2.587059
   12        2.908141
 
  0.4166667E+00  0.0000000E+00  0.0000000E+00  0.2314815E-02
    1      -21.013426
    2      -20.033277
    3      -11.043131
    4       -8.984685
    5       -8.896721
    6       -8.529498
    7       -7.860120
    8       -7.675843
    9        1.954782
   10        2.763939
   11        3.136770
   12        3.181539
 
  0.4583333E+00  0.0000000E+00  0.0000000E+00  0.2314815E-02
    1      -20.797923
    2      -20.307610
    3      -10.496534
    4       -9.419250
    5       -8.734634
    6       -8.332656
    7       -8.171266
    8       -7.903365
    9        2.249150
   10        2.919591
   11        3.059342
   12        3.483697
 
  0.5000000E+00  0.0000000E+00  0.0000000E+00  0.1157407E-02
    1      -20.562579
    2      -20.562579
    3       -9.953975
    4       -9.953975
    5       -8.463179
    6       -8.463179
    7       -8.123204
    8       -8.123204
    9        2.570959
   10        2.570959
   11        3.378329
   12        3.378329
 
  0.0000000E+00  0.2777778E-01  0.0000000E+00  0.2314815E-02
    1      -22.034312
    2      -16.630817
    3      -15.834637
    4      -10.184305
    5       -9.587433
    6       -6.077444
    7       -5.771649
    8       -4.848281
    9       -1.167146
   10        0.566378
   11        1.364092
   12        1.759870
 
  0.4166667E-01  0.2777778E-01  0.0000000E+00  0.4629630E-02
    1      -22.023917
    2      -16.834481
    3      -15.616087
    4      -10.171988
    5       -9.576941
    6       -6.104206
    7       -5.807782
    8       -4.919445
    9       -1.081568
   10        0.580461
   11        1.378308
   12        1.774270
 
  0.8333333E-01  0.2777778E-01  0.0000000E+00  0.4629630E-02
    1      -21.992739
    2      -17.206806
    3      -15.199199
    4      -10.135057
    5       -9.545514
    6       -6.183877
    7       -5.914140
    8       -5.115086
    9       -0.842866
   10        0.622707
   11        1.420953
   12        1.817470
 
  0.1250000E+00  0.2777778E-01  0.0000000E+00  0.4629630E-02
    1      -21.940798
    2      -17.602570
    3      -14.729490
    4      -10.073569
    5       -9.493295
    6       -6.316101
    7       -6.083501
    8       -5.396914
    9       -0.489864
   10        0.693110
   11        1.492015
   12        1.889470
 
  0.1666667E+00  0.2777778E-01  0.0000000E+00  0.4629630E-02
    1      -21.868128
    2      -17.993943
    3      -14.235291
    4       -9.987620
    5       -9.420529
    6       -6.506262
    7       -6.299049
    8       -5.729031
    9       -0.059363
   10        0.791658
   11        1.591477
   12        1.990267
 
  0.2083333E+00  0.2777778E-01  0.0000000E+00  0.4629630E-02
    1      -21.774780
    2      -18.373297
    3      -13.724954
    4       -9.877351
    5       -9.327568
    6       -6.769148
    7       -6.532123
    8       -6.086124
    9        0.422068
   10        0.918334
   11        1.719307
   12        2.119861
 
  0.2500000E+00  0.2777778E-01  0.0000000E+00  0.4629630E-02
    1      -21.660818
    2      -18.737602
    3      -13.202461
    4       -9.742949
    5       -9.214885
    6       -7.107040
    7       -6.765532
    8       -6.452012
    9        0.936624
   10        1.073112
   11        1.875465
   12        2.278247
 
  0.2916667E+00  0.2777778E-01  0.0000000E+00  0.4629630E-02
    1      -21.526324
    2      -19.085311
    3      -12.670579
    4       -9.584655
    5       -9.083088
    6       -7.503239
    7       -7.001163
    8       -6.816490
    9        1.255957
   10        1.472094
   11        2.059892
   12        2.465419
 
  0.3333333E+00  0.2777778E-01  0.0000000E+00  0.4629630E-02
    1      -21.371394
    2      -19.415479
    3      -12.131754
    4       -9.402776
    5       -8.932941
    6       -7.942827
    7       -7.239996
    8       -7.172974
    9        1.466822
   10        2.019455
   11        2.272498
   12        2.681367
 
  0.3750000E+00  0.2777778E-01  0.0000000E+00  0.4629630E-02
    1      -21.196144
    2      -19.727463
    3      -11.588472
    4       -9.197692
    5       -8.765387
    6       -8.415539
    7       -7.517067
    8       -7.479670
    9        1.705642
   10        2.513139
   11        2.571221
   12        2.926070
 
  0.4166667E+00  0.2777778E-01  0.0000000E+00  0.4629630E-02
    1      -21.000708
    2      -20.020778
    3      -11.043433
    4       -8.969876
    5       -8.913538
    6       -8.581584
    7       -7.845724
    8       -7.716864
    9        1.972326
   10        2.781538
   11        3.119148
   12        3.199487
 
  0.4583333E+00  0.2777778E-01  0.0000000E+00  0.4629630E-02
    1      -20.785248
    2      -20.295044
    3      -10.499671
    4       -9.430391
    5       -8.719921
    6       -8.382942
    7       -8.156762
    8       -7.948324
    9        2.266733
   10        2.937428
   11        3.076976
   12        3.501582
 
  0.5000000E+00  0.2777778E-01  0.0000000E+00  0.2314815E-02
    1      -20.549954
    2      -20.549954
    3       -9.960655
    4       -9.960655
    5       -8.448568
    6       -8.448568
    7       -8.171169
    8       -8.171169
    9        2.588616
   10        2.588616
   11        3.396017
   12        3.396017
 
  0.0000000E+00  0.5555556E-01  0.0000000E+00  0.2314815E-02
    1      -21.995664
    2      -16.597403
    3      -15.804491
    4      -10.138520
    5       -9.755248
    6       -6.232477
    7       -5.868037
    8       -4.801553
    9       -1.187644
   10        0.618634
   11        1.417112
   12        1.813565
 
  0.4166667E-01  0.5555556E-01  0.0000000E+00  0.4629630E-02
    1      -21.985273
    2      -16.800860
    3      -15.586347
    4      -10.126218
    5       -9.744647
    6       -6.265370
    7       -5.895876
    8       -4.873292
    9       -1.101900
   10        0.632721
   11        1.431325
   12        1.827966
 
  0.8333333E-01  0.5555556E-01  0.0000000E+00  0.4629630E-02
    1      -21.954108
    2      -17.172629
    3      -15.170621
    4      -10.089328
    5       -9.712884
    6       -6.361816
    7       -5.979351
    8       -5.070202
    9       -0.863154
   10        0.674980
   11        1.473958
   12        1.871168
 
  0.1250000E+00  0.5555556E-01  0.0000000E+00  0.4629630E-02
    1      -21.902188
    2      -17.567785
    3      -14.702559
    4      -10.027910
    5       -9.660083
    6       -6.516590
    7       -6.117101
    8       -5.353262
    9       -0.510966
   10        0.745403
   11        1.545002
   12        1.943172
 
  0.1666667E+00  0.5555556E-01  0.0000000E+00  0.4629630E-02
    1      -21.829551
    2      -17.958598
    3      -14.210439
    4       -9.942059
    5       -9.586452
    6       -6.724524
    7       -6.304129
    8       -5.686225
    9       -0.082484
   10        0.843980
   11        1.644437
   12        2.043975
 
  0.2083333E+00  0.5555556E-01  0.0000000E+00  0.4629630E-02
    1      -21.736245
    2      -18.337457
    3      -13.702661
    4       -9.831916
    5       -9.492291
    6       -6.982839
    7       -6.530539
    8       -6.043761
    9        0.395707
   10        0.970689
   11        1.772234
   12        2.173576
 
  0.2500000E+00  0.5555556E-01  0.0000000E+00  0.4629630E-02
    1      -21.622335
    2      -18.701332
    3      -13.183306
    4       -9.697669
    5       -9.377998
    6       -7.291209
    7       -6.782647
    8       -6.409783
    9        0.905916
   10        1.125504
   11        1.928352
   12        2.331972
 
  0.2916667E+00  0.5555556E-01  0.0000000E+00  0.4629630E-02
    1      -21.487906
    2      -19.048668
    3      -12.655274
    4       -9.539559
    5       -9.244082
    6       -7.649102
    7       -7.046726
    8       -6.774185
    9        1.308389
   10        1.436077
   11        2.112734
   12        2.519156
 
  0.3333333E+00  0.5555556E-01  0.0000000E+00  0.4629630E-02
    1      -21.333054
    2      -19.378516
    3      -12.121194
    4       -9.357893
    5       -9.091169
    6       -8.052875
    7       -7.312722
    8       -7.130463
    9        1.519297
   10        1.977347
   11        2.325295
   12        2.735119
 
  0.3750000E+00  0.5555556E-01  0.0000000E+00  0.4629630E-02
    1      -21.157896
    2      -19.690223
    3      -11.583786
    4       -9.153050
    5       -8.920027
    6       -8.495822
    7       -7.574749
    8       -7.474275
    9        1.758167
   10        2.522559
   11        2.565902
   12        2.979846
 
  0.4166667E+00  0.5555556E-01  0.0000000E+00  0.4629630E-02
    1      -20.962571
    2      -19.983301
    3      -11.046060
    4       -8.970127
    5       -8.925502
    6       -8.731574
    7       -7.829377
    8       -7.802613
    9        2.024912
   10        2.834304
   11        3.064592
   12        3.253306
 
  0.4583333E+00  0.5555556E-01  0.0000000E+00  0.4629630E-02
    1      -20.747239
    2      -20.257362
    3      -10.511459
    4       -9.468356
    5       -8.675839
    6       -8.526900
    7       -8.113320
    8       -8.074208
    9        2.319411
   10        2.990670
   11        3.129848
   12        3.556888
 
  0.5000000E+00  0.5555556E-01  0.0000000E+00  0.2314815E-02
    1      -20.512096
    2      -20.512096
    3       -9.983987
    4       -9.983987
    5       -8.404799
    6       -8.404799
    7       -8.307283
    8       -8.307283
    9        2.641463
   10        2.641463
   11        3.449071
   12        3.449071
 
  0.0000000E+00  0.8333333E-01  0.0000000E+00  0.2314815E-02
    1      -21.931291
    2      -16.541726
    3      -15.755032
    4      -10.062319
    5      -10.020293
    6       -6.478340
    7       -6.025184
    8       -4.723737
    9       -1.224355
   10        0.705760
   11        1.505456
   12        1.903063
 
  0.4166667E-01  0.8333333E-01  0.0000000E+00  0.4629630E-02
    1      -21.920908
    2      -16.744920
    3      -15.537508
    4      -10.050040
    5      -10.009484
    6       -6.517671
    7       -6.043202
    8       -4.796498
    9       -1.138287
   10        0.719851
   11        1.519661
   12        1.917464
 
  0.8333333E-01  0.8333333E-01  0.0000000E+00  0.4629630E-02
    1      -21.889764
    2      -17.115794
    3      -15.123762
    4      -10.013222
    5       -9.977082
    6       -6.629368
    7       -6.101813
    8       -4.995645
    9       -0.899395
   10        0.762122
   11        1.562274
   12        1.960669
 
  0.1250000E+00  0.8333333E-01  0.0000000E+00  0.4629630E-02
    1      -21.837882
    2      -17.509935
    3      -14.658585
    4       -9.951923
    5       -9.923171
    6       -6.800351
    7       -6.208960
    8       -5.280846
    9       -0.548555
   10        0.832567
   11        1.633283
   12        2.032677
 
  0.1666667E+00  0.8333333E-01  0.0000000E+00  0.4629630E-02
    1      -21.765298
    2      -17.899802
    3      -14.170153
    4       -9.866240
    5       -9.847885
    6       -7.018637
    7       -6.368375
    8       -5.615260
    9       -0.123506
   10        0.931174
   11        1.732669
   12        2.133487
 
  0.2083333E+00  0.8333333E-01  0.0000000E+00  0.4629630E-02
    1      -21.672062
    2      -18.277823
    3      -13.666965
    4       -9.756313
    5       -9.751414
    6       -7.276018
    7       -6.577454
    8       -5.973539
    9        0.349163
   10        1.057923
   11        1.860403
   12        2.263098
 
  0.2500000E+00  0.8333333E-01  0.0000000E+00  0.4629630E-02
    1      -21.558242
    2      -18.640970
    3      -13.153296
    4       -9.633997
    5       -9.622332
    6       -7.568201
    7       -6.827963
    8       -6.339768
    9        0.851967
   10        1.212785
   11        2.016445
   12        2.421505
 
  0.2916667E+00  0.8333333E-01  0.0000000E+00  0.4629630E-02
    1      -21.423921
    2      -18.987676
    3      -12.632324
    4       -9.495926
    5       -9.464539
    6       -7.894316
    7       -7.107461
    8       -6.704020
    9        1.373093
   10        1.395721
   11        2.200739
   12        2.608705
 
  0.3333333E+00  0.8333333E-01  0.0000000E+00  0.4629630E-02
    1      -21.269200
    2      -19.316981
    3      -12.107056
    4       -9.337530
    5       -9.283238
    6       -8.255621
    7       -7.401460
    8       -7.059926
    9        1.606684
   10        1.903988
   11        2.413208
   12        2.824688
 
  0.3750000E+00  0.8333333E-01  0.0000000E+00  0.4629630E-02
    1      -21.094198
    2      -19.628221
    3      -11.580714
    4       -9.159170
    5       -9.078809
    6       -8.653165
    7       -7.696426
    8       -7.403241
    9        1.845613
   10        2.437903
   11        2.653736
   12        3.069444
 
  0.4166667E+00  0.8333333E-01  0.0000000E+00  0.4629630E-02
    1      -20.899056
    2      -19.920898
    3      -11.056972
    4       -9.085511
    5       -8.961225
    6       -8.851722
    7       -7.982444
    8       -7.731022
    9        2.112428
   10        2.922119
   11        2.968846
   12        3.342951
 
  0.4583333E+00  0.8333333E-01  0.0000000E+00  0.4629630E-02
    1      -20.683942
    2      -20.194615
    3      -10.540136
    4       -9.548260
    5       -8.744072
    6       -8.602564
    7       -8.253870
    8       -8.041153
    9        2.407023
   10        3.078814
   11        3.217838
   12        3.487581
 
  0.5000000E+00  0.8333333E-01  0.0000000E+00  0.2314815E-02
    1      -20.449051
    2      -20.449051
    3      -10.035274
    4      -10.035274
    5       -8.508107
    6       -8.508107
    7       -8.332065
    8       -8.332065
    9        2.729242
   10        2.729242
   11        3.537459
   12        3.537460
 
  0.0000000E+00  0.1111111E+00  0.0000000E+00  0.2314815E-02
    1      -21.841258
    2      -16.463808
    3      -15.687605
    4      -10.364257
    5       -9.955862
    6       -6.799720
    7       -6.238250
    8       -4.614931
    9       -1.280987
   10        0.827790
   11        1.629085
   12        2.028370
 
  0.4166667E-01  0.1111111E+00  0.0000000E+00  0.4629630E-02
    1      -21.830885
    2      -16.666817
    3      -15.470826
    4      -10.353094
    5       -9.943618
    6       -6.844677
    7       -6.246308
    8       -4.689270
    9       -1.194347
   10        0.841882
   11        1.643280
   12        2.042772
 
  0.8333333E-01  0.1111111E+00  0.0000000E+00  0.4629630E-02
    1      -21.799773
    2      -17.036515
    3      -15.059970
    4      -10.319607
    5       -9.906905
    6       -6.968968
    7       -6.279937
    8       -4.891828
    9       -0.955067
   10        0.884156
   11        1.685859
   12        2.085978
 
  0.1250000E+00  0.1111111E+00  0.0000000E+00  0.4629630E-02
    1      -21.747944
    2      -17.429225
    3      -14.599183
    4      -10.263798
    5       -9.845780
    6       -7.152545
    7       -6.355724
    8       -5.180230
    9       -0.606061
   10        0.954610
   11        1.756812
   12        2.157988
 
  0.1666667E+00  0.1111111E+00  0.0000000E+00  0.4629630E-02
    1      -21.675434
    2      -17.817740
    3      -14.116478
    4      -10.185661
    5       -9.760342
    6       -7.378970
    7       -6.484138
    8       -5.516759
    9       -0.185927
   10        1.053235
   11        1.856117
   12        2.258802
 
  0.2083333E+00  0.1111111E+00  0.0000000E+00  0.4629630E-02
    1      -21.582298
    2      -18.194560
    3      -13.620538
    4      -10.085168
    5       -9.650732
    6       -7.637347
    7       -6.667633
    8       -5.876082
    9        0.278793
   10        1.180013
   11        1.983744
   12        2.388420
 
  0.2500000E+00  0.1111111E+00  0.0000000E+00  0.4629630E-02
    1      -21.468604
    2      -18.556660
    3      -13.116008
    4       -9.962244
    5       -9.517139
    6       -7.921053
    7       -6.902292
    8       -6.242563
    9        0.770957
   10        1.334913
   11        2.139653
   12        2.546840
 
  0.2916667E+00  0.1111111E+00  0.0000000E+00  0.4629630E-02
    1      -21.334437
    2      -18.902462
    3      -12.606600
    4       -9.816731
    5       -9.359808
    6       -8.226893
    7       -7.179380
    8       -6.606545
    9        1.279142
   10        1.517895
   11        2.323789
   12        2.734054
 
  0.3333333E+00  0.1111111E+00  0.0000000E+00  0.4629630E-02
    1      -21.179900
    2      -19.230990
    3      -12.096052
    4       -9.648343
    5       -9.179042
    6       -8.554701
    7       -7.486591
    8       -6.961867
    9        1.728906
   10        1.795195
   11        2.536079
   12        2.950058
 
  0.3750000E+00  0.1111111E+00  0.0000000E+00  0.4629630E-02
    1      -21.005119
    2      -19.541562
    3      -11.588566
    4       -9.456608
    5       -8.975221
    6       -8.906833
    7       -7.809346
    8       -7.304423
    9        1.967884
   10        2.312838
   11        2.776427
   12        3.194840
 
  0.4166667E+00  0.1111111E+00  0.0000000E+00  0.4629630E-02
    1      -20.810238
    2      -19.833664
    3      -11.089055
    4       -9.286840
    5       -9.240841
    6       -8.748813
    7       -8.132673
    8       -7.631363
    9        2.234752
   10        2.826878
   11        3.044689
   12        3.468386
 
  0.4583333E+00  0.1111111E+00  0.0000000E+00  0.4629630E-02
    1      -20.595433
    2      -20.106890
    3      -10.603225
    4       -9.697205
    5       -9.000236
    6       -8.500399
    7       -8.443796
    8       -7.940633
    9        2.529411
   10        3.201515
   11        3.332546
   12        3.340580
 
  0.5000000E+00  0.1111111E+00  0.0000000E+00  0.2314815E-02
    1      -20.360904
    2      -20.360904
    3      -10.137315
    4      -10.137315
    5       -8.734278
    6       -8.734278
    7       -8.230702
    8       -8.230702
    9        2.851730
   10        2.851730
   11        3.660969
   12        3.661195
 
  0.0000000E+00  0.1388889E+00  0.0000000E+00  0.2314815E-02
    1      -21.725658
    2      -16.363681
    3      -15.604500
    4      -10.766649
    5       -9.819386
    6       -7.180162
    7       -6.501161
    8       -4.475272
    9       -1.362451
   10        0.984750
   11        1.787945
   12        2.189495
 
  0.4166667E-01  0.1388889E+00  0.0000000E+00  0.4629630E-02
    1      -21.715298
    2      -16.566816
    3      -15.388448
    4      -10.754899
    5       -9.807189
    6       -7.229936
    7       -6.499429
    8       -4.551944
    9       -1.274820
   10        0.998837
   11        1.802122
   12        2.203895
 
  0.8333333E-01  0.1388889E+00  0.0000000E+00  0.4629630E-02
    1      -21.684226
    2      -16.935141
    3      -14.981588
    4      -10.719599
    5       -9.770617
    6       -7.364892
    7       -6.508074
    8       -4.759438
    9       -1.034622
   10        1.041099
   11        1.844648
   12        2.247099
 
  0.1250000E+00  0.1388889E+00  0.0000000E+00  0.4629630E-02
    1      -21.632465
    2      -17.325988
    3      -14.527229
    4      -10.660598
    5       -9.709728
    6       -7.559175
    7       -6.551152
    8       -5.052330
    9       -0.687800
   10        1.111539
   11        1.915510
   12        2.319106
 
  0.1666667E+00  0.1388889E+00  0.0000000E+00  0.4629630E-02
    1      -21.560055
    2      -17.712707
    3      -14.053145
    4      -10.577611
    5       -9.624623
    6       -7.793024
    7       -6.644852
    8       -5.391720
    9       -0.274093
   10        1.210154
   11        2.014683
   12        2.419920
 
  0.2083333E+00  0.1388889E+00  0.0000000E+00  0.4629630E-02
    1      -21.467049
    2      -18.087921
    3      -13.568388
    4      -10.470172
    5       -9.515444
    6       -8.053874
    7       -6.795928
    8       -5.752376
    9        0.180134
   10        1.336931
   11        2.142133
   12        2.549540
 
  0.2500000E+00  0.1388889E+00  0.0000000E+00  0.4629630E-02
    1      -21.353517
    2      -18.448623
    3      -13.078306
    4      -10.337564
    5       -9.382381
    6       -8.333833
    7       -7.004119
    8       -6.119094
    9        0.658298
   10        1.491844
   11        2.297813
   12        2.707966
 
  0.2916667E+00  0.1388889E+00  0.0000000E+00  0.4629630E-02
    1      -21.219551
    2      -18.793220
    3      -12.587638
    4      -10.178721
    5       -9.225680
    6       -8.628193
    7       -7.264015
    8       -6.482613
    9        1.149561
   10        1.674849
   11        2.481657
   12        2.895193
 
  0.3333333E+00  0.1388889E+00  0.0000000E+00  0.4629630E-02
    1      -21.065256
    2      -19.120713
    3      -12.101495
    4       -9.992142
    5       -9.045646
    6       -8.934832
    7       -7.566385
    8       -6.837057
    9        1.646326
   10        1.885889
   11        2.693583
   12        3.111213
 
  0.3750000E+00  0.1388889E+00  0.0000000E+00  0.4629630E-02
    1      -20.890763
    2      -19.430398
    3      -11.625734
    4       -9.775892
    5       -9.254079
    6       -8.842659
    7       -7.899169
    8       -7.178514
    9        2.124894
   10        2.142865
   11        2.933479
   12        3.356016
 
  0.4166667E+00  0.1388889E+00  0.0000000E+00  0.4629630E-02
    1      -20.696227
    2      -19.721740
    3      -11.166858
    4       -9.588676
    5       -9.527938
    6       -8.617184
    7       -8.248255
    8       -7.504259
    9        2.391782
   10        2.634578
   11        3.201184
   12        3.629592
 
  0.4583333E+00  0.1388889E+00  0.0000000E+00  0.4629630E-02
    1      -20.481826
    2      -19.994316
    3      -10.731173
    4       -9.943299
    5       -9.247156
    6       -8.598446
    7       -8.369797
    8       -7.812317
    9        2.686457
   10        3.117533
   11        3.358631
   12        3.496366
 
  0.5000000E+00  0.1388889E+00  0.0000000E+00  0.2314815E-02
    1      -20.247774
    2      -20.247774
    3      -10.323080
    4      -10.323080
    5       -8.935204
    6       -8.935204
    7       -8.101210
    8       -8.101210
    9        3.008794
   10        3.008794
   11        3.587584
   12        3.588846
 
  0.0000000E+00  0.1666667E+00  0.0000000E+00  0.2314815E-02
    1      -21.584612
    2      -16.241384
    3      -15.509561
    4      -11.206606
    5       -9.653200
    6       -7.604246
    7       -6.807115
    8       -4.304943
    9       -1.474457
   10        1.176648
   11        1.981955
   12        2.386440
 
  0.4166667E-01  0.1666667E+00  0.0000000E+00  0.4629630E-02
    1      -21.574269
    2      -16.445361
    3      -15.293996
    4      -11.193859
    5       -9.641065
    6       -7.658279
    7       -6.795811
    8       -4.385049
    9       -1.385081
   10        1.190724
   11        1.996104
   12        2.400839
 
  0.8333333E-01  0.1666667E+00  0.0000000E+00  0.4629630E-02
    1      -21.543248
    2      -16.812236
    3      -14.892676
    4      -11.155469
    5       -9.604678
    6       -7.802699
    7       -6.779566
    8       -4.599589
    9       -1.142888
   10        1.232956
   11        2.038545
   12        2.444036
 
  0.1250000E+00  0.1666667E+00  0.0000000E+00  0.4629630E-02
    1      -21.491573
    2      -17.200745
    3      -14.447856
    4      -11.090967
    5       -9.544100
    6       -8.006681
    7       -6.788895
    8       -4.898602
    9       -0.798303
   10        1.303351
   11        2.109258
   12        2.516034
 
  0.1666667E+00  0.1666667E+00  0.0000000E+00  0.4629630E-02
    1      -21.419284
    2      -17.585152
    3      -13.987021
    4      -10.999492
    5       -9.459431
    6       -8.247764
    7       -6.844940
    8       -5.241689
    9       -0.392469
   10        1.401916
   11        2.208212
   12        2.616839
 
  0.2083333E+00  0.1666667E+00  0.0000000E+00  0.4629630E-02
    1      -21.326439
    2      -17.958292
    3      -13.519981
    4      -10.879681
    5       -9.350817
    6       -8.512203
    7       -6.958293
    8       -5.603914
    9        0.048708
   10        1.528650
   11        2.335354
   12        2.746452
 
  0.2500000E+00  0.1666667E+00  0.0000000E+00  0.4629630E-02
    1      -21.213111
    2      -18.317188
    3      -13.053448
    4      -10.729525
    5       -9.218452
    6       -8.791417
    7       -7.132010
    8       -5.970743
    9        0.509542
   10        1.683532
   11        2.490612
   12        2.904876
 
  0.2916667E+00  0.1666667E+00  0.0000000E+00  0.4629630E-02
    1      -21.079395
    2      -18.660234
    3      -12.593994
    4      -10.546276
    5       -9.079933
    6       -9.062581
    7       -7.363629
    8       -6.333473
    9        0.980068
   10        1.866522
   11        2.673872
   12        3.092107
 
  0.3333333E+00  0.1666667E+00  0.0000000E+00  0.4629630E-02
    1      -20.925404
    2      -18.986399
    3      -12.148730
    4      -10.326633
    5       -9.374479
    6       -8.883515
    7       -7.646585
    8       -6.686615
    9        1.453475
   10        2.077556
   11        2.884951
   12        3.308137
 
  0.3750000E+00  0.1666667E+00  0.0000000E+00  0.4629630E-02
    1      -20.751274
    2      -19.294949
    3      -11.724796
    4      -10.067634
    5       -9.673679
    6       -8.681632
    7       -7.971343
    8       -7.026510
    9        1.924762
   10        2.316556
   11        3.123470
   12        3.552958
 
  0.4166667E+00  0.1666667E+00  0.0000000E+00  0.4629630E-02
    1      -20.557170
    2      -19.585323
    3      -11.327635
    4       -9.978063
    5       -9.768605
    6       -8.457399
    7       -8.326249
    8       -7.350595
    9        2.389981
   10        2.583430
   11        3.388076
   12        3.826555
 
  0.4583333E+00  0.1666667E+00  0.0000000E+00  0.4629630E-02
    1      -20.343280
    2      -19.857073
    3      -10.958772
    4      -10.290251
    5       -9.433560
    6       -8.698028
    7       -8.211385
    8       -7.656995
    9        2.845682
   10        2.878070
   11        3.550106
   12        3.640514
 
  0.5000000E+00  0.1666667E+00  0.0000000E+00  0.2314815E-02
    1      -20.109829
    2      -20.109829
    3      -10.615028
    4      -10.615028
    5       -9.072143
    6       -9.072143
    7       -7.944292
    8       -7.944292
    9        3.200348
   10        3.200348
   11        3.287596
   12        3.287596
 