       N       E                     dE             d eps       ncg     rms          rms(c)
DAV:   1     0.186589679581E+03    0.18659E+03   -0.10528E+04  5928   0.274E+03
DAV:   2    -0.985740863484E+01   -0.19645E+03   -0.17549E+03 10456   0.260E+02
DAV:   3    -0.380600067564E+02   -0.28203E+02   -0.27596E+02  7404   0.118E+02    0.705E+00
RMM:   4    -0.375266043453E+02    0.53340E+00   -0.91737E+00  5928   0.260E+01    0.407E+00
RMM:   5    -0.368374398439E+02    0.68916E+00   -0.25877E+00  5929   0.110E+01    0.687E-01
RMM:   6    -0.368399804748E+02   -0.25406E-02   -0.85235E-02  6394   0.202E+00    0.496E-01
RMM:   7    -0.368313447843E+02    0.86357E-02   -0.30956E-02  5949   0.152E+00    0.320E-01
RMM:   8    -0.368265952111E+02    0.47496E-02   -0.62538E-03  5928   0.526E-01    0.132E-01
RMM:   9    -0.368264839194E+02    0.11129E-03   -0.19089E-02  5928   0.816E-01    0.151E-01
RMM:  10    -0.368263458996E+02    0.13802E-03   -0.20684E-03  5928   0.328E-01    0.261E-02
RMM:  11    -0.368285830193E+02   -0.22371E-02   -0.69409E-04  5928   0.180E-01    0.434E-02
RMM:  12    -0.368290596492E+02   -0.47663E-03   -0.19397E-04  5942   0.930E-02    0.634E-03
RMM:  13    -0.368293400281E+02   -0.28038E-03   -0.57603E-05  6021   0.410E-02    0.353E-03
RMM:  14    -0.368294209246E+02   -0.80897E-04   -0.10435E-05  5959   0.158E-02    0.109E-03
RMM:  15    -0.368294339686E+02   -0.13044E-04   -0.19737E-06  5960   0.786E-03    0.215E-03
RMM:  16    -0.368294481518E+02   -0.14183E-04   -0.16836E-06  5928   0.843E-03    0.112E-03
RMM:  17    -0.368294542610E+02   -0.61093E-05   -0.99516E-08  6067   0.195E-03    0.775E-04
RMM:  18    -0.368294553912E+02   -0.11302E-05   -0.69961E-08  5928   0.195E-03    0.852E-05
RMM:  19    -0.368294560775E+02   -0.68631E-06   -0.93472E-09  5928   0.455E-04    0.146E-05
RMM:  20    -0.368294561302E+02   -0.52682E-07   -0.83375E-10  4466   0.138E-04    0.189E-05
RMM:  21    -0.368294561418E+02   -0.11589E-07   -0.17405E-10  4300   0.799E-05    0.802E-06
RMM:  22    -0.368294561417E+02    0.73101E-10   -0.18208E-11  3886   0.489E-05
   1 F= -.36829456E+02 E0= -.36829456E+02  d E =-.368295E+02
       N       E                     dE             d eps       ncg     rms          rms(c)
DAV:   1    -0.368294561417E+02    0.84583E-10   -0.12120E-09  6412   0.795E-04    0.162E-05
RMM:   2    -0.368294561419E+02   -0.22897E-09   -0.87953E-11  3871   0.983E-05    0.118E-05
RMM:   3    -0.368294561423E+02   -0.35629E-09   -0.27336E-11  3790   0.652E-05    0.261E-06
RMM:   4    -0.368294561421E+02    0.22737E-09   -0.15528E-11  3485   0.415E-05    0.111E-06
RMM:   5    -0.368294561421E+02   -0.58549E-10   -0.50415E-12  3261   0.330E-05
   2 F= -.36829456E+02 E0= -.36829456E+02  d E =-.404953E-09
       N       E                     dE             d eps       ncg     rms          rms(c)
DAV:   1    -0.368294561417E+02    0.34981E-09    0.14398E-09  6504   0.631E-04    0.128E-05
RMM:   2    -0.368294561423E+02   -0.54217E-09   -0.33800E-11  3646   0.725E-05    0.907E-06
RMM:   3    -0.368294561423E+02   -0.29331E-10   -0.19950E-11  3667   0.579E-05    0.230E-06
RMM:   4    -0.368294561423E+02    0.25807E-10   -0.10848E-11  3147   0.380E-05    0.789E-07
RMM:   5    -0.368294561422E+02    0.44452E-10   -0.46755E-12  2862   0.306E-05
   3 F= -.36829456E+02 E0= -.36829456E+02  d E =-.928821E-10
       N       E                     dE             d eps       ncg     rms          rms(c)
DAV:   1    -0.368294561415E+02    0.75454E-09    0.59012E-09  4660   0.315E-05    0.725E-07
RMM:   2    -0.368294561421E+02   -0.55161E-09   -0.79525E-14  1407   0.117E-05    0.451E-07
RMM:   3    -0.368294561421E+02    0.11369E-10    0.56005E-14  1288   0.118E-05    0.148E-08
RMM:   4    -0.368294561421E+02   -0.15916E-11    0.12344E-13  1141   0.118E-05    0.618E-09
RMM:   5    -0.368294561420E+02    0.68212E-11   -0.38932E-13  1077   0.117E-05
   4 F= -.36829456E+02 E0= -.36829456E+02  d E =0.175078E-09
       N       E                     dE             d eps       ncg     rms          rms(c)
DAV:   1    -0.368294561414E+02    0.62744E-09    0.59056E-09  4208   0.151E-05    0.239E-07
RMM:   2    -0.368294561420E+02   -0.57310E-09   -0.53126E-14   769   0.523E-06    0.146E-07
RMM:   3    -0.368294561420E+02   -0.15916E-11    0.14556E-13   946   0.523E-06    0.342E-09
RMM:   4    -0.368294561420E+02    0.68212E-12    0.36514E-14   780   0.522E-06    0.128E-09
RMM:   5    -0.368294561420E+02    0.68212E-12    0.65133E-14   951   0.521E-06
   5 F= -.36829456E+02 E0= -.36829456E+02  d E =0.472937E-10
