gr                                      
           1
     4.251828    0.000000    0.000000
     0.000000    2.541445    0.000000
     0.000000    0.000000   19.511572
   C 
   4
Direct configuration=     1
   0.00074775  0.00000000  0.00000000
   0.16591892  0.50000000  0.00000000
   0.50074775  0.50000000  0.00000000
   0.66591892  0.00000000  0.00000000
Direct configuration=     2
   0.00074756 -0.00000000  0.00000000
   0.16591911  0.50000000 -0.00000000
   0.50074756  0.50000000  0.00000000
   0.66591911  0.00000000 -0.00000000
Direct configuration=     3
   0.00074771 -0.00000000  0.00000000
   0.16591896  0.50000000 -0.00000000
   0.50074771  0.50000000  0.00000000
   0.66591896  0.00000000 -0.00000000
Direct configuration=     4
   0.00074771 -0.00000000  0.00000000
   0.16591895  0.50000000 -0.00000000
   0.50074771  0.50000000  0.00000000
   0.66591895  0.00000000 -0.00000000
Direct configuration=     5
   0.00074771 -0.00000000  0.00000000
   0.16591896  0.50000000 -0.00000000
   0.50074771  0.50000000  0.00000000
   0.66591896  0.00000000 -0.00000000
