
     Program PWSCF v.6.7MaX starts on 10Feb2021 at 12:39:34 

     This program is part of the open-source Quantum ESPRESSO suite
     for quantum simulation of materials; please cite
         "P. Giannozzi et al., J. Phys.:Condens. Matter 21 395502 (2009);
         "P. Giannozzi et al., J. Phys.:Condens. Matter 29 465901 (2017);
          URL http://www.quantum-espresso.org", 
     in publications or presentations arising from this work. More details at
     http://www.quantum-espresso.org/quote

     Serial multi-threaded version, running on    4 processor cores
     Waiting for input...
     Reading input from standard input

     Current dimensions of program PWSCF are:
     Max number of different atomic species (ntypx) = 10
     Max number of k-points (npk) =  40000
     Max angular momentum in pseudopotentials (lmaxx) =  3
     Message from routine read_pp_mesh:
     mesh size missing, using the one in header
     file O.pbe-n-kjpaw_psl.0.1.UPF: wavefunction(s)  2P renormalized

     G-vector sticks info
     --------------------
     sticks:   dense  smooth     PW     G-vecs:    dense   smooth      PW
     Sum        1789    1789    437                57051    57051    7123



     bravais-lattice index     =            1
     lattice parameter (alat)  =      15.0000  a.u.
     unit-cell volume          =    3375.0000 (a.u.)^3
     number of atoms/cell      =            3
     number of atomic types    =            2
     number of electrons       =         8.00
     number of Kohn-Sham states=            4
     kinetic-energy cutoff     =      25.0000  Ry
     charge density cutoff     =     100.0000  Ry
     scf convergence threshold =      1.0E-08
     mixing beta               =       0.7000
     number of iterations used =            8  plain     mixing
     energy convergence thresh.=      0.0E+00
     force convergence thresh. =      0.0E+00
     Exchange-correlation= SLA  PW   PBX  PBC
                           (   1   4   3   4   0   0   0)
     nstep                     =          100


     celldm(1)=  15.000000  celldm(2)=   0.000000  celldm(3)=   0.000000
     celldm(4)=   0.000000  celldm(5)=   0.000000  celldm(6)=   0.000000

     crystal axes: (cart. coord. in units of alat)
               a(1) = (   1.000000   0.000000   0.000000 )  
               a(2) = (   0.000000   1.000000   0.000000 )  
               a(3) = (   0.000000   0.000000   1.000000 )  

     reciprocal axes: (cart. coord. in units 2 pi/alat)
               b(1) = (  1.000000  0.000000  0.000000 )  
               b(2) = (  0.000000  1.000000  0.000000 )  
               b(3) = (  0.000000  0.000000  1.000000 )  


     PseudoPot. # 1 for H  read from file:
     /home/natan/mphys/qe_pseudos/H_ONCV_PBE-1.0.oncvpsp.upf
     MD5 check sum: 1790becc920ee074925cf490c71280fe
     Pseudo is Norm-conserving, Zval =  1.0
     Generated using ONCVPSP code by D. R. Hamann
     Using radial grid of 1166 points,  2 beta functions with: 
                l(1) =   0
                l(2) =   0

     PseudoPot. # 2 for O  read from file:
     /home/natan/mphys/qe_pseudos/O.pbe-n-kjpaw_psl.0.1.UPF
     MD5 check sum: 0234752ac141de4415c5fc33072bef88
     Pseudo is Projector augmented-wave + core cor, Zval =  6.0
     Generated using "atomic" code by A. Dal Corso  v.5.0.99 svn rev. 10869
     Shape of augmentation charge: BESSEL
     Using radial grid of 1095 points,  4 beta functions with: 
                l(1) =   0
                l(2) =   0
                l(3) =   1
                l(4) =   1
     Q(r) pseudized with 0 coefficients 


     atomic species   valence    mass     pseudopotential
        H              1.00     1.00784     H ( 1.00)
        O              6.00    15.99900     O ( 1.00)

     No symmetry found



   Cartesian axes

     site n.     atom                  positions (alat units)
         1           O   tau(   1) = (   0.6299624   0.6023911   0.6298886  )
         2           H   tau(   2) = (   0.6298790   0.6814236   0.7281543  )
         3           H   tau(   3) = (   0.6298848   0.6815005   0.5316832  )

     number of k points=     1
                       cart. coord. in units 2pi/alat
        k(    1) = (   0.0000000   0.0000000   0.0000000), wk =   2.0000000

     Dense  grid:    57051 G-vectors     FFT dimensions: (  48,  48,  48)

     Estimated max dynamical RAM per process >      78.78 MB

     Check: negative core charge=   -0.000056

     Initial potential from superposition of free atoms

     starting charge    7.99998, renormalised to    8.00000

     negative rho (up, down):  3.485E-03 0.000E+00
     Starting wfcs are    6 randomized atomic wfcs

     total cpu time spent up to now is        0.4 secs

     Self-consistent Calculation

     iteration #  1     ecut=    25.00 Ry     beta= 0.70
     Davidson diagonalization with overlap
     ethr =  1.00E-02,  avg # of iterations =  2.0

     negative rho (up, down):  5.838E-03 0.000E+00

     total cpu time spent up to now is        0.9 secs

     total energy              =     -43.66758256 Ry
     estimated scf accuracy    <       0.32177069 Ry

     iteration #  2     ecut=    25.00 Ry     beta= 0.70
     Davidson diagonalization with overlap
     ethr =  4.02E-03,  avg # of iterations =  2.0

     negative rho (up, down):  4.669E-03 0.000E+00

     total cpu time spent up to now is        1.3 secs

     total energy              =     -43.73844304 Ry
     estimated scf accuracy    <       0.27002129 Ry

     iteration #  3     ecut=    25.00 Ry     beta= 0.70
     Davidson diagonalization with overlap
     ethr =  3.38E-03,  avg # of iterations =  2.0

     negative rho (up, down):  5.148E-03 0.000E+00

     total cpu time spent up to now is        1.7 secs

     total energy              =     -43.79007141 Ry
     estimated scf accuracy    <       0.00346246 Ry

     iteration #  4     ecut=    25.00 Ry     beta= 0.70
     Davidson diagonalization with overlap
     ethr =  4.33E-05,  avg # of iterations =  2.0

     negative rho (up, down):  5.160E-03 0.000E+00

     total cpu time spent up to now is        2.1 secs

     total energy              =     -43.79076923 Ry
     estimated scf accuracy    <       0.00088482 Ry

     iteration #  5     ecut=    25.00 Ry     beta= 0.70
     Davidson diagonalization with overlap
     ethr =  1.11E-05,  avg # of iterations =  1.0

     negative rho (up, down):  5.200E-03 0.000E+00

     total cpu time spent up to now is        2.4 secs

     total energy              =     -43.79074265 Ry
     estimated scf accuracy    <       0.00018127 Ry

     iteration #  6     ecut=    25.00 Ry     beta= 0.70
     Davidson diagonalization with overlap
     ethr =  2.27E-06,  avg # of iterations =  2.0

     negative rho (up, down):  5.203E-03 0.000E+00

     total cpu time spent up to now is        2.8 secs

     total energy              =     -43.79077952 Ry
     estimated scf accuracy    <       0.00000308 Ry

     iteration #  7     ecut=    25.00 Ry     beta= 0.70
     Davidson diagonalization with overlap
     ethr =  3.85E-08,  avg # of iterations =  3.0

     negative rho (up, down):  5.201E-03 0.000E+00

     total cpu time spent up to now is        3.4 secs

     total energy              =     -43.79078115 Ry
     estimated scf accuracy    <       0.00000332 Ry

     iteration #  8     ecut=    25.00 Ry     beta= 0.70
     Davidson diagonalization with overlap
     ethr =  3.85E-08,  avg # of iterations =  1.0

     negative rho (up, down):  5.197E-03 0.000E+00

     total cpu time spent up to now is        3.8 secs

     total energy              =     -43.79078060 Ry
     estimated scf accuracy    <       0.00000142 Ry

     iteration #  9     ecut=    25.00 Ry     beta= 0.70
     Davidson diagonalization with overlap
     ethr =  1.77E-08,  avg # of iterations =  2.0

     negative rho (up, down):  5.197E-03 0.000E+00

     total cpu time spent up to now is        4.2 secs

     End of self-consistent calculation

          k = 0.0000 0.0000 0.0000 (  7123 PWs)   bands (ev):

   -25.2744 -12.4639  -9.2117  -6.9498

     highest occupied level (ev):    -6.9498

!    total energy              =     -43.79078091 Ry
     estimated scf accuracy    <          6.0E-09 Ry

     convergence has been achieved in   9 iterations

     negative rho (up, down):  5.197E-03 0.000E+00

     Forces acting on atoms (cartesian axes, Ry/au):

     atom    1 type  2   force =     0.00018504    0.00001570   -0.00003529
     atom    2 type  1   force =    -0.00009447   -0.00001751    0.00000942
     atom    3 type  1   force =    -0.00009057    0.00000181    0.00002586

     Total force =     0.000232     Total SCF correction =     0.000122
     SCF correction compared to forces is large: reduce conv_thr to get better values


     Computing stress (Cartesian axis) and pressure


     negative rho (up, down):  5.197E-03 0.000E+00
          total   stress  (Ry/bohr**3)                   (kbar)     P=      -38.97
  -0.00027836  -0.00000005   0.00000000          -40.95       -0.01        0.00
  -0.00000005  -0.00026218   0.00000007           -0.01      -38.57        0.01
   0.00000000   0.00000007  -0.00025426            0.00        0.01      -37.40


     Molecular Dynamics Calculation

     Starting temperature  =   300.00 K

     temperature is set once at start

     mass H                =     1.01
     mass O                =    16.00
     Time step             =    20.00 a.u.,  0.9676 femto-seconds

     Entering Dynamics:    iteration =     1
                           time      =   0.0010 pico-seconds


ATOMIC_POSITIONS (angstrom)
O             4.9993043896        4.7806701729        4.9996238300
H             5.0191381522        5.4004826733        5.7677281485
H             4.9982381787        5.4322947689        4.2358722117


     kinetic energy (Ekin) =           0.00570026 Ry
     temperature           =         300.00000000 K 
     Ekin + Etot (const)   =         -43.78508065 Ry
     Ions kinetic stress =            0.17 (kbar)
                                      0.14          -0.07          -0.09
                                     -0.07           0.22           0.16
                                     -0.09           0.16           0.14



     Linear momentum :    0.0000000000   -0.0000000000   -0.0000000000

     Writing output data file ./outdir/h2o.save/
     NEW-OLD atomic charge density approx. for the potential

     Check: negative core charge=   -0.000056

     negative rho (up, down):  5.310E-03 0.000E+00

     total cpu time spent up to now is        5.3 secs

     Self-consistent Calculation

     iteration #  1     ecut=    25.00 Ry     beta= 0.70
     Davidson diagonalization with overlap
     ethr =  1.00E-06,  avg # of iterations =  4.0

     negative rho (up, down):  5.242E-03 0.000E+00

     total cpu time spent up to now is        5.7 secs

     total energy              =     -43.79028565 Ry
     estimated scf accuracy    <       0.00012541 Ry

     iteration #  2     ecut=    25.00 Ry     beta= 0.70
     Davidson diagonalization with overlap
     ethr =  1.57E-06,  avg # of iterations =  2.0

     negative rho (up, down):  5.212E-03 0.000E+00

     total cpu time spent up to now is        6.2 secs

     total energy              =     -43.79029699 Ry
     estimated scf accuracy    <       0.00002573 Ry

     iteration #  3     ecut=    25.00 Ry     beta= 0.70
     Davidson diagonalization with overlap
     ethr =  3.22E-07,  avg # of iterations =  2.0

     negative rho (up, down):  5.216E-03 0.000E+00

     total cpu time spent up to now is        6.6 secs

     total energy              =     -43.79030352 Ry
     estimated scf accuracy    <       0.00000746 Ry

     iteration #  4     ecut=    25.00 Ry     beta= 0.70
     Davidson diagonalization with overlap
     ethr =  9.32E-08,  avg # of iterations =  2.0

     negative rho (up, down):  5.216E-03 0.000E+00

     total cpu time spent up to now is        7.0 secs

     total energy              =     -43.79030470 Ry
     estimated scf accuracy    <       0.00000005 Ry

     iteration #  5     ecut=    25.00 Ry     beta= 0.70
     Davidson diagonalization with overlap
     ethr =  6.49E-10,  avg # of iterations =  3.0

     negative rho (up, down):  5.215E-03 0.000E+00

     total cpu time spent up to now is        7.5 secs

     total energy              =     -43.79030473 Ry
     estimated scf accuracy    <       0.00000003 Ry

     iteration #  6     ecut=    25.00 Ry     beta= 0.70
     Davidson diagonalization with overlap
     ethr =  3.18E-10,  avg # of iterations =  2.0

     negative rho (up, down):  5.215E-03 0.000E+00

     total cpu time spent up to now is        7.9 secs

     End of self-consistent calculation

          k = 0.0000 0.0000 0.0000 (  7123 PWs)   bands (ev):

   -25.3601 -12.4270  -9.3057  -6.9692

     highest occupied level (ev):    -6.9692

!    total energy              =     -43.79030473 Ry
     estimated scf accuracy    <          3.8E-10 Ry

     convergence has been achieved in   6 iterations

     negative rho (up, down):  5.215E-03 0.000E+00

     Forces acting on atoms (cartesian axes, Ry/au):

     atom    1 type  2   force =    -0.00007077   -0.00412223   -0.02070053
     atom    2 type  1   force =     0.00028588    0.01047279    0.02193561
     atom    3 type  1   force =    -0.00021510   -0.00635056   -0.00123509

     Total force =     0.032838     Total SCF correction =     0.000006


     Computing stress (Cartesian axis) and pressure


     negative rho (up, down):  5.215E-03 0.000E+00
          total   stress  (Ry/bohr**3)                   (kbar)     P=      -38.48
  -0.00027850   0.00000030   0.00000056          -40.97        0.04        0.08
   0.00000030  -0.00026141   0.00000614            0.04      -38.45        0.90
   0.00000056   0.00000614  -0.00024484            0.08        0.90      -36.02


     Entering Dynamics:    iteration =     2
                           time      =   0.0019 pico-seconds


ATOMIC_POSITIONS (angstrom)
O             4.9981819349        4.7797062667        4.9991065882
H             5.0385779148        5.3944710835        5.7606709961
H             4.9966168724        5.4536079293        4.2511403415


     kinetic energy (Ekin) =           0.00525906 Ry
     temperature           =         276.77995007 K 
     Ekin + Etot (const)   =         -43.78504567 Ry
     Ions kinetic stress =            0.15 (kbar)
                                      0.14          -0.06          -0.07
                                     -0.06           0.20           0.15
                                     -0.07           0.15           0.12



     Linear momentum :    0.0000000000   -0.0000000000   -0.0000000000

     Writing output data file ./outdir/h2o.save/

     first order wave-functions extrapolation
     first order charge density extrapolation

     Check: negative core charge=   -0.000056

     negative rho (up, down):  5.240E-03 0.000E+00

     total cpu time spent up to now is        9.0 secs

     Self-consistent Calculation

     iteration #  1     ecut=    25.00 Ry     beta= 0.70
     Davidson diagonalization with overlap
     ethr =  1.00E-06,  avg # of iterations =  3.0

     negative rho (up, down):  5.213E-03 0.000E+00

     total cpu time spent up to now is        9.4 secs

     total energy              =     -43.78940363 Ry
     estimated scf accuracy    <       0.00001712 Ry

     iteration #  2     ecut=    25.00 Ry     beta= 0.70
     Davidson diagonalization with overlap
     ethr =  2.14E-07,  avg # of iterations =  2.0

     negative rho (up, down):  5.222E-03 0.000E+00

     total cpu time spent up to now is        9.8 secs

     total energy              =     -43.78940720 Ry
     estimated scf accuracy    <       0.00001029 Ry

     iteration #  3     ecut=    25.00 Ry     beta= 0.70
     Davidson diagonalization with overlap
     ethr =  1.29E-07,  avg # of iterations =  2.0

     negative rho (up, down):  5.221E-03 0.000E+00

     total cpu time spent up to now is       10.2 secs

     total energy              =     -43.78940944 Ry
     estimated scf accuracy    <       0.00000023 Ry

     iteration #  4     ecut=    25.00 Ry     beta= 0.70
     Davidson diagonalization with overlap
     ethr =  2.88E-09,  avg # of iterations =  2.0

     negative rho (up, down):  5.220E-03 0.000E+00

     total cpu time spent up to now is       10.6 secs

     total energy              =     -43.78940947 Ry
     estimated scf accuracy    <       0.00000002 Ry

     iteration #  5     ecut=    25.00 Ry     beta= 0.70
     Davidson diagonalization with overlap
     ethr =  3.08E-10,  avg # of iterations =  2.0

     negative rho (up, down):  5.220E-03 0.000E+00

     total cpu time spent up to now is       11.1 secs

     End of self-consistent calculation

          k = 0.0000 0.0000 0.0000 (  7123 PWs)   bands (ev):

   -25.4149 -12.3706  -9.3889  -6.9820

     highest occupied level (ev):    -6.9820

!    total energy              =     -43.78940948 Ry
     estimated scf accuracy    <          7.2E-10 Ry

     convergence has been achieved in   5 iterations

     negative rho (up, down):  5.220E-03 0.000E+00

     Forces acting on atoms (cartesian axes, Ry/au):

     atom    1 type  2   force =    -0.00066074   -0.00379697   -0.03364458
     atom    2 type  1   force =     0.00124074    0.01560337    0.03636002
     atom    3 type  1   force =    -0.00058000   -0.01180640   -0.00271544

     Total force =     0.053488     Total SCF correction =     0.000044


     Computing stress (Cartesian axis) and pressure


     negative rho (up, down):  5.220E-03 0.000E+00
          total   stress  (Ry/bohr**3)                   (kbar)     P=      -38.18
  -0.00027847   0.00000076   0.00000146          -40.96        0.11        0.21
   0.00000076  -0.00026188   0.00000980            0.11      -38.52        1.44
   0.00000146   0.00000980  -0.00023825            0.21        1.44      -35.05


     Entering Dynamics:    iteration =     3
                           time      =   0.0029 pico-seconds


ATOMIC_POSITIONS (angstrom)
O             4.9970498891        4.7786872448        4.9981009716
H             5.0583035825        5.3920549825        5.7619922911
H             4.9948619156        5.4722005382        4.2657827517


     kinetic energy (Ekin) =           0.00442466 Ry
     temperature           =         232.86611466 K 
     Ekin + Etot (const)   =         -43.78498482 Ry
     Ions kinetic stress =            0.13 (kbar)
                                      0.15          -0.04          -0.02
                                     -0.04           0.15           0.12
                                     -0.02           0.12           0.09



     Linear momentum :   -0.0000000000    0.0000000000   -0.0000000000

     Writing output data file ./outdir/h2o.save/

     second order wave-functions extrapolation
     second order charge density extrapolation

     Check: negative core charge=   -0.000056

     negative rho (up, down):  5.230E-03 0.000E+00

     total cpu time spent up to now is       12.3 secs

     Self-consistent Calculation

     iteration #  1     ecut=    25.00 Ry     beta= 0.70
     Davidson diagonalization with overlap
     ethr =  1.00E-06,  avg # of iterations =  3.0

     negative rho (up, down):  5.193E-03 0.000E+00

     total cpu time spent up to now is       12.7 secs

     total energy              =     -43.78898029 Ry
     estimated scf accuracy    <       0.00003643 Ry

     iteration #  2     ecut=    25.00 Ry     beta= 0.70
     Davidson diagonalization with overlap
     ethr =  4.55E-07,  avg # of iterations =  2.0

     negative rho (up, down):  5.206E-03 0.000E+00

     total cpu time spent up to now is       13.1 secs

     total energy              =     -43.78898775 Ry
     estimated scf accuracy    <       0.00002098 Ry

     iteration #  3     ecut=    25.00 Ry     beta= 0.70
     Davidson diagonalization with overlap
     ethr =  2.62E-07,  avg # of iterations =  2.0

     negative rho (up, down):  5.204E-03 0.000E+00

     total cpu time spent up to now is       13.5 secs

     total energy              =     -43.78899224 Ry
     estimated scf accuracy    <       0.00000044 Ry

     iteration #  4     ecut=    25.00 Ry     beta= 0.70
     Davidson diagonalization with overlap
     ethr =  5.54E-09,  avg # of iterations =  2.0

     negative rho (up, down):  5.203E-03 0.000E+00

     total cpu time spent up to now is       13.9 secs

     total energy              =     -43.78899229 Ry
     estimated scf accuracy    <       0.00000005 Ry

     iteration #  5     ecut=    25.00 Ry     beta= 0.70
     Davidson diagonalization with overlap
     ethr =  5.94E-10,  avg # of iterations =  2.0

     negative rho (up, down):  5.203E-03 0.000E+00

     total cpu time spent up to now is       14.3 secs

     End of self-consistent calculation

          k = 0.0000 0.0000 0.0000 (  7123 PWs)   bands (ev):

   -25.4174 -12.2914  -9.4521  -6.9841

     highest occupied level (ev):    -6.9841

!    total energy              =     -43.78899230 Ry
     estimated scf accuracy    <          1.2E-09 Ry

     convergence has been achieved in   5 iterations

     negative rho (up, down):  5.203E-03 0.000E+00

     Forces acting on atoms (cartesian axes, Ry/au):

     atom    1 type  2   force =    -0.00070967    0.00381199   -0.03250062
     atom    2 type  1   force =     0.00178324    0.01137513    0.03715005
     atom    3 type  1   force =    -0.00107357   -0.01518712   -0.00464943

     Total force =     0.053268     Total SCF correction =     0.000079


     Computing stress (Cartesian axis) and pressure


     negative rho (up, down):  5.203E-03 0.000E+00
          total   stress  (Ry/bohr**3)                   (kbar)     P=      -38.22
  -0.00027831   0.00000102   0.00000226          -40.94        0.15        0.33
   0.00000102  -0.00026439   0.00000912            0.15      -38.89        1.34
   0.00000226   0.00000912  -0.00023677            0.33        1.34      -34.83


     Entering Dynamics:    iteration =     4
                           time      =   0.0039 pico-seconds


ATOMIC_POSITIONS (angstrom)
O             4.9959075419        4.7777235566        4.9966235855
H             5.0784401623        5.3922600555        5.7718740808
H             4.9928595763        5.4872935759        4.2793537919


     kinetic energy (Ekin) =           0.00400471 Ry
     temperature           =         210.76481349 K 
     Ekin + Etot (const)   =         -43.78498758 Ry
     Ions kinetic stress =            0.12 (kbar)
                                      0.15          -0.01           0.04
                                     -0.01           0.11           0.09
                                      0.04           0.09           0.09



     Linear momentum :   -0.0000000000   -0.0000000000   -0.0000000000

     Writing output data file ./outdir/h2o.save/

     second order wave-functions extrapolation
     second order charge density extrapolation

     Check: negative core charge=   -0.000056

     negative rho (up, down):  5.168E-03 0.000E+00

     total cpu time spent up to now is       15.3 secs

     Self-consistent Calculation

     iteration #  1     ecut=    25.00 Ry     beta= 0.70
     Davidson diagonalization with overlap
     ethr =  1.00E-06,  avg # of iterations =  3.0

     Threshold (ethr) on eigenvalues was too large:
     Diagonalizing with lowered threshold

     Davidson diagonalization with overlap
     ethr =  5.41E-09,  avg # of iterations =  3.0

     negative rho (up, down):  5.171E-03 0.000E+00

     total cpu time spent up to now is       16.0 secs

     total energy              =     -43.78910116 Ry
     estimated scf accuracy    <       0.00000065 Ry

     iteration #  2     ecut=    25.00 Ry     beta= 0.70
     Davidson diagonalization with overlap
     ethr =  8.10E-09,  avg # of iterations =  2.0

     negative rho (up, down):  5.169E-03 0.000E+00

     total cpu time spent up to now is       16.4 secs

     total energy              =     -43.78910129 Ry
     estimated scf accuracy    <       0.00000034 Ry

     iteration #  3     ecut=    25.00 Ry     beta= 0.70
     Davidson diagonalization with overlap
     ethr =  4.25E-09,  avg # of iterations =  2.0

     negative rho (up, down):  5.169E-03 0.000E+00

     total cpu time spent up to now is       16.8 secs

     total energy              =     -43.78910137 Ry
     estimated scf accuracy    <       0.00000001 Ry

     iteration #  4     ecut=    25.00 Ry     beta= 0.70
     Davidson diagonalization with overlap
     ethr =  1.29E-10,  avg # of iterations =  2.0

     negative rho (up, down):  5.170E-03 0.000E+00

     total cpu time spent up to now is       17.3 secs

     End of self-consistent calculation

          k = 0.0000 0.0000 0.0000 (  7123 PWs)   bands (ev):

   -25.3704 -12.2003  -9.4902  -6.9759

     highest occupied level (ev):    -6.9759

!    total energy              =     -43.78910137 Ry
     estimated scf accuracy    <          1.1E-09 Ry

     convergence has been achieved in   4 iterations

     negative rho (up, down):  5.170E-03 0.000E+00

     Forces acting on atoms (cartesian axes, Ry/au):

     atom    1 type  2   force =     0.00061155    0.01701404   -0.01802338
     atom    2 type  1   force =     0.00097721   -0.00101917    0.02491225
     atom    3 type  1   force =    -0.00158876   -0.01599487   -0.00688887

     Total force =     0.039283     Total SCF correction =     0.000037


     Computing stress (Cartesian axis) and pressure


     negative rho (up, down):  5.170E-03 0.000E+00
          total   stress  (Ry/bohr**3)                   (kbar)     P=      -38.57
  -0.00027809   0.00000084   0.00000255          -40.91        0.12        0.38
   0.00000084  -0.00026832   0.00000442            0.12      -39.47        0.65
   0.00000255   0.00000442  -0.00024024            0.38        0.65      -35.34


     Entering Dynamics:    iteration =     5
                           time      =   0.0048 pico-seconds


ATOMIC_POSITIONS (angstrom)
O             4.9947740717        4.7770068392        4.9948845773
H             5.0988019212        5.3922302805        5.7874964046
H             4.9904911386        5.4987009121        4.2913374290


     kinetic energy (Ekin) =           0.00405562 Ry
     temperature           =         213.44417467 K 
     Ekin + Etot (const)   =         -43.78504575 Ry
     Ions kinetic stress =            0.12 (kbar)
                                      0.16          -0.00           0.09
                                     -0.00           0.07           0.07
                                      0.09           0.07           0.13



     Linear momentum :   -0.0000000000   -0.0000000000   -0.0000000000

     Writing output data file ./outdir/h2o.save/

     second order wave-functions extrapolation
     second order charge density extrapolation

     Check: negative core charge=   -0.000056

     negative rho (up, down):  5.128E-03 0.000E+00

     total cpu time spent up to now is       18.3 secs

     Self-consistent Calculation

     iteration #  1     ecut=    25.00 Ry     beta= 0.70
     Davidson diagonalization with overlap
     ethr =  1.00E-06,  avg # of iterations =  3.0

     Threshold (ethr) on eigenvalues was too large:
     Diagonalizing with lowered threshold

     Davidson diagonalization with overlap
     ethr =  1.57E-08,  avg # of iterations =  3.0

     negative rho (up, down):  5.135E-03 0.000E+00

     total cpu time spent up to now is       18.9 secs

     total energy              =     -43.78905625 Ry
     estimated scf accuracy    <       0.00000193 Ry

     iteration #  2     ecut=    25.00 Ry     beta= 0.70
     Davidson diagonalization with overlap
     ethr =  2.41E-08,  avg # of iterations =  2.0

     negative rho (up, down):  5.132E-03 0.000E+00

     total cpu time spent up to now is       19.3 secs

     total energy              =     -43.78905669 Ry
     estimated scf accuracy    <       0.00000125 Ry

     iteration #  3     ecut=    25.00 Ry     beta= 0.70
     Davidson diagonalization with overlap
     ethr =  1.57E-08,  avg # of iterations =  2.0

     negative rho (up, down):  5.132E-03 0.000E+00

     total cpu time spent up to now is       19.8 secs

     total energy              =     -43.78905694 Ry
     estimated scf accuracy    <       0.00000001 Ry

     iteration #  4     ecut=    25.00 Ry     beta= 0.70
     Davidson diagonalization with overlap
     ethr =  1.87E-10,  avg # of iterations =  2.0

     negative rho (up, down):  5.133E-03 0.000E+00

     total cpu time spent up to now is       20.1 secs

     End of self-consistent calculation

          k = 0.0000 0.0000 0.0000 (  7123 PWs)   bands (ev):

   -25.2991 -12.1183  -9.5035  -6.9624

     highest occupied level (ev):    -6.9624

!    total energy              =     -43.78905694 Ry
     estimated scf accuracy    <          3.6E-09 Ry

     convergence has been achieved in   4 iterations

     negative rho (up, down):  5.133E-03 0.000E+00

     Forces acting on atoms (cartesian axes, Ry/au):

     atom    1 type  2   force =     0.00323938    0.03058294    0.00293662
     atom    2 type  1   force =    -0.00121766   -0.01610424    0.00617509
     atom    3 type  1   force =    -0.00202172   -0.01447870   -0.00911171

     Total force =     0.039372     Total SCF correction =     0.000063


     Computing stress (Cartesian axis) and pressure


     negative rho (up, down):  5.133E-03 0.000E+00
          total   stress  (Ry/bohr**3)                   (kbar)     P=      -39.05
  -0.00027794   0.00000026   0.00000225          -40.89        0.04        0.33
   0.00000026  -0.00027205  -0.00000209            0.04      -40.02       -0.31
   0.00000225  -0.00000209  -0.00024640            0.33       -0.31      -36.25


     Entering Dynamics:    iteration =     6
                           time      =   0.0058 pico-seconds


ATOMIC_POSITIONS (angstrom)
O             4.9936876235        4.7767340548        4.9931881963
H             5.1188830933        5.3884896030        5.8045416564
H             4.9876568357        5.5067719183        4.3012214519


     kinetic energy (Ekin) =           0.00398030 Ry
     temperature           =         209.47975533 K 
     Ekin + Etot (const)   =         -43.78507665 Ry
     Ions kinetic stress =            0.12 (kbar)
                                      0.16          -0.02           0.12
                                     -0.02           0.04           0.03
                                      0.12           0.03           0.15



     Linear momentum :   -0.0000000000    0.0000000000    0.0000000000

     Writing output data file ./outdir/h2o.save/

     second order wave-functions extrapolation
     second order charge density extrapolation

     Check: negative core charge=   -0.000056

     negative rho (up, down):  5.098E-03 0.000E+00

     total cpu time spent up to now is       21.2 secs

     Self-consistent Calculation

     iteration #  1     ecut=    25.00 Ry     beta= 0.70
     Davidson diagonalization with overlap
     ethr =  1.00E-06,  avg # of iterations =  3.0

     Threshold (ethr) on eigenvalues was too large:
     Diagonalizing with lowered threshold

     Davidson diagonalization with overlap
     ethr =  5.81E-08,  avg # of iterations =  1.0

     negative rho (up, down):  5.111E-03 0.000E+00

     total cpu time spent up to now is       21.8 secs

     total energy              =     -43.78860195 Ry
     estimated scf accuracy    <       0.00000531 Ry

     iteration #  2     ecut=    25.00 Ry     beta= 0.70
     Davidson diagonalization with overlap
     ethr =  6.64E-08,  avg # of iterations =  2.0

     negative rho (up, down):  5.106E-03 0.000E+00

     total cpu time spent up to now is       22.2 secs

     total energy              =     -43.78860313 Ry
     estimated scf accuracy    <       0.00000337 Ry

     iteration #  3     ecut=    25.00 Ry     beta= 0.70
     Davidson diagonalization with overlap
     ethr =  4.21E-08,  avg # of iterations =  2.0

     negative rho (up, down):  5.106E-03 0.000E+00

     total cpu time spent up to now is       22.7 secs

     total energy              =     -43.78860380 Ry
     estimated scf accuracy    <       0.00000004 Ry

     iteration #  4     ecut=    25.00 Ry     beta= 0.70
     Davidson diagonalization with overlap
     ethr =  5.37E-10,  avg # of iterations =  2.0

     negative rho (up, down):  5.107E-03 0.000E+00

     total cpu time spent up to now is       23.1 secs

     End of self-consistent calculation

          k = 0.0000 0.0000 0.0000 (  7123 PWs)   bands (ev):

   -25.2333 -12.0672  -9.4943  -6.9488

     highest occupied level (ev):    -6.9488

!    total energy              =     -43.78860380 Ry
     estimated scf accuracy    <          9.2E-09 Ry

     convergence has been achieved in   4 iterations

     negative rho (up, down):  5.107E-03 0.000E+00

     Forces acting on atoms (cartesian axes, Ry/au):

     atom    1 type  2   force =     0.00628416    0.03964493    0.02256842
     atom    2 type  1   force =    -0.00398612   -0.02818413   -0.01161968
     atom    3 type  1   force =    -0.00229804   -0.01146080   -0.01094874

     Total force =     0.057639     Total SCF correction =     0.000116


     Computing stress (Cartesian axis) and pressure


     negative rho (up, down):  5.107E-03 0.000E+00
          total   stress  (Ry/bohr**3)                   (kbar)     P=      -39.45
  -0.00027786  -0.00000043   0.00000164          -40.87       -0.06        0.24
  -0.00000043  -0.00027413  -0.00000796           -0.06      -40.33       -1.17
   0.00000164  -0.00000796  -0.00025262            0.24       -1.17      -37.16


     Entering Dynamics:    iteration =     7
                           time      =   0.0068 pico-seconds


ATOMIC_POSITIONS (angstrom)
O             4.9926923944        4.7770367444        4.9918194118
H             5.1380457426        5.3782544508        5.8189093836
H             4.9842929944        5.5122020098        4.3085825532


     kinetic energy (Ekin) =           0.00354504 Ry
     temperature           =         186.57276992 K 
     Ekin + Etot (const)   =         -43.78505876 Ry
     Ions kinetic stress =            0.10 (kbar)
                                      0.15          -0.06           0.11
                                     -0.06           0.03          -0.02
                                      0.11          -0.02           0.13



     Linear momentum :    0.0000000000   -0.0000000000    0.0000000000

     Writing output data file ./outdir/h2o.save/

     second order wave-functions extrapolation
     second order charge density extrapolation

     Check: negative core charge=   -0.000056

     negative rho (up, down):  5.102E-03 0.000E+00

     total cpu time spent up to now is       24.2 secs

     Self-consistent Calculation

     iteration #  1     ecut=    25.00 Ry     beta= 0.70
     Davidson diagonalization with overlap
     ethr =  1.00E-06,  avg # of iterations =  3.0

     Threshold (ethr) on eigenvalues was too large:
     Diagonalizing with lowered threshold

     Davidson diagonalization with overlap
     ethr =  4.45E-08,  avg # of iterations =  2.0

     negative rho (up, down):  5.106E-03 0.000E+00

     total cpu time spent up to now is       24.8 secs

     total energy              =     -43.78825812 Ry
     estimated scf accuracy    <       0.00000405 Ry

     iteration #  2     ecut=    25.00 Ry     beta= 0.70
     Davidson diagonalization with overlap
     ethr =  5.07E-08,  avg # of iterations =  2.0

     negative rho (up, down):  5.102E-03 0.000E+00

     total cpu time spent up to now is       25.3 secs

     total energy              =     -43.78825865 Ry
     estimated scf accuracy    <       0.00000173 Ry

     iteration #  3     ecut=    25.00 Ry     beta= 0.70
     Davidson diagonalization with overlap
     ethr =  2.16E-08,  avg # of iterations =  2.0

     negative rho (up, down):  5.102E-03 0.000E+00

     total cpu time spent up to now is       25.6 secs

     total energy              =     -43.78825907 Ry
     estimated scf accuracy    <       0.00000012 Ry

     iteration #  4     ecut=    25.00 Ry     beta= 0.70
     Davidson diagonalization with overlap
     ethr =  1.45E-09,  avg # of iterations =  2.0

     negative rho (up, down):  5.103E-03 0.000E+00

     total cpu time spent up to now is       26.0 secs

     End of self-consistent calculation

          k = 0.0000 0.0000 0.0000 (  7123 PWs)   bands (ev):

   -25.1934 -12.0626  -9.4660  -6.9395

     highest occupied level (ev):    -6.9395

!    total energy              =     -43.78825907 Ry
     estimated scf accuracy    <          6.3E-09 Ry

     convergence has been achieved in   4 iterations

     negative rho (up, down):  5.103E-03 0.000E+00

     Forces acting on atoms (cartesian axes, Ry/au):

     atom    1 type  2   force =     0.00861831    0.04172670    0.03498055
     atom    2 type  1   force =    -0.00623929   -0.03374749   -0.02315052
     atom    3 type  1   force =    -0.00237902   -0.00797921   -0.01183003

     Total force =     0.070442     Total SCF correction =     0.000082


     Computing stress (Cartesian axis) and pressure


     negative rho (up, down):  5.103E-03 0.000E+00
          total   stress  (Ry/bohr**3)                   (kbar)     P=      -39.68
  -0.00027791  -0.00000090   0.00000111          -40.88       -0.13        0.16
  -0.00000090  -0.00027412  -0.00001154           -0.13      -40.32       -1.70
   0.00000111  -0.00001154  -0.00025715            0.16       -1.70      -37.83


     Entering Dynamics:    iteration =     8
                           time      =   0.0077 pico-seconds


ATOMIC_POSITIONS (angstrom)
O             4.9918222661        4.7779451267        4.9909583947
H             5.1557706722        5.3602428563        5.8279425317
H             4.9803809548        5.5157934510        4.3132176582


     kinetic energy (Ekin) =           0.00322074 Ry
     temperature           =         169.50493178 K 
     Ekin + Etot (const)   =         -43.78503833 Ry
     Ions kinetic stress =            0.09 (kbar)
                                      0.13          -0.10           0.08
                                     -0.10           0.08          -0.05
                                      0.08          -0.05           0.07



     Linear momentum :    0.0000000000   -0.0000000000   -0.0000000000

     Writing output data file ./outdir/h2o.save/

     second order wave-functions extrapolation
     second order charge density extrapolation

     Check: negative core charge=   -0.000056

     negative rho (up, down):  5.133E-03 0.000E+00

     total cpu time spent up to now is       27.2 secs

     Self-consistent Calculation

     iteration #  1     ecut=    25.00 Ry     beta= 0.70
     Davidson diagonalization with overlap
     ethr =  1.00E-06,  avg # of iterations =  3.0

     Threshold (ethr) on eigenvalues was too large:
     Diagonalizing with lowered threshold

     Davidson diagonalization with overlap
     ethr =  6.41E-09,  avg # of iterations =  2.0

     negative rho (up, down):  5.125E-03 0.000E+00

     total cpu time spent up to now is       27.9 secs

     total energy              =     -43.78861551 Ry
     estimated scf accuracy    <       0.00000057 Ry

     iteration #  2     ecut=    25.00 Ry     beta= 0.70
     Davidson diagonalization with overlap
     ethr =  7.13E-09,  avg # of iterations =  2.0

     negative rho (up, down):  5.124E-03 0.000E+00

     total cpu time spent up to now is       28.3 secs

     total energy              =     -43.78861560 Ry
     estimated scf accuracy    <       0.00000007 Ry

     iteration #  3     ecut=    25.00 Ry     beta= 0.70
     Davidson diagonalization with overlap
     ethr =  9.32E-10,  avg # of iterations =  2.0

     negative rho (up, down):  5.123E-03 0.000E+00

     total cpu time spent up to now is       28.8 secs

     total energy              =     -43.78861561 Ry
     estimated scf accuracy    <       0.00000002 Ry

     iteration #  4     ecut=    25.00 Ry     beta= 0.70
     Davidson diagonalization with overlap
     ethr =  2.93E-10,  avg # of iterations =  2.0

     negative rho (up, down):  5.123E-03 0.000E+00

     total cpu time spent up to now is       29.3 secs

     End of self-consistent calculation

          k = 0.0000 0.0000 0.0000 (  7123 PWs)   bands (ev):

   -25.1882 -12.1114  -9.4222  -6.9371

     highest occupied level (ev):    -6.9371

!    total energy              =     -43.78861562 Ry
     estimated scf accuracy    <          1.5E-10 Ry

     convergence has been achieved in   4 iterations

     negative rho (up, down):  5.123E-03 0.000E+00

     Forces acting on atoms (cartesian axes, Ry/au):

     atom    1 type  2   force =     0.00929721    0.03665912    0.03694076
     atom    2 type  1   force =    -0.00703163   -0.03164378   -0.02570660
     atom    3 type  1   force =    -0.00226558   -0.00501534   -0.01123417

     Total force =     0.068286     Total SCF correction =     0.000027


     Computing stress (Cartesian axis) and pressure


     negative rho (up, down):  5.123E-03 0.000E+00
          total   stress  (Ry/bohr**3)                   (kbar)     P=      -39.69
  -0.00027801  -0.00000089   0.00000103          -40.90       -0.13        0.15
  -0.00000089  -0.00027229  -0.00001203           -0.13      -40.06       -1.77
   0.00000103  -0.00001203  -0.00025910            0.15       -1.77      -38.11


     Entering Dynamics:    iteration =     9
                           time      =   0.0087 pico-seconds


ATOMIC_POSITIONS (angstrom)
O             4.9910870933        4.7793856419        4.9906335990
H             5.1718753016        5.3349395781        5.8310521027
H             4.9759468580        5.5182292068        4.3152640719


     kinetic energy (Ekin) =           0.00355662 Ry
     temperature           =         187.18181179 K 
     Ekin + Etot (const)   =         -43.78505900 Ry
     Ions kinetic stress =            0.10 (kbar)
                                      0.11          -0.14           0.03
                                     -0.14           0.18          -0.05
                                      0.03          -0.05           0.02



     Linear momentum :    0.0000000000    0.0000000000   -0.0000000000

     Writing output data file ./outdir/h2o.save/

     second order wave-functions extrapolation
     second order charge density extrapolation

     Check: negative core charge=   -0.000056

     negative rho (up, down):  5.172E-03 0.000E+00

     total cpu time spent up to now is       30.3 secs

     Self-consistent Calculation

     iteration #  1     ecut=    25.00 Ry     beta= 0.70
     Davidson diagonalization with overlap
     ethr =  1.00E-06,  avg # of iterations =  3.0

     Threshold (ethr) on eigenvalues was too large:
     Diagonalizing with lowered threshold

     Davidson diagonalization with overlap
     ethr =  3.55E-09,  avg # of iterations =  2.0

     negative rho (up, down):  5.169E-03 0.000E+00

     total cpu time spent up to now is       30.9 secs

     total energy              =     -43.78960516 Ry
     estimated scf accuracy    <       0.00000028 Ry

     iteration #  2     ecut=    25.00 Ry     beta= 0.70
     Davidson diagonalization with overlap
     ethr =  3.48E-09,  avg # of iterations =  2.0

     negative rho (up, down):  5.167E-03 0.000E+00

     total cpu time spent up to now is       31.3 secs

     total energy              =     -43.78960524 Ry
     estimated scf accuracy    <       0.00000004 Ry

     iteration #  3     ecut=    25.00 Ry     beta= 0.70
     Davidson diagonalization with overlap
     ethr =  4.76E-10,  avg # of iterations =  2.0

     negative rho (up, down):  5.168E-03 0.000E+00

     total cpu time spent up to now is       31.7 secs

     total energy              =     -43.78960525 Ry
     estimated scf accuracy    <       0.00000001 Ry

     iteration #  4     ecut=    25.00 Ry     beta= 0.70
     Davidson diagonalization with overlap
     ethr =  1.86E-10,  avg # of iterations =  2.0

     negative rho (up, down):  5.168E-03 0.000E+00

     total cpu time spent up to now is       32.1 secs

     End of self-consistent calculation

          k = 0.0000 0.0000 0.0000 (  7123 PWs)   bands (ev):

   -25.2158 -12.2102  -9.3653  -6.9413

     highest occupied level (ev):    -6.9413

!    total energy              =     -43.78960526 Ry
     estimated scf accuracy    <          1.0E-10 Ry

     convergence has been achieved in   4 iterations

     negative rho (up, down):  5.168E-03 0.000E+00

     Forces acting on atoms (cartesian axes, Ry/au):

     atom    1 type  2   force =     0.00766231    0.02559345    0.02764059
     atom    2 type  1   force =    -0.00572662   -0.02244940   -0.01882312
     atom    3 type  1   force =    -0.00193569   -0.00314405   -0.00881748

     Total force =     0.049600     Total SCF correction =     0.000025


     Computing stress (Cartesian axis) and pressure


     negative rho (up, down):  5.168E-03 0.000E+00
          total   stress  (Ry/bohr**3)                   (kbar)     P=      -39.48
  -0.00027795  -0.00000027   0.00000167          -40.89       -0.04        0.25
  -0.00000027  -0.00026912  -0.00000939           -0.04      -39.59       -1.38
   0.00000167  -0.00000939  -0.00025805            0.25       -1.38      -37.96


     Entering Dynamics:    iteration =    10
                           time      =   0.0097 pico-seconds


ATOMIC_POSITIONS (angstrom)
O             4.9904631443        4.7811976643        4.9907100259
H             5.1866603452        5.3044632792        5.8298242586
H             4.9710667191        5.5199404782        4.3152786725


     kinetic energy (Ekin) =           0.00448537 Ry
     temperature           =         236.06146075 K 
     Ekin + Etot (const)   =         -43.78511988 Ry
     Ions kinetic stress =            0.13 (kbar)
                                      0.10          -0.16           0.00
                                     -0.16           0.29          -0.01
                                      0.00          -0.01           0.00



     Linear momentum :   -0.0000000000   -0.0000000000   -0.0000000000

     Writing output data file ./outdir/h2o.save/

     second order wave-functions extrapolation
     second order charge density extrapolation

     Check: negative core charge=   -0.000056

     negative rho (up, down):  5.235E-03 0.000E+00

     total cpu time spent up to now is       33.2 secs

     Self-consistent Calculation

     iteration #  1     ecut=    25.00 Ry     beta= 0.70
     Davidson diagonalization with overlap
     ethr =  1.00E-06,  avg # of iterations =  2.0

     Threshold (ethr) on eigenvalues was too large:
     Diagonalizing with lowered threshold

     Davidson diagonalization with overlap
     ethr =  5.97E-09,  avg # of iterations =  3.0

     negative rho (up, down):  5.230E-03 0.000E+00

     total cpu time spent up to now is       34.0 secs

     total energy              =     -43.79047414 Ry
     estimated scf accuracy    <       0.00000034 Ry

     iteration #  2     ecut=    25.00 Ry     beta= 0.70
     Davidson diagonalization with overlap
     ethr =  4.22E-09,  avg # of iterations =  2.0

     negative rho (up, down):  5.230E-03 0.000E+00

     total cpu time spent up to now is       34.3 secs

     total energy              =     -43.79047423 Ry
     estimated scf accuracy    <       0.00000005 Ry

     iteration #  3     ecut=    25.00 Ry     beta= 0.70
     Davidson diagonalization with overlap
     ethr =  6.16E-10,  avg # of iterations =  2.0

     negative rho (up, down):  5.230E-03 0.000E+00

     total cpu time spent up to now is       34.7 secs

     total energy              =     -43.79047425 Ry
     estimated scf accuracy    <       0.00000002 Ry

     iteration #  4     ecut=    25.00 Ry     beta= 0.70
     Davidson diagonalization with overlap
     ethr =  2.07E-10,  avg # of iterations =  2.0

     negative rho (up, down):  5.230E-03 0.000E+00

     total cpu time spent up to now is       35.0 secs

     End of self-consistent calculation

          k = 0.0000 0.0000 0.0000 (  7123 PWs)   bands (ev):

   -25.2662 -12.3457  -9.2971  -6.9502

     highest occupied level (ev):    -6.9502

!    total energy              =     -43.79047426 Ry
     estimated scf accuracy    <          1.3E-10 Ry

     convergence has been achieved in   4 iterations

     negative rho (up, down):  5.230E-03 0.000E+00

     Forces acting on atoms (cartesian axes, Ry/au):

     atom    1 type  2   force =     0.00353978    0.01063048    0.00904914
     atom    2 type  1   force =    -0.00218760   -0.00832999   -0.00426201
     atom    3 type  1   force =    -0.00135218   -0.00230049   -0.00478713

     Total force =     0.018160     Total SCF correction =     0.000032


     Computing stress (Cartesian axis) and pressure


     negative rho (up, down):  5.230E-03 0.000E+00
          total   stress  (Ry/bohr**3)                   (kbar)     P=      -39.11
  -0.00027770   0.00000097   0.00000311          -40.85        0.14        0.46
   0.00000097  -0.00026539  -0.00000437            0.14      -39.04       -0.64
   0.00000311  -0.00000437  -0.00025448            0.46       -0.64      -37.43


     Entering Dynamics:    iteration =    11
                           time      =   0.0106 pico-seconds


ATOMIC_POSITIONS (angstrom)
O             4.9898905778        4.7831639955        4.9909178076
H             5.2009413000        5.2720674986        5.8276143191
H             4.9658749976        5.5211216478        4.3141901729


     kinetic energy (Ekin) =           0.00530098 Ry
     temperature           =         278.98613927 K 
     Ekin + Etot (const)   =         -43.78517328 Ry
     Ions kinetic stress =            0.15 (kbar)
                                      0.09          -0.17          -0.01
                                     -0.17           0.37           0.02
                                     -0.01           0.02           0.00



     Linear momentum :   -0.0000000000   -0.0000000000   -0.0000000000

     Writing output data file ./outdir/h2o.save/

     second order wave-functions extrapolation
     second order charge density extrapolation

     Check: negative core charge=   -0.000056

     negative rho (up, down):  5.309E-03 0.000E+00

     total cpu time spent up to now is       36.0 secs

     Self-consistent Calculation

     iteration #  1     ecut=    25.00 Ry     beta= 0.70
     Davidson diagonalization with overlap
     ethr =  1.00E-06,  avg # of iterations =  3.0

     Threshold (ethr) on eigenvalues was too large:
     Diagonalizing with lowered threshold

     Davidson diagonalization with overlap
     ethr =  8.93E-09,  avg # of iterations =  2.0

     negative rho (up, down):  5.299E-03 0.000E+00

     total cpu time spent up to now is       36.7 secs

     total energy              =     -43.79052349 Ry
     estimated scf accuracy    <       0.00000071 Ry

     iteration #  2     ecut=    25.00 Ry     beta= 0.70
     Davidson diagonalization with overlap
     ethr =  8.89E-09,  avg # of iterations =  2.0

     negative rho (up, down):  5.299E-03 0.000E+00

     total cpu time spent up to now is       37.1 secs

     total energy              =     -43.79052367 Ry
     estimated scf accuracy    <       0.00000009 Ry

     iteration #  3     ecut=    25.00 Ry     beta= 0.70
     Davidson diagonalization with overlap
     ethr =  1.12E-09,  avg # of iterations =  2.0

     negative rho (up, down):  5.299E-03 0.000E+00

     total cpu time spent up to now is       37.5 secs

     total energy              =     -43.79052370 Ry
     estimated scf accuracy    <       0.00000003 Ry

     iteration #  4     ecut=    25.00 Ry     beta= 0.70
     Davidson diagonalization with overlap
     ethr =  3.90E-10,  avg # of iterations =  2.0

     negative rho (up, down):  5.299E-03 0.000E+00

     total cpu time spent up to now is       37.9 secs

     End of self-consistent calculation

          k = 0.0000 0.0000 0.0000 (  7123 PWs)   bands (ev):

   -25.3197 -12.4945  -9.2195  -6.9593

     highest occupied level (ev):    -6.9593

!    total energy              =     -43.79052370 Ry
     estimated scf accuracy    <          1.1E-10 Ry

     convergence has been achieved in   4 iterations

     negative rho (up, down):  5.299E-03 0.000E+00

     Forces acting on atoms (cartesian axes, Ry/au):

     atom    1 type  2   force =    -0.00228983   -0.00524634   -0.01331422
     atom    2 type  1   force =     0.00279236    0.00697136    0.01318058
     atom    3 type  1   force =    -0.00050253   -0.00172502    0.00013364

     Total force =     0.021057     Total SCF correction =     0.000017


     Computing stress (Cartesian axis) and pressure


     negative rho (up, down):  5.299E-03 0.000E+00
          total   stress  (Ry/bohr**3)                   (kbar)     P=      -38.69
  -0.00027726   0.00000256   0.00000509          -40.79        0.38        0.75
   0.00000256  -0.00026187   0.00000138            0.38      -38.52        0.20
   0.00000509   0.00000138  -0.00024984            0.75        0.20      -36.75


     Entering Dynamics:    iteration =    12
                           time      =   0.0116 pico-seconds


ATOMIC_POSITIONS (angstrom)
O             4.9892847726        4.7850541724        4.9909323240
H             5.2158656993        5.2412781295        5.8284415833
H             4.9605674780        5.5219053217        4.3131324676


     kinetic energy (Ekin) =           0.00535604 Ry
     temperature           =         281.88372494 K 
     Ekin + Etot (const)   =         -43.78516767 Ry
     Ions kinetic stress =            0.16 (kbar)
                                      0.09          -0.17          -0.00
                                     -0.17           0.38           0.01
                                     -0.00           0.01           0.00



     Linear momentum :   -0.0000000000   -0.0000000000   -0.0000000000

     Writing output data file ./outdir/h2o.save/

     second order wave-functions extrapolation
     second order charge density extrapolation

     Check: negative core charge=   -0.000056

     negative rho (up, down):  5.417E-03 0.000E+00

     total cpu time spent up to now is       38.9 secs

     Self-consistent Calculation

     iteration #  1     ecut=    25.00 Ry     beta= 0.70
     Davidson diagonalization with overlap
     ethr =  1.00E-06,  avg # of iterations =  3.0

     Threshold (ethr) on eigenvalues was too large:
     Diagonalizing with lowered threshold

     Davidson diagonalization with overlap
     ethr =  9.93E-08,  avg # of iterations =  1.0

     negative rho (up, down):  5.359E-03 0.000E+00

     total cpu time spent up to now is       39.4 secs

     total energy              =     -43.78991042 Ry
     estimated scf accuracy    <       0.00000782 Ry

     iteration #  2     ecut=    25.00 Ry     beta= 0.70
     Davidson diagonalization with overlap
     ethr =  9.78E-08,  avg # of iterations =  2.0

     negative rho (up, down):  5.361E-03 0.000E+00

     total cpu time spent up to now is       39.8 secs

     total energy              =     -43.78991174 Ry
     estimated scf accuracy    <       0.00000279 Ry

     iteration #  3     ecut=    25.00 Ry     beta= 0.70
     Davidson diagonalization with overlap
     ethr =  3.49E-08,  avg # of iterations =  2.0

     negative rho (up, down):  5.359E-03 0.000E+00

     total cpu time spent up to now is       40.1 secs

     total energy              =     -43.78991269 Ry
     estimated scf accuracy    <       0.00000031 Ry

     iteration #  4     ecut=    25.00 Ry     beta= 0.70
     Davidson diagonalization with overlap
     ethr =  3.90E-09,  avg # of iterations =  2.0

     negative rho (up, down):  5.358E-03 0.000E+00

     total cpu time spent up to now is       40.5 secs

     total energy              =     -43.78991273 Ry
     estimated scf accuracy    <       0.00000001 Ry

     iteration #  5     ecut=    25.00 Ry     beta= 0.70
     Davidson diagonalization with overlap
     ethr =  1.69E-10,  avg # of iterations =  2.0

     negative rho (up, down):  5.359E-03 0.000E+00

     total cpu time spent up to now is       40.9 secs

     End of self-consistent calculation

          k = 0.0000 0.0000 0.0000 (  7123 PWs)   bands (ev):

   -25.3510 -12.6279  -9.1363  -6.9636

     highest occupied level (ev):    -6.9636

!    total energy              =     -43.78991273 Ry
     estimated scf accuracy    <          1.6E-09 Ry

     convergence has been achieved in   5 iterations

     negative rho (up, down):  5.359E-03 0.000E+00

     Forces acting on atoms (cartesian axes, Ry/au):

     atom    1 type  2   force =    -0.00781822   -0.01802731   -0.03063563
     atom    2 type  1   force =     0.00724420    0.01854726    0.02575731
     atom    3 type  1   force =     0.00057403   -0.00051995    0.00487832

     Total force =     0.049081     Total SCF correction =     0.000041


     Computing stress (Cartesian axis) and pressure


     negative rho (up, down):  5.359E-03 0.000E+00
          total   stress  (Ry/bohr**3)                   (kbar)     P=      -38.38
  -0.00027669   0.00000401   0.00000682          -40.70        0.59        1.00
   0.00000401  -0.00025924   0.00000560            0.59      -38.14        0.82
   0.00000682   0.00000560  -0.00024687            1.00        0.82      -36.32


     Entering Dynamics:    iteration =    13
                           time      =   0.0126 pico-seconds


ATOMIC_POSITIONS (angstrom)
O             4.9885654805        4.7866826701        4.9905021426
H             5.2324593802        5.2147626090        5.8352041100
H             4.9553922312        5.5225691842        4.3131988747


     kinetic energy (Ekin) =           0.00479235 Ry
     temperature           =         252.21734636 K 
     Ekin + Etot (const)   =         -43.78512038 Ry
     Ions kinetic stress =            0.14 (kbar)
                                      0.10          -0.17           0.02
                                     -0.17           0.31          -0.04
                                      0.02          -0.04           0.01



     Linear momentum :   -0.0000000000   -0.0000000000   -0.0000000000

     Writing output data file ./outdir/h2o.save/

     second order wave-functions extrapolation
     second order charge density extrapolation

     Check: negative core charge=   -0.000056

     negative rho (up, down):  5.425E-03 0.000E+00

     total cpu time spent up to now is       42.0 secs

     Self-consistent Calculation

     iteration #  1     ecut=    25.00 Ry     beta= 0.70
     Davidson diagonalization with overlap
     ethr =  1.00E-06,  avg # of iterations =  3.0

     Threshold (ethr) on eigenvalues was too large:
     Diagonalizing with lowered threshold

     Davidson diagonalization with overlap
     ethr =  2.86E-08,  avg # of iterations =  2.0

     negative rho (up, down):  5.396E-03 0.000E+00

     total cpu time spent up to now is       42.6 secs

     total energy              =     -43.78943207 Ry
     estimated scf accuracy    <       0.00000242 Ry

     iteration #  2     ecut=    25.00 Ry     beta= 0.70
     Davidson diagonalization with overlap
     ethr =  3.03E-08,  avg # of iterations =  2.0

     negative rho (up, down):  5.396E-03 0.000E+00

     total cpu time spent up to now is       42.9 secs

     total energy              =     -43.78943248 Ry
     estimated scf accuracy    <       0.00000032 Ry

     iteration #  3     ecut=    25.00 Ry     beta= 0.70
     Davidson diagonalization with overlap
     ethr =  3.99E-09,  avg # of iterations =  2.0

     negative rho (up, down):  5.395E-03 0.000E+00

     total cpu time spent up to now is       43.3 secs

     total energy              =     -43.78943254 Ry
     estimated scf accuracy    <       0.00000012 Ry

     iteration #  4     ecut=    25.00 Ry     beta= 0.70
     Davidson diagonalization with overlap
     ethr =  1.55E-09,  avg # of iterations =  2.0

     negative rho (up, down):  5.395E-03 0.000E+00

     total cpu time spent up to now is       43.7 secs

     End of self-consistent calculation

          k = 0.0000 0.0000 0.0000 (  7123 PWs)   bands (ev):

   -25.3403 -12.7207  -9.0530  -6.9593

     highest occupied level (ev):    -6.9593

!    total energy              =     -43.78943257 Ry
     estimated scf accuracy    <          1.1E-09 Ry

     convergence has been achieved in   4 iterations

     negative rho (up, down):  5.395E-03 0.000E+00

     Forces acting on atoms (cartesian axes, Ry/au):

     atom    1 type  2   force =    -0.01054260   -0.02492371   -0.03450821
     atom    2 type  1   force =     0.00873507    0.02284739    0.02612402
     atom    3 type  1   force =     0.00180753    0.00207631    0.00838419

     Total force =     0.057287     Total SCF correction =     0.000057


     Computing stress (Cartesian axis) and pressure


     negative rho (up, down):  5.395E-03 0.000E+00
          total   stress  (Ry/bohr**3)                   (kbar)     P=      -38.38
  -0.00027638   0.00000475   0.00000724          -40.66        0.70        1.06
   0.00000475  -0.00025783   0.00000648            0.70      -37.93        0.95
   0.00000724   0.00000648  -0.00024854            1.06        0.95      -36.56


     Entering Dynamics:    iteration =    14
                           time      =   0.0135 pico-seconds


ATOMIC_POSITIONS (angstrom)
O             4.9876931552        4.7879493826        4.9895710501
H             5.2510658847        5.1935118184        5.8479863997
H             4.9506334935        5.5237114915        4.3151972527


     kinetic energy (Ekin) =           0.00431732 Ry
     temperature           =         227.21700323 K 
     Ekin + Etot (const)   =         -43.78511525 Ry
     Ions kinetic stress =            0.13 (kbar)
                                      0.12          -0.16           0.06
                                     -0.16           0.22          -0.09
                                      0.06          -0.09           0.04



     Linear momentum :   -0.0000000000   -0.0000000000    0.0000000000

     Writing output data file ./outdir/h2o.save/

     second order wave-functions extrapolation
     second order charge density extrapolation

     Check: negative core charge=   -0.000056

     negative rho (up, down):  5.408E-03 0.000E+00

     total cpu time spent up to now is       44.7 secs

     Self-consistent Calculation

     iteration #  1     ecut=    25.00 Ry     beta= 0.70
     Davidson diagonalization with overlap
     ethr =  1.00E-06,  avg # of iterations =  3.0

     Threshold (ethr) on eigenvalues was too large:
     Diagonalizing with lowered threshold

     Davidson diagonalization with overlap
     ethr =  7.68E-09,  avg # of iterations =  2.0

     negative rho (up, down):  5.404E-03 0.000E+00

     total cpu time spent up to now is       45.3 secs

     total energy              =     -43.78935090 Ry
     estimated scf accuracy    <       0.00000063 Ry

     iteration #  2     ecut=    25.00 Ry     beta= 0.70
     Davidson diagonalization with overlap
     ethr =  7.82E-09,  avg # of iterations =  2.0

     negative rho (up, down):  5.403E-03 0.000E+00

     total cpu time spent up to now is       45.6 secs

     total energy              =     -43.78935098 Ry
     estimated scf accuracy    <       0.00000007 Ry

     iteration #  3     ecut=    25.00 Ry     beta= 0.70
     Davidson diagonalization with overlap
     ethr =  8.71E-10,  avg # of iterations =  2.0

     negative rho (up, down):  5.403E-03 0.000E+00

     total cpu time spent up to now is       46.0 secs

     total energy              =     -43.78935099 Ry
     estimated scf accuracy    <       0.00000002 Ry

     iteration #  4     ecut=    25.00 Ry     beta= 0.70
     Davidson diagonalization with overlap
     ethr =  2.77E-10,  avg # of iterations =  2.0

     negative rho (up, down):  5.403E-03 0.000E+00

     total cpu time spent up to now is       46.4 secs

     End of self-consistent calculation

          k = 0.0000 0.0000 0.0000 (  7123 PWs)   bands (ev):

   -25.2872 -12.7618  -8.9771  -6.9464

     highest occupied level (ev):    -6.9464

!    total energy              =     -43.78935099 Ry
     estimated scf accuracy    <          2.1E-10 Ry

     convergence has been achieved in   4 iterations

     negative rho (up, down):  5.403E-03 0.000E+00

     Forces acting on atoms (cartesian axes, Ry/au):

     atom    1 type  2   force =    -0.00909564   -0.02607717   -0.02295579
     atom    2 type  1   force =     0.00604702    0.02003185    0.01287433
     atom    3 type  1   force =     0.00304862    0.00604532    0.01008146

     Total force =     0.045175     Total SCF correction =     0.000018


     Computing stress (Cartesian axis) and pressure


     negative rho (up, down):  5.403E-03 0.000E+00
          total   stress  (Ry/bohr**3)                   (kbar)     P=      -38.69
  -0.00027646   0.00000464   0.00000587          -40.67        0.68        0.86
   0.00000464  -0.00025720   0.00000398            0.68      -37.84        0.59
   0.00000587   0.00000398  -0.00025533            0.86        0.59      -37.56


     Entering Dynamics:    iteration =    15
                           time      =   0.0145 pico-seconds


ATOMIC_POSITIONS (angstrom)
O             4.9866888001        4.7888375667        4.9883067381
H             5.2710658057        5.1768769713        5.8637353246
H             4.9465772503        5.5262468226        4.3195187044


     kinetic energy (Ekin) =           0.00417948 Ry
     temperature           =         219.96253409 K 
     Ekin + Etot (const)   =         -43.78517151 Ry
     Ions kinetic stress =            0.12 (kbar)
                                      0.15          -0.14           0.10
                                     -0.14           0.14          -0.10
                                      0.10          -0.10           0.08



     Linear momentum :   -0.0000000000   -0.0000000000    0.0000000000

     Writing output data file ./outdir/h2o.save/

     second order wave-functions extrapolation
     second order charge density extrapolation

     Check: negative core charge=   -0.000056

     negative rho (up, down):  5.396E-03 0.000E+00

     total cpu time spent up to now is       47.6 secs

     Self-consistent Calculation

     iteration #  1     ecut=    25.00 Ry     beta= 0.70
     Davidson diagonalization with overlap
     ethr =  1.00E-06,  avg # of iterations =  3.0

     Threshold (ethr) on eigenvalues was too large:
     Diagonalizing with lowered threshold

     Davidson diagonalization with overlap
     ethr =  6.65E-09,  avg # of iterations =  2.0

     negative rho (up, down):  5.393E-03 0.000E+00

     total cpu time spent up to now is       48.3 secs

     total energy              =     -43.78913415 Ry
     estimated scf accuracy    <       0.00000059 Ry

     iteration #  2     ecut=    25.00 Ry     beta= 0.70
     Davidson diagonalization with overlap
     ethr =  7.38E-09,  avg # of iterations =  1.0

     negative rho (up, down):  5.392E-03 0.000E+00

     total cpu time spent up to now is       48.6 secs

     total energy              =     -43.78913423 Ry
     estimated scf accuracy    <       0.00000004 Ry

     iteration #  3     ecut=    25.00 Ry     beta= 0.70
     Davidson diagonalization with overlap
     ethr =  5.58E-10,  avg # of iterations =  2.0

     negative rho (up, down):  5.392E-03 0.000E+00

     total cpu time spent up to now is       49.0 secs

     total energy              =     -43.78913423 Ry
     estimated scf accuracy    <       0.00000001 Ry

     iteration #  4     ecut=    25.00 Ry     beta= 0.70
     Davidson diagonalization with overlap
     ethr =  1.30E-10,  avg # of iterations =  2.0

     negative rho (up, down):  5.392E-03 0.000E+00

     total cpu time spent up to now is       49.4 secs

     End of self-consistent calculation

          k = 0.0000 0.0000 0.0000 (  7123 PWs)   bands (ev):

   -25.2129 -12.7586  -8.9173  -6.9291

     highest occupied level (ev):    -6.9291

!    total energy              =     -43.78913424 Ry
     estimated scf accuracy    <          6.3E-10 Ry

     convergence has been achieved in   4 iterations

     negative rho (up, down):  5.392E-03 0.000E+00

     Forces acting on atoms (cartesian axes, Ry/au):

     atom    1 type  2   force =    -0.00442787   -0.02421149   -0.00235963
     atom    2 type  1   force =     0.00030477    0.01363714   -0.00784337
     atom    3 type  1   force =     0.00412310    0.01057434    0.01020300

     Total force =     0.033043     Total SCF correction =     0.000014


     Computing stress (Cartesian axis) and pressure


     negative rho (up, down):  5.392E-03 0.000E+00
          total   stress  (Ry/bohr**3)                   (kbar)     P=      -39.15
  -0.00027694   0.00000399   0.00000324          -40.74        0.59        0.48
   0.00000399  -0.00025677  -0.00000014            0.59      -37.77       -0.02
   0.00000324  -0.00000014  -0.00026478            0.48       -0.02      -38.95


     Entering Dynamics:    iteration =    16
                           time      =   0.0155 pico-seconds


ATOMIC_POSITIONS (angstrom)
O             4.9856201715        4.7893743038        4.9870081743
H             5.2911359542        5.1633845344        5.8776769006
H             4.9434710936        5.5312188023        4.3261912361


     kinetic energy (Ekin) =           0.00392415 Ry
     temperature           =         206.52463993 K 
     Ekin + Etot (const)   =         -43.78521009 Ry
     Ions kinetic stress =            0.11 (kbar)
                                      0.15          -0.12           0.11
                                     -0.12           0.09          -0.08
                                      0.11          -0.08           0.10



     Linear momentum :    0.0000000000   -0.0000000000   -0.0000000000

     Writing output data file ./outdir/h2o.save/

     second order wave-functions extrapolation
     second order charge density extrapolation

     Check: negative core charge=   -0.000056

     negative rho (up, down):  5.376E-03 0.000E+00

     total cpu time spent up to now is       50.5 secs

     Self-consistent Calculation

     iteration #  1     ecut=    25.00 Ry     beta= 0.70
     Davidson diagonalization with overlap
     ethr =  1.00E-06,  avg # of iterations =  3.0

     Threshold (ethr) on eigenvalues was too large:
     Diagonalizing with lowered threshold

     Davidson diagonalization with overlap
     ethr =  1.91E-08,  avg # of iterations =  2.0

     negative rho (up, down):  5.376E-03 0.000E+00

     total cpu time spent up to now is       51.2 secs

     total energy              =     -43.78849033 Ry
     estimated scf accuracy    <       0.00000185 Ry

     iteration #  2     ecut=    25.00 Ry     beta= 0.70
     Davidson diagonalization with overlap
     ethr =  2.31E-08,  avg # of iterations =  2.0

     negative rho (up, down):  5.373E-03 0.000E+00

     total cpu time spent up to now is       51.6 secs

     total energy              =     -43.78849057 Ry
     estimated scf accuracy    <       0.00000038 Ry

     iteration #  3     ecut=    25.00 Ry     beta= 0.70
     Davidson diagonalization with overlap
     ethr =  4.72E-09,  avg # of iterations =  2.0

     negative rho (up, down):  5.374E-03 0.000E+00

     total cpu time spent up to now is       52.0 secs

     total energy              =     -43.78849067 Ry
     estimated scf accuracy    <       0.00000009 Ry

     iteration #  4     ecut=    25.00 Ry     beta= 0.70
     Davidson diagonalization with overlap
     ethr =  1.13E-09,  avg # of iterations =  2.0

     negative rho (up, down):  5.374E-03 0.000E+00

     total cpu time spent up to now is       52.3 secs

     End of self-consistent calculation

          k = 0.0000 0.0000 0.0000 (  7123 PWs)   bands (ev):

   -25.1443 -12.7295  -8.8805  -6.9131

     highest occupied level (ev):    -6.9131

!    total energy              =     -43.78849068 Ry
     estimated scf accuracy    <          6.8E-10 Ry

     convergence has been achieved in   4 iterations

     negative rho (up, down):  5.374E-03 0.000E+00

     Forces acting on atoms (cartesian axes, Ry/au):

     atom    1 type  2   force =     0.00103209   -0.02156855    0.01766121
     atom    2 type  1   force =    -0.00596923    0.00742187   -0.02729830
     atom    3 type  1   force =     0.00493715    0.01414668    0.00963708

     Total force =     0.043949     Total SCF correction =     0.000053


     Computing stress (Cartesian axis) and pressure


     negative rho (up, down):  5.374E-03 0.000E+00
          total   stress  (Ry/bohr**3)                   (kbar)     P=      -39.58
  -0.00027752   0.00000328   0.00000050          -40.83        0.48        0.07
   0.00000328  -0.00025640  -0.00000383            0.48      -37.72       -0.56
   0.00000050  -0.00000383  -0.00027326            0.07       -0.56      -40.20


     Entering Dynamics:    iteration =    17
                           time      =   0.0164 pico-seconds


ATOMIC_POSITIONS (angstrom)
O             4.9845665243        4.7895979582        4.9859659755
H             5.3098306109        5.1516023204        5.8853281245
H             4.9415026048        5.5394506050        4.3350844424


     kinetic energy (Ekin) =           0.00329860 Ry
     temperature           =         173.60260204 K 
     Ekin + Etot (const)   =         -43.78519208 Ry
     Ions kinetic stress =            0.10 (kbar)
                                      0.14          -0.10           0.07
                                     -0.10           0.07          -0.03
                                      0.07          -0.03           0.07



     Linear momentum :    0.0000000000    0.0000000000   -0.0000000000

     Writing output data file ./outdir/h2o.save/

     second order wave-functions extrapolation
     second order charge density extrapolation

     Check: negative core charge=   -0.000056

     negative rho (up, down):  5.359E-03 0.000E+00

     total cpu time spent up to now is       53.3 secs

     Self-consistent Calculation

     iteration #  1     ecut=    25.00 Ry     beta= 0.70
     Davidson diagonalization with overlap
     ethr =  1.00E-06,  avg # of iterations =  3.0

     Threshold (ethr) on eigenvalues was too large:
     Diagonalizing with lowered threshold

     Davidson diagonalization with overlap
     ethr =  6.95E-08,  avg # of iterations =  1.0

     negative rho (up, down):  5.365E-03 0.000E+00

     total cpu time spent up to now is       53.9 secs

     total energy              =     -43.78792460 Ry
     estimated scf accuracy    <       0.00000611 Ry

     iteration #  2     ecut=    25.00 Ry     beta= 0.70
     Davidson diagonalization with overlap
     ethr =  7.64E-08,  avg # of iterations =  2.0

     negative rho (up, down):  5.359E-03 0.000E+00

     total cpu time spent up to now is       54.4 secs

     total energy              =     -43.78792556 Ry
     estimated scf accuracy    <       0.00000266 Ry

     iteration #  3     ecut=    25.00 Ry     beta= 0.70
     Davidson diagonalization with overlap
     ethr =  3.32E-08,  avg # of iterations =  2.0

     negative rho (up, down):  5.360E-03 0.000E+00

     total cpu time spent up to now is       54.8 secs

     total energy              =     -43.78792619 Ry
     estimated scf accuracy    <       0.00000014 Ry

     iteration #  4     ecut=    25.00 Ry     beta= 0.70
     Davidson diagonalization with overlap
     ethr =  1.74E-09,  avg # of iterations =  2.0

     negative rho (up, down):  5.361E-03 0.000E+00

     total cpu time spent up to now is       55.1 secs

     End of self-consistent calculation

          k = 0.0000 0.0000 0.0000 (  7123 PWs)   bands (ev):

   -25.1016 -12.6937  -8.8709  -6.9034

     highest occupied level (ev):    -6.9034

!    total energy              =     -43.78792619 Ry
     estimated scf accuracy    <          6.3E-09 Ry

     convergence has been achieved in   4 iterations

     negative rho (up, down):  5.361E-03 0.000E+00

     Forces acting on atoms (cartesian axes, Ry/au):

     atom    1 type  2   force =     0.00504664   -0.01885631    0.02947707
     atom    2 type  1   force =    -0.01042774    0.00357570   -0.03888124
     atom    3 type  1   force =     0.00538109    0.01528061    0.00940417

     Total force =     0.056869     Total SCF correction =     0.000112


     Computing stress (Cartesian axis) and pressure


     negative rho (up, down):  5.361E-03 0.000E+00
          total   stress  (Ry/bohr**3)                   (kbar)     P=      -39.84
  -0.00027787   0.00000285  -0.00000128          -40.88        0.42       -0.19
   0.00000285  -0.00025642  -0.00000576            0.42      -37.72       -0.85
  -0.00000128  -0.00000576  -0.00027824           -0.19       -0.85      -40.93


     Entering Dynamics:    iteration =    18
                           time      =   0.0174 pico-seconds


ATOMIC_POSITIONS (angstrom)
O             4.9835861328        4.7895479000        4.9853516572
H             5.3261224017        5.1406440552        5.8840199361
H             4.9407740828        5.5512035218        4.3461446527


     kinetic energy (Ekin) =           0.00276362 Ry
     temperature           =         145.44713470 K 
     Ekin + Etot (const)   =         -43.78516257 Ry
     Ions kinetic stress =            0.08 (kbar)
                                      0.12          -0.08           0.02
                                     -0.08           0.08           0.02
                                      0.02           0.02           0.04



     Linear momentum :   -0.0000000000    0.0000000000   -0.0000000000

     Writing output data file ./outdir/h2o.save/

     second order wave-functions extrapolation
     second order charge density extrapolation

     Check: negative core charge=   -0.000056

     negative rho (up, down):  5.361E-03 0.000E+00

     total cpu time spent up to now is       56.3 secs

     Self-consistent Calculation

     iteration #  1     ecut=    25.00 Ry     beta= 0.70
     Davidson diagonalization with overlap
     ethr =  1.00E-06,  avg # of iterations =  3.0

     Threshold (ethr) on eigenvalues was too large:
     Diagonalizing with lowered threshold

     Davidson diagonalization with overlap
     ethr =  8.68E-09,  avg # of iterations =  2.0

     negative rho (up, down):  5.359E-03 0.000E+00

     total cpu time spent up to now is       57.0 secs

     total energy              =     -43.78810261 Ry
     estimated scf accuracy    <       0.00000075 Ry

     iteration #  2     ecut=    25.00 Ry     beta= 0.70
     Davidson diagonalization with overlap
     ethr =  9.41E-09,  avg # of iterations =  2.0

     negative rho (up, down):  5.357E-03 0.000E+00

     total cpu time spent up to now is       57.4 secs

     total energy              =     -43.78810271 Ry
     estimated scf accuracy    <       0.00000019 Ry

     iteration #  3     ecut=    25.00 Ry     beta= 0.70
     Davidson diagonalization with overlap
     ethr =  2.34E-09,  avg # of iterations =  2.0

     negative rho (up, down):  5.358E-03 0.000E+00

     total cpu time spent up to now is       57.7 secs

     total energy              =     -43.78810276 Ry
     estimated scf accuracy    <       0.00000004 Ry

     iteration #  4     ecut=    25.00 Ry     beta= 0.70
     Davidson diagonalization with overlap
     ethr =  5.36E-10,  avg # of iterations =  2.0

     negative rho (up, down):  5.358E-03 0.000E+00

[...]

     Forces acting on atoms (cartesian axes, Ry/au):

     atom    1 type  2   force =     0.00294864    0.00298718    0.00105584
     atom    2 type  1   force =     0.01030575   -0.02162987   -0.00916744
     atom    3 type  1   force =    -0.01325439    0.01864269    0.00811160

     Total force =     0.035579     Total SCF correction =     0.000105


     Computing stress (Cartesian axis) and pressure


     negative rho (up, down):  5.331E-03 0.000E+00
          total   stress  (Ry/bohr**3)                   (kbar)     P=      -38.24
  -0.00025883  -0.00001099  -0.00000422          -38.08       -1.62       -0.62
  -0.00001099  -0.00024794   0.00001308           -1.62      -36.47        1.92
  -0.00000422   0.00001308  -0.00027303           -0.62        1.92      -40.16


     Entering Dynamics:    iteration =    96
                           time      =   0.0929 pico-seconds


ATOMIC_POSITIONS (angstrom)
O             4.9344479721        4.8214768263        4.9866350778
H             5.8695375966        4.4894306421        4.8331698813
H             5.1774047608        5.6955598032        5.3766209917


     kinetic energy (Ekin) =           0.00343806 Ry
     temperature           =         180.94213000 K 
     Ekin + Etot (const)   =         -43.78522074 Ry
     Ions kinetic stress =            0.10 (kbar)
                                      0.03          -0.05           0.01
                                     -0.05           0.10          -0.04
                                      0.01          -0.04           0.17



     Linear momentum :    0.0000000000    0.0000000000   -0.0000000000

     Writing output data file ./outdir/h2o.save/

     second order wave-functions extrapolation
     second order charge density extrapolation

     Check: negative core charge=   -0.000056

     negative rho (up, down):  5.334E-03 0.000E+00

     total cpu time spent up to now is      278.3 secs

     Self-consistent Calculation

     iteration #  1     ecut=    25.00 Ry     beta= 0.70
     Davidson diagonalization with overlap
     ethr =  1.00E-06,  avg # of iterations =  3.0

     Threshold (ethr) on eigenvalues was too large:
     Diagonalizing with lowered threshold

     Davidson diagonalization with overlap
     ethr =  5.35E-08,  avg # of iterations =  2.0

     negative rho (up, down):  5.327E-03 0.000E+00

     total cpu time spent up to now is      278.9 secs

     total energy              =     -43.78862559 Ry
     estimated scf accuracy    <       0.00000490 Ry

     iteration #  2     ecut=    25.00 Ry     beta= 0.70
     Davidson diagonalization with overlap
     ethr =  6.12E-08,  avg # of iterations =  2.0

     negative rho (up, down):  5.332E-03 0.000E+00

     total cpu time spent up to now is      279.3 secs

     total energy              =     -43.78862627 Ry
     estimated scf accuracy    <       0.00000199 Ry

     iteration #  3     ecut=    25.00 Ry     beta= 0.70
     Davidson diagonalization with overlap
     ethr =  2.48E-08,  avg # of iterations =  2.0

     negative rho (up, down):  5.331E-03 0.000E+00

     total cpu time spent up to now is      279.7 secs

     total energy              =     -43.78862677 Ry
     estimated scf accuracy    <       0.00000012 Ry

     iteration #  4     ecut=    25.00 Ry     beta= 0.70
     Davidson diagonalization with overlap
     ethr =  1.56E-09,  avg # of iterations =  2.0

     negative rho (up, down):  5.331E-03 0.000E+00

     total cpu time spent up to now is      280.0 secs

     End of self-consistent calculation

          k = 0.0000 0.0000 0.0000 (  7123 PWs)   bands (ev):

   -25.4193 -12.2480  -9.4823  -6.9872

     highest occupied level (ev):    -6.9872

!    total energy              =     -43.78862678 Ry
     estimated scf accuracy    <          4.9E-09 Ry

     convergence has been achieved in   4 iterations

     negative rho (up, down):  5.331E-03 0.000E+00

     Forces acting on atoms (cartesian axes, Ry/au):

     atom    1 type  2   force =     0.01322188   -0.01310280   -0.00610730
     atom    2 type  1   force =    -0.00358626   -0.01590318   -0.00718708
     atom    3 type  1   force =    -0.00963562    0.02900598    0.01329439

     Total force =     0.042569     Total SCF correction =     0.000089


     Computing stress (Cartesian axis) and pressure


     negative rho (up, down):  5.331E-03 0.000E+00
          total   stress  (Ry/bohr**3)                   (kbar)     P=      -38.30
  -0.00026478  -0.00000692  -0.00000282          -38.95       -1.02       -0.41
  -0.00000692  -0.00024473   0.00001536           -1.02      -36.00        2.26
  -0.00000282   0.00001536  -0.00027159           -0.41        2.26      -39.95


     Entering Dynamics:    iteration =    97
                           time      =   0.0939 pico-seconds


ATOMIC_POSITIONS (angstrom)
O             4.9339973863        4.8225130062        4.9870742554
H             5.8728026335        4.4802627331        4.8115873843
H             5.1812925674        5.6882788284        5.3912317454


     kinetic energy (Ekin) =           0.00342691 Ry
     temperature           =         180.35534124 K 
     Ekin + Etot (const)   =         -43.78519987 Ry
     Ions kinetic stress =            0.10 (kbar)
                                      0.02          -0.03          -0.01
                                     -0.03           0.07           0.01
                                     -0.01           0.01           0.22



     Linear momentum :    0.0000000000    0.0000000000   -0.0000000000

     Writing output data file ./outdir/h2o.save/

     second order wave-functions extrapolation
     second order charge density extrapolation

     Check: negative core charge=   -0.000056

     negative rho (up, down):  5.316E-03 0.000E+00

     total cpu time spent up to now is      281.0 secs

     Self-consistent Calculation

     iteration #  1     ecut=    25.00 Ry     beta= 0.70
     Davidson diagonalization with overlap
     ethr =  1.00E-06,  avg # of iterations =  3.0

     Threshold (ethr) on eigenvalues was too large:
     Diagonalizing with lowered threshold

     Davidson diagonalization with overlap
     ethr =  4.43E-08,  avg # of iterations =  2.0

     negative rho (up, down):  5.316E-03 0.000E+00

     total cpu time spent up to now is      281.6 secs

     total energy              =     -43.78884242 Ry
     estimated scf accuracy    <       0.00000355 Ry

     iteration #  2     ecut=    25.00 Ry     beta= 0.70
     Davidson diagonalization with overlap
     ethr =  4.44E-08,  avg # of iterations =  2.0

     negative rho (up, down):  5.316E-03 0.000E+00

     total cpu time spent up to now is      281.9 secs

     total energy              =     -43.78884273 Ry
     estimated scf accuracy    <       0.00000023 Ry

     iteration #  3     ecut=    25.00 Ry     beta= 0.70
     Davidson diagonalization with overlap
     ethr =  2.84E-09,  avg # of iterations =  1.0

     negative rho (up, down):  5.317E-03 0.000E+00

     total cpu time spent up to now is      282.2 secs

     End of self-consistent calculation

          k = 0.0000 0.0000 0.0000 (  7123 PWs)   bands (ev):

   -25.3578 -12.2402  -9.4424  -6.9739

     highest occupied level (ev):    -6.9739

!    total energy              =     -43.78884275 Ry
     estimated scf accuracy    <          5.5E-09 Ry

     convergence has been achieved in   3 iterations

     negative rho (up, down):  5.317E-03 0.000E+00

     Forces acting on atoms (cartesian axes, Ry/au):

     atom    1 type  2   force =     0.02442396   -0.02034833   -0.01006114
     atom    2 type  1   force =    -0.01760195   -0.00796023   -0.00361493
     atom    3 type  1   force =    -0.00682201    0.02830857    0.01367607

     Total force =     0.050329     Total SCF correction =     0.000080


     Computing stress (Cartesian axis) and pressure


     negative rho (up, down):  5.317E-03 0.000E+00
          total   stress  (Ry/bohr**3)                   (kbar)     P=      -38.65
  -0.00027062  -0.00000308  -0.00000120          -39.81       -0.45       -0.18
  -0.00000308  -0.00024660   0.00001523           -0.45      -36.28        2.24
  -0.00000120   0.00001523  -0.00027104           -0.18        2.24      -39.87


     Entering Dynamics:    iteration =    98
                           time      =   0.0948 pico-seconds


ATOMIC_POSITIONS (angstrom)
O             4.9339013315        4.8232538157        4.9873673884
H             5.8720116489        4.4692605457        4.7891718981
H             5.1836083777        5.6875210026        5.4089938787


     kinetic energy (Ekin) =           0.00365274 Ry
     temperature           =         192.24047040 K 
     Ekin + Etot (const)   =         -43.78519001 Ry
     Ions kinetic stress =            0.11 (kbar)
                                      0.00          -0.01           0.01
                                     -0.01           0.05           0.06
                                      0.01           0.06           0.27



     Linear momentum :    0.0000000000   -0.0000000000    0.0000000000

     Writing output data file ./outdir/h2o.save/

     second order wave-functions extrapolation
     second order charge density extrapolation

     Check: negative core charge=   -0.000056

     negative rho (up, down):  5.294E-03 0.000E+00

     total cpu time spent up to now is      283.5 secs

     Self-consistent Calculation

     iteration #  1     ecut=    25.00 Ry     beta= 0.70
     Davidson diagonalization with overlap
     ethr =  1.00E-06,  avg # of iterations =  3.0

     Threshold (ethr) on eigenvalues was too large:
     Diagonalizing with lowered threshold

     Davidson diagonalization with overlap
     ethr =  3.91E-08,  avg # of iterations =  1.0

     negative rho (up, down):  5.299E-03 0.000E+00

     total cpu time spent up to now is      284.0 secs

     total energy              =     -43.78930166 Ry
     estimated scf accuracy    <       0.00000327 Ry

     iteration #  2     ecut=    25.00 Ry     beta= 0.70
     Davidson diagonalization with overlap
     ethr =  4.08E-08,  avg # of iterations =  2.0

     negative rho (up, down):  5.295E-03 0.000E+00

     total cpu time spent up to now is      284.4 secs

     total energy              =     -43.78930219 Ry
     estimated scf accuracy    <       0.00000146 Ry

     iteration #  3     ecut=    25.00 Ry     beta= 0.70
     Davidson diagonalization with overlap
     ethr =  1.83E-08,  avg # of iterations =  2.0

     negative rho (up, down):  5.296E-03 0.000E+00

     total cpu time spent up to now is      284.7 secs

     total energy              =     -43.78930253 Ry
     estimated scf accuracy    <       0.00000008 Ry

     iteration #  4     ecut=    25.00 Ry     beta= 0.70
     Davidson diagonalization with overlap
     ethr =  1.02E-09,  avg # of iterations =  2.0

     negative rho (up, down):  5.296E-03 0.000E+00

     total cpu time spent up to now is      285.2 secs

     End of self-consistent calculation

          k = 0.0000 0.0000 0.0000 (  7123 PWs)   bands (ev):

   -25.2663 -12.2351  -9.3784  -6.9539

     highest occupied level (ev):    -6.9539

!    total energy              =     -43.78930254 Ry
     estimated scf accuracy    <          3.5E-09 Ry

     convergence has been achieved in   4 iterations

     negative rho (up, down):  5.296E-03 0.000E+00

     Forces acting on atoms (cartesian axes, Ry/au):

     atom    1 type  2   force =     0.03243167   -0.01679836   -0.00909232
     atom    2 type  1   force =    -0.02676880   -0.00014962    0.00041061
     atom    3 type  1   force =    -0.00566287    0.01694798    0.00868171

     Total force =     0.050280     Total SCF correction =     0.000095


     Computing stress (Cartesian axis) and pressure


     negative rho (up, down):  5.296E-03 0.000E+00
          total   stress  (Ry/bohr**3)                   (kbar)     P=      -39.19
  -0.00027436  -0.00000060  -0.00000001          -40.36       -0.09       -0.00
  -0.00000060  -0.00025311   0.00001267           -0.09      -37.23        1.86
  -0.00000001   0.00001267  -0.00027172           -0.00        1.86      -39.97


     Entering Dynamics:    iteration =    99
                           time      =   0.0958 pico-seconds


ATOMIC_POSITIONS (angstrom)
O             4.9342760454        4.8237507852        4.9875285399
H             5.8650523230        4.4582238804        4.7668510301
H             5.1846192918        5.6906685045        5.4287565394


     kinetic energy (Ekin) =           0.00410129 Ry
     temperature           =         215.84744320 K 
     Ekin + Etot (const)   =         -43.78520125 Ry
     Ions kinetic stress =            0.12 (kbar)
                                      0.01           0.02           0.04
                                      0.02           0.05           0.10
                                      0.04           0.10           0.30



     Linear momentum :   -0.0000000000   -0.0000000000    0.0000000000

     Writing output data file ./outdir/h2o.save/

     second order wave-functions extrapolation
     second order charge density extrapolation

     Check: negative core charge=   -0.000056

     negative rho (up, down):  5.279E-03 0.000E+00

     total cpu time spent up to now is      286.2 secs

     Self-consistent Calculation

     iteration #  1     ecut=    25.00 Ry     beta= 0.70
     Davidson diagonalization with overlap
     ethr =  1.00E-06,  avg # of iterations =  3.0

     Threshold (ethr) on eigenvalues was too large:
     Diagonalizing with lowered threshold

     Davidson diagonalization with overlap
     ethr =  8.07E-08,  avg # of iterations =  1.0

     negative rho (up, down):  5.289E-03 0.000E+00

     total cpu time spent up to now is      286.8 secs

     total energy              =     -43.78973198 Ry
     estimated scf accuracy    <       0.00000708 Ry

     iteration #  2     ecut=    25.00 Ry     beta= 0.70
     Davidson diagonalization with overlap
     ethr =  8.85E-08,  avg # of iterations =  2.0

     negative rho (up, down):  5.283E-03 0.000E+00

     total cpu time spent up to now is      287.2 secs

     total energy              =     -43.78973379 Ry
     estimated scf accuracy    <       0.00000530 Ry

     iteration #  3     ecut=    25.00 Ry     beta= 0.70
     Davidson diagonalization with overlap
     ethr =  6.62E-08,  avg # of iterations =  2.0

     negative rho (up, down):  5.282E-03 0.000E+00

     total cpu time spent up to now is      287.6 secs

     total energy              =     -43.78973477 Ry
     estimated scf accuracy    <       0.00000003 Ry

     iteration #  4     ecut=    25.00 Ry     beta= 0.70
     Davidson diagonalization with overlap
     ethr =  3.68E-10,  avg # of iterations =  3.0

     negative rho (up, down):  5.283E-03 0.000E+00

     total cpu time spent up to now is      288.1 secs

     total energy              =     -43.78973478 Ry
     estimated scf accuracy    <       0.00000002 Ry

     iteration #  5     ecut=    25.00 Ry     beta= 0.70
     Davidson diagonalization with overlap
     ethr =  2.13E-10,  avg # of iterations =  2.0

     negative rho (up, down):  5.283E-03 0.000E+00

     total cpu time spent up to now is      288.5 secs

     End of self-consistent calculation

          k = 0.0000 0.0000 0.0000 (  7123 PWs)   bands (ev):

   -25.1759 -12.2489  -9.2995  -6.9335

     highest occupied level (ev):    -6.9335

!    total energy              =     -43.78973478 Ry
     estimated scf accuracy    <          2.2E-10 Ry

     convergence has been achieved in   5 iterations

     negative rho (up, down):  5.283E-03 0.000E+00

     Forces acting on atoms (cartesian axes, Ry/au):

     atom    1 type  2   force =     0.03389275   -0.00557843   -0.00386518
     atom    2 type  1   force =    -0.02834239    0.00557782    0.00364709
     atom    3 type  1   force =    -0.00555036    0.00000061    0.00021810

     Total force =     0.045534     Total SCF correction =     0.000006


     Computing stress (Cartesian axis) and pressure


     negative rho (up, down):  5.283E-03 0.000E+00
          total   stress  (Ry/bohr**3)                   (kbar)     P=      -39.72
  -0.00027489   0.00000029   0.00000043          -40.44        0.04        0.06
   0.00000029  -0.00026176   0.00000872            0.04      -38.51        1.28
   0.00000043   0.00000872  -0.00027333            0.06        1.28      -40.21


     Entering Dynamics:    iteration =   100
                           time      =   0.0968 pico-seconds


ATOMIC_POSITIONS (angstrom)
O             4.9351427364        4.8241667798        4.9876335856
H             5.8515620544        4.4484725140        4.7453705612
H             5.1843512361        5.6938161463        5.4485694561


     kinetic energy (Ekin) =           0.00452494 Ry
     temperature           =         238.14386480 K 
     Ekin + Etot (const)   =         -43.78520984 Ry
     Ions kinetic stress =            0.13 (kbar)
                                      0.04           0.04           0.08
                                      0.04           0.04           0.10
                                      0.08           0.10           0.31



     Linear momentum :   -0.0000000000    0.0000000000   -0.0000000000

     The maximum number of steps has been reached.

     End of molecular dynamics calculation

     diffusion coefficients :
     atom     1   D =       0.00000107 cm^2/s
     atom     2   D =       0.00046821 cm^2/s
     atom     3   D =       0.00027965 cm^2/s

     < D > =       0.00024965 cm^2/s

     Writing output data file ./outdir/h2o.save/

     init_run     :      0.63s CPU      0.35s WALL (       1 calls)
     electrons    :    515.22s CPU    181.80s WALL (     100 calls)
     update_pot   :     36.47s CPU     13.79s WALL (      99 calls)
     forces       :     25.27s CPU     10.04s WALL (     100 calls)
     stress       :    219.85s CPU     77.93s WALL (     100 calls)

     Called by init_run:
     wfcinit      :      0.09s CPU      0.03s WALL (       1 calls)
     potinit      :      0.20s CPU      0.09s WALL (       1 calls)
     hinit0       :      0.21s CPU      0.18s WALL (       1 calls)

     Called by electrons:
     c_bands      :    206.50s CPU     71.31s WALL (     504 calls)
     sum_band     :    216.68s CPU     75.80s WALL (     504 calls)
     v_of_rho     :     46.61s CPU     20.25s WALL (     513 calls)
     newd         :     33.30s CPU      9.92s WALL (     513 calls)
     PAW_pot      :     36.03s CPU     11.12s WALL (     612 calls)
     mix_rho      :      2.15s CPU      1.91s WALL (     504 calls)

     Called by c_bands:
     init_us_2    :      6.04s CPU      2.48s WALL (    1206 calls)
     cegterg      :    205.61s CPU     70.79s WALL (     504 calls)

     Called by *egterg:
     cdiaghg      :      6.73s CPU      1.52s WALL (    1381 calls)
     h_psi        :    137.28s CPU     46.75s WALL (    1572 calls)
     s_psi        :      1.89s CPU      0.66s WALL (    1670 calls)
     g_psi        :     10.16s CPU      3.74s WALL (    1067 calls)

     Called by h_psi:
     h_psi:calbec :      2.34s CPU      0.65s WALL (    1572 calls)
     vloc_psi     :    123.17s CPU     41.86s WALL (    1572 calls)
     add_vuspsi   :      1.95s CPU      0.59s WALL (    1572 calls)

     General routines
     calbec       :      3.27s CPU      1.08s WALL (    2871 calls)
     fft          :     32.47s CPU     17.54s WALL (    8333 calls)
     ffts         :      3.25s CPU      1.18s WALL (     504 calls)
     fftw         :     49.93s CPU     16.67s WALL (   13378 calls)
     davcio       :      0.05s CPU      0.03s WALL (     392 calls)


     PWSCF        :  13m32.41s CPU   4m49.44s WALL


   This run was terminated on:  12:44:23  10Feb2021            

=------------------------------------------------------------------------------=
   JOB DONE.
=------------------------------------------------------------------------------=
