    4    4  400    1
  0.5270948E+02  0.4254960E-09  0.2529725E-09  0.1958754E-08  0.5000000E-15
  1.000000000000000E-004
  CAR 
 gr                                      
     16    247     12
 
  0.0000000E+00  0.0000000E+00  0.0000000E+00  0.1157407E-02
    1      -22.079583
    2      -16.700959
    3      -15.863498
    4      -10.224550
    5       -9.477296
    6       -5.993053
    7       -5.741974
    8       -4.902476
    9       -1.143939
   10        0.544926
   11        1.342997
   12        1.736487
 
  0.4166667E-01  0.0000000E+00  0.0000000E+00  0.2314815E-02
    1      -22.069208
    2      -16.897665
    3      -15.651785
    4      -10.212240
    5       -9.466881
    6       -6.016804
    7       -5.782128
    8       -4.972684
    9       -1.058945
   10        0.558983
   11        1.357195
   12        1.750866
 
  0.8333333E-01  0.0000000E+00  0.0000000E+00  0.2314815E-02
    1      -22.038089
    2      -17.264596
    3      -15.239926
    4      -10.175326
    5       -9.435685
    6       -6.086683
    7       -5.901140
    8       -5.166098
    9       -0.821348
   10        0.601149
   11        1.399787
   12        1.794002
 
  0.1250000E+00  0.0000000E+00  0.0000000E+00  0.2314815E-02
    1      -21.986247
    2      -17.657699
    3      -14.772255
    4      -10.113867
    5       -9.383859
    6       -6.198819
    7       -6.094868
    8       -5.445503
    9       -0.468896
   10        0.671421
   11        1.470760
   12        1.865895
 
  0.1666667E+00  0.0000000E+00  0.0000000E+00  0.2314815E-02
    1      -21.913714
    2      -18.047479
    3      -14.278748
    4      -10.027960
    5       -9.311658
    6       -6.357046
    7       -6.347485
    8       -5.775577
    9       -0.037810
   10        0.769788
   11        1.570096
   12        1.966544
 
  0.2083333E+00  0.0000000E+00  0.0000000E+00  0.2314815E-02
    1      -21.820542
    2      -18.425711
    3      -13.768320
    4       -9.917743
    5       -9.219454
    6       -6.680035
    7       -6.525905
    8       -6.131117
    9        0.445450
   10        0.896236
   11        1.697764
   12        2.095947
 
  0.2500000E+00  0.0000000E+00  0.0000000E+00  0.2314815E-02
    1      -21.706795
    2      -18.789136
    3      -13.245145
    4       -9.783406
    5       -9.107744
    6       -7.055564
    7       -6.727011
    8       -6.495871
    9        0.962995
   10        1.050741
   11        1.853722
   12        2.254101
 
  0.2916667E+00  0.0000000E+00  0.0000000E+00  0.2314815E-02
    1      -21.572552
    2      -19.136101
    3      -12.712034
    4       -9.625190
    5       -8.977167
    6       -7.475339
    7       -6.944002
    8       -6.859527
    9        1.233268
   10        1.502467
   11        2.037907
   12        2.441001
 
  0.3333333E+00  0.0000000E+00  0.0000000E+00  0.2314815E-02
    1      -21.417911
    2      -19.465615
    3      -12.171417
    4       -9.443402
    5       -8.828528
    6       -7.931464
    7       -7.215411
    8       -7.170683
    9        1.443773
   10        2.054656
   11        2.250223
   12        2.656636
 
  0.3750000E+00  0.0000000E+00  0.0000000E+00  0.2314815E-02
    1      -21.242985
    2      -19.777005
    3      -11.625716
    4       -9.238424
    5       -8.662826
    6       -8.416685
    7       -7.559058
    8       -7.401620
    9        1.682192
   10        2.490512
   11        2.611730
   12        2.900988
 
  0.4166667E+00  0.0000000E+00  0.0000000E+00  0.2314815E-02
    1      -21.047911
    2      -20.069776
    3      -11.077532
    4       -9.010732
    5       -8.924505
    6       -8.481288
    7       -7.887375
    8       -7.632161
    9        1.948434
   10        2.758465
   11        3.164100
   12        3.174019
 
  0.4583333E+00  0.0000000E+00  0.0000000E+00  0.2314815E-02
    1      -20.832846
    2      -20.343538
    3      -10.529771
    4       -9.449189
    5       -8.760922
    6       -8.285415
    7       -8.198149
    8       -7.858388
    9        2.242364
   10        2.912100
   11        3.053272
   12        3.475697
 
  0.5000000E+00  0.0000000E+00  0.0000000E+00  0.1157407E-02
    1      -20.597982
    2      -20.597982
    3       -9.985729
    4       -9.985729
    5       -8.489743
    6       -8.489743
    7       -8.077040
    8       -8.077040
    9        2.563749
   10        2.563749
   11        3.371288
   12        3.371288
 
  0.0000000E+00  0.2777778E-01  0.0000000E+00  0.2314815E-02
    1      -22.066577
    2      -16.689732
    3      -15.853136
    4      -10.209118
    5       -9.535445
    6       -6.046619
    7       -5.774165
    8       -4.886734
    9       -1.150122
   10        0.562514
   11        1.360841
   12        1.754554
 
  0.4166667E-01  0.2777778E-01  0.0000000E+00  0.4629630E-02
    1      -22.056204
    2      -16.886340
    3      -15.641584
    4      -10.196812
    5       -9.524999
    6       -6.073336
    7       -5.810619
    8       -4.957120
    9       -1.065081
   10        0.576571
   11        1.375038
   12        1.768933
 
  0.8333333E-01  0.2777778E-01  0.0000000E+00  0.4629630E-02
    1      -22.025089
    2      -17.253070
    3      -15.230112
    4      -10.159912
    5       -9.493708
    6       -6.153244
    7       -5.917536
    8       -5.150932
    9       -0.827483
   10        0.618742
   11        1.417626
   12        1.812070
 
  0.1250000E+00  0.2777778E-01  0.0000000E+00  0.4629630E-02
    1      -21.973254
    2      -17.645968
    3      -14.762968
    4      -10.098475
    5       -9.441716
    6       -6.287689
    7       -6.085904
    8       -5.430729
    9       -0.475301
   10        0.689021
   11        1.488594
   12        1.883964
 
  0.1666667E+00  0.2777778E-01  0.0000000E+00  0.4629630E-02
    1      -21.900732
    2      -18.035561
    3      -14.270115
    4      -10.012599
    5       -9.369272
    6       -6.486375
    7       -6.294463
    8       -5.761078
    9       -0.044869
   10        0.787398
   11        1.587922
   12        1.984615
 
  0.2083333E+00  0.2777778E-01  0.0000000E+00  0.4629630E-02
    1      -21.807574
    2      -18.413631
    3      -13.760484
    4       -9.902424
    5       -9.276729
    6       -6.763915
    7       -6.514587
    8       -6.116765
    9        0.437346
   10        0.913858
   11        1.715580
   12        2.114021
 
  0.2500000E+00  0.2777778E-01  0.0000000E+00  0.4629630E-02
    1      -21.693844
    2      -18.776914
    3      -13.238277
    4       -9.768137
    5       -9.164566
    6       -7.113290
    7       -6.738256
    8       -6.481567
    9        0.953485
   10        1.068376
   11        1.871527
   12        2.272178
 
  0.2916667E+00  0.2777778E-01  0.0000000E+00  0.4629630E-02
    1      -21.559623
    2      -19.123757
    3      -12.706343
    4       -9.609981
    5       -9.033396
    6       -7.516785
    7       -6.968268
    8       -6.845204
    9        1.250918
   10        1.491239
   11        2.055698
   12        2.459082
 
  0.3333333E+00  0.2777778E-01  0.0000000E+00  0.4629630E-02
    1      -21.405007
    2      -19.453165
    3      -12.167161
    4       -9.428261
    5       -8.883988
    6       -7.961526
    7       -7.203478
    8       -7.201025
    9        1.461439
   10        2.041463
   11        2.268002
   12        2.674723
 
  0.3750000E+00  0.2777778E-01  0.0000000E+00  0.4629630E-02
    1      -21.230113
    2      -19.764465
    3      -11.623217
    4       -9.223361
    5       -8.717297
    6       -8.438233
    7       -7.544585
    8       -7.440484
    9        1.699876
   10        2.508284
   11        2.596459
   12        2.919083
 
  0.4166667E+00  0.2777778E-01  0.0000000E+00  0.4629630E-02
    1      -21.035074
    2      -20.057157
    3      -11.077194
    4       -8.995755
    5       -8.939463
    6       -8.534491
    7       -7.872802
    8       -7.675545
    9        1.966142
   10        2.776241
   11        3.147218
   12        3.192130
 
  0.4583333E+00  0.2777778E-01  0.0000000E+00  0.4629630E-02
    1      -20.820053
    2      -20.330852
    3      -10.532101
    4       -9.458958
    5       -8.746039
    6       -8.336997
    7       -8.183470
    8       -7.905223
    9        2.260107
   10        2.930045
   11        3.071084
   12        3.493796
 
  0.5000000E+00  0.2777778E-01  0.0000000E+00  0.2314815E-02
    1      -20.585238
    2      -20.585238
    3       -9.991369
    4       -9.991369
    5       -8.474960
    6       -8.474960
    7       -8.126543
    8       -8.126543
    9        2.581554
   10        2.581554
   11        3.389139
   12        3.389139
 
  0.0000000E+00  0.5555556E-01  0.0000000E+00  0.2314815E-02
    1      -22.027572
    2      -16.656055
    3      -15.822259
    4      -10.162852
    5       -9.705096
    6       -6.203150
    7       -5.869701
    8       -4.839527
    9       -1.169453
   10        0.615284
   11        1.414365
   12        1.808756
 
  0.4166667E-01  0.5555556E-01  0.0000000E+00  0.4629630E-02
    1      -22.017203
    2      -16.852387
    3      -15.611173
    4      -10.150559
    5       -9.694550
    6       -6.236136
    7       -5.897753
    8       -4.910466
    9       -1.084261
   10        0.629345
   11        1.428559
   12        1.823135
 
  0.8333333E-01  0.5555556E-01  0.0000000E+00  0.4629630E-02
    1      -21.986101
    2      -17.218524
    3      -15.200877
    4      -10.113701
    5       -9.662953
    6       -6.333076
    7       -5.981612
    8       -5.105504
    9       -0.846641
   10        0.671526
   11        1.471136
   12        1.866274
 
  0.1250000E+00  0.5555556E-01  0.0000000E+00  0.4629630E-02
    1      -21.934288
    2      -17.610807
    3      -14.735347
    4      -10.052333
    5       -9.610430
    6       -6.489351
    7       -6.119205
    8       -5.386502
    9       -0.495271
   10        0.741823
   11        1.542086
   12        1.938172
 
  0.1666667E+00  0.5555556E-01  0.0000000E+00  0.4629630E-02
    1      -21.861798
    2      -17.999840
    3      -14.244511
    4       -9.966554
    5       -9.537197
    6       -6.700658
    7       -6.304530
    8       -5.717685
    9       -0.066824
   10        0.840225
   11        1.641389
   12        2.038828
 
  0.2083333E+00  0.5555556E-01  0.0000000E+00  0.4629630E-02
    1      -21.768682
    2      -18.377418
    3      -13.737350
    4       -9.856503
    5       -9.443561
    6       -6.964904
    7       -6.526845
    8       -6.073818
    9        0.412209
   10        0.966715
   11        1.769016
   12        2.168241
 
  0.2500000E+00  0.5555556E-01  0.0000000E+00  0.4629630E-02
    1      -21.655004
    2      -18.740273
    3      -13.218158
    4       -9.722369
    5       -9.329930
    6       -7.281490
    7       -6.772598
    8       -6.438761
    9        0.924076
   10        1.121268
   11        1.924925
   12        2.326407
 
  0.2916667E+00  0.5555556E-01  0.0000000E+00  0.4629630E-02
    1      -21.520849
    2      -19.086747
    3      -12.689910
    4       -9.564393
    5       -9.196828
    6       -7.648408
    7       -7.029416
    8       -6.802333
    9        1.303848
   10        1.456608
   11        2.109056
   12        2.513322
 
  0.3333333E+00  0.5555556E-01  0.0000000E+00  0.4629630E-02
    1      -21.366311
    2      -19.415837
    3      -12.155249
    4       -9.382883
    5       -9.044905
    6       -8.060458
    7       -7.288725
    8       -7.157959
    9        1.514410
   10        2.000846
   11        2.321320
   12        2.728977
 
  0.3750000E+00  0.5555556E-01  0.0000000E+00  0.4629630E-02
    1      -21.191508
    2      -19.726862
    3      -11.616877
    4       -9.178219
    5       -8.874955
    6       -8.510241
    7       -7.545279
    8       -7.501248
    9        1.752894
   10        2.549441
   11        2.561574
   12        2.973359
 
  0.4166667E+00  0.5555556E-01  0.0000000E+00  0.4629630E-02
    1      -20.996579
    2      -20.019318
    3      -11.077754
    4       -8.989947
    5       -8.950877
    6       -8.687940
    7       -7.829157
    8       -7.795619
    9        2.019218
   10        2.829541
   11        3.094738
   12        3.246441
 
  0.4583333E+00  0.5555556E-01  0.0000000E+00  0.4629630E-02
    1      -20.781685
    2      -20.292810
    3      -10.541252
    4       -9.492382
    5       -8.701447
    6       -8.485008
    7       -8.139504
    8       -8.037102
    9        2.313266
   10        2.983662
   11        3.124492
   12        3.548253
 
  0.5000000E+00  0.5555556E-01  0.0000000E+00  0.2314815E-02
    1      -20.547021
    2      -20.547021
    3      -10.011272
    4      -10.011272
    5       -8.430674
    6       -8.430674
    7       -8.267526
    8       -8.267526
    9        2.634858
   10        2.634858
   11        3.442680
   12        3.442680
 
  0.0000000E+00  0.8333333E-01  0.0000000E+00  0.2314815E-02
    1      -21.962605
    2      -16.599939
    3      -15.771537
    4      -10.085849
    5       -9.973151
    6       -6.451364
    7       -6.025592
    8       -4.760912
    9       -1.204262
   10        0.703262
   11        1.503549
   12        1.899097
 
  0.4166667E-01  0.8333333E-01  0.0000000E+00  0.4629630E-02
    1      -21.952243
    2      -16.795882
    3      -15.561183
    4      -10.073580
    5       -9.962414
    6       -6.490631
    7       -6.044015
    8       -4.832832
    9       -1.118775
   10        0.717326
   11        1.517736
   12        1.913478
 
  0.8333333E-01  0.8333333E-01  0.0000000E+00  0.4629630E-02
    1      -21.921163
    2      -17.161066
    3      -15.152882
    4      -10.036792
    5       -9.930233
    6       -6.602206
    7       -6.103730
    8       -5.030032
    9       -0.881055
   10        0.759518
   11        1.560293
   12        1.956619
 
  0.1250000E+00  0.8333333E-01  0.0000000E+00  0.4629630E-02
    1      -21.869387
    2      -17.552321
    3      -14.690170
    4       -9.975543
    5       -9.876695
    6       -6.773282
    7       -6.212289
    8       -5.313119
    9       -0.531032
   10        0.829832
   11        1.631210
   12        2.028520
 
  0.1666667E+00  0.8333333E-01  0.0000000E+00  0.4629630E-02
    1      -21.796951
    2      -17.940411
    3      -14.202900
    4       -9.889929
    5       -9.801948
    6       -6.992334
    7       -6.372793
    8       -5.645734
    9       -0.105967
   10        0.928261
   11        1.730467
   12        2.129182
 
  0.2083333E+00  0.8333333E-01  0.0000000E+00  0.4629630E-02
    1      -21.703904
    2      -18.317157
    3      -13.700153
    4       -9.780091
    5       -9.706199
    6       -7.251685
    7       -6.581927
    8       -6.002614
    9        0.367633
   10        1.054786
   11        1.858035
   12        2.258603
 
  0.2500000E+00  0.8333333E-01  0.0000000E+00  0.4629630E-02
    1      -21.590316
    2      -18.679290
    3      -13.186404
    4       -9.646219
    5       -9.589714
    6       -7.547562
    7       -6.830772
    8       -6.367780
    9        0.872207
   10        1.209381
   11        2.013872
   12        2.416781
 
  0.2916667E+00  0.8333333E-01  0.0000000E+00  0.4629630E-02
    1      -21.456268
    2      -19.025139
    3      -12.664885
    4       -9.488554
    5       -9.452821
    6       -7.879382
    7       -7.106468
    8       -6.731220
    9        1.392009
   10        1.395834
   11        2.197922
   12        2.603710
 
  0.3333333E+00  0.8333333E-01  0.0000000E+00  0.4629630E-02
    1      -21.301860
    2      -19.353691
    3      -12.138583
    4       -9.307404
    5       -9.295903
    6       -8.248121
    7       -7.394723
    8       -7.086495
    9        1.602624
   10        1.929843
   11        2.410104
   12        2.819384
 
  0.3750000E+00  0.8333333E-01  0.0000000E+00  0.4629630E-02
    1      -21.127213
    2      -19.664253
    3      -11.610656
    4       -9.119396
    5       -9.103147
    6       -8.653867
    7       -7.682912
    8       -7.429307
    9        1.841164
   10        2.467341
   11        2.650293
   12        3.063791
 
  0.4166667E+00  0.8333333E-01  0.0000000E+00  0.4629630E-02
    1      -20.932467
    2      -19.956311
    3      -11.084664
    4       -9.094027
    5       -8.923781
    6       -8.876257
    7       -7.962258
    8       -7.756676
    9        2.107553
   10        2.918259
   11        3.002031
   12        3.336914
 
  0.4583333E+00  0.8333333E-01  0.0000000E+00  0.4629630E-02
    1      -20.717789
    2      -20.229461
    3      -10.564754
    4       -9.563451
    5       -8.709580
    6       -8.627322
    7       -8.227868
    8       -8.066462
    9        2.401689
   10        3.072522
   11        3.213398
   12        3.522076
 
  0.5000000E+00  0.8333333E-01  0.0000000E+00  0.2314815E-02
    1      -20.483377
    2      -20.483377
    3      -10.055796
    4      -10.055796
    5       -8.477367
    6       -8.477367
    7       -8.357079
    8       -8.357079
    9        2.723424
   10        2.723424
   11        3.531867
   12        3.531867
 
  0.0000000E+00  0.1111111E+00  0.0000000E+00  0.2314815E-02
    1      -21.871739
    2      -16.521407
    3      -15.702244
    4      -10.321252
    5       -9.978274
    6       -6.775769
    7       -6.237195
    8       -4.650989
    9       -1.258333
   10        0.826480
   11        1.628354
   12        2.025586
 
  0.4166667E-01  0.1111111E+00  0.0000000E+00  0.4629630E-02
    1      -21.861387
    2      -16.716965
    3      -15.492810
    4      -10.310190
    5       -9.966039
    6       -6.820374
    7       -6.245982
    8       -4.724422
    9       -1.172327
   10        0.840544
   11        1.642530
   12        2.039966
 
  0.8333333E-01  0.1111111E+00  0.0000000E+00  0.4629630E-02
    1      -21.830338
    2      -17.080889
    3      -15.087406
    4      -10.277012
    5       -9.929354
    6       -6.943785
    7       -6.281576
    8       -4.924916
    9       -0.934295
   10        0.882736
   11        1.685056
   12        2.083107
 
  0.1250000E+00  0.1111111E+00  0.0000000E+00  0.4629630E-02
    1      -21.778615
    2      -17.470702
    3      -14.628959
    4      -10.221732
    5       -9.868276
    6       -7.126353
    7       -6.360032
    8       -5.211127
    9       -0.586119
   10        0.953056
   11        1.755919
   12        2.155010
 
  0.1666667E+00  0.1111111E+00  0.0000000E+00  0.4629630E-02
    1      -21.706253
    2      -17.857447
    3      -14.147200
    4      -10.144370
    5       -9.782904
    6       -7.352050
    7       -6.491225
    8       -5.545833
    9       -0.165909
   10        1.051497
   11        1.855099
   12        2.255675
 
  0.2083333E+00  0.1111111E+00  0.0000000E+00  0.4629630E-02
    1      -21.613307
    2      -18.233001
    3      -13.651387
    4      -10.044935
    5       -9.673378
    6       -7.610332
    7       -6.677050
    8       -5.903766
    9        0.299849
   10        1.178046
   11        1.982567
   12        2.385103
 
  0.2500000E+00  0.1111111E+00  0.0000000E+00  0.4629630E-02
    1      -21.499844
    2      -18.594100
    3      -13.146338
    4       -9.923410
    5       -9.539889
    6       -7.894924
    7       -6.913050
    8       -6.269209
    9        0.793917
   10        1.332674
   11        2.138281
   12        2.543291
 
  0.2916667E+00  0.1111111E+00  0.0000000E+00  0.4629630E-02
    1      -21.365948
    2      -18.939055
    3      -12.635774
    4       -9.779718
    5       -9.382679
    6       -8.203014
    7       -7.189960
    8       -6.632410
    9        1.304747
   10        1.515342
   11        2.322186
   12        2.730234
 
  0.3333333E+00  0.1111111E+00  0.0000000E+00  0.4629630E-02
    1      -21.211725
    2      -19.266837
    3      -12.123354
    4       -9.613687
    5       -9.202055
    6       -8.534809
    7       -7.495004
    8       -6.987131
    9        1.726002
   10        1.824062
   11        2.534209
   12        2.945926
 
  0.3750000E+00  0.1111111E+00  0.0000000E+00  0.4629630E-02
    1      -21.037297
    2      -19.576738
    3      -11.613130
    4       -9.425000
    5       -8.998396
    6       -8.892830
    7       -7.813382
    8       -7.329212
    9        1.964588
   10        2.345462
   11        2.774246
   12        3.190358
 
  0.4166667E+00  0.1111111E+00  0.0000000E+00  0.4629630E-02
    1      -20.842811
    2      -19.868228
    3      -11.109811
    4       -9.280288
    5       -9.213163
    6       -8.772172
    7       -8.130444
    8       -7.655767
    9        2.231025
   10        2.863592
   11        3.042135
   12        3.463516
 
  0.4583333E+00  0.1111111E+00  0.0000000E+00  0.4629630E-02
    1      -20.628440
    2      -20.140890
    3      -10.618893
    4       -9.698750
    5       -8.977561
    6       -8.523967
    7       -8.434345
    8       -7.964714
    9        2.525217
   10        3.196305
   11        3.337508
   12        3.373221
 
  0.5000000E+00  0.1111111E+00  0.0000000E+00  0.2314815E-02
    1      -20.394387
    2      -20.394387
    3      -10.146508
    4      -10.146508
    5       -8.717761
    6       -8.717761
    7       -8.254508
    8       -8.254508
    9        2.847037
   10        2.847037
   11        3.656426
   12        3.656437
 
  0.0000000E+00  0.1388889E+00  0.0000000E+00  0.2314815E-02
    1      -21.755065
    2      -16.420489
    3      -15.616547
    4      -10.728898
    5       -9.840362
    6       -7.159736
    7       -6.498653
    8       -4.509896
    9       -1.336704
   10        0.984960
   11        1.788725
   12        2.188226
 
  0.4166667E-01  0.1388889E+00  0.0000000E+00  0.4629630E-02
    1      -21.744727
    2      -16.615869
    3      -15.408103
    4      -10.717295
    5       -9.828174
    6       -7.208870
    7       -6.497962
    8       -4.585562
    9       -1.249792
   10        0.999019
   11        1.802885
   12        2.202605
 
  0.8333333E-01  0.1388889E+00  0.0000000E+00  0.4629630E-02
    1      -21.713718
    2      -16.978308
    3      -15.006673
    4      -10.682449
    5       -9.791628
    6       -7.342295
    7       -6.509295
    8       -4.790818
    9       -1.010973
   10        1.041196
   11        1.845360
   12        2.245744
 
  0.1250000E+00  0.1388889E+00  0.0000000E+00  0.4629630E-02
    1      -21.662063
    2      -17.366254
    3      -14.554424
    4      -10.624232
    5       -9.730784
    6       -7.534791
    7       -6.555942
    8       -5.081414
    9       -0.665023
   10        1.111498
   11        1.916137
   12        2.317644
 
  0.1666667E+00  0.1388889E+00  0.0000000E+00  0.4629630E-02
    1      -21.589800
    2      -17.751221
    3      -14.080905
    4      -10.542412
    5       -9.645740
    6       -7.767014
    7       -6.653482
    8       -5.418955
    9       -0.251184
   10        1.209924
   11        2.015193
   12        2.418308
 
  0.2083333E+00  0.1388889E+00  0.0000000E+00  0.4629630E-02
    1      -21.496983
    2      -18.125192
    3      -13.595720
    4      -10.436600
    5       -9.536639
    6       -8.026637
    7       -6.808208
    8       -5.778240
    9        0.204192
   10        1.336466
   11        2.142494
   12        2.547737
 
  0.2500000E+00  0.1388889E+00  0.0000000E+00  0.4629630E-02
    1      -21.383682
    2      -18.484911
    3      -13.104337
    4      -10.306195
    5       -9.403672
    6       -8.305953
    7       -7.019466
    8       -6.143960
    9        0.684390
   10        1.491100
   11        2.297994
   12        2.705930
 
  0.2916667E+00  0.1388889E+00  0.0000000E+00  0.4629630E-02
    1      -21.249987
    2      -18.828678
    3      -12.611425
    4      -10.150292
    5       -9.247084
    6       -8.600457
    7       -7.281469
    8       -6.506743
    9        1.178419
   10        1.673786
   11        2.481632
   12        2.892884
 
  0.3333333E+00  0.1388889E+00  0.0000000E+00  0.4629630E-02
    1      -21.096004
    2      -19.155440
    3      -12.121924
    4       -9.967591
    5       -9.067180
    6       -8.908293
    7       -7.584605
    8       -6.860630
    9        1.678547
   10        1.884468
   11        2.693329
   12        3.108591
 
  0.3750000E+00  0.1388889E+00  0.0000000E+00  0.4629630E-02
    1      -20.921863
    2      -19.464464
    3      -11.641479
    4       -9.756375
    5       -9.230129
    6       -8.864340
    7       -7.916418
    8       -7.201653
    9        2.123077
   10        2.178921
   11        2.932982
   12        3.353042
 
  0.4166667E+00  0.1388889E+00  0.0000000E+00  0.4629630E-02
    1      -20.727718
    2      -19.755203
    3      -11.176457
    4       -9.569039
    5       -9.514727
    6       -8.639032
    7       -8.262443
    8       -7.527049
    9        2.389530
   10        2.674829
   11        3.200454
   12        3.626226
 
  0.4583333E+00  0.1388889E+00  0.0000000E+00  0.4629630E-02
    1      -20.513749
    2      -20.027222
    3      -10.733332
    4       -9.929815
    5       -9.241333
    6       -8.607385
    7       -8.391834
    8       -7.834817
    9        2.683732
   10        3.162259
   11        3.354857
   12        3.495548
 
  0.5000000E+00  0.1388889E+00  0.0000000E+00  0.2314815E-02
    1      -20.280168
    2      -20.280168
    3      -10.317184
    4      -10.317184
    5       -8.937138
    6       -8.937138
    7       -8.123462
    8       -8.123462
    9        3.005560
   10        3.005560
   11        3.637441
   12        3.637441
 
  0.0000000E+00  0.1666667E+00  0.0000000E+00  0.2314815E-02
    1      -21.612707
    2      -16.297225
    3      -15.518088
    4      -11.175293
    5       -9.672428
    6       -7.587688
    7       -6.803358
    8       -4.337818
    9       -1.445275
   10        1.178707
   11        1.984583
   12        2.387023
 
  0.4166667E-01  0.1666667E+00  0.0000000E+00  0.4629630E-02
    1      -21.602385
    2      -16.492975
    3      -15.310529
    4      -11.162771
    5       -9.660301
    6       -7.640839
    7       -6.793345
    8       -4.416763
    9       -1.356762
   10        1.192754
   11        1.998716
   12        2.401400
 
  0.8333333E-01  0.1666667E+00  0.0000000E+00  0.4629630E-02
    1      -21.571427
    2      -16.853833
    3      -14.914545
    4      -11.125074
    5       -9.623938
    6       -7.783225
    7       -6.780323
    8       -4.628809
    9       -1.116167
   10        1.234899
   11        2.041110
   12        2.444533
 
  0.1250000E+00  0.1666667E+00  0.0000000E+00  0.4629630E-02
    1      -21.519858
    2      -17.239456
    3      -14.471411
    4      -11.061785
    5       -9.563400
    6       -7.984888
    7       -6.793815
    8       -4.925388
    9       -0.772539
   10        1.305153
   11        2.111746
   12        2.516424
 
  0.1666667E+00  0.1666667E+00  0.0000000E+00  0.4629630E-02
    1      -21.447715
    2      -17.622151
    3      -14.010461
    4      -10.972146
    5       -9.478787
    6       -8.223797
    7       -6.854348
    8       -5.266603
    9       -0.366534
   10        1.403526
   11        2.210594
   12        2.617078
 
  0.2083333E+00  0.1666667E+00  0.0000000E+00  0.4629630E-02
    1      -21.355058
    2      -17.994086
    3      -13.542012
    4      -10.854943
    5       -9.370244
    6       -8.486380
    7       -6.972119
    8       -5.627496
    9        0.075888
   10        1.530019
   11        2.337606
   12        2.746499
 
  0.2500000E+00  0.1666667E+00  0.0000000E+00  0.4629630E-02
    1      -21.241960
    2      -18.352035
    3      -13.072805
    4      -10.708371
    5       -9.237964
    6       -8.764143
    7       -7.149870
    8       -5.993389
    9        0.538853
   10        1.684616
   11        2.492715
   12        2.904689
 
  0.2916667E+00  0.1666667E+00  0.0000000E+00  0.4629630E-02
    1      -21.108513
    2      -18.694278
    3      -12.609268
    4      -10.529918
    5       -9.082194
    6       -9.051695
    7       -7.384866
    8       -6.355449
    9        1.012210
   10        1.867278
   11        2.675819
   12        3.091645
 
  0.3333333E+00  0.1666667E+00  0.0000000E+00  0.4629630E-02
    1      -20.954831
    2      -19.019734
    3      -12.158376
    4      -10.316453
    5       -9.345881
    6       -8.903243
    7       -7.670292
    8       -6.708098
    9        1.488988
   10        2.077947
   11        2.886763
   12        3.307362
 
  0.3750000E+00  0.1666667E+00  0.0000000E+00  0.4629630E-02
    1      -20.781051
    2      -19.327642
    3      -11.727371
    4      -10.064903
    5       -9.645501
    6       -8.701490
    7       -7.996362
    8       -7.047617
    9        1.964046
   10        2.316544
   11        3.125248
   12        3.551828
 
  0.4166667E+00  0.1666667E+00  0.0000000E+00  0.4629630E-02
    1      -20.587333
    2      -19.617426
    3      -11.322310
    4       -9.951346
    5       -9.773965
    6       -8.477402
    7       -8.351138
    8       -7.371402
    9        2.433320
   10        2.582978
   11        3.390328
   12        3.825031
 
  0.4583333E+00  0.1666667E+00  0.0000000E+00  0.4629630E-02
    1      -20.373870
    2      -19.888632
    3      -10.945801
    4      -10.266378
    5       -9.446536
    6       -8.721021
    7       -8.231551
    8       -7.677555
    9        2.877139
   10        2.893281
   11        3.548108
   12        3.662495
 
  0.5000000E+00  0.1666667E+00  0.0000000E+00  0.2314815E-02
    1      -20.140883
    2      -20.140883
    3      -10.595711
    4      -10.595711
    5       -9.091175
    6       -9.091175
    7       -7.964642
    8       -7.964642
    9        3.198902
   10        3.198902
   11        3.339706
   12        3.339706
 