 vasp.5.3.5 31Mar14 (build Mar 02 2015 18:14:16) complex                        
  
 executed on             LinuxIFC date 2018.08.09  22:21:45
 running on    8 total cores
 distrk:  each k-point on    8 cores,    1 groups
 distr:  one band on NCORES_PER_BAND=   2 cores,    4 groups


--------------------------------------------------------------------------------------------------------


 INCAR:
 POTCAR:   PAW_PBE C 08Apr2002                    
 POTCAR:   PAW_PBE C 08Apr2002                    
   VRHFIN =C: s2p2                                                              
   LEXCH  = PE                                                                  
   EATOM  =   147.1560 eV,   10.8157 Ry                                         
                                                                                
   TITEL  = PAW_PBE C 08Apr2002                                                 
   LULTRA =        F    use ultrasoft PP ?                                      
   IUNSCR =        0    unscreen: 0-lin 1-nonlin 2-no                           
   RPACOR =     .000    partial core radius                                     
   POMASS =   12.011; ZVAL   =    4.000    mass and valenz                      
   RCORE  =    1.500    outmost cutoff radius                                   
   RWIGS  =    1.630; RWIGS  =     .863    wigner-seitz radius (au A)           
   ENMAX  =  400.000; ENMIN  =  300.000 eV                                      
   ICORE  =        2    local potential                                         
   LCOR   =        T    correct aug charges                                     
   LPAW   =        T    paw PP                                                  
   EAUG   =  644.873                                                            
   DEXC   =     .000                                                            
   RMAX   =    2.266    core radius for proj-oper                               
   RAUG   =    1.300    factor for augmentation sphere                          
   RDEP   =    1.501    radius for radial grids                                 
   RDEPT  =    1.300    core radius for aug-charge                              
   QCUT   =   -5.516; QGAM   =   11.032    optimization parameters              
                                                                                
   Description                                                                  
     l     E      TYP  RCUT    TYP  RCUT                                        
     0   .000     23  1.200                                                     
     0   .000     23  1.200                                                     
     1   .000     23  1.500                                                     
     1  2.500     23  1.500                                                     
     2   .000      7  1.500                                                     
  local pseudopotential read in
  atomic valenz-charges read in
  non local Contribution for L=           0  read in
    real space projection operators read in
  non local Contribution for L=           0  read in
    real space projection operators read in
  non local Contribution for L=           1  read in
    real space projection operators read in
  non local Contribution for L=           1  read in
    real space projection operators read in
    PAW grid and wavefunctions read in
 
   number of l-projection  operators is LMAX  =           4
   number of lm-projection operators is LMMAX =           8
 
 PAW_PBE C 08Apr2002                    :
 energy of atom  1       EATOM= -147.1560
 kinetic energy error for atom=    0.0001 (will be added to EATOM!!)
 
 
 POSCAR: MD-kMC export data                      
  positions in direct lattice
  velocities in cartesian coordinates
 exchange correlation table for  LEXCH =        8
   RHO(1)=    0.500       N(1)  =     2000
   RHO(2)=  100.500       N(2)  =     4000
 


--------------------------------------------------------------------------------------------------------


 ion  position               nearest neighbor table
   1  0.001  0.000  0.000-   4 1.42   2 1.45   2 1.45
   2  0.166  0.500  0.000-   3 1.42   1 1.45   1 1.45
   3  0.501  0.500  0.000-   2 1.42   4 1.45   4 1.45
   4  0.666  0.000  0.000-   1 1.42   3 1.45   3 1.45
 
  LATTYP: Found a simple orthorhombic cell.
 ALAT       =     2.5297250575
 B/A-ratio  =     1.6819851559
 C/A-ratio  =     7.7429518471
  
  Lattice vectors:
  
 A1 = (   0.0000000000,  -2.5297250575,   0.0000000000)
 A2 = (  -4.2549599952,   0.0000000000,   0.0000000000)
 A3 = (   0.0000000000,   0.0000000000, -19.5875393065)


Analysis of symmetry for initial positions (statically):
=====================================================================
 Subroutine PRICEL returns following result:
 
  LATTYP: Found a base centered orthorhombic cell.
 ALAT       =     2.5297250575
 B/A-ratio  =     1.6819851559
 C/A-ratio  =     7.7429518471
  
  Lattice vectors:
  
 A1 = (   2.1274799976,  -1.2648625287,   0.0000000000)
 A2 = (  -2.1274799976,  -1.2648625287,   0.0000000000)
 A3 = (   0.0000000000,   0.0000000000, -19.5875393065)
 
   2 primitive cells build up your supercell.
 

 Routine SETGRP: Setting up the symmetry group for a 
 simple orthorhombic supercell.


 Subroutine GETGRP returns: Found  8 space group operations
 (whereof  4 operations were pure point group operations)
 out of a pool of  8 trial point group operations.


The static configuration has the point symmetry C_2v.
 The point group associated with its full space group is D_2h.


Analysis of symmetry for dynamics (positions and initial velocities):
=====================================================================
 Subroutine PRICEL returns following result:
 
  LATTYP: Found a base centered orthorhombic cell.
 ALAT       =     2.5297250575
 B/A-ratio  =     1.6819851559
 C/A-ratio  =     7.7429518471
  
  Lattice vectors:
  
 A1 = (   2.1274799976,  -1.2648625287,   0.0000000000)
 A2 = (  -2.1274799976,  -1.2648625287,   0.0000000000)
 A3 = (   0.0000000000,   0.0000000000, -19.5875393065)
 
   2 primitive cells build up your supercell.
 

 Routine SETGRP: Setting up the symmetry group for a 
 simple orthorhombic supercell.


 Subroutine GETGRP returns: Found  8 space group operations
 (whereof  4 operations were pure point group operations)
 out of a pool of  8 trial point group operations.


The dynamic configuration has the point symmetry C_2v.
 The point group associated with its full space group is D_2h.
 
 
 KPOINTS: Automatic mesh                          

Automatic generation of k-mesh.
Space group operators:
 irot       det(A)        alpha          n_x          n_y          n_z        tau_x        tau_y        tau_z
    1     1.000000     0.000000     1.000000     0.000000     0.000000     0.000000     0.000000     0.000000
    2    -1.000000   180.000000     0.000000     0.000000     1.000000     0.000000     0.000000     0.000000
    3     1.000000   180.000000     1.000000     0.000000     0.000000     0.000000     0.000000     0.000000
    4    -1.000000   180.000000     0.000000     1.000000     0.000000     0.000000     0.000000     0.000000
    5    -1.000000     0.000000     1.000000     0.000000     0.000000     0.166667    -0.500000     0.000000
    6     1.000000   180.000000     0.000000     0.000000     1.000000     0.166667    -0.500000     0.000000
    7    -1.000000   180.000000     1.000000     0.000000     0.000000     0.166667    -0.500000     0.000000
    8     1.000000   180.000000     0.000000     1.000000     0.000000     0.166667    -0.500000     0.000000
 
 Subroutine IBZKPT returns following result:
 ===========================================
 
 Found    247 irreducible k-points:
 
 Following reciprocal coordinates:
            Coordinates               Weight
  0.000000  0.000000  0.000000      1.000000
  0.041667  0.000000  0.000000      2.000000
  0.083333  0.000000  0.000000      2.000000
  0.125000  0.000000  0.000000      2.000000
  0.166667  0.000000  0.000000      2.000000
  0.208333  0.000000  0.000000      2.000000
  0.250000  0.000000  0.000000      2.000000
  0.291667  0.000000  0.000000      2.000000
  0.333333  0.000000  0.000000      2.000000
  0.375000  0.000000  0.000000      2.000000
  0.416667  0.000000  0.000000      2.000000
  0.458333  0.000000  0.000000      2.000000
  0.500000  0.000000  0.000000      1.000000
  0.000000  0.027778  0.000000      2.000000
  0.041667  0.027778  0.000000      4.000000
  0.083333  0.027778  0.000000      4.000000
  0.125000  0.027778  0.000000      4.000000
  0.166667  0.027778  0.000000      4.000000
  0.208333  0.027778  0.000000      4.000000
  0.250000  0.027778  0.000000      4.000000
  0.291667  0.027778  0.000000      4.000000
  0.333333  0.027778  0.000000      4.000000
  0.375000  0.027778  0.000000      4.000000
  0.416667  0.027778  0.000000      4.000000
  0.458333  0.027778  0.000000      4.000000
  0.500000  0.027778  0.000000      2.000000
  0.000000  0.055556  0.000000      2.000000
  0.041667  0.055556  0.000000      4.000000
  0.083333  0.055556  0.000000      4.000000
  0.125000  0.055556  0.000000      4.000000
  0.166667  0.055556  0.000000      4.000000
  0.208333  0.055556  0.000000      4.000000
  0.250000  0.055556  0.000000      4.000000
  0.291667  0.055556  0.000000      4.000000
  0.333333  0.055556  0.000000      4.000000
  0.375000  0.055556  0.000000      4.000000
  0.416667  0.055556  0.000000      4.000000
  0.458333  0.055556  0.000000      4.000000
  0.500000  0.055556  0.000000      2.000000
  0.000000  0.083333  0.000000      2.000000
  0.041667  0.083333  0.000000      4.000000
  0.083333  0.083333  0.000000      4.000000
  0.125000  0.083333  0.000000      4.000000
  0.166667  0.083333  0.000000      4.000000
  0.208333  0.083333  0.000000      4.000000
  0.250000  0.083333  0.000000      4.000000
  0.291667  0.083333  0.000000      4.000000
  0.333333  0.083333  0.000000      4.000000
  0.375000  0.083333  0.000000      4.000000
  0.416667  0.083333  0.000000      4.000000
  0.458333  0.083333  0.000000      4.000000
  0.500000  0.083333  0.000000      2.000000
  0.000000  0.111111  0.000000      2.000000
  0.041667  0.111111  0.000000      4.000000
  0.083333  0.111111  0.000000      4.000000
  0.125000  0.111111  0.000000      4.000000
  0.166667  0.111111  0.000000      4.000000
  0.208333  0.111111  0.000000      4.000000
  0.250000  0.111111  0.000000      4.000000
  0.291667  0.111111  0.000000      4.000000
  0.333333  0.111111  0.000000      4.000000
  0.375000  0.111111  0.000000      4.000000
  0.416667  0.111111  0.000000      4.000000
  0.458333  0.111111  0.000000      4.000000
  0.500000  0.111111  0.000000      2.000000
  0.000000  0.138889  0.000000      2.000000
  0.041667  0.138889  0.000000      4.000000
  0.083333  0.138889  0.000000      4.000000
  0.125000  0.138889  0.000000      4.000000
  0.166667  0.138889  0.000000      4.000000
  0.208333  0.138889  0.000000      4.000000
  0.250000  0.138889  0.000000      4.000000
  0.291667  0.138889  0.000000      4.000000
  0.333333  0.138889  0.000000      4.000000
  0.375000  0.138889  0.000000      4.000000
  0.416667  0.138889  0.000000      4.000000
  0.458333  0.138889  0.000000      4.000000
  0.500000  0.138889  0.000000      2.000000
  0.000000  0.166667  0.000000      2.000000
  0.041667  0.166667  0.000000      4.000000
  0.083333  0.166667  0.000000      4.000000
  0.125000  0.166667  0.000000      4.000000
  0.166667  0.166667  0.000000      4.000000
  0.208333  0.166667  0.000000      4.000000
  0.250000  0.166667  0.000000      4.000000
  0.291667  0.166667  0.000000      4.000000
  0.333333  0.166667  0.000000      4.000000
  0.375000  0.166667  0.000000      4.000000
  0.416667  0.166667  0.000000      4.000000
  0.458333  0.166667  0.000000      4.000000
  0.500000  0.166667  0.000000      2.000000
  0.000000  0.194444  0.000000      2.000000
  0.041667  0.194444  0.000000      4.000000
  0.083333  0.194444  0.000000      4.000000
  0.125000  0.194444  0.000000      4.000000
  0.166667  0.194444  0.000000      4.000000
  0.208333  0.194444  0.000000      4.000000
  0.250000  0.194444  0.000000      4.000000
  0.291667  0.194444  0.000000      4.000000
  0.333333  0.194444  0.000000      4.000000
  0.375000  0.194444  0.000000      4.000000
  0.416667  0.194444  0.000000      4.000000
  0.458333  0.194444  0.000000      4.000000
  0.500000  0.194444  0.000000      2.000000
  0.000000  0.222222  0.000000      2.000000
  0.041667  0.222222  0.000000      4.000000
  0.083333  0.222222  0.000000      4.000000
  0.125000  0.222222  0.000000      4.000000
  0.166667  0.222222  0.000000      4.000000
  0.208333  0.222222  0.000000      4.000000
  0.250000  0.222222  0.000000      4.000000
  0.291667  0.222222  0.000000      4.000000
  0.333333  0.222222  0.000000      4.000000
  0.375000  0.222222  0.000000      4.000000
  0.416667  0.222222  0.000000      4.000000
  0.458333  0.222222  0.000000      4.000000
  0.500000  0.222222  0.000000      2.000000
  0.000000  0.250000  0.000000      2.000000
  0.041667  0.250000  0.000000      4.000000
  0.083333  0.250000  0.000000      4.000000
  0.125000  0.250000  0.000000      4.000000
  0.166667  0.250000  0.000000      4.000000
  0.208333  0.250000  0.000000      4.000000
  0.250000  0.250000  0.000000      4.000000
  0.291667  0.250000  0.000000      4.000000
  0.333333  0.250000  0.000000      4.000000
  0.375000  0.250000  0.000000      4.000000
  0.416667  0.250000  0.000000      4.000000
  0.458333  0.250000  0.000000      4.000000
  0.500000  0.250000  0.000000      2.000000
  0.000000  0.277778  0.000000      2.000000
  0.041667  0.277778  0.000000      4.000000
  0.083333  0.277778  0.000000      4.000000
  0.125000  0.277778  0.000000      4.000000
  0.166667  0.277778  0.000000      4.000000
  0.208333  0.277778  0.000000      4.000000
  0.250000  0.277778  0.000000      4.000000
  0.291667  0.277778  0.000000      4.000000
  0.333333  0.277778  0.000000      4.000000
  0.375000  0.277778  0.000000      4.000000
  0.416667  0.277778  0.000000      4.000000
  0.458333  0.277778  0.000000      4.000000
  0.500000  0.277778  0.000000      2.000000
  0.000000  0.305556  0.000000      2.000000
  0.041667  0.305556  0.000000      4.000000
  0.083333  0.305556  0.000000      4.000000
  0.125000  0.305556  0.000000      4.000000
  0.166667  0.305556  0.000000      4.000000
  0.208333  0.305556  0.000000      4.000000
  0.250000  0.305556  0.000000      4.000000
  0.291667  0.305556  0.000000      4.000000
  0.333333  0.305556  0.000000      4.000000
  0.375000  0.305556  0.000000      4.000000
  0.416667  0.305556  0.000000      4.000000
  0.458333  0.305556  0.000000      4.000000
  0.500000  0.305556  0.000000      2.000000
  0.000000  0.333333  0.000000      2.000000
  0.041667  0.333333  0.000000      4.000000
  0.083333  0.333333  0.000000      4.000000
  0.125000  0.333333  0.000000      4.000000
  0.166667  0.333333  0.000000      4.000000
  0.208333  0.333333  0.000000      4.000000
  0.250000  0.333333  0.000000      4.000000
  0.291667  0.333333  0.000000      4.000000
  0.333333  0.333333  0.000000      4.000000
  0.375000  0.333333  0.000000      4.000000
  0.416667  0.333333  0.000000      4.000000
  0.458333  0.333333  0.000000      4.000000
  0.500000  0.333333  0.000000      2.000000
  0.000000  0.361111  0.000000      2.000000
  0.041667  0.361111  0.000000      4.000000
  0.083333  0.361111  0.000000      4.000000
  0.125000  0.361111  0.000000      4.000000
  0.166667  0.361111  0.000000      4.000000
  0.208333  0.361111  0.000000      4.000000
  0.250000  0.361111  0.000000      4.000000
  0.291667  0.361111  0.000000      4.000000
  0.333333  0.361111  0.000000      4.000000
  0.375000  0.361111  0.000000      4.000000
  0.416667  0.361111  0.000000      4.000000
  0.458333  0.361111  0.000000      4.000000
  0.500000  0.361111  0.000000      2.000000
  0.000000  0.388889  0.000000      2.000000
  0.041667  0.388889  0.000000      4.000000
  0.083333  0.388889  0.000000      4.000000
  0.125000  0.388889  0.000000      4.000000
  0.166667  0.388889  0.000000      4.000000
  0.208333  0.388889  0.000000      4.000000
  0.250000  0.388889  0.000000      4.000000
  0.291667  0.388889  0.000000      4.000000
  0.333333  0.388889  0.000000      4.000000
  0.375000  0.388889  0.000000      4.000000
  0.416667  0.388889  0.000000      4.000000
  0.458333  0.388889  0.000000      4.000000
  0.500000  0.388889  0.000000      2.000000
  0.000000  0.416667  0.000000      2.000000
  0.041667  0.416667  0.000000      4.000000
  0.083333  0.416667  0.000000      4.000000
  0.125000  0.416667  0.000000      4.000000
  0.166667  0.416667  0.000000      4.000000
  0.208333  0.416667  0.000000      4.000000
  0.250000  0.416667  0.000000      4.000000
  0.291667  0.416667  0.000000      4.000000
  0.333333  0.416667  0.000000      4.000000
  0.375000  0.416667  0.000000      4.000000
  0.416667  0.416667  0.000000      4.000000
  0.458333  0.416667  0.000000      4.000000
  0.500000  0.416667  0.000000      2.000000
  0.000000  0.444444  0.000000      2.000000
  0.041667  0.444444  0.000000      4.000000
  0.083333  0.444444  0.000000      4.000000
  0.125000  0.444444  0.000000      4.000000
  0.166667  0.444444  0.000000      4.000000
  0.208333  0.444444  0.000000      4.000000
  0.250000  0.444444  0.000000      4.000000
  0.291667  0.444444  0.000000      4.000000
  0.333333  0.444444  0.000000      4.000000
  0.375000  0.444444  0.000000      4.000000
  0.416667  0.444444  0.000000      4.000000
  0.458333  0.444444  0.000000      4.000000
  0.500000  0.444444  0.000000      2.000000
  0.000000  0.472222  0.000000      2.000000
  0.041667  0.472222  0.000000      4.000000
  0.083333  0.472222  0.000000      4.000000
  0.125000  0.472222  0.000000      4.000000
  0.166667  0.472222  0.000000      4.000000
  0.208333  0.472222  0.000000      4.000000
  0.250000  0.472222  0.000000      4.000000
  0.291667  0.472222  0.000000      4.000000
  0.333333  0.472222  0.000000      4.000000
  0.375000  0.472222  0.000000      4.000000
  0.416667  0.472222  0.000000      4.000000
  0.458333  0.472222  0.000000      4.000000
  0.500000  0.472222  0.000000      2.000000
  0.000000  0.500000  0.000000      1.000000
  0.041667  0.500000  0.000000      2.000000
  0.083333  0.500000  0.000000      2.000000
  0.125000  0.500000  0.000000      2.000000
  0.166667  0.500000  0.000000      2.000000
  0.208333  0.500000  0.000000      2.000000
  0.250000  0.500000  0.000000      2.000000
  0.291667  0.500000  0.000000      2.000000
  0.333333  0.500000  0.000000      2.000000
  0.375000  0.500000  0.000000      2.000000
  0.416667  0.500000  0.000000      2.000000
  0.458333  0.500000  0.000000      2.000000
  0.500000  0.500000  0.000000      1.000000
 
 Following cartesian coordinates:
            Coordinates               Weight
  0.000000  0.000000  0.000000      1.000000
  0.009792  0.000000  0.000000      2.000000
  0.019585  0.000000  0.000000      2.000000
  0.029377  0.000000  0.000000      2.000000
  0.039170  0.000000  0.000000      2.000000
  0.048962  0.000000  0.000000      2.000000
  0.058755  0.000000  0.000000      2.000000
  0.068547  0.000000  0.000000      2.000000
  0.078340  0.000000  0.000000      2.000000
  0.088132  0.000000  0.000000      2.000000
  0.097925  0.000000  0.000000      2.000000
  0.107717  0.000000  0.000000      2.000000
  0.117510  0.000000  0.000000      1.000000
  0.000000  0.010981  0.000000      2.000000
  0.009792  0.010981  0.000000      4.000000
  0.019585  0.010981  0.000000      4.000000
  0.029377  0.010981  0.000000      4.000000
  0.039170  0.010981  0.000000      4.000000
  0.048962  0.010981  0.000000      4.000000
  0.058755  0.010981  0.000000      4.000000
  0.068547  0.010981  0.000000      4.000000
  0.078340  0.010981  0.000000      4.000000
  0.088132  0.010981  0.000000      4.000000
  0.097925  0.010981  0.000000      4.000000
  0.107717  0.010981  0.000000      4.000000
  0.117510  0.010981  0.000000      2.000000
  0.000000  0.021961  0.000000      2.000000
  0.009792  0.021961  0.000000      4.000000
  0.019585  0.021961  0.000000      4.000000
  0.029377  0.021961  0.000000      4.000000
  0.039170  0.021961  0.000000      4.000000
  0.048962  0.021961  0.000000      4.000000
  0.058755  0.021961  0.000000      4.000000
  0.068547  0.021961  0.000000      4.000000
  0.078340  0.021961  0.000000      4.000000
  0.088132  0.021961  0.000000      4.000000
  0.097925  0.021961  0.000000      4.000000
  0.107717  0.021961  0.000000      4.000000
  0.117510  0.021961  0.000000      2.000000
  0.000000  0.032942  0.000000      2.000000
  0.009792  0.032942  0.000000      4.000000
  0.019585  0.032942  0.000000      4.000000
  0.029377  0.032942  0.000000      4.000000
  0.039170  0.032942  0.000000      4.000000
  0.048962  0.032942  0.000000      4.000000
  0.058755  0.032942  0.000000      4.000000
  0.068547  0.032942  0.000000      4.000000
  0.078340  0.032942  0.000000      4.000000
  0.088132  0.032942  0.000000      4.000000
  0.097925  0.032942  0.000000      4.000000
  0.107717  0.032942  0.000000      4.000000
  0.117510  0.032942  0.000000      2.000000
  0.000000  0.043922  0.000000      2.000000
  0.009792  0.043922  0.000000      4.000000
  0.019585  0.043922  0.000000      4.000000
  0.029377  0.043922  0.000000      4.000000
  0.039170  0.043922  0.000000      4.000000
  0.048962  0.043922  0.000000      4.000000
  0.058755  0.043922  0.000000      4.000000
  0.068547  0.043922  0.000000      4.000000
  0.078340  0.043922  0.000000      4.000000
  0.088132  0.043922  0.000000      4.000000
  0.097925  0.043922  0.000000      4.000000
  0.107717  0.043922  0.000000      4.000000
  0.117510  0.043922  0.000000      2.000000
  0.000000  0.054903  0.000000      2.000000
  0.009792  0.054903  0.000000      4.000000
  0.019585  0.054903  0.000000      4.000000
  0.029377  0.054903  0.000000      4.000000
  0.039170  0.054903  0.000000      4.000000
  0.048962  0.054903  0.000000      4.000000
  0.058755  0.054903  0.000000      4.000000
  0.068547  0.054903  0.000000      4.000000
  0.078340  0.054903  0.000000      4.000000
  0.088132  0.054903  0.000000      4.000000
  0.097925  0.054903  0.000000      4.000000
  0.107717  0.054903  0.000000      4.000000
  0.117510  0.054903  0.000000      2.000000
  0.000000  0.065883  0.000000      2.000000
  0.009792  0.065883  0.000000      4.000000
  0.019585  0.065883  0.000000      4.000000
  0.029377  0.065883  0.000000      4.000000
  0.039170  0.065883  0.000000      4.000000
  0.048962  0.065883  0.000000      4.000000
  0.058755  0.065883  0.000000      4.000000
  0.068547  0.065883  0.000000      4.000000
  0.078340  0.065883  0.000000      4.000000
  0.088132  0.065883  0.000000      4.000000
  0.097925  0.065883  0.000000      4.000000
  0.107717  0.065883  0.000000      4.000000
  0.117510  0.065883  0.000000      2.000000
  0.000000  0.076864  0.000000      2.000000
  0.009792  0.076864  0.000000      4.000000
  0.019585  0.076864  0.000000      4.000000
  0.029377  0.076864  0.000000      4.000000
  0.039170  0.076864  0.000000      4.000000
  0.048962  0.076864  0.000000      4.000000
  0.058755  0.076864  0.000000      4.000000
  0.068547  0.076864  0.000000      4.000000
  0.078340  0.076864  0.000000      4.000000
  0.088132  0.076864  0.000000      4.000000
  0.097925  0.076864  0.000000      4.000000
  0.107717  0.076864  0.000000      4.000000
  0.117510  0.076864  0.000000      2.000000
  0.000000  0.087844  0.000000      2.000000
  0.009792  0.087844  0.000000      4.000000
  0.019585  0.087844  0.000000      4.000000
  0.029377  0.087844  0.000000      4.000000
  0.039170  0.087844  0.000000      4.000000
  0.048962  0.087844  0.000000      4.000000
  0.058755  0.087844  0.000000      4.000000
  0.068547  0.087844  0.000000      4.000000
  0.078340  0.087844  0.000000      4.000000
  0.088132  0.087844  0.000000      4.000000
  0.097925  0.087844  0.000000      4.000000
  0.107717  0.087844  0.000000      4.000000
  0.117510  0.087844  0.000000      2.000000
  0.000000  0.098825  0.000000      2.000000
  0.009792  0.098825  0.000000      4.000000
  0.019585  0.098825  0.000000      4.000000
  0.029377  0.098825  0.000000      4.000000
  0.039170  0.098825  0.000000      4.000000
  0.048962  0.098825  0.000000      4.000000
  0.058755  0.098825  0.000000      4.000000
  0.068547  0.098825  0.000000      4.000000
  0.078340  0.098825  0.000000      4.000000
  0.088132  0.098825  0.000000      4.000000
  0.097925  0.098825  0.000000      4.000000
  0.107717  0.098825  0.000000      4.000000
  0.117510  0.098825  0.000000      2.000000
  0.000000  0.109806  0.000000      2.000000
  0.009792  0.109806  0.000000      4.000000
  0.019585  0.109806  0.000000      4.000000
  0.029377  0.109806  0.000000      4.000000
  0.039170  0.109806  0.000000      4.000000
  0.048962  0.109806  0.000000      4.000000
  0.058755  0.109806  0.000000      4.000000
  0.068547  0.109806  0.000000      4.000000
  0.078340  0.109806  0.000000      4.000000
  0.088132  0.109806  0.000000      4.000000
  0.097925  0.109806  0.000000      4.000000
  0.107717  0.109806  0.000000      4.000000
  0.117510  0.109806  0.000000      2.000000
  0.000000  0.120786  0.000000      2.000000
  0.009792  0.120786  0.000000      4.000000
  0.019585  0.120786  0.000000      4.000000
  0.029377  0.120786  0.000000      4.000000
  0.039170  0.120786  0.000000      4.000000
  0.048962  0.120786  0.000000      4.000000
  0.058755  0.120786  0.000000      4.000000
  0.068547  0.120786  0.000000      4.000000
  0.078340  0.120786  0.000000      4.000000
  0.088132  0.120786  0.000000      4.000000
  0.097925  0.120786  0.000000      4.000000
  0.107717  0.120786  0.000000      4.000000
  0.117510  0.120786  0.000000      2.000000
  0.000000  0.131767  0.000000      2.000000
  0.009792  0.131767  0.000000      4.000000
  0.019585  0.131767  0.000000      4.000000
  0.029377  0.131767  0.000000      4.000000
  0.039170  0.131767  0.000000      4.000000
  0.048962  0.131767  0.000000      4.000000
  0.058755  0.131767  0.000000      4.000000
  0.068547  0.131767  0.000000      4.000000
  0.078340  0.131767  0.000000      4.000000
  0.088132  0.131767  0.000000      4.000000
  0.097925  0.131767  0.000000      4.000000
  0.107717  0.131767  0.000000      4.000000
  0.117510  0.131767  0.000000      2.000000
  0.000000  0.142747  0.000000      2.000000
  0.009792  0.142747  0.000000      4.000000
  0.019585  0.142747  0.000000      4.000000
  0.029377  0.142747  0.000000      4.000000
  0.039170  0.142747  0.000000      4.000000
  0.048962  0.142747  0.000000      4.000000
  0.058755  0.142747  0.000000      4.000000
  0.068547  0.142747  0.000000      4.000000
  0.078340  0.142747  0.000000      4.000000
  0.088132  0.142747  0.000000      4.000000
  0.097925  0.142747  0.000000      4.000000
  0.107717  0.142747  0.000000      4.000000
  0.117510  0.142747  0.000000      2.000000
  0.000000  0.153728  0.000000      2.000000
  0.009792  0.153728  0.000000      4.000000
  0.019585  0.153728  0.000000      4.000000
  0.029377  0.153728  0.000000      4.000000
  0.039170  0.153728  0.000000      4.000000
  0.048962  0.153728  0.000000      4.000000
  0.058755  0.153728  0.000000      4.000000
  0.068547  0.153728  0.000000      4.000000
  0.078340  0.153728  0.000000      4.000000
  0.088132  0.153728  0.000000      4.000000
  0.097925  0.153728  0.000000      4.000000
  0.107717  0.153728  0.000000      4.000000
  0.117510  0.153728  0.000000      2.000000
  0.000000  0.164708  0.000000      2.000000
  0.009792  0.164708  0.000000      4.000000
  0.019585  0.164708  0.000000      4.000000
  0.029377  0.164708  0.000000      4.000000
  0.039170  0.164708  0.000000      4.000000
  0.048962  0.164708  0.000000      4.000000
  0.058755  0.164708  0.000000      4.000000
  0.068547  0.164708  0.000000      4.000000
  0.078340  0.164708  0.000000      4.000000
  0.088132  0.164708  0.000000      4.000000
  0.097925  0.164708  0.000000      4.000000
  0.107717  0.164708  0.000000      4.000000
  0.117510  0.164708  0.000000      2.000000
  0.000000  0.175689  0.000000      2.000000
  0.009792  0.175689  0.000000      4.000000
  0.019585  0.175689  0.000000      4.000000
  0.029377  0.175689  0.000000      4.000000
  0.039170  0.175689  0.000000      4.000000
  0.048962  0.175689  0.000000      4.000000
  0.058755  0.175689  0.000000      4.000000
  0.068547  0.175689  0.000000      4.000000
  0.078340  0.175689  0.000000      4.000000
  0.088132  0.175689  0.000000      4.000000
  0.097925  0.175689  0.000000      4.000000
  0.107717  0.175689  0.000000      4.000000
  0.117510  0.175689  0.000000      2.000000
  0.000000  0.186669  0.000000      2.000000
  0.009792  0.186669  0.000000      4.000000
  0.019585  0.186669  0.000000      4.000000
  0.029377  0.186669  0.000000      4.000000
  0.039170  0.186669  0.000000      4.000000
  0.048962  0.186669  0.000000      4.000000
  0.058755  0.186669  0.000000      4.000000
  0.068547  0.186669  0.000000      4.000000
  0.078340  0.186669  0.000000      4.000000
  0.088132  0.186669  0.000000      4.000000
  0.097925  0.186669  0.000000      4.000000
  0.107717  0.186669  0.000000      4.000000
  0.117510  0.186669  0.000000      2.000000
  0.000000  0.197650  0.000000      1.000000
  0.009792  0.197650  0.000000      2.000000
  0.019585  0.197650  0.000000      2.000000
  0.029377  0.197650  0.000000      2.000000
  0.039170  0.197650  0.000000      2.000000
  0.048962  0.197650  0.000000      2.000000
  0.058755  0.197650  0.000000      2.000000
  0.068547  0.197650  0.000000      2.000000
  0.078340  0.197650  0.000000      2.000000
  0.088132  0.197650  0.000000      2.000000
  0.097925  0.197650  0.000000      2.000000
  0.107717  0.197650  0.000000      2.000000
  0.117510  0.197650  0.000000      1.000000
 


--------------------------------------------------------------------------------------------------------




 Dimension of arrays:
   k-points           NKPTS =    247   k-points in BZ     NKDIM =    247   number of bands    NBANDS=     12
   number of dos      NEDOS =    301   number of ions     NIONS =      4
   non local maximal  LDIM  =      4   non local SUM 2l+1 LMDIM =      8
   total plane-waves  NPLWV = 737280
   max r-space proj   IRMAX =      1   max aug-charges    IRDMAX=  41461
   dimension x,y,z NGX =    64 NGY =   40 NGZ =  288
   dimension x,y,z NGXF=   128 NGYF=   80 NGZF=  576
   support grid    NGXF=   128 NGYF=   80 NGZF=  576
   ions per type =               4
 NGX,Y,Z   is equivalent  to a cutoff of  25.01, 26.29, 24.44 a.u.
 NGXF,Y,Z  is equivalent  to a cutoff of  50.01, 52.57, 48.89 a.u.


 I would recommend the setting:
   dimension x,y,z NGX =    62 NGY =   37 NGZ =  286
 SYSTEM =  gr                                      
 POSCAR =  MD-kMC export data                      

 Startparameter for this run:
   NWRITE =      2    write-flag & timer
   PREC   = accura    normal or accurate (medium, high low for compatibility)
   ISTART =      0    job   : 0-new  1-cont  2-samecut
   ICHARG =      2    charge: 1-file 2-atom 10-const
   ISPIN  =      1    spin polarized calculation?
   LNONCOLLINEAR =      F non collinear calculations
   LSORBIT =      F    spin-orbit coupling
   INIWAV =      1    electr: 0-lowe 1-rand  2-diag
   LASPH  =      F    aspherical Exc in radial PAW
   METAGGA=      F    non-selfconsistent MetaGGA calc.

 Electronic Relaxation 1
   ENCUT  = 2000.0 eV 147.00 Ry   12.12 a.u.  15.52  9.22 71.43*2*pi/ulx,y,z
   ENINI  = 2000.0     initial cutoff
   ENAUG  =  644.9 eV  augmentation charge cutoff
   NELM   =    100;   NELMIN=  5; NELMDL= -3     # of ELM steps 
   EDIFF  = 0.1E-09   stopping-criterion for ELM
   LREAL  =      F    real-space projection
   NLSPLINE    = F    spline interpolate recip. space projectors
   LCOMPAT=      F    compatible to vasp.4.4
   GGA_COMPAT  = T    GGA compatible to vasp.4.4-vasp.4.6
   LMAXPAW     = -100 max onsite density
   LMAXMIX     =    2 max onsite mixed and CHGCAR
   VOSKOWN=      0    Vosko Wilk Nusair interpolation
   ROPT   =    0.00000
 Ionic relaxation
   EDIFFG = -.1E-05   stopping-criterion for IOM
   NSW    =    400    number of steps for IOM
   NBLOCK =      1;   KBLOCK =    400    inner block; outer block 
   IBRION =      1    ionic relax: 0-MD 1-quasi-New 2-CG
   NFREE  =      0    steps in history (QN), initial steepest desc. (CG)
   ISIF   =      2    stress and relaxation
   IWAVPR =     11    prediction:  0-non 1-charg 2-wave 3-comb
   ISYM   =      2    0-nonsym 1-usesym 2-fastsym
   LCORR  =      T    Harris-Foulkes like correction to forces

   POTIM  = 0.5000    time-step for ionic-motion
   TEIN   =    0.0    initial temperature
   TEBEG  =    0.0;   TEEND  =   0.0 temperature during run
   SMASS  =  -3.00    Nose mass-parameter (am)
   estimated Nose-frequenzy (Omega)   =  0.10E-29 period in steps =****** mass=  -0.414E-27a.u.
   SCALEE = 1.0000    scale energy and forces
   NPACO  =    256;   APACO  = 16.0  distance and # of slots for P.C.
   PSTRESS=    0.0 pullay stress

  Mass of Ions in am
   POMASS =  12.01
  Ionic Valenz
   ZVAL   =   4.00
  Atomic Wigner-Seitz radii
   RWIGS  =  -1.00
  virtual crystal weights 
   VCA    =   1.00
   NELECT =      16.0000    total number of electrons
   NUPDOWN=      -1.0000    fix difference up-down

 DOS related values:
   EMIN   =  10.00;   EMAX   =-10.00  energy-range for DOS
   EFERMI =   0.00
   ISMEAR =     0;   SIGMA  =   0.05  broadening in eV -4-tet -1-fermi 0-gaus

 Electronic relaxation 2 (details)
   IALGO  =     68    algorithm
   LDIAG  =      T    sub-space diagonalisation (order eigenvalues)
   LSUBROT=      F    optimize rotation matrix (better conditioning)
   TURBO    =      0    0=normal 1=particle mesh
   IRESTART =      0    0=no restart 2=restart with 2 vectors
   NREBOOT  =      0    no. of reboots
   NMIN     =      0    reboot dimension
   EREF     =   0.00    reference energy to select bands
   IMIX   =      4    mixing-type and parameters
     AMIX     =   0.40;   BMIX     =  1.00
     AMIX_MAG =   1.60;   BMIX_MAG =  1.00
     AMIN     =   0.10
     WC   =   100.;   INIMIX=   1;  MIXPRE=   1;  MAXMIX= -45

 Intra band minimization:
   WEIMIN = 0.0010     energy-eigenvalue tresh-hold
   EBREAK =  0.21E-11  absolut break condition
   DEPER  =   0.30     relativ break condition  

   TIME   =   0.40     timestep for ELM

  volume/ion in A,a.u.               =      52.71       355.70
  Fermi-wavevector in a.u.,A,eV,Ry     =   0.693104  1.309777  6.536151  0.480394
  Thomas-Fermi vector in A             =   1.775224
 
 Write flags
   LWAVE  =      F    write WAVECAR
   LCHARG =      F    write CHGCAR
   LVTOT  =      F    write LOCPOT, total local potential
   LVHAR  =      F    write LOCPOT, Hartree potential only
   LELF   =      F    write electronic localiz. function (ELF)
   LORBIT =      0    0 simple, 1 ext, 2 COOP (PROOUT)


 Dipole corrections
   LMONO  =      F    monopole corrections only (constant potential shift)
   LDIPOL =      F    correct potential (dipole corrections)
   IDIPOL =      0    1-x, 2-y, 3-z, 4-all directions 
   EPSILON=  1.0000000 bulk dielectric constant

 Exchange correlation treatment:
   GGA     =    --    GGA type
   LEXCH   =     8    internal setting for exchange type
   VOSKOWN=      0    Vosko Wilk Nusair interpolation
   LHFCALC =     F    Hartree Fock is set to
   LHFONE  =     F    Hartree Fock one center treatment
   AEXX    =    0.0000 exact exchange contribution

 Linear response parameters
   LEPSILON=     F    determine dielectric tensor
   LRPA    =     F    only Hartree local field effects (RPA)
   LNABLA  =     F    use nabla operator in PAW spheres
   LVEL    =     F    velocity operator in full k-point grid
   LINTERFAST=   F  fast interpolation
   KINTER  =     0    interpolate to denser k-point grid
   CSHIFT  =0.1000    complex shift for real part using Kramers Kronig
   OMEGAMAX=  -1.0    maximum frequency
   DEG_THRESHOLD= 0.2000000E-02 threshold for treating states as degnerate
   RTIME   =    0.100 relaxation time in fs

 Orbital magnetization related:
   ORBITALMAG=     F  switch on orbital magnetization
   LCHIMAG   =     F  perturbation theory with respect to B field
   DQ        =  0.001000  dq finite difference perturbation B field



--------------------------------------------------------------------------------------------------------


 quasi-Newton-method for relaxation of ions
 charge density and potential will be updated during run
 non-spin polarized calculation
 RMM-DIIS sequential band-by-band and
  variant of blocked Davidson during initial phase
 perform sub-space diagonalisation
    before iterative eigenvector-optimisation
 modified Broyden-mixing scheme, WC =      100.0
 initial mixing is a Kerker type mixing with AMIX =  0.4000 and BMIX =      1.0000
 Hartree-type preconditioning will be used
 using additional bands            4
 reciprocal scheme for non local part
 calculate Harris-corrections to forces 
   (improved forces if not selfconsistent)
 use gradient corrections 
 use of overlap-Matrix (Vanderbilt PP)
 Gauss-broadening in eV      SIGMA  =   0.05


--------------------------------------------------------------------------------------------------------


  energy-cutoff  :     2000.00
  volume of cell :      210.84
      direct lattice vectors                 reciprocal lattice vectors
     4.254959995  0.000000000  0.000000000     0.235019836  0.000000000  0.000000000
     0.000000000  2.529725057  0.000000000     0.000000000  0.395299875  0.000000000
     0.000000000  0.000000000 19.587539307     0.000000000  0.000000000  0.051052865

  length of vectors
     4.254959995  2.529725057 19.587539307     0.235019836  0.395299875  0.051052865


 
 k-points in units of 2pi/SCALE and weight: Automatic mesh                          
   0.00000000  0.00000000  0.00000000       0.001
   0.00979249  0.00000000  0.00000000       0.002
   0.01958499  0.00000000  0.00000000       0.002
   0.02937748  0.00000000  0.00000000       0.002
   0.03916997  0.00000000  0.00000000       0.002
   0.04896247  0.00000000  0.00000000       0.002
   0.05875496  0.00000000  0.00000000       0.002
   0.06854745  0.00000000  0.00000000       0.002
   0.07833995  0.00000000  0.00000000       0.002
   0.08813244  0.00000000  0.00000000       0.002
   0.09792493  0.00000000  0.00000000       0.002
   0.10771742  0.00000000  0.00000000       0.002
   0.11750992  0.00000000  0.00000000       0.001
   0.00000000  0.01098055  0.00000000       0.002
   0.00979249  0.01098055  0.00000000       0.005
   0.01958499  0.01098055  0.00000000       0.005
   0.02937748  0.01098055  0.00000000       0.005
   0.03916997  0.01098055  0.00000000       0.005
   0.04896247  0.01098055  0.00000000       0.005
   0.05875496  0.01098055  0.00000000       0.005
   0.06854745  0.01098055  0.00000000       0.005
   0.07833995  0.01098055  0.00000000       0.005
   0.08813244  0.01098055  0.00000000       0.005
   0.09792493  0.01098055  0.00000000       0.005
   0.10771742  0.01098055  0.00000000       0.005
   0.11750992  0.01098055  0.00000000       0.002
   0.00000000  0.02196110  0.00000000       0.002
   0.00979249  0.02196110  0.00000000       0.005
   0.01958499  0.02196110  0.00000000       0.005
   0.02937748  0.02196110  0.00000000       0.005
   0.03916997  0.02196110  0.00000000       0.005
   0.04896247  0.02196110  0.00000000       0.005
   0.05875496  0.02196110  0.00000000       0.005
   0.06854745  0.02196110  0.00000000       0.005
   0.07833995  0.02196110  0.00000000       0.005
   0.08813244  0.02196110  0.00000000       0.005
   0.09792493  0.02196110  0.00000000       0.005
   0.10771742  0.02196110  0.00000000       0.005
   0.11750992  0.02196110  0.00000000       0.002
   0.00000000  0.03294166  0.00000000       0.002
   0.00979249  0.03294166  0.00000000       0.005
   0.01958499  0.03294166  0.00000000       0.005
   0.02937748  0.03294166  0.00000000       0.005
   0.03916997  0.03294166  0.00000000       0.005
   0.04896247  0.03294166  0.00000000       0.005
   0.05875496  0.03294166  0.00000000       0.005
   0.06854745  0.03294166  0.00000000       0.005
   0.07833995  0.03294166  0.00000000       0.005
   0.08813244  0.03294166  0.00000000       0.005
   0.09792493  0.03294166  0.00000000       0.005
   0.10771742  0.03294166  0.00000000       0.005
   0.11750992  0.03294166  0.00000000       0.002
   0.00000000  0.04392221  0.00000000       0.002
   0.00979249  0.04392221  0.00000000       0.005
   0.01958499  0.04392221  0.00000000       0.005
   0.02937748  0.04392221  0.00000000       0.005
   0.03916997  0.04392221  0.00000000       0.005
   0.04896247  0.04392221  0.00000000       0.005
   0.05875496  0.04392221  0.00000000       0.005
   0.06854745  0.04392221  0.00000000       0.005
   0.07833995  0.04392221  0.00000000       0.005
   0.08813244  0.04392221  0.00000000       0.005
   0.09792493  0.04392221  0.00000000       0.005
   0.10771742  0.04392221  0.00000000       0.005
   0.11750992  0.04392221  0.00000000       0.002
   0.00000000  0.05490276  0.00000000       0.002
   0.00979249  0.05490276  0.00000000       0.005
   0.01958499  0.05490276  0.00000000       0.005
   0.02937748  0.05490276  0.00000000       0.005
   0.03916997  0.05490276  0.00000000       0.005
   0.04896247  0.05490276  0.00000000       0.005
   0.05875496  0.05490276  0.00000000       0.005
   0.06854745  0.05490276  0.00000000       0.005
   0.07833995  0.05490276  0.00000000       0.005
   0.08813244  0.05490276  0.00000000       0.005
   0.09792493  0.05490276  0.00000000       0.005
   0.10771742  0.05490276  0.00000000       0.005
   0.11750992  0.05490276  0.00000000       0.002
   0.00000000  0.06588331  0.00000000       0.002
   0.00979249  0.06588331  0.00000000       0.005
   0.01958499  0.06588331  0.00000000       0.005
   0.02937748  0.06588331  0.00000000       0.005
   0.03916997  0.06588331  0.00000000       0.005
   0.04896247  0.06588331  0.00000000       0.005
   0.05875496  0.06588331  0.00000000       0.005
   0.06854745  0.06588331  0.00000000       0.005
   0.07833995  0.06588331  0.00000000       0.005
   0.08813244  0.06588331  0.00000000       0.005
   0.09792493  0.06588331  0.00000000       0.005
   0.10771742  0.06588331  0.00000000       0.005
   0.11750992  0.06588331  0.00000000       0.002
   0.00000000  0.07686386  0.00000000       0.002
   0.00979249  0.07686386  0.00000000       0.005
   0.01958499  0.07686386  0.00000000       0.005
   0.02937748  0.07686386  0.00000000       0.005
   0.03916997  0.07686386  0.00000000       0.005
   0.04896247  0.07686386  0.00000000       0.005
   0.05875496  0.07686386  0.00000000       0.005
   0.06854745  0.07686386  0.00000000       0.005
   0.07833995  0.07686386  0.00000000       0.005
   0.08813244  0.07686386  0.00000000       0.005
   0.09792493  0.07686386  0.00000000       0.005
   0.10771742  0.07686386  0.00000000       0.005
   0.11750992  0.07686386  0.00000000       0.002
   0.00000000  0.08784442  0.00000000       0.002
   0.00979249  0.08784442  0.00000000       0.005
   0.01958499  0.08784442  0.00000000       0.005
   0.02937748  0.08784442  0.00000000       0.005
   0.03916997  0.08784442  0.00000000       0.005
   0.04896247  0.08784442  0.00000000       0.005
   0.05875496  0.08784442  0.00000000       0.005
   0.06854745  0.08784442  0.00000000       0.005
   0.07833995  0.08784442  0.00000000       0.005
   0.08813244  0.08784442  0.00000000       0.005
   0.09792493  0.08784442  0.00000000       0.005
   0.10771742  0.08784442  0.00000000       0.005
   0.11750992  0.08784442  0.00000000       0.002
   0.00000000  0.09882497  0.00000000       0.002
   0.00979249  0.09882497  0.00000000       0.005
   0.01958499  0.09882497  0.00000000       0.005
   0.02937748  0.09882497  0.00000000       0.005
   0.03916997  0.09882497  0.00000000       0.005
   0.04896247  0.09882497  0.00000000       0.005
   0.05875496  0.09882497  0.00000000       0.005
   0.06854745  0.09882497  0.00000000       0.005
   0.07833995  0.09882497  0.00000000       0.005
   0.08813244  0.09882497  0.00000000       0.005
   0.09792493  0.09882497  0.00000000       0.005
   0.10771742  0.09882497  0.00000000       0.005
   0.11750992  0.09882497  0.00000000       0.002
   0.00000000  0.10980552  0.00000000       0.002
   0.00979249  0.10980552  0.00000000       0.005
   0.01958499  0.10980552  0.00000000       0.005
   0.02937748  0.10980552  0.00000000       0.005
   0.03916997  0.10980552  0.00000000       0.005
   0.04896247  0.10980552  0.00000000       0.005
   0.05875496  0.10980552  0.00000000       0.005
   0.06854745  0.10980552  0.00000000       0.005
   0.07833995  0.10980552  0.00000000       0.005
   0.08813244  0.10980552  0.00000000       0.005
   0.09792493  0.10980552  0.00000000       0.005
   0.10771742  0.10980552  0.00000000       0.005
   0.11750992  0.10980552  0.00000000       0.002
   0.00000000  0.12078607  0.00000000       0.002
   0.00979249  0.12078607  0.00000000       0.005
   0.01958499  0.12078607  0.00000000       0.005
   0.02937748  0.12078607  0.00000000       0.005
   0.03916997  0.12078607  0.00000000       0.005
   0.04896247  0.12078607  0.00000000       0.005
   0.05875496  0.12078607  0.00000000       0.005
   0.06854745  0.12078607  0.00000000       0.005
   0.07833995  0.12078607  0.00000000       0.005
   0.08813244  0.12078607  0.00000000       0.005
   0.09792493  0.12078607  0.00000000       0.005
   0.10771742  0.12078607  0.00000000       0.005
   0.11750992  0.12078607  0.00000000       0.002
   0.00000000  0.13176663  0.00000000       0.002
   0.00979249  0.13176663  0.00000000       0.005
   0.01958499  0.13176663  0.00000000       0.005
   0.02937748  0.13176663  0.00000000       0.005
   0.03916997  0.13176663  0.00000000       0.005
   0.04896247  0.13176663  0.00000000       0.005
   0.05875496  0.13176663  0.00000000       0.005
   0.06854745  0.13176663  0.00000000       0.005
   0.07833995  0.13176663  0.00000000       0.005
   0.08813244  0.13176663  0.00000000       0.005
   0.09792493  0.13176663  0.00000000       0.005
   0.10771742  0.13176663  0.00000000       0.005
   0.11750992  0.13176663  0.00000000       0.002
   0.00000000  0.14274718  0.00000000       0.002
   0.00979249  0.14274718  0.00000000       0.005
   0.01958499  0.14274718  0.00000000       0.005
   0.02937748  0.14274718  0.00000000       0.005
   0.03916997  0.14274718  0.00000000       0.005
   0.04896247  0.14274718  0.00000000       0.005
   0.05875496  0.14274718  0.00000000       0.005
   0.06854745  0.14274718  0.00000000       0.005
   0.07833995  0.14274718  0.00000000       0.005
   0.08813244  0.14274718  0.00000000       0.005
   0.09792493  0.14274718  0.00000000       0.005
   0.10771742  0.14274718  0.00000000       0.005
   0.11750992  0.14274718  0.00000000       0.002
   0.00000000  0.15372773  0.00000000       0.002
   0.00979249  0.15372773  0.00000000       0.005
   0.01958499  0.15372773  0.00000000       0.005
   0.02937748  0.15372773  0.00000000       0.005
   0.03916997  0.15372773  0.00000000       0.005
   0.04896247  0.15372773  0.00000000       0.005
   0.05875496  0.15372773  0.00000000       0.005
   0.06854745  0.15372773  0.00000000       0.005
   0.07833995  0.15372773  0.00000000       0.005
   0.08813244  0.15372773  0.00000000       0.005
   0.09792493  0.15372773  0.00000000       0.005
   0.10771742  0.15372773  0.00000000       0.005
   0.11750992  0.15372773  0.00000000       0.002
   0.00000000  0.16470828  0.00000000       0.002
   0.00979249  0.16470828  0.00000000       0.005
   0.01958499  0.16470828  0.00000000       0.005
   0.02937748  0.16470828  0.00000000       0.005
   0.03916997  0.16470828  0.00000000       0.005
   0.04896247  0.16470828  0.00000000       0.005
   0.05875496  0.16470828  0.00000000       0.005
   0.06854745  0.16470828  0.00000000       0.005
   0.07833995  0.16470828  0.00000000       0.005
   0.08813244  0.16470828  0.00000000       0.005
   0.09792493  0.16470828  0.00000000       0.005
   0.10771742  0.16470828  0.00000000       0.005
   0.11750992  0.16470828  0.00000000       0.002
   0.00000000  0.17568883  0.00000000       0.002
   0.00979249  0.17568883  0.00000000       0.005
   0.01958499  0.17568883  0.00000000       0.005
   0.02937748  0.17568883  0.00000000       0.005
   0.03916997  0.17568883  0.00000000       0.005
   0.04896247  0.17568883  0.00000000       0.005
   0.05875496  0.17568883  0.00000000       0.005
   0.06854745  0.17568883  0.00000000       0.005
   0.07833995  0.17568883  0.00000000       0.005
   0.08813244  0.17568883  0.00000000       0.005
   0.09792493  0.17568883  0.00000000       0.005
   0.10771742  0.17568883  0.00000000       0.005
   0.11750992  0.17568883  0.00000000       0.002
   0.00000000  0.18666939  0.00000000       0.002
   0.00979249  0.18666939  0.00000000       0.005
   0.01958499  0.18666939  0.00000000       0.005
   0.02937748  0.18666939  0.00000000       0.005
   0.03916997  0.18666939  0.00000000       0.005
   0.04896247  0.18666939  0.00000000       0.005
   0.05875496  0.18666939  0.00000000       0.005
   0.06854745  0.18666939  0.00000000       0.005
   0.07833995  0.18666939  0.00000000       0.005
   0.08813244  0.18666939  0.00000000       0.005
   0.09792493  0.18666939  0.00000000       0.005
   0.10771742  0.18666939  0.00000000       0.005
   0.11750992  0.18666939  0.00000000       0.002
   0.00000000  0.19764994  0.00000000       0.001
   0.00979249  0.19764994  0.00000000       0.002
   0.01958499  0.19764994  0.00000000       0.002
   0.02937748  0.19764994  0.00000000       0.002
   0.03916997  0.19764994  0.00000000       0.002
   0.04896247  0.19764994  0.00000000       0.002
   0.05875496  0.19764994  0.00000000       0.002
   0.06854745  0.19764994  0.00000000       0.002
   0.07833995  0.19764994  0.00000000       0.002
   0.08813244  0.19764994  0.00000000       0.002
   0.09792493  0.19764994  0.00000000       0.002
   0.10771742  0.19764994  0.00000000       0.002
   0.11750992  0.19764994  0.00000000       0.001
 
 k-points in reciprocal lattice and weights: Automatic mesh                          
   0.00000000  0.00000000  0.00000000       0.001
   0.04166667  0.00000000  0.00000000       0.002
   0.08333333  0.00000000  0.00000000       0.002
   0.12500000  0.00000000  0.00000000       0.002
   0.16666667  0.00000000  0.00000000       0.002
   0.20833333  0.00000000  0.00000000       0.002
   0.25000000  0.00000000  0.00000000       0.002
   0.29166667  0.00000000  0.00000000       0.002
   0.33333333  0.00000000  0.00000000       0.002
   0.37500000  0.00000000  0.00000000       0.002
   0.41666667  0.00000000  0.00000000       0.002
   0.45833333  0.00000000  0.00000000       0.002
   0.50000000  0.00000000  0.00000000       0.001
   0.00000000  0.02777778  0.00000000       0.002
   0.04166667  0.02777778  0.00000000       0.005
   0.08333333  0.02777778  0.00000000       0.005
   0.12500000  0.02777778  0.00000000       0.005
   0.16666667  0.02777778  0.00000000       0.005
   0.20833333  0.02777778  0.00000000       0.005
   0.25000000  0.02777778  0.00000000       0.005
   0.29166667  0.02777778  0.00000000       0.005
   0.33333333  0.02777778  0.00000000       0.005
   0.37500000  0.02777778  0.00000000       0.005
   0.41666667  0.02777778  0.00000000       0.005
   0.45833333  0.02777778  0.00000000       0.005
   0.50000000  0.02777778  0.00000000       0.002
   0.00000000  0.05555556  0.00000000       0.002
   0.04166667  0.05555556  0.00000000       0.005
   0.08333333  0.05555556  0.00000000       0.005
   0.12500000  0.05555556  0.00000000       0.005
   0.16666667  0.05555556  0.00000000       0.005
   0.20833333  0.05555556  0.00000000       0.005
   0.25000000  0.05555556  0.00000000       0.005
   0.29166667  0.05555556  0.00000000       0.005
   0.33333333  0.05555556  0.00000000       0.005
   0.37500000  0.05555556  0.00000000       0.005
   0.41666667  0.05555556  0.00000000       0.005
   0.45833333  0.05555556  0.00000000       0.005
   0.50000000  0.05555556  0.00000000       0.002
   0.00000000  0.08333333  0.00000000       0.002
   0.04166667  0.08333333  0.00000000       0.005
   0.08333333  0.08333333  0.00000000       0.005
   0.12500000  0.08333333  0.00000000       0.005
   0.16666667  0.08333333  0.00000000       0.005
   0.20833333  0.08333333  0.00000000       0.005
   0.25000000  0.08333333  0.00000000       0.005
   0.29166667  0.08333333  0.00000000       0.005
   0.33333333  0.08333333  0.00000000       0.005
   0.37500000  0.08333333  0.00000000       0.005
   0.41666667  0.08333333  0.00000000       0.005
   0.45833333  0.08333333  0.00000000       0.005
   0.50000000  0.08333333  0.00000000       0.002
   0.00000000  0.11111111  0.00000000       0.002
   0.04166667  0.11111111  0.00000000       0.005
   0.08333333  0.11111111  0.00000000       0.005
   0.12500000  0.11111111  0.00000000       0.005
   0.16666667  0.11111111  0.00000000       0.005
   0.20833333  0.11111111  0.00000000       0.005
   0.25000000  0.11111111  0.00000000       0.005
   0.29166667  0.11111111  0.00000000       0.005
   0.33333333  0.11111111  0.00000000       0.005
   0.37500000  0.11111111  0.00000000       0.005
   0.41666667  0.11111111  0.00000000       0.005
   0.45833333  0.11111111  0.00000000       0.005
   0.50000000  0.11111111  0.00000000       0.002
   0.00000000  0.13888889  0.00000000       0.002
   0.04166667  0.13888889  0.00000000       0.005
   0.08333333  0.13888889  0.00000000       0.005
   0.12500000  0.13888889  0.00000000       0.005
   0.16666667  0.13888889  0.00000000       0.005
   0.20833333  0.13888889  0.00000000       0.005
   0.25000000  0.13888889  0.00000000       0.005
   0.29166667  0.13888889  0.00000000       0.005
   0.33333333  0.13888889  0.00000000       0.005
   0.37500000  0.13888889  0.00000000       0.005
   0.41666667  0.13888889  0.00000000       0.005
   0.45833333  0.13888889  0.00000000       0.005
   0.50000000  0.13888889  0.00000000       0.002
   0.00000000  0.16666667  0.00000000       0.002
   0.04166667  0.16666667  0.00000000       0.005
   0.08333333  0.16666667  0.00000000       0.005
   0.12500000  0.16666667  0.00000000       0.005
   0.16666667  0.16666667  0.00000000       0.005
   0.20833333  0.16666667  0.00000000       0.005
   0.25000000  0.16666667  0.00000000       0.005
   0.29166667  0.16666667  0.00000000       0.005
   0.33333333  0.16666667  0.00000000       0.005
   0.37500000  0.16666667  0.00000000       0.005
   0.41666667  0.16666667  0.00000000       0.005
   0.45833333  0.16666667  0.00000000       0.005
   0.50000000  0.16666667  0.00000000       0.002
   0.00000000  0.19444444  0.00000000       0.002
   0.04166667  0.19444444  0.00000000       0.005
   0.08333333  0.19444444  0.00000000       0.005
   0.12500000  0.19444444  0.00000000       0.005
   0.16666667  0.19444444  0.00000000       0.005
   0.20833333  0.19444444  0.00000000       0.005
   0.25000000  0.19444444  0.00000000       0.005
   0.29166667  0.19444444  0.00000000       0.005
   0.33333333  0.19444444  0.00000000       0.005
   0.37500000  0.19444444  0.00000000       0.005
   0.41666667  0.19444444  0.00000000       0.005
   0.45833333  0.19444444  0.00000000       0.005
   0.50000000  0.19444444  0.00000000       0.002
   0.00000000  0.22222222  0.00000000       0.002
   0.04166667  0.22222222  0.00000000       0.005
   0.08333333  0.22222222  0.00000000       0.005
   0.12500000  0.22222222  0.00000000       0.005
   0.16666667  0.22222222  0.00000000       0.005
   0.20833333  0.22222222  0.00000000       0.005
   0.25000000  0.22222222  0.00000000       0.005
   0.29166667  0.22222222  0.00000000       0.005
   0.33333333  0.22222222  0.00000000       0.005
   0.37500000  0.22222222  0.00000000       0.005
   0.41666667  0.22222222  0.00000000       0.005
   0.45833333  0.22222222  0.00000000       0.005
   0.50000000  0.22222222  0.00000000       0.002
   0.00000000  0.25000000  0.00000000       0.002
   0.04166667  0.25000000  0.00000000       0.005
   0.08333333  0.25000000  0.00000000       0.005
   0.12500000  0.25000000  0.00000000       0.005
   0.16666667  0.25000000  0.00000000       0.005
   0.20833333  0.25000000  0.00000000       0.005
   0.25000000  0.25000000  0.00000000       0.005
   0.29166667  0.25000000  0.00000000       0.005
   0.33333333  0.25000000  0.00000000       0.005
   0.37500000  0.25000000  0.00000000       0.005
   0.41666667  0.25000000  0.00000000       0.005
   0.45833333  0.25000000  0.00000000       0.005
   0.50000000  0.25000000  0.00000000       0.002
   0.00000000  0.27777778  0.00000000       0.002
   0.04166667  0.27777778  0.00000000       0.005
   0.08333333  0.27777778  0.00000000       0.005
   0.12500000  0.27777778  0.00000000       0.005
   0.16666667  0.27777778  0.00000000       0.005
   0.20833333  0.27777778  0.00000000       0.005
   0.25000000  0.27777778  0.00000000       0.005
   0.29166667  0.27777778  0.00000000       0.005
   0.33333333  0.27777778  0.00000000       0.005
   0.37500000  0.27777778  0.00000000       0.005
   0.41666667  0.27777778  0.00000000       0.005
   0.45833333  0.27777778  0.00000000       0.005
   0.50000000  0.27777778  0.00000000       0.002
   0.00000000  0.30555556  0.00000000       0.002
   0.04166667  0.30555556  0.00000000       0.005
   0.08333333  0.30555556  0.00000000       0.005
   0.12500000  0.30555556  0.00000000       0.005
   0.16666667  0.30555556  0.00000000       0.005
   0.20833333  0.30555556  0.00000000       0.005
   0.25000000  0.30555556  0.00000000       0.005
   0.29166667  0.30555556  0.00000000       0.005
   0.33333333  0.30555556  0.00000000       0.005
   0.37500000  0.30555556  0.00000000       0.005
   0.41666667  0.30555556  0.00000000       0.005
   0.45833333  0.30555556  0.00000000       0.005
   0.50000000  0.30555556  0.00000000       0.002
   0.00000000  0.33333333  0.00000000       0.002
   0.04166667  0.33333333  0.00000000       0.005
   0.08333333  0.33333333  0.00000000       0.005
   0.12500000  0.33333333  0.00000000       0.005
   0.16666667  0.33333333  0.00000000       0.005
   0.20833333  0.33333333  0.00000000       0.005
   0.25000000  0.33333333  0.00000000       0.005
   0.29166667  0.33333333  0.00000000       0.005
   0.33333333  0.33333333  0.00000000       0.005
   0.37500000  0.33333333  0.00000000       0.005
   0.41666667  0.33333333  0.00000000       0.005
   0.45833333  0.33333333  0.00000000       0.005
   0.50000000  0.33333333  0.00000000       0.002
   0.00000000  0.36111111  0.00000000       0.002
   0.04166667  0.36111111  0.00000000       0.005
   0.08333333  0.36111111  0.00000000       0.005
   0.12500000  0.36111111  0.00000000       0.005
   0.16666667  0.36111111  0.00000000       0.005
   0.20833333  0.36111111  0.00000000       0.005
   0.25000000  0.36111111  0.00000000       0.005
   0.29166667  0.36111111  0.00000000       0.005
   0.33333333  0.36111111  0.00000000       0.005
   0.37500000  0.36111111  0.00000000       0.005
   0.41666667  0.36111111  0.00000000       0.005
   0.45833333  0.36111111  0.00000000       0.005
   0.50000000  0.36111111  0.00000000       0.002
   0.00000000  0.38888889  0.00000000       0.002
   0.04166667  0.38888889  0.00000000       0.005
   0.08333333  0.38888889  0.00000000       0.005
   0.12500000  0.38888889  0.00000000       0.005
   0.16666667  0.38888889  0.00000000       0.005
   0.20833333  0.38888889  0.00000000       0.005
   0.25000000  0.38888889  0.00000000       0.005
   0.29166667  0.38888889  0.00000000       0.005
   0.33333333  0.38888889  0.00000000       0.005
   0.37500000  0.38888889  0.00000000       0.005
   0.41666667  0.38888889  0.00000000       0.005
   0.45833333  0.38888889  0.00000000       0.005
   0.50000000  0.38888889  0.00000000       0.002
   0.00000000  0.41666667  0.00000000       0.002
   0.04166667  0.41666667  0.00000000       0.005
   0.08333333  0.41666667  0.00000000       0.005
   0.12500000  0.41666667  0.00000000       0.005
   0.16666667  0.41666667  0.00000000       0.005
   0.20833333  0.41666667  0.00000000       0.005
   0.25000000  0.41666667  0.00000000       0.005
   0.29166667  0.41666667  0.00000000       0.005
   0.33333333  0.41666667  0.00000000       0.005
   0.37500000  0.41666667  0.00000000       0.005
   0.41666667  0.41666667  0.00000000       0.005
   0.45833333  0.41666667  0.00000000       0.005
   0.50000000  0.41666667  0.00000000       0.002
   0.00000000  0.44444444  0.00000000       0.002
   0.04166667  0.44444444  0.00000000       0.005
   0.08333333  0.44444444  0.00000000       0.005
   0.12500000  0.44444444  0.00000000       0.005
   0.16666667  0.44444444  0.00000000       0.005
   0.20833333  0.44444444  0.00000000       0.005
   0.25000000  0.44444444  0.00000000       0.005
   0.29166667  0.44444444  0.00000000       0.005
   0.33333333  0.44444444  0.00000000       0.005
   0.37500000  0.44444444  0.00000000       0.005
   0.41666667  0.44444444  0.00000000       0.005
   0.45833333  0.44444444  0.00000000       0.005
   0.50000000  0.44444444  0.00000000       0.002
   0.00000000  0.47222222  0.00000000       0.002
   0.04166667  0.47222222  0.00000000       0.005
   0.08333333  0.47222222  0.00000000       0.005
   0.12500000  0.47222222  0.00000000       0.005
   0.16666667  0.47222222  0.00000000       0.005
   0.20833333  0.47222222  0.00000000       0.005
   0.25000000  0.47222222  0.00000000       0.005
   0.29166667  0.47222222  0.00000000       0.005
   0.33333333  0.47222222  0.00000000       0.005
   0.37500000  0.47222222  0.00000000       0.005
   0.41666667  0.47222222  0.00000000       0.005
   0.45833333  0.47222222  0.00000000       0.005
   0.50000000  0.47222222  0.00000000       0.002
   0.00000000  0.50000000  0.00000000       0.001
   0.04166667  0.50000000  0.00000000       0.002
   0.08333333  0.50000000  0.00000000       0.002
   0.12500000  0.50000000  0.00000000       0.002
   0.16666667  0.50000000  0.00000000       0.002
   0.20833333  0.50000000  0.00000000       0.002
   0.25000000  0.50000000  0.00000000       0.002
   0.29166667  0.50000000  0.00000000       0.002
   0.33333333  0.50000000  0.00000000       0.002
   0.37500000  0.50000000  0.00000000       0.002
   0.41666667  0.50000000  0.00000000       0.002
   0.45833333  0.50000000  0.00000000       0.002
   0.50000000  0.50000000  0.00000000       0.001
 
 position of ions in fractional coordinates (direct lattice) 
   0.00063729  0.00000000  0.00000000
   0.16602938  0.50000000  0.00000000
   0.50063729  0.50000000  0.00000000
   0.66602938  0.00000000  0.00000000
 
 position of ions in cartesian coordinates  (Angst):
   0.00271164  0.00000000  0.00000000
   0.70644836  1.26486253  0.00000000
   2.13019164  1.26486253  0.00000000
   2.83392836  0.00000000  0.00000000
 


--------------------------------------------------------------------------------------------------------


 k-point  1 :   0.0000 0.0000 0.0000  plane waves:   42835
 k-point  2 :   0.0417 0.0000 0.0000  plane waves:   42827
 k-point  3 :   0.0833 0.0000 0.0000  plane waves:   42831
 k-point  4 :   0.1250 0.0000 0.0000  plane waves:   42811
 k-point  5 :   0.1667 0.0000 0.0000  plane waves:   42809
 k-point  6 :   0.2083 0.0000 0.0000  plane waves:   42799
 k-point  7 :   0.2500 0.0000 0.0000  plane waves:   42833
 k-point  8 :   0.2917 0.0000 0.0000  plane waves:   42839
 k-point  9 :   0.3333 0.0000 0.0000  plane waves:   42861
 k-point 10 :   0.3750 0.0000 0.0000  plane waves:   42833
 k-point 11 :   0.4167 0.0000 0.0000  plane waves:   42815
 k-point 12 :   0.4583 0.0000 0.0000  plane waves:   42821
 k-point 13 :   0.5000 0.0000 0.0000  plane waves:   42860
 k-point 14 :   0.0000 0.0278 0.0000  plane waves:   42789
 k-point 15 :   0.0417 0.0278 0.0000  plane waves:   42818
 k-point 16 :   0.0833 0.0278 0.0000  plane waves:   42810
 k-point 17 :   0.1250 0.0278 0.0000  plane waves:   42814
 k-point 18 :   0.1667 0.0278 0.0000  plane waves:   42789
 k-point 19 :   0.2083 0.0278 0.0000  plane waves:   42800
 k-point 20 :   0.2500 0.0278 0.0000  plane waves:   42826
 k-point 21 :   0.2917 0.0278 0.0000  plane waves:   42827
 k-point 22 :   0.3333 0.0278 0.0000  plane waves:   42840
 k-point 23 :   0.3750 0.0278 0.0000  plane waves:   42846
 k-point 24 :   0.4167 0.0278 0.0000  plane waves:   42851
 k-point 25 :   0.4583 0.0278 0.0000  plane waves:   42871
 k-point 26 :   0.5000 0.0278 0.0000  plane waves:   42862
 k-point 27 :   0.0000 0.0556 0.0000  plane waves:   42779
 k-point 28 :   0.0417 0.0556 0.0000  plane waves:   42784
 k-point 29 :   0.0833 0.0556 0.0000  plane waves:   42798
 k-point 30 :   0.1250 0.0556 0.0000  plane waves:   42776
 k-point 31 :   0.1667 0.0556 0.0000  plane waves:   42818
 k-point 32 :   0.2083 0.0556 0.0000  plane waves:   42806
 k-point 33 :   0.2500 0.0556 0.0000  plane waves:   42823
 k-point 34 :   0.2917 0.0556 0.0000  plane waves:   42827
 k-point 35 :   0.3333 0.0556 0.0000  plane waves:   42855
 k-point 36 :   0.3750 0.0556 0.0000  plane waves:   42856
 k-point 37 :   0.4167 0.0556 0.0000  plane waves:   42845
 k-point 38 :   0.4583 0.0556 0.0000  plane waves:   42841
 k-point 39 :   0.5000 0.0556 0.0000  plane waves:   42874
 k-point 40 :   0.0000 0.0833 0.0000  plane waves:   42777
 k-point 41 :   0.0417 0.0833 0.0000  plane waves:   42785
 k-point 42 :   0.0833 0.0833 0.0000  plane waves:   42790
 k-point 43 :   0.1250 0.0833 0.0000  plane waves:   42815
 k-point 44 :   0.1667 0.0833 0.0000  plane waves:   42826
 k-point 45 :   0.2083 0.0833 0.0000  plane waves:   42813
 k-point 46 :   0.2500 0.0833 0.0000  plane waves:   42825
 k-point 47 :   0.2917 0.0833 0.0000  plane waves:   42835
 k-point 48 :   0.3333 0.0833 0.0000  plane waves:   42852
 k-point 49 :   0.3750 0.0833 0.0000  plane waves:   42855
 k-point 50 :   0.4167 0.0833 0.0000  plane waves:   42831
 k-point 51 :   0.4583 0.0833 0.0000  plane waves:   42826
 k-point 52 :   0.5000 0.0833 0.0000  plane waves:   42820
 k-point 53 :   0.0000 0.1111 0.0000  plane waves:   42837
 k-point 54 :   0.0417 0.1111 0.0000  plane waves:   42810
 k-point 55 :   0.0833 0.1111 0.0000  plane waves:   42790
 k-point 56 :   0.1250 0.1111 0.0000  plane waves:   42830
 k-point 57 :   0.1667 0.1111 0.0000  plane waves:   42824
 k-point 58 :   0.2083 0.1111 0.0000  plane waves:   42809
 k-point 59 :   0.2500 0.1111 0.0000  plane waves:   42821
 k-point 60 :   0.2917 0.1111 0.0000  plane waves:   42830
 k-point 61 :   0.3333 0.1111 0.0000  plane waves:   42825
 k-point 62 :   0.3750 0.1111 0.0000  plane waves:   42835
 k-point 63 :   0.4167 0.1111 0.0000  plane waves:   42813
 k-point 64 :   0.4583 0.1111 0.0000  plane waves:   42783
 k-point 65 :   0.5000 0.1111 0.0000  plane waves:   42786
 k-point 66 :   0.0000 0.1389 0.0000  plane waves:   42849
 k-point 67 :   0.0417 0.1389 0.0000  plane waves:   42840
 k-point 68 :   0.0833 0.1389 0.0000  plane waves:   42822
 k-point 69 :   0.1250 0.1389 0.0000  plane waves:   42805
 k-point 70 :   0.1667 0.1389 0.0000  plane waves:   42816
 k-point 71 :   0.2083 0.1389 0.0000  plane waves:   42827
 k-point 72 :   0.2500 0.1389 0.0000  plane waves:   42808
 k-point 73 :   0.2917 0.1389 0.0000  plane waves:   42820
 k-point 74 :   0.3333 0.1389 0.0000  plane waves:   42808
 k-point 75 :   0.3750 0.1389 0.0000  plane waves:   42791
 k-point 76 :   0.4167 0.1389 0.0000  plane waves:   42783
 k-point 77 :   0.4583 0.1389 0.0000  plane waves:   42787
 k-point 78 :   0.5000 0.1389 0.0000  plane waves:   42790
 k-point 79 :   0.0000 0.1667 0.0000  plane waves:   42851
 k-point 80 :   0.0417 0.1667 0.0000  plane waves:   42836
 k-point 81 :   0.0833 0.1667 0.0000  plane waves:   42817
 k-point 82 :   0.1250 0.1667 0.0000  plane waves:   42804
 k-point 83 :   0.1667 0.1667 0.0000  plane waves:   42802
 k-point 84 :   0.2083 0.1667 0.0000  plane waves:   42766
 k-point 85 :   0.2500 0.1667 0.0000  plane waves:   42782
 k-point 86 :   0.2917 0.1667 0.0000  plane waves:   42795
 k-point 87 :   0.3333 0.1667 0.0000  plane waves:   42803
 k-point 88 :   0.3750 0.1667 0.0000  plane waves:   42797
 k-point 89 :   0.4167 0.1667 0.0000  plane waves:   42782
 k-point 90 :   0.4583 0.1667 0.0000  plane waves:   42775
 k-point 91 :   0.5000 0.1667 0.0000  plane waves:   42778
 k-point 92 :   0.0000 0.1944 0.0000  plane waves:   42825
 k-point 93 :   0.0417 0.1944 0.0000  plane waves:   42845
 k-point 94 :   0.0833 0.1944 0.0000  plane waves:   42801
 k-point 95 :   0.1250 0.1944 0.0000  plane waves:   42824
 k-point 96 :   0.1667 0.1944 0.0000  plane waves:   42781
 k-point 97 :   0.2083 0.1944 0.0000  plane waves:   42771
 k-point 98 :   0.2500 0.1944 0.0000  plane waves:   42800
 k-point 99 :   0.2917 0.1944 0.0000  plane waves:   42777
 k-point ** :   0.3333 0.1944 0.0000  plane waves:   42779
 k-point ** :   0.3750 0.1944 0.0000  plane waves:   42779
 k-point ** :   0.4167 0.1944 0.0000  plane waves:   42781
 k-point ** :   0.4583 0.1944 0.0000  plane waves:   42773
 k-point ** :   0.5000 0.1944 0.0000  plane waves:   42772
 k-point ** :   0.0000 0.2222 0.0000  plane waves:   42813
 k-point ** :   0.0417 0.2222 0.0000  plane waves:   42818
 k-point ** :   0.0833 0.2222 0.0000  plane waves:   42819
 k-point ** :   0.1250 0.2222 0.0000  plane waves:   42804
 k-point ** :   0.1667 0.2222 0.0000  plane waves:   42801
 k-point ** :   0.2083 0.2222 0.0000  plane waves:   42785
 k-point ** :   0.2500 0.2222 0.0000  plane waves:   42792
 k-point ** :   0.2917 0.2222 0.0000  plane waves:   42777
 k-point ** :   0.3333 0.2222 0.0000  plane waves:   42783
 k-point ** :   0.3750 0.2222 0.0000  plane waves:   42794
 k-point ** :   0.4167 0.2222 0.0000  plane waves:   42781
 k-point ** :   0.4583 0.2222 0.0000  plane waves:   42752
 k-point ** :   0.5000 0.2222 0.0000  plane waves:   42740
 k-point ** :   0.0000 0.2500 0.0000  plane waves:   42844
 k-point ** :   0.0417 0.2500 0.0000  plane waves:   42822
 k-point ** :   0.0833 0.2500 0.0000  plane waves:   42812
 k-point ** :   0.1250 0.2500 0.0000  plane waves:   42803
 k-point ** :   0.1667 0.2500 0.0000  plane waves:   42810
 k-point ** :   0.2083 0.2500 0.0000  plane waves:   42822
 k-point ** :   0.2500 0.2500 0.0000  plane waves:   42793
 k-point ** :   0.2917 0.2500 0.0000  plane waves:   42811
 k-point ** :   0.3333 0.2500 0.0000  plane waves:   42794
 k-point ** :   0.3750 0.2500 0.0000  plane waves:   42795
 k-point ** :   0.4167 0.2500 0.0000  plane waves:   42766
 k-point ** :   0.4583 0.2500 0.0000  plane waves:   42779
 k-point ** :   0.5000 0.2500 0.0000  plane waves:   42756
 k-point ** :   0.0000 0.2778 0.0000  plane waves:   42838
 k-point ** :   0.0417 0.2778 0.0000  plane waves:   42847
 k-point ** :   0.0833 0.2778 0.0000  plane waves:   42844
 k-point ** :   0.1250 0.2778 0.0000  plane waves:   42830
 k-point ** :   0.1667 0.2778 0.0000  plane waves:   42829
 k-point ** :   0.2083 0.2778 0.0000  plane waves:   42824
 k-point ** :   0.2500 0.2778 0.0000  plane waves:   42805
 k-point ** :   0.2917 0.2778 0.0000  plane waves:   42819
 k-point ** :   0.3333 0.2778 0.0000  plane waves:   42802
 k-point ** :   0.3750 0.2778 0.0000  plane waves:   42785
 k-point ** :   0.4167 0.2778 0.0000  plane waves:   42785
 k-point ** :   0.4583 0.2778 0.0000  plane waves:   42747
 k-point ** :   0.5000 0.2778 0.0000  plane waves:   42760
 k-point ** :   0.0000 0.3056 0.0000  plane waves:   42888
 k-point ** :   0.0417 0.3056 0.0000  plane waves:   42875
 k-point ** :   0.0833 0.3056 0.0000  plane waves:   42857
 k-point ** :   0.1250 0.3056 0.0000  plane waves:   42859
 k-point ** :   0.1667 0.3056 0.0000  plane waves:   42844
 k-point ** :   0.2083 0.3056 0.0000  plane waves:   42830
 k-point ** :   0.2500 0.3056 0.0000  plane waves:   42822
 k-point ** :   0.2917 0.3056 0.0000  plane waves:   42804
 k-point ** :   0.3333 0.3056 0.0000  plane waves:   42803
 k-point ** :   0.3750 0.3056 0.0000  plane waves:   42793
 k-point ** :   0.4167 0.3056 0.0000  plane waves:   42789
 k-point ** :   0.4583 0.3056 0.0000  plane waves:   42786
 k-point ** :   0.5000 0.3056 0.0000  plane waves:   42762
 k-point ** :   0.0000 0.3333 0.0000  plane waves:   42902
 k-point ** :   0.0417 0.3333 0.0000  plane waves:   42893
 k-point ** :   0.0833 0.3333 0.0000  plane waves:   42867
 k-point ** :   0.1250 0.3333 0.0000  plane waves:   42873
 k-point ** :   0.1667 0.3333 0.0000  plane waves:   42862
 k-point ** :   0.2083 0.3333 0.0000  plane waves:   42868
 k-point ** :   0.2500 0.3333 0.0000  plane waves:   42812
 k-point ** :   0.2917 0.3333 0.0000  plane waves:   42797
 k-point ** :   0.3333 0.3333 0.0000  plane waves:   42799
 k-point ** :   0.3750 0.3333 0.0000  plane waves:   42793
 k-point ** :   0.4167 0.3333 0.0000  plane waves:   42773
 k-point ** :   0.4583 0.3333 0.0000  plane waves:   42783
 k-point ** :   0.5000 0.3333 0.0000  plane waves:   42778
 k-point ** :   0.0000 0.3611 0.0000  plane waves:   42882
 k-point ** :   0.0417 0.3611 0.0000  plane waves:   42879
 k-point ** :   0.0833 0.3611 0.0000  plane waves:   42867
 k-point ** :   0.1250 0.3611 0.0000  plane waves:   42877
 k-point ** :   0.1667 0.3611 0.0000  plane waves:   42866
 k-point ** :   0.2083 0.3611 0.0000  plane waves:   42858
 k-point ** :   0.2500 0.3611 0.0000  plane waves:   42840
 k-point ** :   0.2917 0.3611 0.0000  plane waves:   42799
 k-point ** :   0.3333 0.3611 0.0000  plane waves:   42815
 k-point ** :   0.3750 0.3611 0.0000  plane waves:   42808
 k-point ** :   0.4167 0.3611 0.0000  plane waves:   42787
 k-point ** :   0.4583 0.3611 0.0000  plane waves:   42770
 k-point ** :   0.5000 0.3611 0.0000  plane waves:   42766
 k-point ** :   0.0000 0.3889 0.0000  plane waves:   42874
 k-point ** :   0.0417 0.3889 0.0000  plane waves:   42883
 k-point ** :   0.0833 0.3889 0.0000  plane waves:   42895
 k-point ** :   0.1250 0.3889 0.0000  plane waves:   42876
 k-point ** :   0.1667 0.3889 0.0000  plane waves:   42858
 k-point ** :   0.2083 0.3889 0.0000  plane waves:   42862
 k-point ** :   0.2500 0.3889 0.0000  plane waves:   42851
 k-point ** :   0.2917 0.3889 0.0000  plane waves:   42818
 k-point ** :   0.3333 0.3889 0.0000  plane waves:   42797
 k-point ** :   0.3750 0.3889 0.0000  plane waves:   42775
 k-point ** :   0.4167 0.3889 0.0000  plane waves:   42778
 k-point ** :   0.4583 0.3889 0.0000  plane waves:   42764
 k-point ** :   0.5000 0.3889 0.0000  plane waves:   42766
 k-point ** :   0.0000 0.4167 0.0000  plane waves:   42870
 k-point ** :   0.0417 0.4167 0.0000  plane waves:   42879
 k-point ** :   0.0833 0.4167 0.0000  plane waves:   42887
 k-point ** :   0.1250 0.4167 0.0000  plane waves:   42880
 k-point ** :   0.1667 0.4167 0.0000  plane waves:   42875
 k-point ** :   0.2083 0.4167 0.0000  plane waves:   42887
 k-point ** :   0.2500 0.4167 0.0000  plane waves:   42868
 k-point ** :   0.2917 0.4167 0.0000  plane waves:   42841
 k-point ** :   0.3333 0.4167 0.0000  plane waves:   42798
 k-point ** :   0.3750 0.4167 0.0000  plane waves:   42776
 k-point ** :   0.4167 0.4167 0.0000  plane waves:   42784
 k-point ** :   0.4583 0.4167 0.0000  plane waves:   42771
 k-point ** :   0.5000 0.4167 0.0000  plane waves:   42752
 k-point ** :   0.0000 0.4444 0.0000  plane waves:   42856
 k-point ** :   0.0417 0.4444 0.0000  plane waves:   42845
 k-point ** :   0.0833 0.4444 0.0000  plane waves:   42853
 k-point ** :   0.1250 0.4444 0.0000  plane waves:   42871
 k-point ** :   0.1667 0.4444 0.0000  plane waves:   42890
 k-point ** :   0.2083 0.4444 0.0000  plane waves:   42921
 k-point ** :   0.2500 0.4444 0.0000  plane waves:   42898
 k-point ** :   0.2917 0.4444 0.0000  plane waves:   42844
 k-point ** :   0.3333 0.4444 0.0000  plane waves:   42821
 k-point ** :   0.3750 0.4444 0.0000  plane waves:   42805
 k-point ** :   0.4167 0.4444 0.0000  plane waves:   42788
 k-point ** :   0.4583 0.4444 0.0000  plane waves:   42778
 k-point ** :   0.5000 0.4444 0.0000  plane waves:   42744
 k-point ** :   0.0000 0.4722 0.0000  plane waves:   42828
 k-point ** :   0.0417 0.4722 0.0000  plane waves:   42844
 k-point ** :   0.0833 0.4722 0.0000  plane waves:   42857
 k-point ** :   0.1250 0.4722 0.0000  plane waves:   42857
 k-point ** :   0.1667 0.4722 0.0000  plane waves:   42900
 k-point ** :   0.2083 0.4722 0.0000  plane waves:   42904
 k-point ** :   0.2500 0.4722 0.0000  plane waves:   42894
 k-point ** :   0.2917 0.4722 0.0000  plane waves:   42882
 k-point ** :   0.3333 0.4722 0.0000  plane waves:   42830
 k-point ** :   0.3750 0.4722 0.0000  plane waves:   42826
 k-point ** :   0.4167 0.4722 0.0000  plane waves:   42812
 k-point ** :   0.4583 0.4722 0.0000  plane waves:   42784
 k-point ** :   0.5000 0.4722 0.0000  plane waves:   42760
 k-point ** :   0.0000 0.5000 0.0000  plane waves:   42870
 k-point ** :   0.0417 0.5000 0.0000  plane waves:   42832
 k-point ** :   0.0833 0.5000 0.0000  plane waves:   42862
 k-point ** :   0.1250 0.5000 0.0000  plane waves:   42862
 k-point ** :   0.1667 0.5000 0.0000  plane waves:   42882
 k-point ** :   0.2083 0.5000 0.0000  plane waves:   42890
 k-point ** :   0.2500 0.5000 0.0000  plane waves:   42882
 k-point ** :   0.2917 0.5000 0.0000  plane waves:   42874
 k-point ** :   0.3333 0.5000 0.0000  plane waves:   42868
 k-point ** :   0.3750 0.5000 0.0000  plane waves:   42814
 k-point ** :   0.4167 0.5000 0.0000  plane waves:   42814
 k-point ** :   0.4583 0.5000 0.0000  plane waves:   42770
 k-point ** :   0.5000 0.5000 0.0000  plane waves:   42772

 maximum and minimum number of plane-waves per node :     21482    21333

 maximum number of plane-waves:     42921
 maximum index in each direction: 
   IXMAX=   15   IYMAX=    9   IZMAX=   71
   IXMIN=  -16   IYMIN=   -9   IZMIN=  -71

 NGX is ok and might be reduce to  64
 NGY is ok and might be reduce to  38
 NGZ is ok and might be reduce to 286

 parallel 3D FFT for wavefunctions:
    minimum data exchange during FFTs selected (reduces bandwidth)
 parallel 3D FFT for charge:
    minimum data exchange during FFTs selected (reduces bandwidth)


 total amount of memory used by VASP on root node   711807. kBytes
========================================================================

   base      :      30000. kBytes
   nonl-proj :     340994. kBytes
   fftplans  :      35666. kBytes
   grid      :      50237. kBytes
   one-center:          6. kBytes
   wavefun   :     254904. kBytes
 
     INWAV:  cpu time    0.00: real time    0.00
 Broyden mixing: mesh for mixing (old mesh)
   NGX = 31   NGY = 19   NGZ =143
  (NGX  =128   NGY  = 80   NGZ  =576)
  gives a total of  84227 points

 initial charge density was supplied:
 charge density of overlapping atoms calculated
 number of electron      16.0000000 magnetization 
 keeping initial charge density in first step


--------------------------------------------------------------------------------------------------------


 Maximum index for augmentation-charges         5075 (set IRDMAX)


--------------------------------------------------------------------------------------------------------


 First call to EWALD:  gamma=   0.298
 Maximum number of real-space cells 4x 6x 1
 Maximum number of reciprocal cells 2x 1x 8

 FEWALD executed in parallel
    FEWALD:  cpu time    0.00: real time    0.00


[...]
      8      -5.1552      2.00000
      9      -0.5323      0.00000
     10       0.4894      0.00000
     11       5.6130      0.00000
     12       6.3743      0.00000

 k-point   224 :       0.0833    0.4722    0.0000
  band No.  band energies     occupation 
      1     -18.4009      2.00000
      2     -17.5577      2.00000
      3     -13.8191      2.00000
      4     -13.0321      2.00000
      5     -11.6356      2.00000
      6     -10.9279      2.00000
      7      -6.0321      2.00000
      8      -5.1474      2.00000
      9      -0.5821      0.00000
     10       0.4193      0.00000
     11       5.6539      0.00000
     12       6.4250      0.00000

 k-point   225 :       0.1250    0.4722    0.0000
  band No.  band energies     occupation 
      1     -18.3534      2.00000
      2     -17.5156      2.00000
      3     -14.1076      2.00000
      4     -13.3167      2.00000
      5     -11.3201      2.00000
      6     -10.6413      2.00000
      7      -5.9951      2.00000
      8      -5.1356      2.00000
      9      -0.6592      0.00000
     10       0.3086      0.00000
     11       5.7216      0.00000
     12       6.5077      0.00000

 k-point   226 :       0.1667    0.4722    0.0000
  band No.  band energies     occupation 
      1     -18.2874      2.00000
      2     -17.4581      2.00000
      3     -14.4152      2.00000
      4     -13.6246      2.00000
      5     -10.9769      2.00000
      6     -10.3350      2.00000
      7      -5.9446      2.00000
      8      -5.1217      2.00000
      9      -0.7555      0.00000
     10       0.1651      0.00000
     11       5.8146      0.00000
     12       6.6206      0.00000

 k-point   227 :       0.2083    0.4722    0.0000
  band No.  band energies     occupation 
      1     -18.2031      2.00000
      2     -17.3870      2.00000
      3     -14.7221      2.00000
      4     -13.9375      2.00000
      5     -10.6278      2.00000
      6     -10.0314      2.00000
      7      -5.8816      2.00000
      8      -5.1083      2.00000
      9      -0.8611      0.00000
     10      -0.0020      0.00000
     11       5.9240      0.00000
     12       6.4524      0.00000

 k-point   228 :       0.2500    0.4722    0.0000
  band No.  band energies     occupation 
      1     -18.1014      2.00000
      2     -17.3056      2.00000
      3     -15.0162      2.00000
      4     -14.2457      2.00000
      5     -10.2867      2.00000
      6      -9.7452      2.00000
      7      -5.8076      2.00000
      8      -5.0984      2.00000
      9      -0.9658      0.00000
     10      -0.1832      0.00000
     11       5.8806      0.00000
     12       6.1673      0.00000

 k-point   229 :       0.2917    0.4722    0.0000
  band No.  band energies     occupation 
      1     -17.9831      2.00000
      2     -17.2197      2.00000
      3     -15.2870      2.00000
      4     -14.5434      2.00000
      5      -9.9644      2.00000
      6      -9.4884      2.00000
      7      -5.7248      2.00000
      8      -5.0957      2.00000
      9      -1.0592      0.00000
     10      -0.3694      0.00000
     11       5.5017      0.00000
     12       5.9926      0.00000

 k-point   230 :       0.3333    0.4722    0.0000
  band No.  band energies     occupation 
      1     -17.8498      2.00000
      2     -17.1396      2.00000
      3     -15.5212      2.00000
      4     -14.8260      2.00000
      5      -9.6710      2.00000
      6      -9.2715      2.00000
      7      -5.6357      2.00000
      8      -5.1037      2.00000
      9      -1.1321      0.00000
     10      -0.5520      0.00000
     11       5.1548      0.00000
     12       5.5653      0.00000

 k-point   231 :       0.3750    0.4722    0.0000
  band No.  band energies     occupation 
      1     -17.7039      2.00000
      2     -17.0835      2.00000
      3     -15.6990      2.00000
      4     -15.0894      2.00000
      5      -9.4162      2.00000
      6      -9.1042      2.00000
      7      -5.5433      2.00000
      8      -5.1254      2.00000
      9      -1.1768      0.00000
     10      -0.7231      0.00000
     11       4.8830      0.00000
     12       5.2037      0.00000

 k-point   232 :       0.4167    0.4722    0.0000
  band No.  band energies     occupation 
      1     -17.5494      2.00000
      2     -17.0761      2.00000
      3     -15.7943      2.00000
      4     -15.3281      2.00000
      5      -9.2093      2.00000
      6      -8.9948      2.00000
      7      -5.4513      2.00000
      8      -5.1627      2.00000
      9      -1.1878      0.00000
     10      -0.8756      0.00000
     11       4.6983      0.00000
     12       4.9189      0.00000

 k-point   233 :       0.4583    0.4722    0.0000
  band No.  band energies     occupation 
      1     -17.3933      2.00000
      2     -17.1342      2.00000
      3     -15.7901      2.00000
      4     -15.5343      2.00000
      5      -9.0586      2.00000
      6      -8.9493      2.00000
      7      -5.3634      2.00000
      8      -5.2159      2.00000
      9      -1.1622      0.00000
     10      -1.0030      0.00000
     11       4.6080      0.00000
     12       4.7205      0.00000

 k-point   234 :       0.5000    0.4722    0.0000
  band No.  band energies     occupation 
      1     -17.2481      2.00000
      2     -17.2481      2.00000
      3     -15.6952      2.00000
      4     -15.6952      2.00000
      5      -8.9707      2.00000
      6      -8.9707      2.00000
      7      -5.2837      2.00000
      8      -5.2837      2.00000
      9      -1.0999      0.00000
     10      -1.0999      0.00000
     11       4.6155      0.00000
     12       4.6155      0.00000

 k-point   235 :       0.0000    0.5000    0.0000
  band No.  band energies     occupation 
      1     -18.0225      2.00000
      2     -18.0225      2.00000
      3     -13.1179      2.00000
      4     -13.1179      2.00000
      5     -11.6225      2.00000
      6     -11.6225      2.00000
      7      -5.6137      2.00000
      8      -5.6137      2.00000
      9      -0.0111      0.00000
     10      -0.0111      0.00000
     11       6.1966      0.00000
     12       6.1966      0.00000

 k-point   236 :       0.0417    0.5000    0.0000
  band No.  band energies     occupation 
      1     -18.0133      2.00000
      2     -18.0133      2.00000
      3     -13.2102      2.00000
      4     -13.2102      2.00000
      5     -11.5268      2.00000
      6     -11.5268      2.00000
      7      -5.6081      2.00000
      8      -5.6081      2.00000
      9      -0.0323      0.00000
     10      -0.0323      0.00000
     11       6.2101      0.00000
     12       6.2101      0.00000

 k-point   237 :       0.0833    0.5000    0.0000
  band No.  band energies     occupation 
      1     -17.9858      2.00000
      2     -17.9858      2.00000
      3     -13.4367      2.00000
      4     -13.4367      2.00000
      5     -11.2908      2.00000
      6     -11.2908      2.00000
      7      -5.5914      2.00000
      8      -5.5914      2.00000
      9      -0.0942      0.00000
     10      -0.0942      0.00000
     11       6.2507      0.00000
     12       6.2507      0.00000

 k-point   238 :       0.1250    0.5000    0.0000
  band No.  band energies     occupation 
      1     -17.9402      2.00000
      2     -17.9402      2.00000
      3     -13.7247      2.00000
      4     -13.7247      2.00000
      5     -10.9885      2.00000
      6     -10.9885      2.00000
      7      -5.5644      2.00000
      8      -5.5644      2.00000
      9      -0.1912      0.00000
     10      -0.1912      0.00000
     11       6.3176      0.00000
     12       6.3176      0.00000

 k-point   239 :       0.1667    0.5000    0.0000
  band No.  band energies     occupation 
      1     -17.8771      2.00000
      2     -17.8771      2.00000
      3     -14.0343      2.00000
      4     -14.0343      2.00000
      5     -10.6624      2.00000
      6     -10.6624      2.00000
      7      -5.5283      2.00000
      8      -5.5283      2.00000
      9      -0.3155      0.00000
     10      -0.3155      0.00000
     11       6.4076      0.00000
     12       6.4076      0.00000

 k-point   240 :       0.2083    0.5000    0.0000
  band No.  band energies     occupation 
      1     -17.7973      2.00000
      2     -17.7973      2.00000
      3     -14.3467      2.00000
      4     -14.3467      2.00000
      5     -10.3346      2.00000
      6     -10.3346      2.00000
      7      -5.4848      2.00000
      8      -5.4848      2.00000
      9      -0.4576      0.00000
     10      -0.4576      0.00000
     11       6.4861      0.00000
     12       6.4861      0.00000

 k-point   241 :       0.2500    0.5000    0.0000
  band No.  band energies     occupation 
      1     -17.7020      2.00000
      2     -17.7020      2.00000
      3     -14.6518      2.00000
      4     -14.6518      2.00000
      5     -10.0193      2.00000
      6     -10.0193      2.00000
      7      -5.4365      2.00000
      8      -5.4365      2.00000
      9      -0.6076      0.00000
     10      -0.6076      0.00000
     11       6.1743      0.00000
     12       6.1743      0.00000

 k-point   242 :       0.2917    0.5000    0.0000
  band No.  band energies     occupation 
      1     -17.5936      2.00000
      2     -17.5936      2.00000
      3     -14.9427      2.00000
      4     -14.9427      2.00000
      5      -9.7280      2.00000
      6      -9.7280      2.00000
      7      -5.3861      2.00000
      8      -5.3861      2.00000
      9      -0.7557      0.00000
     10      -0.7557      0.00000
     11       5.7314      0.00000
     12       5.7314      0.00000

 k-point   243 :       0.3333    0.5000    0.0000
  band No.  band energies     occupation 
      1     -17.4755      2.00000
      2     -17.4755      2.00000
      3     -15.2127      2.00000
      4     -15.2127      2.00000
      5      -9.4710      2.00000
      6      -9.4710      2.00000
      7      -5.3371      2.00000
      8      -5.3371      2.00000
      9      -0.8924      0.00000
     10      -0.8924      0.00000
     11       5.3410      0.00000
     12       5.3410      0.00000

 k-point   244 :       0.3750    0.5000    0.0000
  band No.  band energies     occupation 
      1     -17.3542      2.00000
      2     -17.3542      2.00000
      3     -15.4536      2.00000
      4     -15.4536      2.00000
      5      -9.2583      2.00000
      6      -9.2583      2.00000
      7      -5.2933      2.00000
      8      -5.2933      2.00000
      9      -1.0092      0.00000
     10      -1.0092      0.00000
     11       5.0220      0.00000
     12       5.0220      0.00000

 k-point   245 :       0.4167    0.5000    0.0000
  band No.  band energies     occupation 
      1     -17.2411      2.00000
      2     -17.2411      2.00000
      3     -15.6530      2.00000
      4     -15.6530      2.00000
      5      -9.0987      2.00000
      6      -9.0987      2.00000
      7      -5.2584      2.00000
      8      -5.2584      2.00000
      9      -1.0986      0.00000
     10      -1.0986      0.00000
     11       4.7855      0.00000
     12       4.7855      0.00000

 k-point   246 :       0.4583    0.5000    0.0000
  band No.  band energies     occupation 
      1     -17.1555      2.00000
      2     -17.1555      2.00000
      3     -15.7905      2.00000
      4     -15.7905      2.00000
      5      -8.9997      2.00000
      6      -8.9997      2.00000
      7      -5.2360      2.00000
      8      -5.2360      2.00000
      9      -1.1548      0.00000
     10      -1.1548      0.00000
     11       4.6401      0.00000
     12       4.6401      0.00000

 k-point   247 :       0.5000    0.5000    0.0000
  band No.  band energies     occupation 
      1     -17.1226      2.00000
      2     -17.1226      2.00000
      3     -15.8408      2.00000
      4     -15.8408      2.00000
      5      -8.9661      2.00000
      6      -8.9661      2.00000
      7      -5.2282      2.00000
      8      -5.2282      2.00000
      9      -1.1740      0.00000
     10      -1.1740      0.00000
     11       4.5909      0.00000
     12       4.5909      0.00000


--------------------------------------------------------------------------------------------------------


 soft charge-density along one line, spin component           1
         0         1         2         3         4         5         6         7         8         9
 total charge-density along one line
 
 pseudopotential strength for first ion, spin component:           1
 10.232   0.019  -0.000   0.000  -0.000   0.000  -0.000   0.000
  0.019  -0.001   0.000  -0.000  -0.000   0.000  -0.000   0.000
 -0.000   0.000  -4.352   0.000   0.000  -0.016   0.000   0.000
  0.000  -0.000   0.000  -4.346   0.000   0.000  -0.013   0.000
 -0.000  -0.000   0.000   0.000  -4.352   0.000   0.000  -0.016
  0.000   0.000  -0.016   0.000   0.000  -0.773   0.000   0.000
 -0.000  -0.000   0.000  -0.013   0.000   0.000  -0.772   0.000
  0.000   0.000   0.000   0.000  -0.016   0.000   0.000  -0.772
 total augmentation occupancy for first ion, spin component:           1
  1.458  -1.070   0.000   0.000  -0.012   0.000   0.000  -0.006
 -1.070   0.979   0.000   0.000   0.022   0.000   0.000   0.008
  0.000   0.000   1.180  -0.000   0.000   0.220  -0.000   0.000
  0.000   0.000  -0.000   0.926  -0.000   0.000   0.101   0.000
 -0.012   0.022   0.000   0.000   1.214   0.000   0.000   0.221
  0.000   0.000   0.220   0.000   0.000   0.046   0.000   0.000
  0.000   0.000   0.000   0.101   0.000  -0.000   0.012   0.000
 -0.006   0.008   0.000   0.000   0.221   0.000  -0.000   0.046


------------------------ aborting loop because EDIFF is reached ----------------------------------------


    CHARGE:  cpu time   33.69: real time   33.70
    FORLOC:  cpu time    0.08: real time    0.08
    FORNL :  cpu time    7.27: real time    7.27
    STRESS:  cpu time   59.21: real time   59.23
    FORHAR:  cpu time    0.70: real time    0.71
    MIXING:  cpu time    0.06: real time    0.06
    OFIELD:  cpu time    0.00: real time    0.00

  FORCE on cell =-STRESS in cart. coord.  units (eV):
  Direction    XX          YY          ZZ          XY          YZ          ZX
  --------------------------------------------------------------------------------------
  Alpha Z     6.18334     6.18334     6.18334
  Ewald    2982.10135  2978.83332 -3512.41429     0.00000     0.00000     0.00000
  Hartree  2920.19281  2919.17588 -2896.56023     0.00000    -0.00000    -0.00000
  E(xc)     -57.98449   -57.95430   -60.29071     0.00000     0.00000    -0.00000
  Local   -6075.25916 -6071.59052  6203.72954     0.00000     0.00000     0.00000
  n-local   -13.81824   -13.00125   -12.47798     0.08862     0.00000     0.00000
  augment    -1.48062    -1.47717    -1.37131     0.00000    -0.00000     0.00000
  Kinetic   240.06590   234.38602   273.20030    -4.64094    -0.00000    -0.00000
  Fock        0.00000     0.00000     0.00000     0.00000     0.00000     0.00000
  -------------------------------------------------------------------------------------
  Total       0.00090    -5.44467    -0.00133     0.00000     0.00000     0.00000
  in kB       0.00681   -41.37460    -0.01009     0.00000     0.00000     0.00000
  external pressure =      -13.79 kB  Pullay stress =        0.00 kB


 VOLUME and BASIS-vectors are now :
 -----------------------------------------------------------------------------
  energy-cutoff  :     2000.00
  volume of cell :      210.84
      direct lattice vectors                 reciprocal lattice vectors
     4.254959995  0.000000000  0.000000000     0.235019836  0.000000000  0.000000000
     0.000000000  2.529725057  0.000000000     0.000000000  0.395299875  0.000000000
     0.000000000  0.000000000 19.587539307     0.000000000  0.000000000  0.051052865

  length of vectors
     4.254959995  2.529725057 19.587539307     0.235019836  0.395299875  0.051052865


 FORCES acting on ions
    electron-ion (+dipol)            ewald-force                    non-local-force                 convergence-correction
 -----------------------------------------------------------------------------------------------
   -.537E+01 -.590E-15 0.797E-09   0.536E+01 0.129E-14 -.113E-17   0.844E-02 -.694E-17 0.000E+00   0.370E-09 -.273E-14 0.230E-11
   0.537E+01 -.178E-12 -.221E-08   -.536E+01 -.553E-14 -.273E-33   -.844E-02 -.104E-16 -.215E-27   -.371E-09 0.359E-15 0.230E-11
   -.537E+01 0.654E-12 0.800E-09   0.536E+01 0.250E-14 0.113E-17   0.844E-02 -.694E-17 -.404E-27   0.371E-09 0.244E-15 0.229E-11
   0.537E+01 -.241E-15 -.224E-08   -.536E+01 -.433E-14 0.193E-33   -.844E-02 -.104E-16 0.000E+00   -.370E-09 -.254E-14 0.229E-11
 -----------------------------------------------------------------------------------------------
   -.259E-06 0.475E-12 -.285E-08   0.178E-14 -.607E-14 0.000E+00   0.347E-17 -.347E-16 -.618E-27   0.403E-14 -.466E-14 0.918E-11
 
 
 POSITION                                       TOTAL-FORCE (eV/Angst)
 -----------------------------------------------------------------------------------
      0.00274     -0.00000      0.00000        -0.000000      0.000000      0.000000
      0.70642      1.26486     -0.00000         0.000000      0.000000      0.000000
      2.13022      1.26486      0.00000        -0.000000     -0.000000      0.000000
      2.83390     -0.00000     -0.00000         0.000000     -0.000000      0.000000
 -----------------------------------------------------------------------------------
    total drift:                               -0.000000      0.000000     -0.000000


--------------------------------------------------------------------------------------------------------



  FREE ENERGIE OF THE ION-ELECTRON SYSTEM (eV)
  ---------------------------------------------------
  free  energy   TOTEN  =       -36.85687566 eV

  energy  without entropy=      -36.85687565  energy(sigma->0) =      -36.85687566
 
 d Force = 0.3068303E-13[-0.335E-14, 0.647E-13]  d Energy = 0.4092726E-11-0.406E-11
 d Force = 0.3106004E-06[ 0.311E-06, 0.311E-06]  d Ewald  = 0.3106002E-06 0.000E+00


--------------------------------------------------------------------------------------------------------


    POTLOK:  cpu time    2.67: real time    2.67


--------------------------------------------------------------------------------------------------------


 Quasi-Newton relaxation of ions (Broydens 2nd method)
  g(Force)  = 0.646E-15   g(Stress)= 0.000E+00

 retain information from N=  1 steps
 eigenvalues of (default step * inverse Hessian matrix)
  average eigenvalue of G=   0.2554
 eigenvalue spectrum of G is  0.2554


--------------------------------------------------------------------------------------------------------


  
 reached required accuracy - stopping structural energy minimisation
     LOOP+:  cpu time 1401.99: real time 1403.01
    4ORBIT:  cpu time    0.00: real time    0.00

 total amount of memory used by VASP on root node   711807. kBytes
========================================================================

   base      :      30000. kBytes
   nonl-proj :     340994. kBytes
   fftplans  :      35666. kBytes
   grid      :      50237. kBytes
   one-center:          6. kBytes
   wavefun   :     254904. kBytes
 
  
  
 General timing and accounting informations for this job:
 ========================================================
  
                  Total CPU time used (sec):    23132.539
                            User time (sec):    20534.344
                          System time (sec):     2598.195
                         Elapsed time (sec):    23228.789
  
                   Maximum memory used (kb):      918412.
                   Average memory used (kb):           0.
  
                          Minor page faults:    110623129
                          Major page faults:            6
                 Voluntary context switches:         5315
