<?xml version="1.0" encoding="ISO-8859-1"?>
<modeling>
 <generator>
  <i name="program" type="string">vasp </i>
  <i name="version" type="string">5.3.5  </i>
  <i name="subversion" type="string">31Mar14 (build Mar 02 2015 18:14:16) complex                          parallel </i>
  <i name="platform" type="string">LinuxIFC </i>
  <i name="date" type="string">2018 08 09 </i>
  <i name="time" type="string">22:21:45 </i>
 </generator>
 <incar>
  <i type="string" name="SYSTEM">  gr</i>
  <i type="string" name="PREC">accurate : accuracy</i>
  <i type="string" name="ALGO"> FAST.</i>
  <i type="int" name="NELM">   100</i>
  <i type="int" name="NELMDL">    -3</i>
  <i type="int" name="NELMIN">     5</i>
  <i type="int" name="IBRION">     1</i>
  <i name="EDIFF">      0.00000000</i>
  <i name="EDIFFG">     -0.00000100</i>
  <i type="int" name="NSW">   400</i>
  <i type="int" name="ISIF">     2</i>
  <i name="ENCUT">   2000.00000000</i>
  <i type="int" name="ISMEAR">     0</i>
  <i name="SIGMA">      0.05000000</i>
  <i type="int" name="NWRITE">     2</i>
  <i type="logical" name="LWAVE"> F  </i>
  <i type="logical" name="LCHARG"> F  </i>
  <i type="int" name="NELM">   100</i>
 </incar>
 <kpoints>
  <generation param="Gamma">
   <v type="int" name="divisions">      24       36        1 </v>
   <v name="usershift">      0.00000000       0.00000000       0.00000000 </v>
   <v name="genvec1">      0.04166667       0.00000000       0.00000000 </v>
   <v name="genvec2">      0.00000000       0.02777778       0.00000000 </v>
   <v name="genvec3">      0.00000000       0.00000000       1.00000000 </v>
   <v name="shift">      0.00000000       0.00000000       0.00000000 </v>
  </generation>
  <varray name="kpointlist" >
   <v>       0.00000000       0.00000000       0.00000000 </v>
   <v>       0.04166667       0.00000000       0.00000000 </v>
   <v>       0.08333333       0.00000000       0.00000000 </v>
   <v>       0.12500000       0.00000000       0.00000000 </v>
   <v>       0.16666667       0.00000000       0.00000000 </v>
   <v>       0.20833333       0.00000000       0.00000000 </v>
   <v>       0.25000000       0.00000000       0.00000000 </v>
   <v>       0.29166667       0.00000000       0.00000000 </v>
   <v>       0.33333333       0.00000000       0.00000000 </v>
   <v>       0.37500000       0.00000000       0.00000000 </v>
   <v>       0.41666667       0.00000000       0.00000000 </v>
   <v>       0.45833333       0.00000000       0.00000000 </v>
   <v>       0.50000000       0.00000000       0.00000000 </v>
   <v>       0.00000000       0.02777778       0.00000000 </v>
   <v>       0.04166667       0.02777778       0.00000000 </v>
   <v>       0.08333333       0.02777778       0.00000000 </v>
   <v>       0.12500000       0.02777778       0.00000000 </v>
   <v>       0.16666667       0.02777778       0.00000000 </v>
   <v>       0.20833333       0.02777778       0.00000000 </v>
   <v>       0.25000000       0.02777778       0.00000000 </v>
   <v>       0.29166667       0.02777778       0.00000000 </v>
   <v>       0.33333333       0.02777778       0.00000000 </v>
   <v>       0.37500000       0.02777778       0.00000000 </v>
   <v>       0.41666667       0.02777778       0.00000000 </v>
   <v>       0.45833333       0.02777778       0.00000000 </v>
   <v>       0.50000000       0.02777778       0.00000000 </v>
   <v>       0.00000000       0.05555556       0.00000000 </v>
   <v>       0.04166667       0.05555556       0.00000000 </v>
   <v>       0.08333333       0.05555556       0.00000000 </v>
   <v>       0.12500000       0.05555556       0.00000000 </v>
   <v>       0.16666667       0.05555556       0.00000000 </v>
   <v>       0.20833333       0.05555556       0.00000000 </v>
   <v>       0.25000000       0.05555556       0.00000000 </v>
   <v>       0.29166667       0.05555556       0.00000000 </v>
   <v>       0.33333333       0.05555556       0.00000000 </v>
   <v>       0.37500000       0.05555556       0.00000000 </v>
   <v>       0.41666667       0.05555556       0.00000000 </v>
   <v>       0.45833333       0.05555556       0.00000000 </v>
   <v>       0.50000000       0.05555556       0.00000000 </v>
   <v>       0.00000000       0.08333333       0.00000000 </v>
   <v>       0.04166667       0.08333333       0.00000000 </v>
   <v>       0.08333333       0.08333333       0.00000000 </v>
   <v>       0.12500000       0.08333333       0.00000000 </v>
   <v>       0.16666667       0.08333333       0.00000000 </v>
   <v>       0.20833333       0.08333333       0.00000000 </v>
   <v>       0.25000000       0.08333333       0.00000000 </v>
   <v>       0.29166667       0.08333333       0.00000000 </v>
   <v>       0.33333333       0.08333333       0.00000000 </v>
   <v>       0.37500000       0.08333333       0.00000000 </v>
   <v>       0.41666667       0.08333333       0.00000000 </v>
   <v>       0.45833333       0.08333333       0.00000000 </v>
   <v>       0.50000000       0.08333333       0.00000000 </v>
   <v>       0.00000000       0.11111111       0.00000000 </v>
   <v>       0.04166667       0.11111111       0.00000000 </v>
   <v>       0.08333333       0.11111111       0.00000000 </v>
   <v>       0.12500000       0.11111111       0.00000000 </v>
   <v>       0.16666667       0.11111111       0.00000000 </v>
   <v>       0.20833333       0.11111111       0.00000000 </v>
   <v>       0.25000000       0.11111111       0.00000000 </v>
   <v>       0.29166667       0.11111111       0.00000000 </v>
   <v>       0.33333333       0.11111111       0.00000000 </v>
   <v>       0.37500000       0.11111111       0.00000000 </v>
   <v>       0.41666667       0.11111111       0.00000000 </v>
   <v>       0.45833333       0.11111111       0.00000000 </v>
   <v>       0.50000000       0.11111111       0.00000000 </v>
   <v>       0.00000000       0.13888889       0.00000000 </v>
   <v>       0.04166667       0.13888889       0.00000000 </v>
   <v>       0.08333333       0.13888889       0.00000000 </v>
   <v>       0.12500000       0.13888889       0.00000000 </v>
   <v>       0.16666667       0.13888889       0.00000000 </v>
   <v>       0.20833333       0.13888889       0.00000000 </v>
   <v>       0.25000000       0.13888889       0.00000000 </v>
   <v>       0.29166667       0.13888889       0.00000000 </v>
   <v>       0.33333333       0.13888889       0.00000000 </v>
   <v>       0.37500000       0.13888889       0.00000000 </v>
   <v>       0.41666667       0.13888889       0.00000000 </v>
   <v>       0.45833333       0.13888889       0.00000000 </v>
   <v>       0.50000000       0.13888889       0.00000000 </v>
   <v>       0.00000000       0.16666667       0.00000000 </v>
   <v>       0.04166667       0.16666667       0.00000000 </v>
   <v>       0.08333333       0.16666667       0.00000000 </v>
   <v>       0.12500000       0.16666667       0.00000000 </v>
   <v>       0.16666667       0.16666667       0.00000000 </v>
   <v>       0.20833333       0.16666667       0.00000000 </v>
   <v>       0.25000000       0.16666667       0.00000000 </v>
   <v>       0.29166667       0.16666667       0.00000000 </v>
   <v>       0.33333333       0.16666667       0.00000000 </v>
   <v>       0.37500000       0.16666667       0.00000000 </v>
   <v>       0.41666667       0.16666667       0.00000000 </v>
   <v>       0.45833333       0.16666667       0.00000000 </v>
   <v>       0.50000000       0.16666667       0.00000000 </v>
   <v>       0.00000000       0.19444444       0.00000000 </v>
   <v>       0.04166667       0.19444444       0.00000000 </v>
   <v>       0.08333333       0.19444444       0.00000000 </v>
   <v>       0.12500000       0.19444444       0.00000000 </v>
   <v>       0.16666667       0.19444444       0.00000000 </v>
   <v>       0.20833333       0.19444444       0.00000000 </v>
   <v>       0.25000000       0.19444444       0.00000000 </v>
   <v>       0.29166667       0.19444444       0.00000000 </v>
   <v>       0.33333333       0.19444444       0.00000000 </v>
   <v>       0.37500000       0.19444444       0.00000000 </v>
   <v>       0.41666667       0.19444444       0.00000000 </v>
   <v>       0.45833333       0.19444444       0.00000000 </v>
   <v>       0.50000000       0.19444444       0.00000000 </v>
   <v>       0.00000000       0.22222222       0.00000000 </v>
   <v>       0.04166667       0.22222222       0.00000000 </v>
   <v>       0.08333333       0.22222222       0.00000000 </v>
   <v>       0.12500000       0.22222222       0.00000000 </v>
   <v>       0.16666667       0.22222222       0.00000000 </v>
   <v>       0.20833333       0.22222222       0.00000000 </v>
   <v>       0.25000000       0.22222222       0.00000000 </v>
   <v>       0.29166667       0.22222222       0.00000000 </v>
   <v>       0.33333333       0.22222222       0.00000000 </v>
   <v>       0.37500000       0.22222222       0.00000000 </v>
   <v>       0.41666667       0.22222222       0.00000000 </v>
   <v>       0.45833333       0.22222222       0.00000000 </v>
   <v>       0.50000000       0.22222222       0.00000000 </v>
   <v>       0.00000000       0.25000000       0.00000000 </v>
   <v>       0.04166667       0.25000000       0.00000000 </v>
   <v>       0.08333333       0.25000000       0.00000000 </v>
   <v>       0.12500000       0.25000000       0.00000000 </v>
   <v>       0.16666667       0.25000000       0.00000000 </v>
   <v>       0.20833333       0.25000000       0.00000000 </v>
   <v>       0.25000000       0.25000000       0.00000000 </v>
   <v>       0.29166667       0.25000000       0.00000000 </v>
   <v>       0.33333333       0.25000000       0.00000000 </v>
   <v>       0.37500000       0.25000000       0.00000000 </v>
   <v>       0.41666667       0.25000000       0.00000000 </v>
   <v>       0.45833333       0.25000000       0.00000000 </v>
   <v>       0.50000000       0.25000000       0.00000000 </v>
   <v>       0.00000000       0.27777778       0.00000000 </v>
   <v>       0.04166667       0.27777778       0.00000000 </v>
   <v>       0.08333333       0.27777778       0.00000000 </v>
   <v>       0.12500000       0.27777778       0.00000000 </v>
   <v>       0.16666667       0.27777778       0.00000000 </v>
   <v>       0.20833333       0.27777778       0.00000000 </v>
   <v>       0.25000000       0.27777778       0.00000000 </v>
   <v>       0.29166667       0.27777778       0.00000000 </v>
   <v>       0.33333333       0.27777778       0.00000000 </v>
   <v>       0.37500000       0.27777778       0.00000000 </v>
   <v>       0.41666667       0.27777778       0.00000000 </v>
   <v>       0.45833333       0.27777778       0.00000000 </v>
   <v>       0.50000000       0.27777778       0.00000000 </v>
   <v>       0.00000000       0.30555556       0.00000000 </v>
   <v>       0.04166667       0.30555556       0.00000000 </v>
   <v>       0.08333333       0.30555556       0.00000000 </v>
   <v>       0.12500000       0.30555556       0.00000000 </v>
   <v>       0.16666667       0.30555556       0.00000000 </v>
   <v>       0.20833333       0.30555556       0.00000000 </v>
   <v>       0.25000000       0.30555556       0.00000000 </v>
   <v>       0.29166667       0.30555556       0.00000000 </v>
   <v>       0.33333333       0.30555556       0.00000000 </v>
   <v>       0.37500000       0.30555556       0.00000000 </v>
   <v>       0.41666667       0.30555556       0.00000000 </v>
   <v>       0.45833333       0.30555556       0.00000000 </v>
   <v>       0.50000000       0.30555556       0.00000000 </v>
   <v>       0.00000000       0.33333333       0.00000000 </v>
   <v>       0.04166667       0.33333333       0.00000000 </v>
   <v>       0.08333333       0.33333333       0.00000000 </v>
   <v>       0.12500000       0.33333333       0.00000000 </v>
   <v>       0.16666667       0.33333333       0.00000000 </v>
   <v>       0.20833333       0.33333333       0.00000000 </v>
   <v>       0.25000000       0.33333333       0.00000000 </v>
   <v>       0.29166667       0.33333333       0.00000000 </v>
   <v>       0.33333333       0.33333333       0.00000000 </v>
   <v>       0.37500000       0.33333333       0.00000000 </v>
   <v>       0.41666667       0.33333333       0.00000000 </v>
   <v>       0.45833333       0.33333333       0.00000000 </v>
   <v>       0.50000000       0.33333333       0.00000000 </v>
   <v>       0.00000000       0.36111111       0.00000000 </v>
   <v>       0.04166667       0.36111111       0.00000000 </v>
   <v>       0.08333333       0.36111111       0.00000000 </v>
   <v>       0.12500000       0.36111111       0.00000000 </v>
   <v>       0.16666667       0.36111111       0.00000000 </v>
   <v>       0.20833333       0.36111111       0.00000000 </v>
   <v>       0.25000000       0.36111111       0.00000000 </v>
   <v>       0.29166667       0.36111111       0.00000000 </v>
   <v>       0.33333333       0.36111111       0.00000000 </v>
   <v>       0.37500000       0.36111111       0.00000000 </v>
   <v>       0.41666667       0.36111111       0.00000000 </v>
   <v>       0.45833333       0.36111111       0.00000000 </v>
   <v>       0.50000000       0.36111111       0.00000000 </v>
   <v>       0.00000000       0.38888889       0.00000000 </v>
   <v>       0.04166667       0.38888889       0.00000000 </v>
   <v>       0.08333333       0.38888889       0.00000000 </v>
   <v>       0.12500000       0.38888889       0.00000000 </v>
   <v>       0.16666667       0.38888889       0.00000000 </v>
   <v>       0.20833333       0.38888889       0.00000000 </v>
   <v>       0.25000000       0.38888889       0.00000000 </v>
   <v>       0.29166667       0.38888889       0.00000000 </v>
   <v>       0.33333333       0.38888889       0.00000000 </v>
   <v>       0.37500000       0.38888889       0.00000000 </v>
   <v>       0.41666667       0.38888889       0.00000000 </v>
   <v>       0.45833333       0.38888889       0.00000000 </v>
   <v>       0.50000000       0.38888889       0.00000000 </v>
   <v>       0.00000000       0.41666667       0.00000000 </v>
   <v>       0.04166667       0.41666667       0.00000000 </v>
   <v>       0.08333333       0.41666667       0.00000000 </v>
   <v>       0.12500000       0.41666667       0.00000000 </v>
   <v>       0.16666667       0.41666667       0.00000000 </v>
   <v>       0.20833333       0.41666667       0.00000000 </v>
   <v>       0.25000000       0.41666667       0.00000000 </v>
   <v>       0.29166667       0.41666667       0.00000000 </v>
   <v>       0.33333333       0.41666667       0.00000000 </v>
   <v>       0.37500000       0.41666667       0.00000000 </v>
   <v>       0.41666667       0.41666667       0.00000000 </v>
   <v>       0.45833333       0.41666667       0.00000000 </v>
   <v>       0.50000000       0.41666667       0.00000000 </v>
   <v>       0.00000000       0.44444444       0.00000000 </v>
   <v>       0.04166667       0.44444444       0.00000000 </v>
   <v>       0.08333333       0.44444444       0.00000000 </v>
   <v>       0.12500000       0.44444444       0.00000000 </v>
   <v>       0.16666667       0.44444444       0.00000000 </v>
   <v>       0.20833333       0.44444444       0.00000000 </v>
   <v>       0.25000000       0.44444444       0.00000000 </v>
   <v>       0.29166667       0.44444444       0.00000000 </v>
   <v>       0.33333333       0.44444444       0.00000000 </v>
   <v>       0.37500000       0.44444444       0.00000000 </v>
   <v>       0.41666667       0.44444444       0.00000000 </v>
   <v>       0.45833333       0.44444444       0.00000000 </v>
   <v>       0.50000000       0.44444444       0.00000000 </v>
   <v>       0.00000000       0.47222222       0.00000000 </v>
   <v>       0.04166667       0.47222222       0.00000000 </v>
   <v>       0.08333333       0.47222222       0.00000000 </v>
   <v>       0.12500000       0.47222222       0.00000000 </v>
   <v>       0.16666667       0.47222222       0.00000000 </v>
   <v>       0.20833333       0.47222222       0.00000000 </v>
   <v>       0.25000000       0.47222222       0.00000000 </v>
   <v>       0.29166667       0.47222222       0.00000000 </v>
   <v>       0.33333333       0.47222222       0.00000000 </v>
   <v>       0.37500000       0.47222222       0.00000000 </v>
   <v>       0.41666667       0.47222222       0.00000000 </v>
   <v>       0.45833333       0.47222222       0.00000000 </v>
   <v>       0.50000000       0.47222222       0.00000000 </v>
   <v>       0.00000000       0.50000000       0.00000000 </v>
   <v>       0.04166667       0.50000000       0.00000000 </v>
   <v>       0.08333333       0.50000000       0.00000000 </v>
   <v>       0.12500000       0.50000000       0.00000000 </v>
   <v>       0.16666667       0.50000000       0.00000000 </v>
   <v>       0.20833333       0.50000000       0.00000000 </v>
   <v>       0.25000000       0.50000000       0.00000000 </v>
   <v>       0.29166667       0.50000000       0.00000000 </v>
   <v>       0.33333333       0.50000000       0.00000000 </v>
   <v>       0.37500000       0.50000000       0.00000000 </v>
   <v>       0.41666667       0.50000000       0.00000000 </v>
   <v>       0.45833333       0.50000000       0.00000000 </v>
   <v>       0.50000000       0.50000000       0.00000000 </v>
  </varray>
  <varray name="weights" >
   <v>       0.00115741 </v>
   <v>       0.00231481 </v>
   <v>       0.00231481 </v>
   <v>       0.00231481 </v>
   <v>       0.00231481 </v>
   <v>       0.00231481 </v>
   <v>       0.00231481 </v>
   <v>       0.00231481 </v>
   <v>       0.00231481 </v>
   <v>       0.00231481 </v>
   <v>       0.00231481 </v>
   <v>       0.00231481 </v>
   <v>       0.00115741 </v>
   <v>       0.00231481 </v>
   <v>       0.00462963 </v>
   <v>       0.00462963 </v>
   <v>       0.00462963 </v>
   <v>       0.00462963 </v>
   <v>       0.00462963 </v>
   <v>       0.00462963 </v>
   <v>       0.00462963 </v>
   <v>       0.00462963 </v>
   <v>       0.00462963 </v>
   <v>       0.00462963 </v>
   <v>       0.00462963 </v>
   <v>       0.00231481 </v>
   <v>       0.00231481 </v>
   <v>       0.00462963 </v>
   <v>       0.00462963 </v>
   <v>       0.00462963 </v>
   <v>       0.00462963 </v>
   <v>       0.00462963 </v>
   <v>       0.00462963 </v>
   <v>       0.00462963 </v>
   <v>       0.00462963 </v>
   <v>       0.00462963 </v>
   <v>       0.00462963 </v>
   <v>       0.00462963 </v>
   <v>       0.00231481 </v>
   <v>       0.00231481 </v>
   <v>       0.00462963 </v>
   <v>       0.00462963 </v>
   <v>       0.00462963 </v>
   <v>       0.00462963 </v>
   <v>       0.00462963 </v>
   <v>       0.00462963 </v>
   <v>       0.00462963 </v>
   <v>       0.00462963 </v>
   <v>       0.00462963 </v>
   <v>       0.00462963 </v>
   <v>       0.00462963 </v>
   <v>       0.00231481 </v>
   <v>       0.00231481 </v>
   <v>       0.00462963 </v>
   <v>       0.00462963 </v>
   <v>       0.00462963 </v>
   <v>       0.00462963 </v>
   <v>       0.00462963 </v>
   <v>       0.00462963 </v>
   <v>       0.00462963 </v>
   <v>       0.00462963 </v>
   <v>       0.00462963 </v>
   <v>       0.00462963 </v>
   <v>       0.00462963 </v>
   <v>       0.00231481 </v>
   <v>       0.00231481 </v>
   <v>       0.00462963 </v>
   <v>       0.00462963 </v>
   <v>       0.00462963 </v>
   <v>       0.00462963 </v>
   <v>       0.00462963 </v>
   <v>       0.00462963 </v>
   <v>       0.00462963 </v>
   <v>       0.00462963 </v>
   <v>       0.00462963 </v>
   <v>       0.00462963 </v>
   <v>       0.00462963 </v>
   <v>       0.00231481 </v>
   <v>       0.00231481 </v>
   <v>       0.00462963 </v>
   <v>       0.00462963 </v>
   <v>       0.00462963 </v>
   <v>       0.00462963 </v>
   <v>       0.00462963 </v>
   <v>       0.00462963 </v>
   <v>       0.00462963 </v>
   <v>       0.00462963 </v>
   <v>       0.00462963 </v>
   <v>       0.00462963 </v>
   <v>       0.00462963 </v>
   <v>       0.00231481 </v>
   <v>       0.00231481 </v>
   <v>       0.00462963 </v>
   <v>       0.00462963 </v>
   <v>       0.00462963 </v>
   <v>       0.00462963 </v>
   <v>       0.00462963 </v>
   <v>       0.00462963 </v>
   <v>       0.00462963 </v>
   <v>       0.00462963 </v>
   <v>       0.00462963 </v>
   <v>       0.00462963 </v>
   <v>       0.00462963 </v>
   <v>       0.00231481 </v>
   <v>       0.00231481 </v>
   <v>       0.00462963 </v>
   <v>       0.00462963 </v>
   <v>       0.00462963 </v>
   <v>       0.00462963 </v>
   <v>       0.00462963 </v>
   <v>       0.00462963 </v>
   <v>       0.00462963 </v>
   <v>       0.00462963 </v>
   <v>       0.00462963 </v>
   <v>       0.00462963 </v>
   <v>       0.00462963 </v>
   <v>       0.00231481 </v>
   <v>       0.00231481 </v>
   <v>       0.00462963 </v>
   <v>       0.00462963 </v>
   <v>       0.00462963 </v>
   <v>       0.00462963 </v>
   <v>       0.00462963 </v>
   <v>       0.00462963 </v>
   <v>       0.00462963 </v>
   <v>       0.00462963 </v>
   <v>       0.00462963 </v>
   <v>       0.00462963 </v>
   <v>       0.00462963 </v>
   <v>       0.00231481 </v>
   <v>       0.00231481 </v>
   <v>       0.00462963 </v>
   <v>       0.00462963 </v>
   <v>       0.00462963 </v>
   <v>       0.00462963 </v>
   <v>       0.00462963 </v>
   <v>       0.00462963 </v>
   <v>       0.00462963 </v>
   <v>       0.00462963 </v>
   <v>       0.00462963 </v>
   <v>       0.00462963 </v>
   <v>       0.00462963 </v>
   <v>       0.00231481 </v>
   <v>       0.00231481 </v>
   <v>       0.00462963 </v>
   <v>       0.00462963 </v>
   <v>       0.00462963 </v>
   <v>       0.00462963 </v>
   <v>       0.00462963 </v>
   <v>       0.00462963 </v>
   <v>       0.00462963 </v>
   <v>       0.00462963 </v>
   <v>       0.00462963 </v>
   <v>       0.00462963 </v>
   <v>       0.00462963 </v>
   <v>       0.00231481 </v>
   <v>       0.00231481 </v>
   <v>       0.00462963 </v>
   <v>       0.00462963 </v>
   <v>       0.00462963 </v>
   <v>       0.00462963 </v>
   <v>       0.00462963 </v>
   <v>       0.00462963 </v>
   <v>       0.00462963 </v>
   <v>       0.00462963 </v>
   <v>       0.00462963 </v>
   <v>       0.00462963 </v>
   <v>       0.00462963 </v>
   <v>       0.00231481 </v>
   <v>       0.00231481 </v>
   <v>       0.00462963 </v>
   <v>       0.00462963 </v>
   <v>       0.00462963 </v>
   <v>       0.00462963 </v>
   <v>       0.00462963 </v>
   <v>       0.00462963 </v>
   <v>       0.00462963 </v>
   <v>       0.00462963 </v>
   <v>       0.00462963 </v>
   <v>       0.00462963 </v>
   <v>       0.00462963 </v>
   <v>       0.00231481 </v>
   <v>       0.00231481 </v>
   <v>       0.00462963 </v>
   <v>       0.00462963 </v>
   <v>       0.00462963 </v>
   <v>       0.00462963 </v>
   <v>       0.00462963 </v>
   <v>       0.00462963 </v>
   <v>       0.00462963 </v>
   <v>       0.00462963 </v>
   <v>       0.00462963 </v>
   <v>       0.00462963 </v>
   <v>       0.00462963 </v>
   <v>       0.00231481 </v>
   <v>       0.00231481 </v>
   <v>       0.00462963 </v>
   <v>       0.00462963 </v>
   <v>       0.00462963 </v>
   <v>       0.00462963 </v>
   <v>       0.00462963 </v>
   <v>       0.00462963 </v>
   <v>       0.00462963 </v>
   <v>       0.00462963 </v>
   <v>       0.00462963 </v>
   <v>       0.00462963 </v>
   <v>       0.00462963 </v>
   <v>       0.00231481 </v>
   <v>       0.00231481 </v>
   <v>       0.00462963 </v>
   <v>       0.00462963 </v>
   <v>       0.00462963 </v>
   <v>       0.00462963 </v>
   <v>       0.00462963 </v>
   <v>       0.00462963 </v>
   <v>       0.00462963 </v>
   <v>       0.00462963 </v>
   <v>       0.00462963 </v>
   <v>       0.00462963 </v>
   <v>       0.00462963 </v>
   <v>       0.00231481 </v>
   <v>       0.00231481 </v>
   <v>       0.00462963 </v>
   <v>       0.00462963 </v>
   <v>       0.00462963 </v>
   <v>       0.00462963 </v>
   <v>       0.00462963 </v>
   <v>       0.00462963 </v>
   <v>       0.00462963 </v>
   <v>       0.00462963 </v>
   <v>       0.00462963 </v>
   <v>       0.00462963 </v>
   <v>       0.00462963 </v>
   <v>       0.00231481 </v>
   <v>       0.00115741 </v>
   <v>       0.00231481 </v>
   <v>       0.00231481 </v>
   <v>       0.00231481 </v>
   <v>       0.00231481 </v>
   <v>       0.00231481 </v>
   <v>       0.00231481 </v>
   <v>       0.00231481 </v>
   <v>       0.00231481 </v>
   <v>       0.00231481 </v>
   <v>       0.00231481 </v>
   <v>       0.00231481 </v>
   <v>       0.00115741 </v>
  </varray>
 </kpoints>
 <parameters>
  <separator name="general" >
   <i type="string" name="SYSTEM">gr</i>
   <i type="logical" name="LCOMPAT"> F  </i>
  </separator>
  <separator name="electronic" >
   <i type="string" name="PREC">accura</i>
   <i name="ENMAX">   2000.00000000</i>
   <i name="ENAUG">    644.87300000</i>
   <i name="EDIFF">      0.00000000</i>
   <i type="int" name="IALGO">    68</i>
   <i type="int" name="IWAVPR">    11</i>
   <i type="int" name="NBANDS">    12</i>
   <i name="NELECT">     16.00000000</i>
   <i type="int" name="TURBO">     0</i>
   <i type="int" name="IRESTART">     0</i>
   <i type="int" name="NREBOOT">     0</i>
   <i type="int" name="NMIN">     0</i>
   <i name="EREF">      0.00000000</i>
   <separator name="electronic smearing" >
    <i type="int" name="ISMEAR">     0</i>
    <i name="SIGMA">      0.05000000</i>
    <i name="KSPACING">      0.50000000</i>
    <i type="logical" name="KGAMMA"> T  </i>
   </separator>
   <separator name="electronic projectors" >
    <i type="logical" name="LREAL"> F  </i>
    <v name="ROPT">      0.00000000</v>
    <i type="int" name="LMAXPAW">  -100</i>
    <i type="int" name="LMAXMIX">     2</i>
    <i type="logical" name="NLSPLINE"> F  </i>
   </separator>
   <separator name="electronic startup" >
    <i type="int" name="ISTART">     0</i>
    <i type="int" name="ICHARG">     2</i>
    <i type="int" name="INIWAV">     1</i>
   </separator>
   <separator name="electronic spin" >
    <i type="int" name="ISPIN">     1</i>
    <i type="logical" name="LNONCOLLINEAR"> F  </i>
    <v name="MAGMOM">      1.00000000      1.00000000      1.00000000      1.00000000</v>
    <i name="NUPDOWN">     -1.00000000</i>
    <i type="logical" name="LSORBIT"> F  </i>
    <v name="SAXIS">      0.00000000      0.00000000      1.00000000</v>
    <i type="logical" name="LSPIRAL"> F  </i>
    <v name="QSPIRAL">      0.00000000      0.00000000      0.00000000</v>
    <i type="logical" name="LZEROZ"> F  </i>
   </separator>
   <separator name="electronic exchange-correlation" >
    <i type="logical" name="LASPH"> F  </i>
    <i type="logical" name="LMETAGGA"> F  </i>
   </separator>
   <separator name="electronic convergence" >
    <i type="int" name="NELM">   100</i>
    <i type="int" name="NELMDL">    -3</i>
    <i type="int" name="NELMIN">     5</i>
    <i name="ENINI">   2000.00000000</i>
    <separator name="electronic convergence detail" >
     <i type="logical" name="LDIAG"> T  </i>
     <i type="logical" name="LSUBROT"> F  </i>
     <i name="WEIMIN">      0.00100000</i>
     <i name="EBREAK">      0.00000000</i>
     <i name="DEPER">      0.30000000</i>
     <i type="int" name="NRMM">     4</i>
     <i name="TIME">      0.40000000</i>
    </separator>
   </separator>
   <separator name="electronic mixer" >
    <i name="AMIX">      0.40000000</i>
    <i name="BMIX">      1.00000000</i>
    <i name="AMIN">      0.10000000</i>
    <i name="AMIX_MAG">      1.60000000</i>
    <i name="BMIX_MAG">      1.00000000</i>
    <separator name="electronic mixer details" >
     <i type="int" name="IMIX">     4</i>
     <i type="int" name="MAXMIX">   -45</i>
     <i name="WC">    100.00000000</i>
     <i type="int" name="INIMIX">     1</i>
     <i type="int" name="MIXPRE">     1</i>
     <i type="int" name="MREMOVE">     5</i>
    </separator>
   </separator>
   <separator name="electronic dipolcorrection" >
    <i type="logical" name="LDIPOL"> F  </i>
    <i type="logical" name="LMONO"> F  </i>
    <i type="int" name="IDIPOL">     0</i>
    <i name="EPSILON">      1.00000000</i>
    <v name="DIPOL">   -100.00000000   -100.00000000   -100.00000000</v>
    <i name="EFIELD">      0.00000000</i>
   </separator>
  </separator>
  <separator name="grids" >
   <i type="int" name="NGX">    64</i>
   <i type="int" name="NGY">    40</i>
   <i type="int" name="NGZ">   288</i>
   <i type="int" name="NGXF">   128</i>
   <i type="int" name="NGYF">    80</i>
   <i type="int" name="NGZF">   576</i>
   <i type="logical" name="ADDGRID"> F  </i>
  </separator>
  <separator name="ionic" >
   <i type="int" name="NSW">   400</i>
   <i type="int" name="IBRION">     1</i>
   <i type="int" name="ISIF">     2</i>
   <i name="PSTRESS">      0.00000000</i>
   <i name="EDIFFG">     -0.00000100</i>
   <i type="int" name="NFREE">     0</i>
   <i name="POTIM">      0.50000000</i>
   <i name="SMASS">     -3.00000000</i>
   <i name="SCALEE">      1.00000000</i>
  </separator>
  <separator name="ionic md" >
   <i name="TEBEG">      0.00010000</i>
   <i name="TEEND">      0.00010000</i>
   <i type="int" name="NBLOCK">     1</i>
   <i type="int" name="KBLOCK">   400</i>
   <i type="int" name="NPACO">   256</i>
   <i name="APACO">     16.00000000</i>
  </separator>
  <separator name="symmetry" >
   <i type="int" name="ISYM">     2</i>
   <i name="SYMPREC">      0.00001000</i>
  </separator>
  <separator name="dos" >
   <i type="logical" name="LORBIT"> F  </i>
   <v name="RWIGS">     -1.00000000</v>
   <i type="int" name="NEDOS">   301</i>
   <i name="EMIN">     10.00000000</i>
   <i name="EMAX">    -10.00000000</i>
   <i name="EFERMI">      0.00000000</i>
  </separator>
  <separator name="writing" >
   <i type="int" name="NWRITE">     2</i>
   <i type="logical" name="LWAVE"> F  </i>
   <i type="logical" name="LCHARG"> F  </i>
   <i type="logical" name="LPARD"> F  </i>
   <i type="logical" name="LVTOT"> F  </i>
   <i type="logical" name="LVHAR"> F  </i>
   <i type="logical" name="LELF"> F  </i>
   <i type="logical" name="LOPTICS"> F  </i>
   <v name="STM">      0.00000000      0.00000000      0.00000000      0.00000000      0.00000000      0.00000000      0.00000000</v>
  </separator>
  <separator name="performance" >
   <i type="int" name="NPAR">     4</i>
   <i type="int" name="NSIM">     4</i>
   <i type="int" name="NBLK">    -1</i>
   <i type="logical" name="LPLANE"> T  </i>
   <i type="logical" name="LSCALAPACK"> F  </i>
   <i type="logical" name="LSCAAWARE"> F  </i>
   <i type="logical" name="LSCALU"> F  </i>
   <i type="logical" name="LASYNC"> F  </i>
   <i type="logical" name="LORBITALREAL"> F  </i>
  </separator>
  <separator name="miscellaneous" >
   <i type="int" name="IDIOT">     3</i>
   <i type="logical" name="LMUSIC"> F  </i>
   <v name="POMASS">     12.01100000</v>
   <v name="DARWINR">      0.00000000</v>
   <v name="DARWINV">      1.00000000</v>
   <i type="logical" name="LCORR"> T  </i>
  </separator>
  <i type="logical" name="GGA_COMPAT"> T  </i>
  <i type="logical" name="LBERRY"> F  </i>
  <i type="int" name="ICORELEVEL">     0</i>
  <i type="logical" name="LDAU"> F  </i>
  <i type="int" name="I_CONSTRAINED_M">     0</i>
  <separator name="electronic exchange-correlation" >
   <i type="string" name="GGA">--</i>
   <i type="int" name="VOSKOWN">     0</i>
   <i type="logical" name="LHFCALC"> F  </i>
   <i type="string" name="PRECFOCK"></i>
   <i type="logical" name="LSYMGRAD"> F  </i>
   <i type="logical" name="LHFONE"> F  </i>
   <i type="logical" name="LRHFCALC"> F  </i>
   <i type="logical" name="LTHOMAS"> F  </i>
   <i type="logical" name="LMODELHF"> F  </i>
   <i name="ENCUT4O">     -1.00000000</i>
   <i type="int" name="EXXOEP">     0</i>
   <i type="int" name="FOURORBIT">     0</i>
   <i name="AEXX">      0.00000000</i>
   <i name="HFALPHA">      0.00000000</i>
   <i name="MCALPHA">      0.00000000</i>
   <i name="ALDAX">      1.00000000</i>
   <i name="AGGAX">      1.00000000</i>
   <i name="ALDAC">      1.00000000</i>
   <i name="AGGAC">      1.00000000</i>
   <i type="int" name="NKREDX">     1</i>
   <i type="int" name="NKREDY">     1</i>
   <i type="int" name="NKREDZ">     1</i>
   <i type="logical" name="SHIFTRED"> F  </i>
   <i type="logical" name="ODDONLY"> F  </i>
   <i type="logical" name="EVENONLY"> F  </i>
   <i type="int" name="LMAXFOCK">     0</i>
   <i type="int" name="NMAXFOCKAE">     0</i>
   <i type="logical" name="LFOCKAEDFT"> F  </i>
   <i name="HFSCREEN">      0.00000000</i>
   <i name="HFSCREENC">      0.00000000</i>
   <i type="int" name="NBANDSGWLOW">     0</i>
  </separator>
  <separator name="vdW DFT" >
   <i type="logical" name="LUSE_VDW"> F  </i>
   <i name="Zab_VDW">     -0.84910000</i>
   <i name="PARAM1">      0.12340000</i>
   <i name="PARAM2">      1.00000000</i>
   <i name="PARAM3">      0.00000000</i>
  </separator>
  <separator name="model GW" >
   <i type="int" name="MODEL_GW">     0</i>
   <i name="MODEL_EPS0">     31.62568521</i>
   <i name="MODEL_ALPHA">      1.00000000</i>
  </separator>
  <separator name="linear response parameters" >
   <i type="logical" name="LEPSILON"> F  </i>
   <i type="logical" name="LRPA"> F  </i>
   <i type="logical" name="LNABLA"> F  </i>
   <i type="logical" name="LVEL"> F  </i>
   <i type="int" name="KINTER">     0</i>
   <i name="CSHIFT">      0.10000000</i>
   <i name="OMEGAMAX">     -1.00000000</i>
   <i name="DEG_THRESHOLD">      0.00200000</i>
  </separator>
  <separator name="orbital magnetization" >
   <i type="logical" name="NUCIND"> F  </i>
   <v name="MAGPOS">      0.00000000      0.00000000      0.00000000</v>
   <i type="logical" name="LNICSALL"> T  </i>
   <i type="logical" name="ORBITALMAG"> F  </i>
   <i type="logical" name="LMAGBLOCH"> F  </i>
   <i type="logical" name="LCHIMAG"> F  </i>
   <i type="logical" name="LGAUGE"> T  </i>
   <i type="int" name="MAGATOM">     0</i>
   <v name="MAGDIPOL">      0.00000000      0.00000000      0.00000000</v>
   <v name="AVECCONST">      0.00000000      0.00000000      0.00000000</v>
  </separator>
  <separator name="response functions" >
   <i type="logical" name="LADDER"> F  </i>
   <i type="logical" name="LFXC"> F  </i>
   <i type="logical" name="LHARTREE"> T  </i>
   <i type="int" name="IBSE">     0</i>
   <i type="logical" name="LTCTE"> F  </i>
   <i type="logical" name="LTETE"> F  </i>
   <i type="logical" name="LTRIPLET"> F  </i>
   <i type="logical" name="LFXCEPS"> F  </i>
   <i type="logical" name="LFXHEG"> F  </i>
   <i type="logical" name="L2ORDER"> F  </i>
   <i type="logical" name="LUSEW"> F  </i>
   <i name="ENCUTGW">     -2.00000000</i>
   <i name="ENCUTGWSOFT">     -2.00000000</i>
   <i name="ENCUTLF">     -1.00000000</i>
   <i type="int" name="LMAXMP2">    -1</i>
   <i name="SCISSOR">      0.00000000</i>
   <i type="int" name="NOMEGA">     0</i>
   <i type="int" name="NOMEGAR">     0</i>
   <i type="int" name="NBANDSGW">    -1</i>
   <i type="int" name="NBANDSO">    -1</i>
   <i type="int" name="NBANDSV">    -1</i>
   <i type="int" name="NELM">   100</i>
   <i type="int" name="DIM">     3</i>
   <i type="int" name="ANTIRES">     0</i>
   <i name="OMEGAMAX">    -30.00000000</i>
   <i name="OMEGAMIN">    -30.00000000</i>
   <i name="OMEGATL">   -200.00000000</i>
   <i type="int" name="OMEGAGRID">     0</i>
   <i name="CSHIFT">     -0.10000000</i>
   <i type="logical" name="SELFENERGY"> F  </i>
   <i type="logical" name="LSPECTRAL"> F  </i>
   <i type="logical" name="ODDONLYGW"> F  </i>
   <i type="logical" name="EVENONLYGW"> F  </i>
   <i type="int" name="NKREDLFX">     1</i>
   <i type="int" name="NKREDLFY">     1</i>
   <i type="int" name="NKREDLFZ">     1</i>
   <i type="int" name="MAXMEM">  1800</i>
   <i type="int" name="TELESCOPE">     0</i>
   <i type="int" name="TAUPAR">     1</i>
  </separator>
  <separator name="External order field" >
   <i name="OFIELD_KAPPA">      0.00000000</i>
   <v name="OFIELD_K">      0.00000000      0.00000000      0.00000000</v>
   <i name="OFIELD_Q6_NEAR">      0.00000000</i>
   <i name="OFIELD_Q6_FAR">      0.00000000</i>
   <i name="OFIELD_A">      0.00000000</i>
  </separator>
 </parameters>
 <atominfo>
  <atoms>       4 </atoms>
  <types>       1 </types>
  <array name="atoms" >
   <dimension dim="1">ion</dimension>
   <field type="string">element</field>
   <field type="int">atomtype</field>
   <set>
    <rc><c>C </c><c>   1</c></rc>
    <rc><c>C </c><c>   1</c></rc>
    <rc><c>C </c><c>   1</c></rc>
    <rc><c>C </c><c>   1</c></rc>
   </set>
  </array>
  <array name="atomtypes" >
   <dimension dim="1">type</dimension>
   <field type="int">atomspertype</field>
   <field type="string">element</field>
   <field>mass</field>
   <field>valence</field>
   <field type="string">pseudopotential</field>
   <set>
    <rc><c>   4</c><c>C </c><c>     12.01100000</c><c>      4.00000000</c><c> PAW_PBE C 08Apr2002                    </c></rc>
   </set>
  </array>
 </atominfo>
 <structure name="initialpos" >
  <crystal>
   <varray name="basis" >
    <v>       4.25496000       0.00000000       0.00000000 </v>
    <v>       0.00000000       2.52972506       0.00000000 </v>
    <v>       0.00000000       0.00000000      19.58753931 </v>
   </varray>
   <i name="volume">    210.83790140 </i>
   <varray name="rec_basis" >
    <v>       0.23501984       0.00000000       0.00000000 </v>
    <v>       0.00000000       0.39529988       0.00000000 </v>
    <v>       0.00000000       0.00000000       0.05105287 </v>
   </varray>
  </crystal>
  <varray name="positions" >
   <v>       0.00063729       0.00000000       0.00000000 </v>
   <v>       0.16602938       0.50000000       0.00000000 </v>
   <v>       0.50063729       0.50000000       0.00000000 </v>
   <v>       0.66602938       0.00000000       0.00000000 </v>
  </varray>
 </structure>
 <calculation>
  <scstep>
   <time name="dav">  317.32  319.63</time>
   <time name="total">  320.00  322.44</time>
   <energy>
    <i name="alphaZ">      6.18334092 </i>
    <i name="ewald">   2448.52112519 </i>
    <i name="hartreedc">  -2878.04570052 </i>
    <i name="XCdc">     54.81503580 </i>
    <i name="pawpsdc">    151.32577238 </i>
    <i name="pawaedc">   -155.92769107 </i>
    <i name="eentropy">     -0.00176707 </i>
    <i name="bandstr">    -28.82326947 </i>
    <i name="atom">    588.62352690 </i>
    <i name="e_fr_energy">    186.67037308 </i>
    <i name="e_wo_entrp">    186.67214015 </i>
    <i name="e_0_energy">    186.67125661 </i>
   </energy>
  </scstep>
  <scstep>
   <time name="dav">  482.72  486.43</time>
   <time name="total">  482.72  486.63</time>
   <energy>
    <i name="e_fr_energy">     -8.98236126 </i>
    <i name="e_wo_entrp">     -8.98163288 </i>
    <i name="e_0_energy">     -8.98199707 </i>
   </energy>
  </scstep>
  <scstep>
   <time name="dav">  366.72  369.38</time>
   <time name="total">  400.17  403.25</time>
   <energy>
    <i name="e_fr_energy">    -38.06688235 </i>
    <i name="e_wo_entrp">    -38.06688235 </i>
    <i name="e_0_energy">    -38.06688235 </i>
   </energy>
  </scstep>
  <scstep>
   <time name="diag">   86.61   87.32</time>
   <time name="diis">  366.76  369.79</time>
   <time name="orth">    3.07    3.09</time>
   <time name="total">  492.32  496.87</time>
   <energy>
    <i name="e_fr_energy">    -37.57069117 </i>
    <i name="e_wo_entrp">    -37.57069117 </i>
    <i name="e_0_energy">    -37.57069117 </i>
   </energy>
  </scstep>
  <scstep>
   <time name="diag">   87.15   87.38</time>
   <time name="diis">  364.96  366.82</time>
   <time name="orth">    3.07    3.07</time>
   <time name="total">  491.44  493.71</time>
   <energy>
    <i name="e_fr_energy">    -36.86526791 </i>
    <i name="e_wo_entrp">    -36.86526789 </i>
    <i name="e_0_energy">    -36.86526790 </i>
   </energy>
  </scstep>
  <scstep>
   <time name="diag">   86.75   87.36</time>
   <time name="diis">  403.59  406.47</time>
   <time name="orth">    3.07    3.09</time>
   <time name="total">  529.40  533.41</time>
   <energy>
    <i name="e_fr_energy">    -36.86757089 </i>
    <i name="e_wo_entrp">    -36.86757088 </i>
    <i name="e_0_energy">    -36.86757089 </i>
   </energy>
  </scstep>
  <scstep>
   <time name="diag">   86.84   87.32</time>
   <time name="diis">  365.97  367.16</time>
   <time name="orth">    3.09    3.09</time>
   <time name="total">  492.21  494.02</time>
   <energy>
    <i name="e_fr_energy">    -36.85858160 </i>
    <i name="e_wo_entrp">    -36.85858159 </i>
    <i name="e_0_energy">    -36.85858160 </i>
   </energy>
  </scstep>
  <scstep>
   <time name="diag">   87.29   87.31</time>
   <time name="diis">  367.75  367.86</time>
   <time name="orth">    3.09    3.09</time>
   <time name="total">  494.52  494.67</time>
   <energy>
    <i name="e_fr_energy">    -36.85396526 </i>
    <i name="e_wo_entrp">    -36.85396525 </i>
    <i name="e_0_energy">    -36.85396525 </i>
   </energy>
  </scstep>
  <scstep>
   <time name="diag">   87.20   87.21</time>
   <time name="diis">  351.85  352.03</time>
   <time name="orth">    3.09    3.09</time>
   <time name="total">  478.52  480.31</time>
   <energy>
    <i name="e_fr_energy">    -36.85378892 </i>
    <i name="e_wo_entrp">    -36.85378891 </i>
    <i name="e_0_energy">    -36.85378892 </i>
   </energy>
  </scstep>
  <scstep>
   <time name="diag">   87.24   87.26</time>
   <time name="diis">  353.05  353.15</time>
   <time name="orth">    3.09    3.09</time>
   <time name="total">  479.68  479.88</time>
   <energy>
    <i name="e_fr_energy">    -36.85374222 </i>
    <i name="e_wo_entrp">    -36.85374221 </i>
    <i name="e_0_energy">    -36.85374222 </i>
   </energy>
  </scstep>
  <scstep>
   <time name="diag">   86.94   87.30</time>
   <time name="diis">  353.18  354.51</time>
   <time name="orth">    3.08    3.08</time>
   <time name="total">  479.36  481.35</time>
   <energy>
    <i name="e_fr_energy">    -36.85601240 </i>
    <i name="e_wo_entrp">    -36.85601239 </i>
    <i name="e_0_energy">    -36.85601240 </i>
   </energy>
  </scstep>
  <scstep>
   <time name="diag">   86.83   87.26</time>
   <time name="diis">  353.79  355.09</time>
   <time name="orth">    3.09    3.10</time>
   <time name="total">  480.05  481.89</time>
   <energy>
    <i name="e_fr_energy">    -36.85651482 </i>
    <i name="e_wo_entrp">    -36.85651480 </i>
    <i name="e_0_energy">    -36.85651481 </i>
   </energy>
  </scstep>
  <scstep>
   <time name="diag">   87.24   87.26</time>
   <time name="diis">  362.58  363.39</time>
   <time name="orth">    3.09    3.09</time>
   <time name="total">  489.31  490.34</time>
   <energy>
    <i name="e_fr_energy">    -36.85676190 </i>
    <i name="e_wo_entrp">    -36.85676189 </i>
    <i name="e_0_energy">    -36.85676190 </i>
   </energy>
  </scstep>
  <scstep>
   <time name="diag">   87.15   87.20</time>
   <time name="diis">  357.88  358.00</time>
   <time name="orth">    3.09    3.09</time>
   <time name="total">  484.44  484.76</time>
   <energy>
    <i name="e_fr_energy">    -36.85684318 </i>
    <i name="e_wo_entrp">    -36.85684317 </i>
    <i name="e_0_energy">    -36.85684317 </i>
   </energy>
  </scstep>
  <scstep>
   <time name="diag">   87.13   87.15</time>
   <time name="diis">  355.67  355.76</time>
   <time name="orth">    3.07    3.07</time>
   <time name="total">  482.28  482.87</time>
   <energy>
    <i name="e_fr_energy">    -36.85685435 </i>
    <i name="e_wo_entrp">    -36.85685433 </i>
    <i name="e_0_energy">    -36.85685434 </i>
   </energy>
  </scstep>
  <scstep>
   <time name="diag">   87.16   87.19</time>
   <time name="diis">  353.52  353.61</time>
   <time name="orth">    3.08    3.08</time>
   <time name="total">  480.25  480.40</time>
   <energy>
    <i name="e_fr_energy">    -36.85686772 </i>
    <i name="e_wo_entrp">    -36.85686771 </i>
    <i name="e_0_energy">    -36.85686771 </i>
   </energy>
  </scstep>
  <scstep>
   <time name="diag">   87.24   87.26</time>
   <time name="diis">  364.16  364.24</time>
   <time name="orth">    3.09    3.09</time>
   <time name="total">  490.87  491.60</time>
   <energy>
    <i name="e_fr_energy">    -36.85687369 </i>
    <i name="e_wo_entrp">    -36.85687368 </i>
    <i name="e_0_energy">    -36.85687369 </i>
   </energy>
  </scstep>
  <scstep>
   <time name="diag">   87.18   87.20</time>
   <time name="diis">  351.76  352.04</time>
   <time name="orth">    3.08    3.08</time>
   <time name="total">  478.43  478.79</time>
   <energy>
    <i name="e_fr_energy">    -36.85687476 </i>
    <i name="e_wo_entrp">    -36.85687475 </i>
    <i name="e_0_energy">    -36.85687476 </i>
   </energy>
  </scstep>
  <scstep>
   <time name="diag">   87.20   87.26</time>
   <time name="diis">  345.22  346.20</time>
   <time name="orth">    3.09    3.09</time>
   <time name="total">  471.93  473.65</time>
   <energy>
    <i name="e_fr_energy">    -36.85687548 </i>
    <i name="e_wo_entrp">    -36.85687547 </i>
    <i name="e_0_energy">    -36.85687548 </i>
   </energy>
  </scstep>
  <scstep>
   <time name="diag">   87.19   87.25</time>
   <time name="diis">  279.68  279.90</time>
   <time name="orth">    3.08    3.08</time>
   <time name="total">  406.37  406.80</time>
   <energy>
    <i name="e_fr_energy">    -36.85687553 </i>
    <i name="e_wo_entrp">    -36.85687552 </i>
    <i name="e_0_energy">    -36.85687552 </i>
   </energy>
  </scstep>
  <scstep>
   <time name="diag">   87.16   87.19</time>
   <time name="diis">  269.26  269.36</time>
   <time name="orth">    3.08    3.09</time>
   <time name="total">  395.90  396.17</time>
   <energy>
    <i name="e_fr_energy">    -36.85687554 </i>
    <i name="e_wo_entrp">    -36.85687553 </i>
    <i name="e_0_energy">    -36.85687554 </i>
   </energy>
  </scstep>
  <scstep>
   <time name="diag">   86.85   87.31</time>
   <time name="diis">  243.31  244.02</time>
   <time name="orth">    3.10    3.10</time>
   <time name="total">  369.67  370.94</time>
   <energy>
    <i name="e_fr_energy">    -36.85687554 </i>
    <i name="e_wo_entrp">    -36.85687553 </i>
    <i name="e_0_energy">    -36.85687554 </i>
   </energy>
  </scstep>
  <scstep>
   <time name="diag">   87.03   87.26</time>
   <time name="diis">  231.68  232.98</time>
   <time name="orth">    3.09    3.09</time>
   <time name="total">  324.38  326.00</time>
   <energy>
    <i name="alphaZ">      6.18334092 </i>
    <i name="ewald">   2448.52112519 </i>
    <i name="hartreedc">  -2942.80889260 </i>
    <i name="XCdc">     57.13883097 </i>
    <i name="pawpsdc">    268.76007278 </i>
    <i name="pawaedc">   -273.87129800 </i>
    <i name="eentropy">     -0.00000001 </i>
    <i name="bandstr">   -189.40358170 </i>
    <i name="atom">    588.62352690 </i>
    <i name="e_fr_energy">    -36.85687554 </i>
    <i name="e_wo_entrp">    -36.85687553 </i>
    <i name="e_0_energy">    -36.85687554 </i>
   </energy>
  </scstep>
  <structure>
   <crystal>
    <varray name="basis" >
     <v>       4.25496000       0.00000000       0.00000000 </v>
     <v>       0.00000000       2.52972506       0.00000000 </v>
     <v>       0.00000000       0.00000000      19.58753931 </v>
    </varray>
    <i name="volume">    210.83790140 </i>
    <varray name="rec_basis" >
     <v>       0.23501984       0.00000000       0.00000000 </v>
     <v>       0.00000000       0.39529988       0.00000000 </v>
     <v>       0.00000000       0.00000000       0.05105287 </v>
    </varray>
   </crystal>
   <varray name="positions" >
    <v>       0.00063729       0.00000000       0.00000000 </v>
    <v>       0.16602938       0.50000000       0.00000000 </v>
    <v>       0.50063729       0.50000000       0.00000000 </v>
    <v>       0.66602938       0.00000000       0.00000000 </v>
   </varray>
  </structure>
  <varray name="forces" >
   <v>       0.00256823       0.00000000       0.00000000 </v>
   <v>      -0.00256823       0.00000000      -0.00000000 </v>
   <v>       0.00256823      -0.00000000       0.00000000 </v>
   <v>      -0.00256823       0.00000000      -0.00000000 </v>
  </varray>
  <varray name="stress" >
   <v>       0.01704390       0.00000000       0.00000000 </v>
   <v>       0.00000000     -41.38070710       0.00000000 </v>
   <v>       0.00000000       0.00000000      -0.01010797 </v>
  </varray>
  <energy>
   <i name="e_fr_energy">    -36.85687554 </i>
   <i name="e_wo_entrp">    -36.85687554 </i>
   <i name="e_0_energy">     -0.00000001 </i>
  </energy>
  <time name="totalsc">10602.3210639.41</time>
 </calculation>
 <calculation>
  <scstep>
   <time name="dav">  330.99  333.80</time>
   <time name="total">  367.11  370.29</time>
   <energy>
    <i name="alphaZ">      6.18334092 </i>
    <i name="ewald">   2448.51847395 </i>
    <i name="hartreedc">  -2942.80774634 </i>
    <i name="XCdc">     57.13875546 </i>
    <i name="pawpsdc">    268.76008766 </i>
    <i name="pawaedc">   -273.87131315 </i>
    <i name="eentropy">     -0.00000001 </i>
    <i name="bandstr">   -189.40199898 </i>
    <i name="atom">    588.62352690 </i>
    <i name="e_fr_energy">    -36.85687359 </i>
    <i name="e_wo_entrp">    -36.85687358 </i>
    <i name="e_0_energy">    -36.85687358 </i>
   </energy>
  </scstep>
  <scstep>
   <time name="diag">   86.49   87.30</time>
   <time name="diis">  349.61  353.06</time>
   <time name="orth">    3.07    3.09</time>
   <time name="total">  475.34  479.97</time>
   <energy>
    <i name="e_fr_energy">    -36.85687372 </i>
    <i name="e_wo_entrp">    -36.85687370 </i>
    <i name="e_0_energy">    -36.85687371 </i>
   </energy>
  </scstep>
  <scstep>
   <time name="diag">   87.06   87.29</time>
   <time name="diis">  357.27  358.02</time>
   <time name="orth">    3.08    3.09</time>
   <time name="total">  483.70  485.06</time>
   <energy>
    <i name="e_fr_energy">    -36.85687362 </i>
    <i name="e_wo_entrp">    -36.85687360 </i>
    <i name="e_0_energy">    -36.85687361 </i>
   </energy>
  </scstep>
  <scstep>
   <time name="diag">   86.86   87.23</time>
   <time name="diis">  362.65  364.48</time>
   <time name="orth">    3.08    3.10</time>
   <time name="total">  488.76  491.34</time>
   <energy>
    <i name="e_fr_energy">    -36.85687361 </i>
    <i name="e_wo_entrp">    -36.85687360 </i>
    <i name="e_0_energy">    -36.85687360 </i>
   </energy>
  </scstep>
  <scstep>
   <time name="diag">   86.61   87.31</time>
   <time name="diis">  356.17  359.21</time>
   <time name="orth">    3.08    3.08</time>
   <time name="total">  481.96  486.20</time>
   <energy>
    <i name="e_fr_energy">    -36.85687361 </i>
    <i name="e_wo_entrp">    -36.85687359 </i>
    <i name="e_0_energy">    -36.85687360 </i>
   </energy>
  </scstep>
  <scstep>
   <time name="diag">   86.57   87.24</time>
   <time name="diis">  265.61  268.80</time>
   <time name="orth">    3.08    3.08</time>
   <time name="total">  391.26  395.60</time>
   <energy>
    <i name="e_fr_energy">    -36.85687361 </i>
    <i name="e_wo_entrp">    -36.85687360 </i>
    <i name="e_0_energy">    -36.85687360 </i>
   </energy>
  </scstep>
  <scstep>
   <time name="diag">   86.33   87.19</time>
   <time name="diis">  235.14  237.63</time>
   <time name="orth">    3.08    3.08</time>
   <time name="total">  327.17  330.56</time>
   <energy>
    <i name="alphaZ">      6.18334092 </i>
    <i name="ewald">   2448.51847395 </i>
    <i name="hartreedc">  -2942.80669314 </i>
    <i name="XCdc">     57.13871069 </i>
    <i name="pawpsdc">    268.75551824 </i>
    <i name="pawaedc">   -273.86672374 </i>
    <i name="eentropy">     -0.00000001 </i>
    <i name="bandstr">   -189.40302742 </i>
    <i name="atom">    588.62352690 </i>
    <i name="e_fr_energy">    -36.85687361 </i>
    <i name="e_wo_entrp">    -36.85687360 </i>
    <i name="e_0_energy">    -36.85687360 </i>
   </energy>
  </scstep>
  <structure>
   <crystal>
    <varray name="basis" >
     <v>       4.25496000       0.00000000       0.00000000 </v>
     <v>       0.00000000       2.52972506       0.00000000 </v>
     <v>       0.00000000       0.00000000      19.58753931 </v>
    </varray>
    <i name="volume">    210.83790140 </i>
    <varray name="rec_basis" >
     <v>       0.23501984       0.00000000       0.00000000 </v>
     <v>       0.00000000       0.39529988       0.00000000 </v>
     <v>       0.00000000       0.00000000       0.05105287 </v>
    </varray>
   </crystal>
   <varray name="positions" >
    <v>       0.00066641       0.00000000       0.00000000 </v>
    <v>       0.16600026       0.50000000      -0.00000000 </v>
    <v>       0.50066641       0.50000000       0.00000000 </v>
    <v>       0.66600026       0.00000000      -0.00000000 </v>
   </varray>
  </structure>
  <varray name="forces" >
   <v>      -0.01024456      -0.00000000       0.00000000 </v>
   <v>       0.01024456       0.00000000      -0.00000000 </v>
   <v>      -0.01024456      -0.00000000       0.00000000 </v>
   <v>       0.01024456       0.00000000      -0.00000000 </v>
  </varray>
  <varray name="stress" >
   <v>      -0.03405168       0.00000000       0.00000000 </v>
   <v>       0.00000000     -41.35024349       0.00000000 </v>
   <v>       0.00000000       0.00000000      -0.01016137 </v>
  </varray>
  <energy>
   <i name="e_fr_energy">    -36.85687361 </i>
   <i name="e_wo_entrp">    -36.85687360 </i>
   <i name="e_0_energy">     -0.00000001 </i>
  </energy>
  <time name="totalsc"> 3123.14 3147.95</time>
 </calculation>
 <calculation>
  <scstep>
   <time name="dav">  348.10  351.01</time>
   <time name="total">  384.10  387.50</time>
   <energy>
    <i name="alphaZ">      6.18334092 </i>
    <i name="ewald">   2448.52059206 </i>
    <i name="hartreedc">  -2942.80760648 </i>
    <i name="XCdc">     57.13877135 </i>
    <i name="pawpsdc">    268.75552864 </i>
    <i name="pawaedc">   -273.86673419 </i>
    <i name="eentropy">     -0.00000001 </i>
    <i name="bandstr">   -189.40429482 </i>
    <i name="atom">    588.62352690 </i>
    <i name="e_fr_energy">    -36.85687562 </i>
    <i name="e_wo_entrp">    -36.85687561 </i>
    <i name="e_0_energy">    -36.85687562 </i>
   </energy>
  </scstep>
  <scstep>
   <time name="diag">   86.85   87.26</time>
   <time name="diis">  350.40  353.64</time>
   <time name="orth">    3.07    3.10</time>
   <time name="total">  476.31  480.47</time>
   <energy>
    <i name="e_fr_energy">    -36.85687570 </i>
    <i name="e_wo_entrp">    -36.85687569 </i>
    <i name="e_0_energy">    -36.85687570 </i>
   </energy>
  </scstep>
  <scstep>
   <time name="diag">   86.51   87.26</time>
   <time name="diis">  355.77  359.47</time>
   <time name="orth">    3.08    3.08</time>
   <time name="total">  481.32  486.25</time>
   <energy>
    <i name="e_fr_energy">    -36.85687567 </i>
    <i name="e_wo_entrp">    -36.85687566 </i>
    <i name="e_0_energy">    -36.85687566 </i>
   </energy>
  </scstep>
  <scstep>
   <time name="diag">   87.10   87.24</time>
   <time name="diis">  362.97  363.86</time>
   <time name="orth">    3.08    3.08</time>
   <time name="total">  489.51  490.62</time>
   <energy>
    <i name="e_fr_energy">    -36.85687566 </i>
    <i name="e_wo_entrp">    -36.85687565 </i>
    <i name="e_0_energy">    -36.85687566 </i>
   </energy>
  </scstep>
  <scstep>
   <time name="diag">   86.93   87.23</time>
   <time name="diis">  338.51  339.85</time>
   <time name="orth">    3.08    3.10</time>
   <time name="total">  464.73  466.61</time>
   <energy>
    <i name="e_fr_energy">    -36.85687566 </i>
    <i name="e_wo_entrp">    -36.85687565 </i>
    <i name="e_0_energy">    -36.85687566 </i>
   </energy>
  </scstep>
  <scstep>
   <time name="diag">   86.58   87.28</time>
   <time name="diis">  243.55  246.41</time>
   <time name="orth">    3.08    3.08</time>
   <time name="total">  369.10  373.27</time>
   <energy>
    <i name="e_fr_energy">    -36.85687566 </i>
    <i name="e_wo_entrp">    -36.85687565 </i>
    <i name="e_0_energy">    -36.85687566 </i>
   </energy>
  </scstep>
  <scstep>
   <time name="diag">   86.56   87.15</time>
   <time name="diis">  235.13  237.97</time>
   <time name="orth">    3.08    3.08</time>
   <time name="total">  327.32  330.87</time>
   <energy>
    <i name="alphaZ">      6.18334092 </i>
    <i name="ewald">   2448.52059206 </i>
    <i name="hartreedc">  -2942.80841895 </i>
    <i name="XCdc">     57.13880744 </i>
    <i name="pawpsdc">    268.75919633 </i>
    <i name="pawaedc">   -273.87041810 </i>
    <i name="eentropy">     -0.00000001 </i>
    <i name="bandstr">   -189.40350226 </i>
    <i name="atom">    588.62352690 </i>
    <i name="e_fr_energy">    -36.85687566 </i>
    <i name="e_wo_entrp">    -36.85687565 </i>
    <i name="e_0_energy">    -36.85687566 </i>
   </energy>
  </scstep>
  <structure>
   <crystal>
    <varray name="basis" >
     <v>       4.25496000       0.00000000       0.00000000 </v>
     <v>       0.00000000       2.52972506       0.00000000 </v>
     <v>       0.00000000       0.00000000      19.58753931 </v>
    </varray>
    <i name="volume">    210.83790140 </i>
    <varray name="rec_basis" >
     <v>       0.23501984       0.00000000       0.00000000 </v>
     <v>       0.00000000       0.39529988       0.00000000 </v>
     <v>       0.00000000       0.00000000       0.05105287 </v>
    </varray>
   </crystal>
   <varray name="positions" >
    <v>       0.00064313      -0.00000000       0.00000000 </v>
    <v>       0.16602354       0.50000000      -0.00000000 </v>
    <v>       0.50064313       0.50000000       0.00000000 </v>
    <v>       0.66602354       0.00000000      -0.00000000 </v>
   </varray>
  </structure>
  <varray name="forces" >
   <v>      -0.00001103      -0.00000000       0.00000000 </v>
   <v>       0.00001103       0.00000000      -0.00000000 </v>
   <v>      -0.00001103       0.00000000       0.00000000 </v>
   <v>       0.00001103      -0.00000000      -0.00000000 </v>
  </varray>
  <varray name="stress" >
   <v>       0.00675182       0.00000000       0.00000000 </v>
   <v>       0.00000000     -41.37454349       0.00000000 </v>
   <v>       0.00000000       0.00000000      -0.01002946 </v>
  </varray>
  <energy>
   <i name="e_fr_energy">    -36.85687566 </i>
   <i name="e_wo_entrp">    -36.85687566 </i>
   <i name="e_0_energy">     -0.00000001 </i>
  </energy>
  <time name="totalsc"> 3100.61 3124.61</time>
 </calculation>
 <calculation>
  <scstep>
   <time name="dav">  296.46  297.63</time>
   <time name="total">  332.98  334.18</time>
   <energy>
    <i name="alphaZ">      6.18334092 </i>
    <i name="ewald">   2448.52059435 </i>
    <i name="hartreedc">  -2942.80842717 </i>
    <i name="XCdc">     57.13880755 </i>
    <i name="pawpsdc">    268.75918784 </i>
    <i name="pawaedc">   -273.87040958 </i>
    <i name="eentropy">     -0.00000001 </i>
    <i name="bandstr">   -189.40349647 </i>
    <i name="atom">    588.62352690 </i>
    <i name="e_fr_energy">    -36.85687566 </i>
    <i name="e_wo_entrp">    -36.85687565 </i>
    <i name="e_0_energy">    -36.85687566 </i>
   </energy>
  </scstep>
  <scstep>
   <time name="diag">   87.16   87.22</time>
   <time name="diis">  224.04  224.22</time>
   <time name="orth">    3.08    3.08</time>
   <time name="total">  350.78  351.04</time>
   <energy>
    <i name="e_fr_energy">    -36.85687566 </i>
    <i name="e_wo_entrp">    -36.85687565 </i>
    <i name="e_0_energy">    -36.85687566 </i>
   </energy>
  </scstep>
  <scstep>
   <time name="diag">   87.01   87.18</time>
   <time name="diis">  215.59  215.66</time>
   <time name="orth">    3.15    3.15</time>
   <time name="total">  342.26  342.55</time>
   <energy>
    <i name="e_fr_energy">    -36.85687566 </i>
    <i name="e_wo_entrp">    -36.85687565 </i>
    <i name="e_0_energy">    -36.85687566 </i>
   </energy>
  </scstep>
  <scstep>
   <time name="diag">   87.13   87.18</time>
   <time name="diis">  206.99  207.03</time>
   <time name="orth">    3.10    3.10</time>
   <time name="total">  333.70  333.80</time>
   <energy>
    <i name="e_fr_energy">    -36.85687566 </i>
    <i name="e_wo_entrp">    -36.85687565 </i>
    <i name="e_0_energy">    -36.85687566 </i>
   </energy>
  </scstep>
  <scstep>
   <time name="diag">   87.16   87.18</time>
   <time name="diis">  201.86  201.92</time>
   <time name="orth">    3.08    3.08</time>
   <time name="total">  294.73  294.83</time>
   <energy>
    <i name="alphaZ">      6.18334092 </i>
    <i name="ewald">   2448.52059435 </i>
    <i name="hartreedc">  -2942.80845166 </i>
    <i name="XCdc">     57.13880765 </i>
    <i name="pawpsdc">    268.75918643 </i>
    <i name="pawaedc">   -273.87040810 </i>
    <i name="eentropy">     -0.00000001 </i>
    <i name="bandstr">   -189.40347215 </i>
    <i name="atom">    588.62352690 </i>
    <i name="e_fr_energy">    -36.85687566 </i>
    <i name="e_wo_entrp">    -36.85687565 </i>
    <i name="e_0_energy">    -36.85687566 </i>
   </energy>
  </scstep>
  <structure>
   <crystal>
    <varray name="basis" >
     <v>       4.25496000       0.00000000       0.00000000 </v>
     <v>       0.00000000       2.52972506       0.00000000 </v>
     <v>       0.00000000       0.00000000      19.58753931 </v>
    </varray>
    <i name="volume">    210.83790140 </i>
    <varray name="rec_basis" >
     <v>       0.23501984       0.00000000       0.00000000 </v>
     <v>       0.00000000       0.39529988       0.00000000 </v>
     <v>       0.00000000       0.00000000       0.05105287 </v>
    </varray>
   </crystal>
   <varray name="positions" >
    <v>       0.00064310      -0.00000000       0.00000000 </v>
    <v>       0.16602357       0.50000000      -0.00000000 </v>
    <v>       0.50064310       0.50000000       0.00000000 </v>
    <v>       0.66602357      -0.00000000      -0.00000000 </v>
   </varray>
  </structure>
  <varray name="forces" >
   <v>       0.00001228       0.00000000       0.00000000 </v>
   <v>      -0.00001228       0.00000000      -0.00000000 </v>
   <v>       0.00001228      -0.00000000       0.00000000 </v>
   <v>      -0.00001228       0.00000000      -0.00000000 </v>
  </varray>
  <varray name="stress" >
   <v>       0.00685401       0.00000000       0.00000000 </v>
   <v>       0.00000000     -41.37463446       0.00000000 </v>
   <v>       0.00000000       0.00000000      -0.01006979 </v>
  </varray>
  <energy>
   <i name="e_fr_energy">    -36.85687566 </i>
   <i name="e_wo_entrp">    -36.85687566 </i>
   <i name="e_0_energy">     -0.00000001 </i>
  </energy>
  <time name="totalsc"> 1763.01 1765.10</time>
 </calculation>
 <calculation>
  <scstep>
   <time name="dav">  275.75  276.11</time>
   <time name="total">  312.26  312.65</time>
   <energy>
    <i name="alphaZ">      6.18334092 </i>
    <i name="ewald">   2448.52059315 </i>
    <i name="hartreedc">  -2942.80845826 </i>
    <i name="XCdc">     57.13880769 </i>
    <i name="pawpsdc">    268.75918646 </i>
    <i name="pawaedc">   -273.87040812 </i>
    <i name="eentropy">     -0.00000001 </i>
    <i name="bandstr">   -189.40346439 </i>
    <i name="atom">    588.62352690 </i>
    <i name="e_fr_energy">    -36.85687566 </i>
    <i name="e_wo_entrp">    -36.85687565 </i>
    <i name="e_0_energy">    -36.85687566 </i>
   </energy>
  </scstep>
  <scstep>
   <time name="diag">   87.16   87.22</time>
   <time name="diis">  174.56  174.69</time>
   <time name="orth">    3.10    3.10</time>
   <time name="total">  301.32  301.53</time>
   <energy>
    <i name="e_fr_energy">    -36.85687566 </i>
    <i name="e_wo_entrp">    -36.85687565 </i>
    <i name="e_0_energy">    -36.85687566 </i>
   </energy>
  </scstep>
  <scstep>
   <time name="diag">   87.15   87.21</time>
   <time name="diis">  171.42  171.53</time>
   <time name="orth">    3.10    3.10</time>
   <time name="total">  298.12  298.71</time>
   <energy>
    <i name="e_fr_energy">    -36.85687566 </i>
    <i name="e_wo_entrp">    -36.85687565 </i>
    <i name="e_0_energy">    -36.85687566 </i>
   </energy>
  </scstep>
  <scstep>
   <time name="diag">   87.21   87.26</time>
   <time name="diis">  169.90  170.68</time>
   <time name="orth">    3.08    3.08</time>
   <time name="total">  296.50  297.53</time>
   <energy>
    <i name="e_fr_energy">    -36.85687566 </i>
    <i name="e_wo_entrp">    -36.85687565 </i>
    <i name="e_0_energy">    -36.85687566 </i>
   </energy>
  </scstep>
  <scstep>
   <time name="diag">   87.16   87.23</time>
   <time name="diis">  169.45  169.64</time>
   <time name="orth">    3.08    3.10</time>
   <time name="total">  262.31  262.74</time>
   <energy>
    <i name="alphaZ">      6.18334092 </i>
    <i name="ewald">   2448.52059315 </i>
    <i name="hartreedc">  -2942.80845490 </i>
    <i name="XCdc">     57.13880757 </i>
    <i name="pawpsdc">    268.75918193 </i>
    <i name="pawaedc">   -273.87040357 </i>
    <i name="eentropy">     -0.00000001 </i>
    <i name="bandstr">   -189.40346765 </i>
    <i name="atom">    588.62352690 </i>
    <i name="e_fr_energy">    -36.85687566 </i>
    <i name="e_wo_entrp">    -36.85687565 </i>
    <i name="e_0_energy">    -36.85687566 </i>
   </energy>
  </scstep>
  <structure>
   <crystal>
    <varray name="basis" >
     <v>       4.25496000       0.00000000       0.00000000 </v>
     <v>       0.00000000       2.52972506       0.00000000 </v>
     <v>       0.00000000       0.00000000      19.58753931 </v>
    </varray>
    <i name="volume">    210.83790140 </i>
    <varray name="rec_basis" >
     <v>       0.23501984       0.00000000       0.00000000 </v>
     <v>       0.00000000       0.39529988       0.00000000 </v>
     <v>       0.00000000       0.00000000       0.05105287 </v>
    </varray>
   </crystal>
   <varray name="positions" >
    <v>       0.00064311      -0.00000000       0.00000000 </v>
    <v>       0.16602355       0.50000000      -0.00000000 </v>
    <v>       0.50064311       0.50000000       0.00000000 </v>
    <v>       0.66602355      -0.00000000      -0.00000000 </v>
   </varray>
  </structure>
  <varray name="forces" >
   <v>       0.00000192      -0.00000000      -0.00000000 </v>
   <v>      -0.00000192       0.00000000       0.00000000 </v>
   <v>       0.00000192       0.00000000      -0.00000000 </v>
   <v>      -0.00000192      -0.00000000       0.00000000 </v>
  </varray>
  <varray name="stress" >
   <v>       0.00681617       0.00000000       0.00000000 </v>
   <v>       0.00000000     -41.37459984       0.00000000 </v>
   <v>       0.00000000       0.00000000      -0.01009161 </v>
  </varray>
  <energy>
   <i name="e_fr_energy">    -36.85687566 </i>
   <i name="e_wo_entrp">    -36.85687566 </i>
   <i name="e_0_energy">     -0.00000001 </i>
  </energy>
  <time name="totalsc"> 1578.45 1581.93</time>
 </calculation>
 <calculation>
  <scstep>
   <time name="dav">  275.98  277.06</time>
   <time name="total">  312.51  313.62</time>
   <energy>
    <i name="alphaZ">      6.18334092 </i>
    <i name="ewald">   2448.52059292 </i>
    <i name="hartreedc">  -2942.80845470 </i>
    <i name="XCdc">     57.13880756 </i>
    <i name="pawpsdc">    268.75918191 </i>
    <i name="pawaedc">   -273.87040355 </i>
    <i name="eentropy">     -0.00000001 </i>
    <i name="bandstr">   -189.40346762 </i>
    <i name="atom">    588.62352690 </i>
    <i name="e_fr_energy">    -36.85687566 </i>
    <i name="e_wo_entrp">    -36.85687565 </i>
    <i name="e_0_energy">    -36.85687566 </i>
   </energy>
  </scstep>
  <scstep>
   <time name="diag">   87.28   87.31</time>
   <time name="diis">  161.13  161.22</time>
   <time name="orth">    3.08    3.10</time>
   <time name="total">  287.92  288.24</time>
   <energy>
    <i name="e_fr_energy">    -36.85687566 </i>
    <i name="e_wo_entrp">    -36.85687565 </i>
    <i name="e_0_energy">    -36.85687566 </i>
   </energy>
  </scstep>
  <scstep>
   <time name="diag">   86.84   87.31</time>
   <time name="diis">  164.50  164.60</time>
   <time name="orth">    3.08    3.08</time>
   <time name="total">  290.87  291.49</time>
   <energy>
    <i name="e_fr_energy">    -36.85687566 </i>
    <i name="e_wo_entrp">    -36.85687565 </i>
    <i name="e_0_energy">    -36.85687566 </i>
   </energy>
  </scstep>
  <scstep>
   <time name="diag">   87.03   87.25</time>
   <time name="diis">  156.92  157.62</time>
   <time name="orth">    3.08    3.08</time>
   <time name="total">  283.44  284.55</time>
   <energy>
    <i name="e_fr_energy">    -36.85687566 </i>
    <i name="e_wo_entrp">    -36.85687565 </i>
    <i name="e_0_energy">    -36.85687566 </i>
   </energy>
  </scstep>
  <scstep>
   <time name="diag">   87.18   87.24</time>
   <time name="diis">  155.92  155.96</time>
   <time name="orth">    3.10    3.10</time>
   <time name="total">  248.86  248.99</time>
   <energy>
    <i name="alphaZ">      6.18334092 </i>
    <i name="ewald">   2448.52059292 </i>
    <i name="hartreedc">  -2942.80845520 </i>
    <i name="XCdc">     57.13880758 </i>
    <i name="pawpsdc">    268.75918181 </i>
    <i name="pawaedc">   -273.87040345 </i>
    <i name="eentropy">     -0.00000001 </i>
    <i name="bandstr">   -189.40346714 </i>
    <i name="atom">    588.62352690 </i>
    <i name="e_fr_energy">    -36.85687566 </i>
    <i name="e_wo_entrp">    -36.85687565 </i>
    <i name="e_0_energy">    -36.85687566 </i>
   </energy>
  </scstep>
  <structure>
   <crystal>
    <varray name="basis" >
     <v>       4.25496000       0.00000000       0.00000000 </v>
     <v>       0.00000000       2.52972506       0.00000000 </v>
     <v>       0.00000000       0.00000000      19.58753931 </v>
    </varray>
    <i name="volume">    210.83790140 </i>
    <varray name="rec_basis" >
     <v>       0.23501984       0.00000000       0.00000000 </v>
     <v>       0.00000000       0.39529988       0.00000000 </v>
     <v>       0.00000000       0.00000000       0.05105287 </v>
    </varray>
   </crystal>
   <varray name="positions" >
    <v>       0.00064312      -0.00000000       0.00000000 </v>
    <v>       0.16602355       0.50000000      -0.00000000 </v>
    <v>       0.50064312       0.50000000       0.00000000 </v>
    <v>       0.66602355      -0.00000000      -0.00000000 </v>
   </varray>
  </structure>
  <varray name="forces" >
   <v>       0.00000112       0.00000000       0.00000000 </v>
   <v>      -0.00000112       0.00000000      -0.00000000 </v>
   <v>       0.00000112      -0.00000000       0.00000000 </v>
   <v>      -0.00000112      -0.00000000      -0.00000000 </v>
  </varray>
  <varray name="stress" >
   <v>       0.00681158       0.00000000       0.00000000 </v>
   <v>       0.00000000     -41.37460090       0.00000000 </v>
   <v>       0.00000000       0.00000000      -0.01008445 </v>
  </varray>
  <energy>
   <i name="e_fr_energy">    -36.85687566 </i>
   <i name="e_wo_entrp">    -36.85687566 </i>
   <i name="e_0_energy">     -0.00000001 </i>
  </energy>
  <time name="totalsc"> 1532.90 1536.29</time>
 </calculation>
 <calculation>
  <scstep>
   <time name="dav">  277.97  278.13</time>
   <time name="total">  314.47  314.68</time>
   <energy>
    <i name="alphaZ">      6.18334092 </i>
    <i name="ewald">   2448.52059261 </i>
    <i name="hartreedc">  -2942.80845508 </i>
    <i name="XCdc">     57.13880757 </i>
    <i name="pawpsdc">    268.75918181 </i>
    <i name="pawaedc">   -273.87040345 </i>
    <i name="eentropy">     -0.00000001 </i>
    <i name="bandstr">   -189.40346694 </i>
    <i name="atom">    588.62352690 </i>
    <i name="e_fr_energy">    -36.85687566 </i>
    <i name="e_wo_entrp">    -36.85687565 </i>
    <i name="e_0_energy">    -36.85687566 </i>
   </energy>
  </scstep>
  <scstep>
   <time name="diag">   87.14   87.18</time>
   <time name="diis">  132.33  132.36</time>
   <time name="orth">    3.10    3.10</time>
   <time name="total">  259.09  259.19</time>
   <energy>
    <i name="e_fr_energy">    -36.85687566 </i>
    <i name="e_wo_entrp">    -36.85687565 </i>
    <i name="e_0_energy">    -36.85687566 </i>
   </energy>
  </scstep>
  <scstep>
   <time name="diag">   87.22   87.28</time>
   <time name="diis">  125.37  125.39</time>
   <time name="orth">    3.09    3.09</time>
   <time name="total">  252.14  252.47</time>
   <energy>
    <i name="e_fr_energy">    -36.85687566 </i>
    <i name="e_wo_entrp">    -36.85687565 </i>
    <i name="e_0_energy">    -36.85687566 </i>
   </energy>
  </scstep>
  <scstep>
   <time name="diag">   87.18   87.21</time>
   <time name="diis">  125.76  125.87</time>
   <time name="orth">    3.09    3.10</time>
   <time name="total">  252.56  252.71</time>
   <energy>
    <i name="e_fr_energy">    -36.85687566 </i>
    <i name="e_wo_entrp">    -36.85687565 </i>
    <i name="e_0_energy">    -36.85687566 </i>
   </energy>
  </scstep>
  <scstep>
   <time name="diag">   87.16   87.19</time>
   <time name="diis">  127.06  127.10</time>
   <time name="orth">    3.08    3.08</time>
   <time name="total">  219.95  220.05</time>
   <energy>
    <i name="alphaZ">      6.18334092 </i>
    <i name="ewald">   2448.52059261 </i>
    <i name="hartreedc">  -2942.80845436 </i>
    <i name="XCdc">     57.13880754 </i>
    <i name="pawpsdc">    268.75918090 </i>
    <i name="pawaedc">   -273.87040253 </i>
    <i name="eentropy">     -0.00000001 </i>
    <i name="bandstr">   -189.40346764 </i>
    <i name="atom">    588.62352690 </i>
    <i name="e_fr_energy">    -36.85687566 </i>
    <i name="e_wo_entrp">    -36.85687565 </i>
    <i name="e_0_energy">    -36.85687566 </i>
   </energy>
  </scstep>
  <structure>
   <crystal>
    <varray name="basis" >
     <v>       4.25496000       0.00000000       0.00000000 </v>
     <v>       0.00000000       2.52972506       0.00000000 </v>
     <v>       0.00000000       0.00000000      19.58753931 </v>
    </varray>
    <i name="volume">    210.83790140 </i>
    <varray name="rec_basis" >
     <v>       0.23501984       0.00000000       0.00000000 </v>
     <v>       0.00000000       0.39529988       0.00000000 </v>
     <v>       0.00000000       0.00000000       0.05105287 </v>
    </varray>
   </crystal>
   <varray name="positions" >
    <v>       0.00064312      -0.00000000       0.00000000 </v>
    <v>       0.16602355       0.50000000      -0.00000000 </v>
    <v>       0.50064312       0.50000000       0.00000000 </v>
    <v>       0.66602355      -0.00000000      -0.00000000 </v>
   </varray>
  </structure>
  <varray name="forces" >
   <v>      -0.00000006       0.00000000       0.00000000 </v>
   <v>       0.00000006       0.00000000       0.00000000 </v>
   <v>      -0.00000006      -0.00000000       0.00000000 </v>
   <v>       0.00000006      -0.00000000       0.00000000 </v>
  </varray>
  <varray name="stress" >
   <v>       0.00680905       0.00000000       0.00000000 </v>
   <v>       0.00000000     -41.37459857       0.00000000 </v>
   <v>       0.00000000       0.00000000      -0.01009031 </v>
  </varray>
  <energy>
   <i name="e_fr_energy">    -36.85687566 </i>
   <i name="e_wo_entrp">    -36.85687566 </i>
   <i name="e_0_energy">     -0.00000001 </i>
  </energy>
  <time name="totalsc"> 1401.99 1403.01</time>
  <eigenvalues>
   <array>
    <dimension dim="1">band</dimension>
    <dimension dim="2">kpoint</dimension>
    <dimension dim="3">spin</dimension>
    <field>eigene</field>
    <field>occ</field>
    <set>
     <set comment="spin 1">
      <set comment="kpoint 1">
       <r>  -22.0796    1.0000 </r>
       <r>  -16.7010    1.0000 </r>
       <r>  -15.8635    1.0000 </r>
       <r>  -10.2246    1.0000 </r>
       <r>   -9.4773    1.0000 </r>
       <r>   -5.9931    1.0000 </r>
       <r>   -5.7420    1.0000 </r>
       <r>   -4.9025    1.0000 </r>
       <r>   -1.1439    0.0000 </r>
       <r>    0.5449    0.0000 </r>
       <r>    1.3430    0.0000 </r>
       <r>    1.7365    0.0000 </r>
      </set>
      <set comment="kpoint 2">
       <r>  -22.0692    1.0000 </r>
       <r>  -16.8977    1.0000 </r>
       <r>  -15.6518    1.0000 </r>
       <r>  -10.2122    1.0000 </r>
       <r>   -9.4669    1.0000 </r>
       <r>   -6.0168    1.0000 </r>
       <r>   -5.7821    1.0000 </r>
       <r>   -4.9727    1.0000 </r>
       <r>   -1.0589    0.0000 </r>
       <r>    0.5590    0.0000 </r>
       <r>    1.3572    0.0000 </r>
       <r>    1.7509    0.0000 </r>
      </set>
      <set comment="kpoint 3">
       <r>  -22.0381    1.0000 </r>
       <r>  -17.2646    1.0000 </r>
       <r>  -15.2399    1.0000 </r>
       <r>  -10.1753    1.0000 </r>
       <r>   -9.4357    1.0000 </r>
       <r>   -6.0867    1.0000 </r>
       <r>   -5.9011    1.0000 </r>
       <r>   -5.1661    1.0000 </r>
       <r>   -0.8213    0.0000 </r>
       <r>    0.6011    0.0000 </r>
       <r>    1.3998    0.0000 </r>
       <r>    1.7940    0.0000 </r>
      </set>
      <set comment="kpoint 4">
       <r>  -21.9862    1.0000 </r>
       <r>  -17.6577    1.0000 </r>
       <r>  -14.7723    1.0000 </r>
       <r>  -10.1139    1.0000 </r>
       <r>   -9.3839    1.0000 </r>
       <r>   -6.1988    1.0000 </r>
       <r>   -6.0949    1.0000 </r>
       <r>   -5.4455    1.0000 </r>
       <r>   -0.4689    0.0000 </r>
       <r>    0.6714    0.0000 </r>
       <r>    1.4708    0.0000 </r>
       <r>    1.8659    0.0000 </r>
      </set>
      <set comment="kpoint 5">
       <r>  -21.9137    1.0000 </r>
       <r>  -18.0475    1.0000 </r>
       <r>  -14.2787    1.0000 </r>
       <r>  -10.0280    1.0000 </r>
       <r>   -9.3117    1.0000 </r>
       <r>   -6.3570    1.0000 </r>
       <r>   -6.3475    1.0000 </r>
       <r>   -5.7756    1.0000 </r>
       <r>   -0.0378    0.0000 </r>
       <r>    0.7698    0.0000 </r>
       <r>    1.5701    0.0000 </r>
       <r>    1.9665    0.0000 </r>
      </set>
      <set comment="kpoint 6">
       <r>  -21.8205    1.0000 </r>
       <r>  -18.4257    1.0000 </r>
       <r>  -13.7683    1.0000 </r>
       <r>   -9.9177    1.0000 </r>
       <r>   -9.2195    1.0000 </r>
       <r>   -6.6800    1.0000 </r>
       <r>   -6.5259    1.0000 </r>
       <r>   -6.1311    1.0000 </r>
       <r>    0.4455    0.0000 </r>
       <r>    0.8962    0.0000 </r>
       <r>    1.6978    0.0000 </r>
       <r>    2.0959    0.0000 </r>
      </set>
      <set comment="kpoint 7">
       <r>  -21.7068    1.0000 </r>
       <r>  -18.7891    1.0000 </r>
       <r>  -13.2451    1.0000 </r>
       <r>   -9.7834    1.0000 </r>
       <r>   -9.1077    1.0000 </r>
       <r>   -7.0556    1.0000 </r>
       <r>   -6.7270    1.0000 </r>
       <r>   -6.4959    1.0000 </r>
       <r>    0.9630    0.0000 </r>
       <r>    1.0507    0.0000 </r>
       <r>    1.8537    0.0000 </r>
       <r>    2.2541    0.0000 </r>
      </set>
      <set comment="kpoint 8">
       <r>  -21.5726    1.0000 </r>
       <r>  -19.1361    1.0000 </r>
       <r>  -12.7120    1.0000 </r>
       <r>   -9.6252    1.0000 </r>
       <r>   -8.9772    1.0000 </r>
       <r>   -7.4753    1.0000 </r>
       <r>   -6.9440    1.0000 </r>
       <r>   -6.8595    1.0000 </r>
       <r>    1.2333    0.0000 </r>
       <r>    1.5025    0.0000 </r>
       <r>    2.0379    0.0000 </r>
       <r>    2.4410    0.0000 </r>
      </set>
      <set comment="kpoint 9">
       <r>  -21.4179    1.0000 </r>
       <r>  -19.4656    1.0000 </r>
       <r>  -12.1714    1.0000 </r>
       <r>   -9.4434    1.0000 </r>
       <r>   -8.8285    1.0000 </r>
       <r>   -7.9315    1.0000 </r>
       <r>   -7.2154    1.0000 </r>
       <r>   -7.1707    1.0000 </r>
       <r>    1.4438    0.0000 </r>
       <r>    2.0547    0.0000 </r>
       <r>    2.2502    0.0000 </r>
       <r>    2.6566    0.0000 </r>
      </set>
      <set comment="kpoint 10">
       <r>  -21.2430    1.0000 </r>
       <r>  -19.7770    1.0000 </r>
       <r>  -11.6257    1.0000 </r>
       <r>   -9.2384    1.0000 </r>
       <r>   -8.6628    1.0000 </r>
       <r>   -8.4167    1.0000 </r>
       <r>   -7.5591    1.0000 </r>
       <r>   -7.4016    1.0000 </r>
       <r>    1.6822    0.0000 </r>
       <r>    2.4905    0.0000 </r>
       <r>    2.6117    0.0000 </r>
       <r>    2.9010    0.0000 </r>
      </set>
      <set comment="kpoint 11">
[...]
       <r>   -9.0063    1.0000 </r>
       <r>   -5.6642    1.0000 </r>
       <r>   -5.6642    1.0000 </r>
       <r>   -0.5735    0.0000 </r>
       <r>   -0.5735    0.0000 </r>
       <r>    4.8098    0.0000 </r>
       <r>    4.8098    0.0000 </r>
      </set>
      <set comment="kpoint 209">
       <r>  -18.8385    1.0000 </r>
       <r>  -17.1519    1.0000 </r>
       <r>  -13.8578    1.0000 </r>
       <r>  -12.3108    1.0000 </r>
       <r>  -12.3025    1.0000 </r>
       <r>  -10.8486    1.0000 </r>
       <r>   -6.4987    1.0000 </r>
       <r>   -4.6998    1.0000 </r>
       <r>   -0.9965    0.0000 </r>
       <r>    1.0565    0.0000 </r>
       <r>    5.0308    0.0000 </r>
       <r>    5.8200    0.0000 </r>
      </set>
      <set comment="kpoint 210">
       <r>  -18.8287    1.0000 </r>
       <r>  -17.1445    1.0000 </r>
       <r>  -13.9504    1.0000 </r>
       <r>  -12.3901    1.0000 </r>
       <r>  -12.2097    1.0000 </r>
       <r>  -10.7625    1.0000 </r>
       <r>   -6.4899    1.0000 </r>
       <r>   -4.7018    1.0000 </r>
       <r>   -1.0077    0.0000 </r>
       <r>    1.0305    0.0000 </r>
       <r>    5.0445    0.0000 </r>
       <r>    5.8362    0.0000 </r>
      </set>
      <set comment="kpoint 211">
       <r>  -18.7995    1.0000 </r>
       <r>  -17.1226    1.0000 </r>
       <r>  -14.1762    1.0000 </r>
       <r>  -12.6074    1.0000 </r>
       <r>  -11.9584    1.0000 </r>
       <r>  -10.5505    1.0000 </r>
       <r>   -6.4635    1.0000 </r>
       <r>   -4.7084    1.0000 </r>
       <r>   -1.0395    0.0000 </r>
       <r>    0.9545    0.0000 </r>
       <r>    5.0857    0.0000 </r>
       <r>    5.8845    0.0000 </r>
      </set>
      <set comment="kpoint 212">
       <r>  -18.7509    1.0000 </r>
       <r>  -17.0875    1.0000 </r>
       <r>  -14.4595    1.0000 </r>
       <r>  -12.8871    1.0000 </r>
       <r>  -11.6327    1.0000 </r>
       <r>  -10.2818    1.0000 </r>
       <r>   -6.4199    1.0000 </r>
       <r>   -4.7211    1.0000 </r>
       <r>   -1.0864    0.0000 </r>
       <r>    0.8339    0.0000 </r>
       <r>    5.1539    0.0000 </r>
       <r>    5.9638    0.0000 </r>
      </set>
      <set comment="kpoint 213">
       <r>  -18.6831    1.0000 </r>
       <r>  -17.0420    1.0000 </r>
       <r>  -14.7573    1.0000 </r>
       <r>  -13.1913    1.0000 </r>
       <r>  -11.2754    1.0000 </r>
       <r>   -9.9978    1.0000 </r>
       <r>   -6.3596    1.0000 </r>
       <r>   -4.7423    1.0000 </r>
       <r>   -1.1404    0.0000 </r>
       <r>    0.6768    0.0000 </r>
       <r>    5.2485    0.0000 </r>
       <r>    6.0727    0.0000 </r>
      </set>
      <set comment="kpoint 214">
       <r>  -18.5963    1.0000 </r>
       <r>  -16.9912    1.0000 </r>
       <r>  -15.0460    1.0000 </r>
       <r>  -13.5020    1.0000 </r>
       <r>  -10.9082    1.0000 </r>
       <r>   -9.7213    1.0000 </r>
       <r>   -6.2835    1.0000 </r>
       <r>   -4.7749    1.0000 </r>
       <r>   -1.1920    0.0000 </r>
       <r>    0.4922    0.0000 </r>
       <r>    5.3660    0.0000 </r>
       <r>    6.1833    0.0000 </r>
      </set>
      <set comment="kpoint 215">
       <r>  -18.4910    1.0000 </r>
       <r>  -16.9444    1.0000 </r>
       <r>  -15.3075    1.0000 </r>
       <r>  -13.8099    1.0000 </r>
       <r>  -10.5445    1.0000 </r>
       <r>   -9.4675    1.0000 </r>
       <r>   -6.1924    1.0000 </r>
       <r>   -4.8218    1.0000 </r>
       <r>   -1.2316    0.0000 </r>
       <r>    0.2891    0.0000 </r>
       <r>    5.4774    0.0000 </r>
       <r>    5.7769    0.0000 </r>
      </set>
      <set comment="kpoint 216">
       <r>  -18.3677    1.0000 </r>
       <r>  -16.9182    1.0000 </r>
       <r>  -15.5204    1.0000 </r>
       <r>  -14.1093    1.0000 </r>
       <r>  -10.1947    1.0000 </r>
       <r>   -9.2485    1.0000 </r>
       <r>   -6.0879    1.0000 </r>
       <r>   -4.8853    1.0000 </r>
       <r>   -1.2505    0.0000 </r>
       <r>    0.0763    0.0000 </r>
       <r>    5.2986    0.0000 </r>
       <r>    5.7513    0.0000 </r>
      </set>
      <set comment="kpoint 217">
       <r>  -18.2272    1.0000 </r>
       <r>  -16.9369    1.0000 </r>
       <r>  -15.6575    1.0000 </r>
       <r>  -14.3965    1.0000 </r>
       <r>   -9.8686    1.0000 </r>
       <r>   -9.0750    1.0000 </r>
       <r>   -5.9715    1.0000 </r>
       <r>   -4.9666    1.0000 </r>
       <r>   -1.2421    0.0000 </r>
       <r>   -0.1385    0.0000 </r>
       <r>    5.0075    0.0000 </r>
       <r>    5.8258    0.0000 </r>
      </set>
      <set comment="kpoint 218">
       <r>  -18.0706    1.0000 </r>
       <r>  -17.0195    1.0000 </r>
       <r>  -15.6982    1.0000 </r>
       <r>  -14.6682    1.0000 </r>
       <r>   -9.5754    1.0000 </r>
       <r>   -8.9562    1.0000 </r>
       <r>   -5.8455    1.0000 </r>
       <r>   -5.0651    1.0000 </r>
       <r>   -1.2022    0.0000 </r>
       <r>   -0.3485    0.0000 </r>
       <r>    4.7880    0.0000 </r>
       <r>    5.4260    0.0000 </r>
      </set>
      <set comment="kpoint 219">
       <r>  -17.8995    1.0000 </r>
       <r>  -17.1605    1.0000 </r>
       <r>  -15.6467    1.0000 </r>
       <r>  -14.9214    1.0000 </r>
       <r>   -9.3245    1.0000 </r>
       <r>   -8.8992    1.0000 </r>
       <r>   -5.7125    1.0000 </r>
       <r>   -5.1789    1.0000 </r>
       <r>   -1.1294    0.0000 </r>
       <r>   -0.5473    0.0000 </r>
       <r>    4.6583    0.0000 </r>
       <r>    5.0968    0.0000 </r>
      </set>
      <set comment="kpoint 220">
       <r>  -17.7167    1.0000 </r>
       <r>  -17.3367    1.0000 </r>
       <r>  -15.5258    1.0000 </r>
       <r>  -15.1525    1.0000 </r>
       <r>   -9.1250    1.0000 </r>
       <r>   -8.9083    1.0000 </r>
       <r>   -5.5756    1.0000 </r>
       <r>   -5.3047    1.0000 </r>
       <r>   -1.0246    0.0000 </r>
       <r>   -0.7295    0.0000 </r>
       <r>    4.6248    0.0000 </r>
       <r>    4.8483    0.0000 </r>
      </set>
      <set comment="kpoint 221">
       <r>  -17.5266    1.0000 </r>
       <r>  -17.5266    1.0000 </r>
       <r>  -15.3566    1.0000 </r>
       <r>  -15.3566    1.0000 </r>
       <r>   -8.9844    1.0000 </r>
       <r>   -8.9844    1.0000 </r>
       <r>   -5.4383    1.0000 </r>
       <r>   -5.4383    1.0000 </r>
       <r>   -0.8900    0.0000 </r>
       <r>   -0.8900    0.0000 </r>
       <r>    4.6890    0.0000 </r>
       <r>    4.6890    0.0000 </r>
      </set>
      <set comment="kpoint 222">
       <r>  -18.4390    1.0000 </r>
       <r>  -17.5920    1.0000 </r>
       <r>  -13.4976    1.0000 </r>
       <r>  -12.7192    1.0000 </r>
       <r>  -11.9797    1.0000 </r>
       <r>  -11.2441    1.0000 </r>
       <r>   -6.0621    1.0000 </r>
       <r>   -5.1579    1.0000 </r>
       <r>   -0.5150    0.0000 </r>
       <r>    0.5134    0.0000 </r>
       <r>    5.5993    0.0000 </r>
       <r>    6.3573    0.0000 </r>
      </set>
      <set comment="kpoint 223">
       <r>  -18.4295    1.0000 </r>
       <r>  -17.5834    1.0000 </r>
       <r>  -13.5910    1.0000 </r>
       <r>  -12.8095    1.0000 </r>
       <r>  -11.8807    1.0000 </r>
       <r>  -11.1528    1.0000 </r>
       <r>   -6.0545    1.0000 </r>
       <r>   -5.1552    1.0000 </r>
       <r>   -0.5323    0.0000 </r>
       <r>    0.4894    0.0000 </r>
       <r>    5.6130    0.0000 </r>
       <r>    6.3743    0.0000 </r>
      </set>
      <set comment="kpoint 224">
       <r>  -18.4009    1.0000 </r>
       <r>  -17.5577    1.0000 </r>
       <r>  -13.8191    1.0000 </r>
       <r>  -13.0321    1.0000 </r>
       <r>  -11.6356    1.0000 </r>
       <r>  -10.9279    1.0000 </r>
       <r>   -6.0321    1.0000 </r>
       <r>   -5.1474    1.0000 </r>
       <r>   -0.5821    0.0000 </r>
       <r>    0.4193    0.0000 </r>
       <r>    5.6539    0.0000 </r>
       <r>    6.4250    0.0000 </r>
      </set>
      <set comment="kpoint 225">
       <r>  -18.3534    1.0000 </r>
       <r>  -17.5156    1.0000 </r>
       <r>  -14.1076    1.0000 </r>
       <r>  -13.3167    1.0000 </r>
       <r>  -11.3201    1.0000 </r>
       <r>  -10.6413    1.0000 </r>
       <r>   -5.9951    1.0000 </r>
       <r>   -5.1356    1.0000 </r>
       <r>   -0.6592    0.0000 </r>
       <r>    0.3086    0.0000 </r>
       <r>    5.7216    0.0000 </r>
       <r>    6.5077    0.0000 </r>
      </set>
      <set comment="kpoint 226">
       <r>  -18.2874    1.0000 </r>
       <r>  -17.4581    1.0000 </r>
       <r>  -14.4152    1.0000 </r>
       <r>  -13.6246    1.0000 </r>
       <r>  -10.9769    1.0000 </r>
       <r>  -10.3350    1.0000 </r>
       <r>   -5.9446    1.0000 </r>
       <r>   -5.1217    1.0000 </r>
       <r>   -0.7555    0.0000 </r>
       <r>    0.1651    0.0000 </r>
       <r>    5.8146    0.0000 </r>
       <r>    6.6206    0.0000 </r>
      </set>
      <set comment="kpoint 227">
       <r>  -18.2031    1.0000 </r>
       <r>  -17.3870    1.0000 </r>
       <r>  -14.7221    1.0000 </r>
       <r>  -13.9375    1.0000 </r>
       <r>  -10.6278    1.0000 </r>
       <r>  -10.0314    1.0000 </r>
       <r>   -5.8816    1.0000 </r>
       <r>   -5.1083    1.0000 </r>
       <r>   -0.8611    0.0000 </r>
       <r>   -0.0020    0.0000 </r>
       <r>    5.9240    0.0000 </r>
       <r>    6.4524    0.0000 </r>
      </set>
      <set comment="kpoint 228">
       <r>  -18.1014    1.0000 </r>
       <r>  -17.3056    1.0000 </r>
       <r>  -15.0162    1.0000 </r>
       <r>  -14.2457    1.0000 </r>
       <r>  -10.2867    1.0000 </r>
       <r>   -9.7452    1.0000 </r>
       <r>   -5.8076    1.0000 </r>
       <r>   -5.0984    1.0000 </r>
       <r>   -0.9658    0.0000 </r>
       <r>   -0.1832    0.0000 </r>
       <r>    5.8806    0.0000 </r>
       <r>    6.1673    0.0000 </r>
      </set>
      <set comment="kpoint 229">
       <r>  -17.9831    1.0000 </r>
       <r>  -17.2197    1.0000 </r>
       <r>  -15.2870    1.0000 </r>
       <r>  -14.5434    1.0000 </r>
       <r>   -9.9644    1.0000 </r>
       <r>   -9.4884    1.0000 </r>
       <r>   -5.7248    1.0000 </r>
       <r>   -5.0957    1.0000 </r>
       <r>   -1.0592    0.0000 </r>
       <r>   -0.3694    0.0000 </r>
       <r>    5.5017    0.0000 </r>
       <r>    5.9926    0.0000 </r>
      </set>
      <set comment="kpoint 230">
       <r>  -17.8498    1.0000 </r>
       <r>  -17.1396    1.0000 </r>
       <r>  -15.5212    1.0000 </r>
       <r>  -14.8260    1.0000 </r>
       <r>   -9.6710    1.0000 </r>
       <r>   -9.2715    1.0000 </r>
       <r>   -5.6357    1.0000 </r>
       <r>   -5.1037    1.0000 </r>
       <r>   -1.1321    0.0000 </r>
       <r>   -0.5520    0.0000 </r>
       <r>    5.1548    0.0000 </r>
       <r>    5.5653    0.0000 </r>
      </set>
      <set comment="kpoint 231">
       <r>  -17.7039    1.0000 </r>
       <r>  -17.0835    1.0000 </r>
       <r>  -15.6990    1.0000 </r>
       <r>  -15.0894    1.0000 </r>
       <r>   -9.4162    1.0000 </r>
       <r>   -9.1042    1.0000 </r>
       <r>   -5.5433    1.0000 </r>
       <r>   -5.1254    1.0000 </r>
       <r>   -1.1768    0.0000 </r>
       <r>   -0.7231    0.0000 </r>
       <r>    4.8830    0.0000 </r>
       <r>    5.2037    0.0000 </r>
      </set>
      <set comment="kpoint 232">
       <r>  -17.5494    1.0000 </r>
       <r>  -17.0761    1.0000 </r>
       <r>  -15.7943    1.0000 </r>
       <r>  -15.3281    1.0000 </r>
       <r>   -9.2093    1.0000 </r>
       <r>   -8.9948    1.0000 </r>
       <r>   -5.4513    1.0000 </r>
       <r>   -5.1627    1.0000 </r>
       <r>   -1.1878    0.0000 </r>
       <r>   -0.8756    0.0000 </r>
       <r>    4.6983    0.0000 </r>
       <r>    4.9189    0.0000 </r>
      </set>
      <set comment="kpoint 233">
       <r>  -17.3933    1.0000 </r>
       <r>  -17.1342    1.0000 </r>
       <r>  -15.7901    1.0000 </r>
       <r>  -15.5343    1.0000 </r>
       <r>   -9.0586    1.0000 </r>
       <r>   -8.9493    1.0000 </r>
       <r>   -5.3634    1.0000 </r>
       <r>   -5.2159    1.0000 </r>
       <r>   -1.1622    0.0000 </r>
       <r>   -1.0030    0.0000 </r>
       <r>    4.6080    0.0000 </r>
       <r>    4.7205    0.0000 </r>
      </set>
      <set comment="kpoint 234">
       <r>  -17.2481    1.0000 </r>
       <r>  -17.2481    1.0000 </r>
       <r>  -15.6952    1.0000 </r>
       <r>  -15.6952    1.0000 </r>
       <r>   -8.9707    1.0000 </r>
       <r>   -8.9707    1.0000 </r>
       <r>   -5.2837    1.0000 </r>
       <r>   -5.2837    1.0000 </r>
       <r>   -1.0999    0.0000 </r>
       <r>   -1.0999    0.0000 </r>
       <r>    4.6155    0.0000 </r>
       <r>    4.6155    0.0000 </r>
      </set>
      <set comment="kpoint 235">
       <r>  -18.0225    1.0000 </r>
       <r>  -18.0225    1.0000 </r>
       <r>  -13.1179    1.0000 </r>
       <r>  -13.1179    1.0000 </r>
       <r>  -11.6225    1.0000 </r>
       <r>  -11.6225    1.0000 </r>
       <r>   -5.6137    1.0000 </r>
       <r>   -5.6137    1.0000 </r>
       <r>   -0.0111    0.0000 </r>
       <r>   -0.0111    0.0000 </r>
       <r>    6.1966    0.0000 </r>
       <r>    6.1966    0.0000 </r>
      </set>
      <set comment="kpoint 236">
       <r>  -18.0133    1.0000 </r>
       <r>  -18.0133    1.0000 </r>
       <r>  -13.2102    1.0000 </r>
       <r>  -13.2102    1.0000 </r>
       <r>  -11.5268    1.0000 </r>
       <r>  -11.5268    1.0000 </r>
       <r>   -5.6081    1.0000 </r>
       <r>   -5.6081    1.0000 </r>
       <r>   -0.0323    0.0000 </r>
       <r>   -0.0323    0.0000 </r>
       <r>    6.2101    0.0000 </r>
       <r>    6.2101    0.0000 </r>
      </set>
      <set comment="kpoint 237">
       <r>  -17.9858    1.0000 </r>
       <r>  -17.9858    1.0000 </r>
       <r>  -13.4367    1.0000 </r>
       <r>  -13.4367    1.0000 </r>
       <r>  -11.2908    1.0000 </r>
       <r>  -11.2908    1.0000 </r>
       <r>   -5.5914    1.0000 </r>
       <r>   -5.5914    1.0000 </r>
       <r>   -0.0942    0.0000 </r>
       <r>   -0.0942    0.0000 </r>
       <r>    6.2507    0.0000 </r>
       <r>    6.2507    0.0000 </r>
      </set>
      <set comment="kpoint 238">
       <r>  -17.9402    1.0000 </r>
       <r>  -17.9402    1.0000 </r>
       <r>  -13.7247    1.0000 </r>
       <r>  -13.7247    1.0000 </r>
       <r>  -10.9885    1.0000 </r>
       <r>  -10.9885    1.0000 </r>
       <r>   -5.5644    1.0000 </r>
       <r>   -5.5644    1.0000 </r>
       <r>   -0.1912    0.0000 </r>
       <r>   -0.1912    0.0000 </r>
       <r>    6.3176    0.0000 </r>
       <r>    6.3176    0.0000 </r>
      </set>
      <set comment="kpoint 239">
       <r>  -17.8771    1.0000 </r>
       <r>  -17.8771    1.0000 </r>
       <r>  -14.0343    1.0000 </r>
       <r>  -14.0343    1.0000 </r>
       <r>  -10.6624    1.0000 </r>
       <r>  -10.6624    1.0000 </r>
       <r>   -5.5283    1.0000 </r>
       <r>   -5.5283    1.0000 </r>
       <r>   -0.3155    0.0000 </r>
       <r>   -0.3155    0.0000 </r>
       <r>    6.4076    0.0000 </r>
       <r>    6.4076    0.0000 </r>
      </set>
      <set comment="kpoint 240">
       <r>  -17.7973    1.0000 </r>
       <r>  -17.7973    1.0000 </r>
       <r>  -14.3467    1.0000 </r>
       <r>  -14.3467    1.0000 </r>
       <r>  -10.3346    1.0000 </r>
       <r>  -10.3346    1.0000 </r>
       <r>   -5.4848    1.0000 </r>
       <r>   -5.4848    1.0000 </r>
       <r>   -0.4576    0.0000 </r>
       <r>   -0.4576    0.0000 </r>
       <r>    6.4861    0.0000 </r>
       <r>    6.4861    0.0000 </r>
      </set>
      <set comment="kpoint 241">
       <r>  -17.7020    1.0000 </r>
       <r>  -17.7020    1.0000 </r>
       <r>  -14.6518    1.0000 </r>
       <r>  -14.6518    1.0000 </r>
       <r>  -10.0193    1.0000 </r>
       <r>  -10.0193    1.0000 </r>
       <r>   -5.4365    1.0000 </r>
       <r>   -5.4365    1.0000 </r>
       <r>   -0.6076    0.0000 </r>
       <r>   -0.6076    0.0000 </r>
       <r>    6.1743    0.0000 </r>
       <r>    6.1743    0.0000 </r>
      </set>
      <set comment="kpoint 242">
       <r>  -17.5936    1.0000 </r>
       <r>  -17.5936    1.0000 </r>
       <r>  -14.9427    1.0000 </r>
       <r>  -14.9427    1.0000 </r>
       <r>   -9.7280    1.0000 </r>
       <r>   -9.7280    1.0000 </r>
       <r>   -5.3861    1.0000 </r>
       <r>   -5.3861    1.0000 </r>
       <r>   -0.7557    0.0000 </r>
       <r>   -0.7557    0.0000 </r>
       <r>    5.7314    0.0000 </r>
       <r>    5.7314    0.0000 </r>
      </set>
      <set comment="kpoint 243">
       <r>  -17.4755    1.0000 </r>
       <r>  -17.4755    1.0000 </r>
       <r>  -15.2127    1.0000 </r>
       <r>  -15.2127    1.0000 </r>
       <r>   -9.4710    1.0000 </r>
       <r>   -9.4710    1.0000 </r>
       <r>   -5.3371    1.0000 </r>
       <r>   -5.3371    1.0000 </r>
       <r>   -0.8924    0.0000 </r>
       <r>   -0.8924    0.0000 </r>
       <r>    5.3410    0.0000 </r>
       <r>    5.3410    0.0000 </r>
      </set>
      <set comment="kpoint 244">
       <r>  -17.3542    1.0000 </r>
       <r>  -17.3542    1.0000 </r>
       <r>  -15.4536    1.0000 </r>
       <r>  -15.4536    1.0000 </r>
       <r>   -9.2583    1.0000 </r>
       <r>   -9.2583    1.0000 </r>
       <r>   -5.2933    1.0000 </r>
       <r>   -5.2933    1.0000 </r>
       <r>   -1.0092    0.0000 </r>
       <r>   -1.0092    0.0000 </r>
       <r>    5.0220    0.0000 </r>
       <r>    5.0220    0.0000 </r>
      </set>
      <set comment="kpoint 245">
       <r>  -17.2411    1.0000 </r>
       <r>  -17.2411    1.0000 </r>
       <r>  -15.6530    1.0000 </r>
       <r>  -15.6530    1.0000 </r>
       <r>   -9.0987    1.0000 </r>
       <r>   -9.0987    1.0000 </r>
       <r>   -5.2584    1.0000 </r>
       <r>   -5.2584    1.0000 </r>
       <r>   -1.0986    0.0000 </r>
       <r>   -1.0986    0.0000 </r>
       <r>    4.7855    0.0000 </r>
       <r>    4.7855    0.0000 </r>
      </set>
      <set comment="kpoint 246">
       <r>  -17.1555    1.0000 </r>
       <r>  -17.1555    1.0000 </r>
       <r>  -15.7905    1.0000 </r>
       <r>  -15.7905    1.0000 </r>
       <r>   -8.9997    1.0000 </r>
       <r>   -8.9997    1.0000 </r>
       <r>   -5.2360    1.0000 </r>
       <r>   -5.2360    1.0000 </r>
       <r>   -1.1548    0.0000 </r>
       <r>   -1.1548    0.0000 </r>
       <r>    4.6401    0.0000 </r>
       <r>    4.6401    0.0000 </r>
      </set>
      <set comment="kpoint 247">
       <r>  -17.1226    1.0000 </r>
       <r>  -17.1226    1.0000 </r>
       <r>  -15.8408    1.0000 </r>
       <r>  -15.8408    1.0000 </r>
       <r>   -8.9661    1.0000 </r>
       <r>   -8.9661    1.0000 </r>
       <r>   -5.2282    1.0000 </r>
       <r>   -5.2282    1.0000 </r>
       <r>   -1.1740    0.0000 </r>
       <r>   -1.1740    0.0000 </r>
       <r>    4.5909    0.0000 </r>
       <r>    4.5909    0.0000 </r>
      </set>
     </set>
    </set>
   </array>
  </eigenvalues>
  <separator name="orbital magnetization" >
   <v name="MAGDIPOLOUT">      0.00000000      0.00000000      0.00000000</v>
  </separator>
 </calculation>
 <structure name="finalpos" >
  <crystal>
   <varray name="basis" >
    <v>       4.25496000       0.00000000       0.00000000 </v>
    <v>       0.00000000       2.52972506       0.00000000 </v>
    <v>       0.00000000       0.00000000      19.58753931 </v>
   </varray>
   <i name="volume">    210.83790140 </i>
   <varray name="rec_basis" >
    <v>       0.23501984       0.00000000       0.00000000 </v>
    <v>       0.00000000       0.39529988       0.00000000 </v>
    <v>       0.00000000       0.00000000       0.05105287 </v>
   </varray>
  </crystal>
  <varray name="positions" >
   <v>       0.00064312      -0.00000000       0.00000000 </v>
   <v>       0.16602355       0.50000000      -0.00000000 </v>
   <v>       0.50064312       0.50000000       0.00000000 </v>
   <v>       0.66602355      -0.00000000      -0.00000000 </v>
  </varray>
 </structure>
</modeling>
