gr                                      
           1
     4.254960    0.000000    0.000000
     0.000000    2.529725    0.000000
     0.000000    0.000000   19.587539
   C 
   4
Direct configuration=     1
   0.00063729  0.00000000  0.00000000
   0.16602938  0.50000000  0.00000000
   0.50063729  0.50000000  0.00000000
   0.66602938  0.00000000  0.00000000
Direct configuration=     2
   0.00066641  0.00000000  0.00000000
   0.16600026  0.50000000 -0.00000000
   0.50066641  0.50000000  0.00000000
   0.66600026  0.00000000 -0.00000000
Direct configuration=     3
   0.00064313 -0.00000000  0.00000000
   0.16602354  0.50000000 -0.00000000
   0.50064313  0.50000000  0.00000000
   0.66602354  0.00000000 -0.00000000
Direct configuration=     4
   0.00064310 -0.00000000  0.00000000
   0.16602357  0.50000000 -0.00000000
   0.50064310  0.50000000  0.00000000
   0.66602357 -0.00000000 -0.00000000
Direct configuration=     5
   0.00064311 -0.00000000  0.00000000
   0.16602355  0.50000000 -0.00000000
   0.50064311  0.50000000  0.00000000
   0.66602355 -0.00000000 -0.00000000
Direct configuration=     6
   0.00064312 -0.00000000  0.00000000
   0.16602355  0.50000000 -0.00000000
   0.50064312  0.50000000  0.00000000
   0.66602355 -0.00000000 -0.00000000
Direct configuration=     7
   0.00064312 -0.00000000  0.00000000
   0.16602355  0.50000000 -0.00000000
   0.50064312  0.50000000  0.00000000
   0.66602355 -0.00000000 -0.00000000
