    4    4  400    1
  0.5270948E+02  0.4338642E-09  0.2460742E-09  0.1974826E-08  0.5000000E-15
  1.000000000000000E-004
  CAR 
 gr                                      
     16    247     12
 
  0.0000000E+00  0.0000000E+00  0.0000000E+00  0.1157407E-02
    1      -22.147918
    2      -17.169321
    3      -15.889650
    4      -10.277288
    5       -8.938086
    6       -5.924680
    7       -5.748201
    8       -5.250315
    9       -1.145571
   10        0.536535
   11        1.335845
   12        1.725097
 
  0.4166667E-01  0.0000000E+00  0.0000000E+00  0.2314815E-02
    1      -22.137972
    2      -17.303074
    3      -15.740807
    4      -10.265455
    5       -8.928357
    6       -5.968391
    7       -5.769216
    8       -5.311954
    9       -1.068092
   10        0.550002
   11        1.349499
   12        1.738920
 
  0.8333333E-01  0.0000000E+00  0.0000000E+00  0.2314815E-02
    1      -22.108141
    2      -17.599965
    3      -15.398722
    4      -10.229976
    5       -8.899222
    6       -6.097546
    7       -5.831141
    8       -5.483888
    9       -0.848799
   10        0.590406
   11        1.390459
   12        1.780392
 
  0.1250000E+00  0.0000000E+00  0.0000000E+00  0.2314815E-02
    1      -22.058445
    2      -17.948266
    3      -14.975363
    4      -10.170909
    5       -8.850832
    6       -6.306588
    7       -5.930797
    8       -5.736642
    9       -0.517657
   10        0.657764
   11        1.458709
   12        1.849515
 
  0.1666667E+00  0.0000000E+00  0.0000000E+00  0.2314815E-02
    1      -21.988917
    2      -18.306620
    3      -14.512496
    4      -10.088351
    5       -8.783448
    6       -6.587329
    7       -6.063425
    8       -6.040057
    9       -0.105652
   10        0.752089
   11        1.554226
   12        1.946291
 
  0.2083333E+00  0.0000000E+00  0.0000000E+00  0.2314815E-02
    1      -21.899607
    2      -18.660394
    3      -14.025346
    4       -9.982443
    5       -8.697447
    6       -6.930131
    7       -6.370957
    8       -6.223306
    9        0.362845
   10        0.873391
   11        1.676971
   12        2.070724
 
  0.2500000E+00  0.0000000E+00  0.0000000E+00  0.2314815E-02
    1      -21.790580
    2      -19.003422
    3      -13.520858
    4       -9.853377
    5       -8.593332
    6       -7.324970
    7       -6.713486
    8       -6.404363
    9        0.870375
   10        1.021665
   11        1.826883
   12        2.222813
 
  0.2916667E+00  0.0000000E+00  0.0000000E+00  0.2314815E-02
    1      -21.661919
    2      -19.332646
    3      -13.003092
    4       -9.701398
    5       -8.471748
    6       -7.762218
    7       -7.057158
    8       -6.600630
    9        1.196892
   10        1.404342
   11        2.003868
   12        2.402556
 
  0.3333333E+00  0.0000000E+00  0.0000000E+00  0.2314815E-02
    1      -21.513721
    2      -19.646333
    3      -12.475025
    4       -9.526819
    5       -8.333504
    6       -8.233090
    7       -7.395001
    8       -6.806569
    9        1.399041
   10        1.954915
   11        2.207770
   12        2.609950
 
  0.3750000E+00  0.0000000E+00  0.0000000E+00  0.2314815E-02
    1      -21.346109
    2      -19.943396
    3      -11.939276
    4       -9.330035
    5       -8.729835
    6       -8.179601
    7       -7.722281
    8       -7.017228
    9        1.628062
   10        2.438302
   11        2.512842
   12        2.844986
 
  0.4166667E+00  0.0000000E+00  0.0000000E+00  0.2314815E-02
    1      -21.159225
    2      -20.223093
    3      -11.398446
    4       -9.245750
    5       -9.111539
    6       -8.035694
    7       -8.011260
    8       -7.228301
    9        1.883887
   10        2.694843
   11        3.063064
   12        3.107652
 
  0.4583333E+00  0.0000000E+00  0.0000000E+00  0.2314815E-02
    1      -20.953244
    2      -20.484889
    3      -10.855319
    4       -9.775103
    5       -8.871952
    6       -8.332868
    7       -7.829970
    8       -7.436103
    9        2.166427
   10        2.811111
   11        2.975654
   12        3.397926
 
  0.5000000E+00  0.0000000E+00  0.0000000E+00  0.1157407E-02
    1      -20.728379
    2      -20.728379
    3      -10.313013
    4      -10.313013
    5       -8.612058
    6       -8.612058
    7       -7.637528
    8       -7.637528
    9        2.475561
   10        2.475561
   11        3.272901
   12        3.272901
 
  0.0000000E+00  0.2777778E-01  0.0000000E+00  0.2314815E-02
    1      -22.134149
    2      -17.157421
    3      -15.877935
    4      -10.260906
    5       -9.000758
    6       -5.952312
    7       -5.806428
    8       -5.233645
    9       -1.148562
   10        0.555200
   11        1.354718
   12        1.744204
 
  0.4166667E-01  0.2777778E-01  0.0000000E+00  0.4629630E-02
    1      -22.124204
    2      -17.291037
    3      -15.729274
    4      -10.249077
    5       -8.991016
    6       -5.997864
    7       -5.824970
    8       -5.295410
    9       -1.071065
   10        0.568666
   11        1.368372
   12        1.758028
 
  0.8333333E-01  0.2777778E-01  0.0000000E+00  0.4629630E-02
    1      -22.094378
    2      -17.587692
    3      -15.387568
    4      -10.213610
    5       -8.961839
    6       -6.129299
    7       -5.882837
    8       -5.467636
    9       -0.851804
   10        0.609072
   11        1.409329
   12        1.799500
 
  0.1250000E+00  0.2777778E-01  0.0000000E+00  0.4629630E-02
    1      -22.044689
    2      -17.935774
    3      -14.964669
    4      -10.154563
    5       -8.913379
    6       -6.338138
    7       -5.980067
    8       -5.720700
    9       -0.520894
   10        0.676431
   11        1.477576
   12        1.868623
 
  0.1666667E+00  0.2777778E-01  0.0000000E+00  0.4629630E-02
    1      -21.975171
    2      -18.293939
    3      -14.502341
    4      -10.072032
    5       -8.845889
    6       -6.616336
    7       -6.112127
    8       -6.024352
    9       -0.109413
   10        0.770759
   11        1.573088
   12        1.965400
 
  0.2083333E+00  0.2777778E-01  0.0000000E+00  0.4629630E-02
    1      -21.885877
    2      -18.647551
    3      -14.015820
    4       -9.966161
    5       -8.759740
    6       -6.955215
    7       -6.355395
    8       -6.272675
    9        0.358248
   10        0.892066
   11        1.695826
   12        2.089834
 
  0.2500000E+00  0.2777778E-01  0.0000000E+00  0.4629630E-02
    1      -21.776868
    2      -18.990440
    3      -13.512072
    4       -9.837138
    5       -8.655426
    6       -7.345576
    7       -6.697988
    8       -6.455058
    9        0.864649
   10        1.040346
   11        1.845732
   12        2.241925
 
  0.2916667E+00  0.2777778E-01  0.0000000E+00  0.4629630E-02
    1      -21.648229
    2      -19.319544
    3      -12.995178
    4       -9.685210
    5       -8.533579
    6       -7.778331
    7       -7.041665
    8       -6.652923
    9        1.215582
   10        1.397234
   11        2.022712
   12        2.421671
 
  0.3333333E+00  0.2777778E-01  0.0000000E+00  0.4629630E-02
    1      -21.500059
    2      -19.633127
    3      -12.468144
    4       -9.510691
    5       -8.394998
    6       -8.244997
    7       -7.379473
    8       -6.860494
    9        1.417741
   10        1.946242
   11        2.226612
   12        2.629069
 
  0.3750000E+00  0.2777778E-01  0.0000000E+00  0.4629630E-02
    1      -21.332478
    2      -19.930100
    3      -11.933620
    4       -9.313973
    5       -8.737966
    6       -8.240664
    7       -7.706692
    8       -7.072688
    9        1.646772
   10        2.457148
   11        2.502617
   12        2.864109
 
  0.4166667E+00  0.2777778E-01  0.0000000E+00  0.4629630E-02
    1      -21.145631
    2      -20.209719
    3      -11.394243
    4       -9.250578
    5       -9.095550
    6       -8.071781
    7       -8.020030
    8       -7.285133
    9        1.902610
   10        2.713703
   11        3.052275
   12        3.126781
 
  0.4583333E+00  0.2777778E-01  0.0000000E+00  0.4629630E-02
    1      -20.939694
    2      -20.471447
    3      -10.852842
    4       -9.777091
    5       -8.856040
    6       -8.317123
    7       -7.889816
    8       -7.494122
    9        2.185166
   10        2.829907
   11        2.994538
   12        3.417065
 
  0.5000000E+00  0.2777778E-01  0.0000000E+00  0.2314815E-02
    1      -20.714879
    2      -20.714879
    3      -10.312582
    4      -10.312582
    5       -8.596229
    6       -8.596229
    7       -7.696546
    8       -7.696546
    9        2.494322
   10        2.494322
   11        3.291588
   12        3.291588
 
  0.0000000E+00  0.5555556E-01  0.0000000E+00  0.2314815E-02
    1      -22.092850
    2      -17.121724
    3      -15.842933
    4      -10.211793
    5       -9.183720
    6       -6.034694
    7       -5.976378
    8       -5.183658
    9       -1.158351
   10        0.611195
   11        1.411330
   12        1.801527
 
  0.4166667E-01  0.5555556E-01  0.0000000E+00  0.4629630E-02
    1      -22.082910
    2      -17.254940
    3      -15.694817
    4      -10.199977
    5       -9.173934
    6       -6.093652
    7       -5.979661
    8       -5.245809
    9       -1.080796
   10        0.624662
   11        1.424981
   12        1.815350
 
  0.8333333E-01  0.5555556E-01  0.0000000E+00  0.4629630E-02
    1      -22.053097
    2      -17.550891
    3      -15.354250
    4      -10.164547
    5       -9.144621
    6       -6.234419
    7       -6.022960
    8       -5.418937
    9       -0.861624
   10        0.665067
   11        1.465932
   12        1.856823
 
  0.1250000E+00  0.5555556E-01  0.0000000E+00  0.4629630E-02
    1      -22.003431
    2      -17.898318
    3      -14.932750
    4      -10.105560
    5       -9.095923
    6       -6.441838
    7       -6.113830
    8       -5.672949
    9       -0.531420
   10        0.732429
   11        1.534167
   12        1.925947
 
  0.1666667E+00  0.5555556E-01  0.0000000E+00  0.4629630E-02
    1      -21.933948
    2      -18.255916
    3      -14.472063
    4      -10.023114
    5       -9.028081
    6       -6.711257
    7       -6.245421
    8       -5.977324
    9       -0.121539
   10        0.826763
   11        1.629663
   12        2.022726
 
  0.2083333E+00  0.5555556E-01  0.0000000E+00  0.4629630E-02
    1      -21.844697
    2      -18.609040
    3      -13.987469
    4       -9.917352
    5       -8.941441
    6       -7.037213
    7       -6.409173
    8       -6.308802
    9        0.343567
   10        0.948080
   11        1.752383
   12        2.147163
 
  0.2500000E+00  0.5555556E-01  0.0000000E+00  0.4629630E-02
    1      -21.735743
    2      -18.951510
    3      -13.485993
    4       -9.788462
    5       -8.836466
    6       -7.412998
    7       -6.651586
    8       -6.596697
    9        0.846515
   10        1.096375
   11        1.902269
   12        2.299259
 
  0.2916667E+00  0.5555556E-01  0.0000000E+00  0.4629630E-02
    1      -21.607172
    2      -19.280252
    3      -12.971789
    4       -9.636691
    5       -8.713754
    6       -7.831198
    7       -6.995273
    8       -6.800420
    9        1.271630
   10        1.374864
   11        2.079232
   12        2.479012
 
  0.3333333E+00  0.5555556E-01  0.0000000E+00  0.4629630E-02
    1      -21.459082
    2      -19.593523
    3      -12.447948
    4       -9.462352
    5       -8.574054
    6       -8.284298
    7       -7.332971
    8       -7.013811
    9        1.473812
   10        1.919059
   11        2.283122
   12        2.686418
 
  0.3750000E+00  0.5555556E-01  0.0000000E+00  0.4629630E-02
    1      -21.291597
    2      -19.890225
    3      -11.917224
    4       -9.265836
    5       -8.765146
    6       -8.418293
    7       -7.660004
    8       -7.231372
    9        1.702869
   10        2.470550
   11        2.513669
   12        2.921470
 
  0.4166667E+00  0.5555556E-01  0.0000000E+00  0.4629630E-02
    1      -21.104862
    2      -20.169610
    3      -11.382377
    4       -9.267213
    5       -9.047635
    6       -8.247611
    7       -7.973112
    8       -7.448542
    9        1.958737
   10        2.770272
   11        3.017665
   12        3.184158
 
  0.4583333E+00  0.5555556E-01  0.0000000E+00  0.4629630E-02
    1      -20.899055
    2      -20.431136
    3      -10.846377
    4       -9.784701
    5       -8.808364
    6       -8.269953
    7       -8.063401
    8       -7.661566
    9        2.241328
   10        2.886192
   11        3.051184
   12        3.474514
 
  0.5000000E+00  0.5555556E-01  0.0000000E+00  0.2314815E-02
    1      -20.674392
    2      -20.674392
    3      -10.312551
    4      -10.312551
    5       -8.548804
    6       -8.548804
    7       -7.867362
    8       -7.867362
    9        2.550532
   10        2.550532
   11        3.347537
   12        3.347537
 
  0.0000000E+00  0.8333333E-01  0.0000000E+00  0.2314815E-02
    1      -22.024058
    2      -17.062242
    3      -15.785104
    4      -10.130056
    5       -9.473223
    6       -6.245315
    7       -6.170298
    8       -5.100416
    9       -1.177386
   10        0.704524
   11        1.505659
   12        1.897066
 
  0.4166667E-01  0.8333333E-01  0.0000000E+00  0.4629630E-02
    1      -22.014126
    2      -17.194814
    3      -15.637885
    4      -10.118260
    5       -9.463347
    6       -6.306273
    7       -6.168612
    8       -5.163251
    9       -1.099716
   10        0.717989
   11        1.519306
   12        1.910890
 
  0.8333333E-01  0.8333333E-01  0.0000000E+00  0.4629630E-02
    1      -21.984335
    2      -17.489616
    3      -15.299231
    4      -10.082892
    5       -9.433760
    6       -6.446227
    7       -6.204304
    8       -5.337961
    9       -0.880668
   10        0.758391
   11        1.560243
   12        1.952362
 
  0.1250000E+00  0.8333333E-01  0.0000000E+00  0.4629630E-02
    1      -21.934709
    2      -17.835958
    3      -14.880120
    4      -10.024009
    5       -9.384586
    6       -6.644638
    7       -6.291596
    8       -5.593627
    9       -0.551661
   10        0.825749
   11        1.628457
   12        2.021486
 
  0.1666667E+00  0.8333333E-01  0.0000000E+00  0.4629630E-02
    1      -21.865282
    2      -18.192611
    3      -14.422267
    4       -9.941709
    5       -9.316036
    6       -6.896449
    7       -6.425699
    8       -5.899246
    9       -0.144539
   10        0.920082
   11        1.723924
   12        2.118266
 
  0.2083333E+00  0.8333333E-01  0.0000000E+00  0.4629630E-02
    1      -21.776104
    2      -18.544919
    3      -13.941029
    4       -9.836134
    5       -9.228411
    6       -7.198280
    7       -6.597576
    8       -6.231465
    9        0.316155
   10        1.041403
   11        1.846609
   12        2.242706
 
  0.2500000E+00  0.8333333E-01  0.0000000E+00  0.4629630E-02
    1      -21.667244
    2      -18.886687
    3      -13.443539
    4       -9.707472
    5       -9.122116
    6       -7.546581
    7       -6.796926
    8       -6.574563
    9        0.813138
   10        1.189709
   11        1.996457
   12        2.394808
 
  0.2916667E+00  0.8333333E-01  0.0000000E+00  0.4629630E-02
    1      -21.538785
    2      -19.214823
    3      -12.934086
    4       -9.555971
    5       -8.997671
    6       -7.936923
    7       -7.013987
    8       -6.918256
    9        1.334158
   10        1.364982
   11        2.173385
   12        2.574569
 
  0.3333333E+00  0.8333333E-01  0.0000000E+00  0.4629630E-02
    1      -21.390830
    2      -19.527569
    3      -12.415930
    4       -9.381942
    5       -8.855728
    6       -8.363886
    7       -7.255752
    8       -7.240524
    9        1.567185
   10        1.869956
   11        2.377254
   12        2.781985
 
  0.3750000E+00  0.8333333E-01  0.0000000E+00  0.4629630E-02
    1      -21.223503
    2      -19.823817
    3      -11.892026
    4       -9.185774
    5       -8.821417
    6       -8.697094
    7       -7.582455
    8       -7.470043
    9        1.796268
   10        2.412650
   11        2.607814
   12        3.017052
 
  0.4166667E+00  0.8333333E-01  0.0000000E+00  0.4629630E-02
    1      -21.036955
    2      -20.102811
    3      -11.365381
    4       -9.303341
    5       -8.967955
    6       -8.522762
    7       -7.895160
    8       -7.697559
    9        2.052161
   10        2.864502
   11        2.953262
   12        3.279758
 
  0.4583333E+00  0.8333333E-01  0.0000000E+00  0.4629630E-02
    1      -20.831366
    2      -20.363996
    3      -10.839259
    4       -9.803767
    5       -8.729096
    6       -8.333950
    7       -8.191565
    8       -7.919252
    9        2.334782
   10        2.979741
   11        3.145572
   12        3.458082
 
  0.5000000E+00  0.8333333E-01  0.0000000E+00  0.2314815E-02
    1      -20.606958
    2      -20.606958
    3      -10.317328
    4      -10.317328
    5       -8.469971
    6       -8.469971
    7       -8.132160
    8       -8.132160
    9        2.644022
   10        2.644022
   11        3.440205
   12        3.440205
 
  0.0000000E+00  0.1111111E+00  0.0000000E+00  0.2314815E-02
    1      -21.927832
    2      -16.978995
    3      -15.705312
    4      -10.015870
    5       -9.850170
    6       -6.595904
    7       -6.356595
    8       -4.984027
    9       -1.209736
   10        0.835187
   11        1.637666
   12        2.030824
 
  0.4166667E-01  0.1111111E+00  0.0000000E+00  0.4629630E-02
    1      -21.917911
    2      -17.110718
    3      -15.559325
    4      -10.004105
    5       -9.840134
    6       -6.644675
    7       -6.363192
    8       -5.047909
    9       -1.131852
   10        0.848648
   11        1.651306
   12        2.044647
 
  0.8333333E-01  0.1111111E+00  0.0000000E+00  0.4629630E-02
    1      -21.888154
    2      -17.403963
    3      -15.223391
    4       -9.968828
    5       -9.810059
    6       -6.773546
    7       -6.398825
    8       -5.225021
    9       -0.912906
   10        0.889038
   11        1.692221
   12        2.086118
 
  0.1250000E+00  0.1111111E+00  0.0000000E+00  0.4629630E-02
    1      -21.838583
    2      -17.748802
    3      -14.807771
    4       -9.910097
    5       -9.760036
    6       -6.960156
    7       -6.481088
    8       -5.483162
    9       -0.585604
   10        0.956378
   11        1.760399
   12        2.155239
 
  0.1666667E+00  0.1111111E+00  0.0000000E+00  0.4629630E-02
    1      -21.769233
    2      -18.104130
    3      -14.354134
    4       -9.828010
    5       -9.690220
    6       -7.192947
    7       -6.613780
    8       -5.790613
    9       -0.182510
   10        1.050693
   11        1.855818
   12        2.252018
 
  0.2083333E+00  0.1111111E+00  0.0000000E+00  0.4629630E-02
    1      -21.680159
    2      -18.455289
    3      -13.877956
    4       -9.722708
    5       -9.600832
    6       -7.466367
    7       -6.792136
    8       -6.123899
    9        0.271711
   10        1.171999
   11        1.978444
   12        2.376458
 
  0.2500000E+00  0.1111111E+00  0.0000000E+00  0.4629630E-02
    1      -21.571429
    2      -18.796064
    3      -13.386551
    4       -9.594381
    5       -9.492164
    6       -7.777962
    7       -7.006477
    8       -6.467428
    9        0.759940
   10        1.320298
   11        2.128225
   12        2.528562
 
  0.2916667E+00  0.1111111E+00  0.0000000E+00  0.4629630E-02
    1      -21.443128
    2      -19.123342
    3      -12.884445
    4       -9.443276
    5       -9.364584
    6       -8.126694
    7       -7.244814
    8       -6.811097
    9        1.270194
   10        1.495570
   11        2.305088
   12        2.708329
 
  0.3333333E+00  0.1111111E+00  0.0000000E+00  0.4629630E-02
    1      -21.295362
    2      -19.435347
    3      -12.375196
    4       -9.269701
    5       -9.218546
    6       -8.511364
    7       -7.495324
    8       -7.148270
    9        1.697777
   10        1.793580
   11        2.508911
   12        2.915755
 
  0.3750000E+00  0.1111111E+00  0.0000000E+00  0.4629630E-02
    1      -21.128260
    2      -19.730954
    3      -11.862140
    4       -9.074044
    5       -9.054598
    6       -8.929401
    7       -7.748243
    8       -7.474467
    9        1.926865
   10        2.322871
   11        2.739477
   12        3.150834
 
  0.4166667E+00  0.1111111E+00  0.0000000E+00  0.4629630E-02
    1      -20.941975
    2      -20.009393
    3      -11.348755
    4       -9.376597
    5       -8.873408
    6       -8.856789
    7       -7.996573
    8       -7.786563
    9        2.182761
   10        2.851167
   11        2.996296
   12        3.413557
 
  0.4583333E+00  0.1111111E+00  0.0000000E+00  0.4629630E-02
    1      -20.736695
    2      -20.270099
    3      -10.838884
    4       -9.847638
    5       -8.675791
    6       -8.618539
    7       -8.235727
    8       -8.082313
    9        2.465380
   10        3.110325
   11        3.277665
   12        3.366054
 
  0.5000000E+00  0.1111111E+00  0.0000000E+00  0.2314815E-02
    1      -20.512645
    2      -20.512645
    3      -10.336873
    4      -10.336873
    5       -8.462777
    6       -8.462777
    7       -8.360058
    8       -8.360058
    9        2.774613
   10        2.774613
   11        3.566752
   12        3.566752
 
  0.0000000E+00  0.1388889E+00  0.0000000E+00  0.2314815E-02
    1      -21.804261
    2      -16.872015
    3      -15.605016
    4      -10.293566
    5       -9.869493
    6       -7.009772
    7       -6.590119
    8       -4.834644
    9       -1.261009
   10        1.003180
   11        1.807292
   12        2.202803
 
  0.4166667E-01  0.1388889E+00  0.0000000E+00  0.4629630E-02
    1      -21.794354
    2      -17.002740
    3      -15.460582
    4      -10.283257
    5       -9.857769
    6       -7.056248
    7       -6.594387
    8       -4.900051
    9       -1.182732
   10        1.016632
   11        1.820921
   12        2.216624
 
  0.8333333E-01  0.1388889E+00  0.0000000E+00  0.4629630E-02
    1      -21.764638
    2      -17.294080
    3      -15.128246
    4      -10.252344
    5       -9.822616
    6       -7.181715
    7       -6.620144
    8       -5.080616
    9       -0.963730
   10        1.056998
   11        1.861802
   12        2.258090
 
  0.1250000E+00  0.1388889E+00  0.0000000E+00  0.4629630E-02
    1      -21.715138
    2      -17.637016
    3      -14.717439
    4      -10.200858
    5       -9.764092
    6       -7.363409
    7       -6.687034
    8       -5.342240
    9       -0.638607
   10        1.124301
   11        1.929923
   12        2.327206
 
  0.1666667E+00  0.1388889E+00  0.0000000E+00  0.4629630E-02
    1      -21.645891
    2      -17.990636
    3      -14.269772
    4      -10.128851
    5       -9.682295
    6       -7.585895
    7       -6.805018
    8       -5.652208
    9       -0.240925
   10        1.218571
   11        2.025262
   12        2.423978
 
  0.2083333E+00  0.1388889E+00  0.0000000E+00  0.4629630E-02
    1      -21.556951
    2      -18.340303
    3      -13.800908
    4      -10.036383
    5       -9.577367
    6       -7.840337
    7       -6.975055
    8       -5.986909
    9        0.204541
   10        1.339831
   11        2.147787
   12        2.548412
 
  0.2500000E+00  0.1388889E+00  0.0000000E+00  0.4629630E-02
    1      -21.448388
    2      -18.679784
    3      -13.318474
    4       -9.923522
    5       -9.449498
    6       -8.122160
    7       -7.191722
    8       -6.330967
    9        0.680939
   10        1.488087
   11        2.297452
   12        2.700513
 
  0.2916667E+00  0.1388889E+00  0.0000000E+00  0.4629630E-02
    1      -21.320291
    2      -19.005942
    3      -12.827423
    4       -9.790319
    5       -9.298933
    6       -8.429924
    7       -7.444986
    8       -6.674543
    9        1.176660
   10        1.663325
   11        2.474191
   12        2.880281
 
  0.3333333E+00  0.1388889E+00  0.0000000E+00  0.4629630E-02
    1      -21.172770
    2      -19.316979
    3      -12.331880
    4       -9.636797
    5       -9.125981
    6       -8.764530
    7       -7.721855
    8       -7.011219
    9        1.683250
   10        1.865503
   11        2.677905
   12        3.087712
 
  0.3750000E+00  0.1388889E+00  0.0000000E+00  0.4629630E-02
    1      -21.005958
    2      -19.611750
    3      -11.835918
    4       -9.462934
    5       -9.127968
    6       -8.931026
    7       -8.008404
    8       -7.336677
    9        2.094562
   10        2.194080
   11        2.908434
   12        3.322800
 
  0.4166667E+00  0.1388889E+00  0.0000000E+00  0.4629630E-02
    1      -20.820016
    2      -19.889465
    3      -11.343950
    4       -9.521522
    5       -9.268657
    6       -8.714547
    7       -8.292172
    8       -7.647905
    9        2.350424
   10        2.703497
   11        3.165418
   12        3.585535
 
  0.4583333E+00  0.1388889E+00  0.0000000E+00  0.4629630E-02
    1      -20.615136
    2      -20.149546
    3      -10.860945
    4       -9.944201
    5       -9.053895
    6       -8.564057
    7       -8.477141
    8       -7.942733
    9        2.632994
   10        3.205735
   11        3.277776
   12        3.447386
 
  0.5000000E+00  0.1388889E+00  0.0000000E+00  0.2314815E-02
    1      -20.391552
    2      -20.391552
    3      -10.392431
    4      -10.392431
    5       -8.818765
    6       -8.818765
    7       -8.219553
    8       -8.219553
    9        2.942158
   10        2.942158
   11        3.665522
   12        3.665522
 
  0.0000000E+00  0.1666667E+00  0.0000000E+00  0.2314815E-02
    1      -21.653460
    2      -16.741339
    3      -15.486658
    4      -10.782733
    5       -9.691267
    6       -7.469917
    7       -6.866576
    8       -4.652469
    9       -1.338115
   10        1.208485
   11        2.014455
   12        2.413003
 
  0.4166667E-01  0.1666667E+00  0.0000000E+00  0.4629630E-02
    1      -21.643570
    2      -16.871013
    3      -15.344088
    4      -10.771956
    5       -9.679597
    6       -7.516581
    7       -6.865555
    8       -4.720075
    9       -1.259101
   10        1.221924
   11        2.028065
   12        2.426822
 
  0.8333333E-01  0.1666667E+00  0.0000000E+00  0.4629630E-02
    1      -21.613907
    2      -17.160191
    3      -15.016401
    4      -10.739599
    5       -9.644607
    6       -7.642976
    7       -6.875635
    8       -4.905522
    9       -1.039598
   10        1.262253
   11        2.068890
   12        2.468281
 
  0.1250000E+00  0.1666667E+00  0.0000000E+00  0.4629630E-02
    1      -21.564495
    2      -17.500845
    3      -14.612179
    4      -10.685573
    5       -9.586355
    6       -7.825008
    7       -6.919348
    8       -5.171926
    9       -0.716984
   10        1.329495
   11        2.136917
   12        2.537385
 
  0.1666667E+00  0.1666667E+00  0.0000000E+00  0.4629630E-02
    1      -21.495372
    2      -17.852369
    3      -14.172991
    4      -10.609715
    5       -9.504940
    6       -8.044664
    7       -7.011522
    8       -5.485223
    9       -0.326137
   10        1.423685
   11        2.232122
   12        2.634142
 
  0.2083333E+00  0.1666667E+00  0.0000000E+00  0.4629630E-02
    1      -21.406595
    2      -18.200182
    3      -13.714841
    4      -10.511749
    5       -9.400504
    6       -8.290757
    7       -7.158052
    8       -5.821707
    9        0.108129
   10        1.544855
   11        2.354471
   12        2.758561
 
  0.2500000E+00  0.1666667E+00  0.0000000E+00  0.4629630E-02
    1      -21.298238
    2      -18.538049
    3      -13.245946
    4      -10.391247
    5       -9.273239
    6       -8.556544
    7       -7.358117
    8       -6.166345
    9        0.569417
   10        1.693022
   11        2.503918
   12        2.910648
 
  0.2916667E+00  0.1666667E+00  0.0000000E+00  0.4629630E-02
    1      -21.170393
    2      -18.862809
    3      -12.772102
    4      -10.247554
    5       -9.123389
    6       -8.838392
    7       -7.605818
    8       -6.509680
    9        1.046673
   10        1.868175
   11        2.680401
   12        3.090407
 
  0.3333333E+00  0.1666667E+00  0.0000000E+00  0.4629630E-02
    1      -21.023175
    2      -19.172637
    3      -12.298584
    4      -10.079724
    5       -9.135287
    6       -8.951263
    7       -7.891353
    8       -6.845600
    9        1.532009
   10        2.070277
   11        2.883838
   12        3.297836
 
  0.3750000E+00  0.1666667E+00  0.0000000E+00  0.4629630E-02
    1      -20.856723
    2      -19.466363
    3      -11.830936
    4       -9.886471
    5       -9.448652
    6       -8.757242
    7       -8.202022
    8       -7.170001
    9        2.019409
   10        2.299262
   11        3.114120
   12        3.532926
 
  0.4166667E+00  0.1666667E+00  0.0000000E+00  0.4629630E-02
    1      -20.671205
    2      -19.743176
    3      -11.375270
    4       -9.781975
    5       -9.666283
    6       -8.541801
    7       -8.523334
    8       -7.480018
    9        2.503991
   10        2.555042
   11        3.371095
   12        3.795668
 
  0.4583333E+00  0.1666667E+00  0.0000000E+00  0.4629630E-02
    1      -20.466821
    2      -20.002480
    3      -10.938025
    4      -10.139670
    5       -9.417911
    6       -8.840653
    7       -8.305524
    8       -7.773580
    9        2.837509
   10        2.981581
   11        3.481968
   12        3.654330
 
  0.5000000E+00  0.1666667E+00  0.0000000E+00  0.2314815E-02
    1      -20.243816
    2      -20.243816
    3      -10.524992
    4      -10.524992
    5       -9.141552
    6       -9.141552
    7       -8.049142
    8       -8.049142
    9        3.146536
   10        3.146536
   11        3.448376
   12        3.448376
 