       N       E                     dE             d eps       ncg     rms          rms(c)
DAV:   1     0.188295886294E+03    0.18830E+03   -0.10552E+04  5928   0.274E+03
DAV:   2    -0.937451904673E+01   -0.19767E+03   -0.17611E+03 10456   0.262E+02
DAV:   3    -0.382234612577E+02   -0.28849E+02   -0.28250E+02  7368   0.119E+02    0.719E+00
RMM:   4    -0.376422160001E+02    0.58125E+00   -0.94771E+00  5929   0.264E+01    0.417E+00
RMM:   5    -0.369099847187E+02    0.73223E+00   -0.27460E+00  5933   0.113E+01    0.717E-01
RMM:   6    -0.369115477705E+02   -0.15631E-02   -0.81433E-02  6363   0.201E+00    0.510E-01
RMM:   7    -0.369024200696E+02    0.91277E-02   -0.32305E-02  5944   0.156E+00    0.334E-01
RMM:   8    -0.368972548130E+02    0.51653E-02   -0.66602E-03  5932   0.541E-01    0.138E-01
RMM:   9    -0.368969612753E+02    0.29354E-03   -0.20588E-02  5928   0.850E-01    0.156E-01
RMM:  10    -0.368968541882E+02    0.10709E-03   -0.24035E-03  5928   0.354E-01    0.286E-02
RMM:  11    -0.368992529599E+02   -0.23988E-02   -0.71007E-04  5931   0.176E-01    0.446E-02
RMM:  12    -0.368997310956E+02   -0.47814E-03   -0.22222E-04  5943   0.984E-02    0.512E-03
RMM:  13    -0.368999774158E+02   -0.24632E-03   -0.47768E-05  6024   0.376E-02    0.338E-03
RMM:  14    -0.369000602846E+02   -0.82869E-04   -0.97995E-06  5970   0.152E-02    0.103E-03
RMM:  15    -0.369000720804E+02   -0.11796E-04   -0.16510E-06  5979   0.709E-03    0.182E-03
RMM:  16    -0.369000837985E+02   -0.11718E-04   -0.14241E-06  5928   0.784E-03    0.123E-03
RMM:  17    -0.369000894725E+02   -0.56740E-05   -0.13307E-07  5961   0.225E-03    0.562E-04
RMM:  18    -0.369000905042E+02   -0.10317E-05   -0.38785E-08  5983   0.157E-03    0.112E-04
RMM:  19    -0.369000913113E+02   -0.80716E-06   -0.10614E-08  6036   0.489E-04    0.201E-05
RMM:  20    -0.369000913583E+02   -0.46959E-07   -0.86428E-10  4558   0.152E-04    0.250E-05
RMM:  21    -0.369000913739E+02   -0.15616E-07   -0.22307E-10  4361   0.874E-05    0.773E-06
RMM:  22    -0.369000913744E+02   -0.51398E-09   -0.17170E-11  3905   0.504E-05    0.158E-06
RMM:  23    -0.369000913747E+02   -0.27569E-09   -0.16916E-11  3527   0.387E-05    0.190E-06
RMM:  24    -0.369000913750E+02   -0.35402E-09   -0.51537E-12  3045   0.285E-05    0.624E-07
RMM:  25    -0.369000913747E+02    0.31264E-09   -0.42841E-12  2750   0.243E-05    0.147E-07
RMM:  26    -0.369000913749E+02   -0.12710E-09   -0.17064E-12  2513   0.215E-05    0.415E-08
RMM:  27    -0.369000913747E+02    0.20896E-09   -0.28937E-12  2333   0.198E-05    0.786E-08
RMM:  28    -0.369000913746E+02    0.48090E-10   -0.12529E-12  2188   0.186E-05
   1 F= -.36900091E+02 E0= -.36900089E+02  d E =-.369001E+02
       N       E                     dE             d eps       ncg     rms          rms(c)
DAV:   1    -0.369000902806E+02    0.10940E-05   -0.99672E-05  6360   0.937E-02    0.192E-03
RMM:   2    -0.369000903396E+02   -0.58977E-07   -0.16229E-06  5952   0.112E-02    0.139E-03
RMM:   3    -0.369000902885E+02    0.51147E-07   -0.27663E-07  5963   0.423E-03    0.373E-04
RMM:   4    -0.369000902847E+02    0.37860E-08   -0.18746E-08  6108   0.109E-03    0.104E-04
RMM:   5    -0.369000902837E+02    0.94644E-09   -0.13331E-09  5578   0.257E-04    0.466E-05
RMM:   6    -0.369000902836E+02    0.14461E-09   -0.17593E-10  3939   0.110E-04    0.501E-06
RMM:   7    -0.369000902835E+02    0.36607E-10   -0.11223E-11  3743   0.525E-05
   2 F= -.36900090E+02 E0= -.36900088E+02  d E =0.109106E-05
       N       E                     dE             d eps       ncg     rms          rms(c)
DAV:   1    -0.369000914318E+02   -0.11482E-05   -0.63038E-05  6572   0.745E-02    0.153E-03
RMM:   2    -0.369000914743E+02   -0.42495E-07   -0.98450E-07  5954   0.889E-03    0.110E-03
RMM:   3    -0.369000914519E+02    0.22370E-07   -0.17162E-07  5964   0.334E-03    0.285E-04
RMM:   4    -0.369000914473E+02    0.46668E-08   -0.11172E-08  6095   0.843E-04    0.823E-05
RMM:   5    -0.369000914484E+02   -0.11397E-08   -0.83776E-10  5036   0.204E-04    0.376E-05
RMM:   6    -0.369000914482E+02    0.21555E-09   -0.11126E-10  3813   0.918E-05    0.424E-06
RMM:   7    -0.369000914482E+02    0.31378E-10   -0.15161E-11  3730   0.516E-05
   3 F= -.36900091E+02 E0= -.36900089E+02  d E =-.116463E-05
       N       E                     dE             d eps       ncg     rms          rms(c)
DAV:   1    -0.369000914478E+02    0.40950E-09    0.54109E-09  4844   0.909E-05    0.110E-06
RMM:   2    -0.369000914482E+02   -0.38494E-09    0.27793E-12  3130   0.294E-05    0.664E-07
RMM:   3    -0.369000914484E+02   -0.20759E-09   -0.17388E-12  2824   0.294E-05    0.139E-07
RMM:   4    -0.369000914484E+02    0.20009E-10   -0.23296E-12  2585   0.272E-05    0.660E-08
RMM:   5    -0.369000914483E+02    0.78330E-10   -0.43371E-13  2383   0.245E-05
   4 F= -.36900091E+02 E0= -.36900089E+02  d E =-.116074E-09
       N       E                     dE             d eps       ncg     rms          rms(c)
DAV:   1    -0.369000914480E+02    0.33197E-09    0.54704E-09  4592   0.493E-05    0.547E-07
RMM:   2    -0.369000914482E+02   -0.15757E-09   -0.53319E-13  1496   0.142E-05    0.337E-07
RMM:   3    -0.369000914482E+02    0.27399E-10   -0.41761E-13  1449   0.140E-05    0.149E-08
RMM:   4    -0.369000914485E+02   -0.31275E-09   -0.77975E-13  1411   0.138E-05    0.138E-08
RMM:   5    -0.369000914485E+02   -0.22965E-10    0.24240E-13  1370   0.136E-05
   5 F= -.36900091E+02 E0= -.36900089E+02  d E =-.212253E-09
       N       E                     dE             d eps       ncg     rms          rms(c)
DAV:   1    -0.369000914476E+02    0.84913E-09    0.54975E-09  4560   0.173E-05    0.395E-07
RMM:   2    -0.369000914485E+02   -0.86118E-09   -0.97659E-14  1247   0.588E-06    0.243E-07
RMM:   3    -0.369000914482E+02    0.24056E-09   -0.28043E-14  1241   0.583E-06    0.452E-09
RMM:   4    -0.369000914486E+02   -0.32196E-09   -0.45643E-15  1215   0.581E-06    0.249E-09
RMM:   5    -0.369000914481E+02    0.45497E-09    0.84624E-14  1090   0.581E-06    0.107E-09
RMM:   6    -0.369000914485E+02   -0.35016E-09    0.13076E-14  1115   0.582E-06    0.130E-09
RMM:   7    -0.369000914482E+02    0.31287E-09   -0.12295E-14   914   0.579E-06    0.111E-09
RMM:   8    -0.369000914484E+02   -0.21760E-09    0.77346E-14  1087   0.579E-06    0.697E-10
RMM:   9    -0.369000914481E+02    0.23283E-09    0.12665E-14  1092   0.578E-06    0.160E-09
RMM:  10    -0.369000914482E+02   -0.36607E-10    0.46547E-14   961   0.577E-06
   6 F= -.36900091E+02 E0= -.36900089E+02  d E =0.325826E-09
       N       E                     dE             d eps       ncg     rms          rms(c)
DAV:   1    -0.369000914479E+02    0.19168E-09    0.54358E-09  4716   0.777E-05    0.145E-06
RMM:   2    -0.369000914482E+02   -0.21760E-09    0.13046E-12  1868   0.194E-05    0.903E-07
RMM:   3    -0.369000914482E+02   -0.74351E-10    0.10321E-12  1284   0.193E-05    0.232E-08
RMM:   4    -0.369000914484E+02   -0.18144E-09   -0.12147E-12   861   0.196E-05    0.315E-08
RMM:   5    -0.369000914482E+02    0.23192E-09    0.47592E-13   888   0.192E-05    0.568E-08
RMM:   6    -0.369000914482E+02    0.10004E-10   -0.12428E-12   921   0.186E-05
   7 F= -.36900091E+02 E0= -.36900089E+02  d E =-.318323E-11
       N       E                     dE             d eps       ncg     rms          rms(c)
DAV:   1    -0.369000914478E+02    0.36084E-09    0.54524E-09  3736   0.622E-05    0.112E-06
RMM:   2    -0.369000914481E+02   -0.30082E-09    0.12108E-13   776   0.159E-05    0.694E-07
RMM:   3    -0.369000914484E+02   -0.32128E-09   -0.19914E-13   865   0.155E-05    0.167E-08
RMM:   4    -0.369000914482E+02    0.26330E-09   -0.21645E-13   666   0.156E-05    0.960E-09
RMM:   5    -0.369000914483E+02   -0.90381E-10   -0.29462E-13   624   0.155E-05
   8 F= -.36900091E+02 E0= -.36900089E+02  d E =-.983391E-10
       N       E                     dE             d eps       ncg     rms          rms(c)
DAV:   1    -0.369000914477E+02    0.46430E-09    0.54945E-09  3624   0.177E-05    0.301E-07
RMM:   2    -0.369000914483E+02   -0.61948E-09    0.11842E-14   188   0.414E-06    0.186E-07
RMM:   3    -0.369000914484E+02   -0.39222E-10    0.24014E-14   378   0.403E-06    0.554E-09
RMM:   4    -0.369000914485E+02   -0.16030E-09    0.56251E-14   141   0.402E-06    0.172E-09
RMM:   5    -0.369000914483E+02    0.23635E-09   -0.28619E-14   403   0.402E-06    0.297E-10
RMM:   6    -0.369000914485E+02   -0.22123E-09   -0.82239E-15   437   0.402E-06    0.153E-10
RMM:   7    -0.369000914484E+02    0.16792E-09   -0.88818E-15   410   0.402E-06    0.128E-09
RMM:   8    -0.369000914485E+02   -0.10778E-09    0.00000E+00   405   0.400E-06    0.122E-09
RMM:   9    -0.369000914485E+02    0.14779E-11    0.00000E+00   239   0.400E-06
   9 F= -.36900091E+02 E0= -.36900089E+02  d E =-.187583E-09
       N       E                     dE             d eps       ncg     rms          rms(c)
DAV:   1    -0.369000914478E+02    0.62767E-09    0.54982E-09  3288   0.718E-06    0.817E-08
RMM:   2    -0.369000914481E+02   -0.26728E-09    0.00000E+00   222   0.240E-06    0.500E-08
RMM:   3    -0.369000914483E+02   -0.23135E-09    0.00000E+00   407   0.241E-06    0.118E-09
RMM:   4    -0.369000914483E+02   -0.12164E-10    0.00000E+00   412   0.241E-06    0.653E-10
RMM:   5    -0.369000914483E+02    0.48431E-10    0.00000E+00   127   0.241E-06
  10 F= -.36900091E+02 E0= -.36900089E+02  d E =0.163823E-09
