gr                                      
           1
     4.338642    0.000000    0.000000
     0.000000    2.460742    0.000000
     0.000000    0.000000   19.748257
   C 
   4
Direct configuration=     1
   0.99964215  0.00000000  0.00000000
   0.16702452  0.50000000  0.00000000
   0.49964215  0.50000000  0.00000000
   0.66702452  0.00000000  0.00000000
Direct configuration=     2
   0.99962029 -0.00000000 -0.00000000
   0.16704638  0.50000000  0.00000000
   0.49962029  0.50000000 -0.00000000
   0.66704638  0.00000000  0.00000000
Direct configuration=     3
   0.99963768 -0.00000000 -0.00000000
   0.16702899  0.50000000  0.00000000
   0.49963768  0.50000000 -0.00000000
   0.66702899  0.00000000  0.00000000
Direct configuration=     4
   0.99963770 -0.00000000  0.00000000
   0.16702897  0.50000000 -0.00000000
   0.49963770  0.50000000  0.00000000
   0.66702897  0.00000000 -0.00000000
Direct configuration=     5
   0.99963769 -0.00000000 -0.00000000
   0.16702898  0.50000000  0.00000000
   0.49963769  0.50000000 -0.00000000
   0.66702898  0.00000000  0.00000000
Direct configuration=     6
   0.99963768 -0.00000000  0.00000000
   0.16702898  0.50000000 -0.00000000
   0.49963768  0.50000000  0.00000000
   0.66702898  0.00000000 -0.00000000
Direct configuration=     7
   0.99963767  0.00000000  0.00000000
   0.16702900  0.50000000 -0.00000000
   0.49963767  0.50000000  0.00000000
   0.66702900  0.00000000 -0.00000000
Direct configuration=     8
   0.99963768 -0.00000000  0.00000000
   0.16702899  0.50000000 -0.00000000
   0.49963768  0.50000000  0.00000000
   0.66702899  0.00000000 -0.00000000
Direct configuration=     9
   0.99963768 -0.00000000  0.00000000
   0.16702899  0.50000000 -0.00000000
   0.49963768  0.50000000  0.00000000
   0.66702899  0.00000000 -0.00000000
Direct configuration=    10
   0.99963768 -0.00000000  0.00000000
   0.16702899  0.50000000 -0.00000000
   0.49963768  0.50000000  0.00000000
   0.66702899  0.00000000 -0.00000000
