    4    4  400    1
  0.5270948E+02  0.4269253E-09  0.2480006E-09  0.1991333E-08  0.5000000E-15
  1.000000000000000E-004
  CAR 
 gr                                      
     16    247     12
 
  0.0000000E+00  0.0000000E+00  0.0000000E+00  0.1157407E-02
    1      -22.217801
    2      -16.953914
    3      -15.949807
    4      -10.331252
    5       -9.228938
    6       -5.833008
    7       -5.773759
    8       -5.066913
    9       -1.087315
   10        0.528121
   11        1.328620
   12        1.713673
 
  0.4166667E-01  0.0000000E+00  0.0000000E+00  0.2314815E-02
    1      -22.207524
    2      -17.124867
    3      -15.763640
    4      -10.318992
    5       -9.218702
    6       -5.855828
    7       -5.815980
    8       -5.134158
    9       -1.004319
   10        0.542058
   11        1.342730
   12        1.727955
 
  0.8333333E-01  0.0000000E+00  0.0000000E+00  0.2314815E-02
    1      -22.176700
    2      -17.468121
    3      -15.374823
    4      -10.282230
    5       -9.188045
    6       -5.940946
    7       -5.923010
    8       -5.320492
    9       -0.770906
   10        0.583869
   11        1.385058
   12        1.770802
 
  0.1250000E+00  0.0000000E+00  0.0000000E+00  0.2314815E-02
    1      -22.125347
    2      -17.848192
    3      -14.919109
    4      -10.221024
    5       -9.137120
    6       -6.143855
    7       -6.030950
    8       -5.591844
    9       -0.421666
   10        0.653558
   11        1.455590
   12        1.842216
 
  0.1666667E+00  0.0000000E+00  0.0000000E+00  0.2314815E-02
    1      -22.053499
    2      -18.229661
    3      -14.432366
    4      -10.135471
    5       -9.066188
    6       -6.417513
    7       -6.174289
    8       -5.914721
    9        0.009032
   10        0.751124
   11        1.554306
   12        1.942197
 
  0.2083333E+00  0.0000000E+00  0.0000000E+00  0.2314815E-02
    1      -21.961207
    2      -18.601825
    3      -13.925943
    4      -10.025712
    5       -8.975625
    6       -6.753297
    7       -6.346643
    8       -6.264402
    9        0.495213
   10        0.876565
   11        1.681173
   12        2.070744
 
  0.2500000E+00  0.0000000E+00  0.0000000E+00  0.2314815E-02
    1      -21.848531
    2      -18.960400
    3      -13.404987
    4       -9.891936
    5       -8.865937
    6       -7.142036
    7       -6.624520
    8       -6.541299
    9        1.018845
   10        1.029864
   11        1.836141
   12        2.227857
 
  0.2916667E+00  0.0000000E+00  0.0000000E+00  0.2314815E-02
    1      -21.715554
    2      -19.303258
    3      -12.872714
    4       -9.734386
    5       -8.737773
    6       -7.574710
    7       -6.984503
    8       -6.751741
    9        1.210996
   10        1.567209
   11        2.019136
   12        2.413533
 
  0.3333333E+00  0.0000000E+00  0.0000000E+00  0.2314815E-02
    1      -21.562371
    2      -19.629167
    3      -12.331719
    4       -9.553373
    5       -8.591949
    6       -8.042903
    7       -7.337431
    8       -6.971988
    9        1.419921
   10        2.130553
   11        2.230040
   12        2.627766
 
  0.3750000E+00  0.0000000E+00  0.0000000E+00  0.2314815E-02
    1      -21.389099
    2      -19.937326
    3      -11.784467
    4       -9.349285
    5       -8.539025
    6       -8.429474
    7       -7.678653
    8       -7.196752
    9        1.656586
   10        2.468648
   11        2.699895
   12        2.870546
 
  0.4166667E+00  0.0000000E+00  0.0000000E+00  0.2314815E-02
    1      -21.195870
    2      -20.227161
    3      -11.233539
    4       -9.122607
    5       -9.056393
    6       -8.251589
    7       -8.004941
    8       -7.421472
    9        1.920916
   10        2.734542
   11        3.141856
   12        3.251789
 
  0.4583333E+00  0.0000000E+00  0.0000000E+00  0.2314815E-02
    1      -20.982849
    2      -20.498241
    3      -10.681784
    4       -9.589199
    5       -8.873948
    6       -8.313982
    7       -8.059805
    8       -7.642287
    9        2.212806
   10        2.878585
   11        3.026633
   12        3.441663
 
  0.5000000E+00  0.0000000E+00  0.0000000E+00  0.1157407E-02
    1      -20.750229
    2      -20.750229
    3      -10.132432
    4      -10.132432
    5       -8.604078
    6       -8.604078
    7       -7.855962
    8       -7.855962
    9        2.532109
   10        2.532109
   11        3.340450
   12        3.340450
 
  0.0000000E+00  0.2777778E-01  0.0000000E+00  0.2314815E-02
    1      -22.204275
    2      -16.942296
    3      -15.938464
    4      -10.315115
    5       -9.289801
    6       -5.889090
    7       -5.804407
    8       -5.050470
    9       -1.091735
   10        0.546458
   11        1.347202
   12        1.732481
 
  0.4166667E-01  0.2777778E-01  0.0000000E+00  0.4629630E-02
    1      -22.193999
    2      -17.113087
    3      -15.752510
    4      -10.302859
    5       -9.279546
    6       -5.919777
    7       -5.838073
    8       -5.117867
    9       -1.008708
   10        0.560395
   11        1.361312
   12        1.746764
 
  0.8333333E-01  0.2777778E-01  0.0000000E+00  0.4629630E-02
    1      -22.163179
    2      -17.456093
    3      -15.364103
    4      -10.266110
    5       -9.248829
    6       -6.020896
    7       -5.927164
    8       -5.304548
    9       -0.775313
   10        0.602208
   11        1.403636
   12        1.789612
 
  0.1250000E+00  0.2777778E-01  0.0000000E+00  0.4629630E-02
    1      -22.111833
    2      -17.835942
    3      -14.908888
    4      -10.204926
    5       -9.197800
    6       -6.205808
    7       -6.050238
    8       -5.576252
    9       -0.426331
   10        0.671901
   11        1.474164
   12        1.861026
 
  0.1666667E+00  0.2777778E-01  0.0000000E+00  0.4629630E-02
    1      -22.039996
    2      -18.217219
    3      -14.422735
    4      -10.119403
    5       -9.126713
    6       -6.467439
    7       -6.202216
    8       -5.899386
    9        0.003768
   10        0.769474
   11        1.572874
   12        1.961008
 
  0.2083333E+00  0.2777778E-01  0.0000000E+00  0.4629630E-02
    1      -21.947717
    2      -18.589219
    3      -13.917015
    4      -10.009682
    5       -9.035934
    6       -6.793588
    7       -6.380663
    8       -6.249215
    9        0.488993
   10        0.894924
   11        1.699733
   12        2.089557
 
  0.2500000E+00  0.2777778E-01  0.0000000E+00  0.4629630E-02
    1      -21.835060
    2      -18.947653
    3      -13.396895
    4       -9.875953
    5       -8.925956
    6       -7.174002
    7       -6.609390
    8       -6.580225
    9        1.011339
   10        1.048233
   11        1.854693
   12        2.246673
 
  0.2916667E+00  0.2777778E-01  0.0000000E+00  0.4629630E-02
    1      -21.702104
    2      -19.290390
    3      -12.865624
    4       -9.718459
    5       -8.797410
    6       -7.599430
    7       -6.969365
    8       -6.794788
    9        1.229378
   10        1.558130
   11        2.037679
   12        2.432352
 
  0.3333333E+00  0.2777778E-01  0.0000000E+00  0.4629630E-02
    1      -21.548948
    2      -19.616195
    3      -12.325830
    4       -9.537510
    5       -8.651090
    6       -8.061386
    7       -7.322245
    8       -7.018509
    9        1.438317
   10        2.119692
   11        2.248576
   12        2.646589
 
  0.3750000E+00  0.2777778E-01  0.0000000E+00  0.4629630E-02
    1      -21.375706
    2      -19.924263
    3      -11.780023
    4       -9.333493
    5       -8.552212
    6       -8.487979
    7       -7.663393
    8       -7.246177
    9        1.674998
   10        2.487183
   11        2.687242
   12        2.889374
 
  0.4166667E+00  0.2777778E-01  0.0000000E+00  0.4629630E-02
    1      -21.182514
    2      -20.214021
    3      -11.230839
    4       -9.106895
    5       -9.065131
    6       -8.309284
    7       -7.989593
    8       -7.473301
    9        1.939346
   10        2.753087
   11        3.160692
   12        3.247103
 
  0.4583333E+00  0.2777778E-01  0.0000000E+00  0.4629630E-02
    1      -20.969535
    2      -20.485035
    3      -10.681191
    4       -9.594229
    5       -8.858322
    6       -8.298542
    7       -8.116478
    8       -7.696084
    9        2.231260
   10        2.897134
   11        3.045209
   12        3.460514
 
  0.5000000E+00  0.2777778E-01  0.0000000E+00  0.2314815E-02
    1      -20.736965
    2      -20.736965
    3      -10.134386
    4      -10.134386
    5       -8.588543
    6       -8.588543
    7       -7.911353
    8       -7.911353
    9        2.550598
   10        2.550598
   11        3.359015
   12        3.359015
 
  0.0000000E+00  0.5555556E-01  0.0000000E+00  0.2314815E-02
    1      -22.163706
    2      -16.907444
    3      -15.904595
    4      -10.266738
    5       -9.467492
    6       -6.052899
    7       -5.895553
    8       -5.001162
    9       -1.105818
   10        0.601472
   11        1.402943
   12        1.788908
 
  0.4166667E-01  0.5555556E-01  0.0000000E+00  0.4629630E-02
    1      -22.153434
    2      -17.077766
    3      -15.719274
    4      -10.254495
    5       -9.457173
    6       -6.090637
    7       -5.920159
    8       -5.069028
    9       -1.022692
   10        0.615410
   11        1.417049
   12        1.803191
 
  0.8333333E-01  0.5555556E-01  0.0000000E+00  0.4629630E-02
    1      -22.122627
    2      -17.420033
    3      -15.332105
    4      -10.217785
    5       -9.426261
    6       -6.201297
    7       -5.994032
    8       -5.256775
    9       -0.789344
   10        0.657229
   11        1.459365
   12        1.846040
 
  0.1250000E+00  0.5555556E-01  0.0000000E+00  0.4629630E-02
    1      -22.071303
    2      -17.799214
    3      -14.878407
    4      -10.156665
    5       -9.374892
    6       -6.380030
    7       -6.114845
    8       -5.529561
    9       -0.441140
   10        0.726931
   11        1.529879
   12        1.917457
 
  0.1666667E+00  0.5555556E-01  0.0000000E+00  0.4629630E-02
    1      -21.999499
    2      -18.179916
    3      -14.394065
    4      -10.071233
    5       -9.303298
    6       -6.622449
    7       -6.276002
    8       -5.853481
    9       -0.012868
   10        0.824519
   11        1.628569
   12        2.017442
 
  0.2083333E+00  0.5555556E-01  0.0000000E+00  0.4629630E-02
    1      -21.907262
    2      -18.551423
    3      -13.890505
    4       -9.961629
    5       -9.211813
    6       -6.924106
    7       -6.468407
    8       -6.203754
    9        0.469439
   10        0.949990
   11        1.755404
   12        2.145996
 
  0.2500000E+00  0.5555556E-01  0.0000000E+00  0.4629630E-02
    1      -21.794657
    2      -18.909433
    3      -13.372970
    4       -9.828043
    5       -9.100884
    6       -7.279420
    7       -6.682862
    8       -6.564098
    9        0.987856
   10        1.103326
   11        1.910336
   12        2.303118
 
  0.2916667E+00  0.5555556E-01  0.0000000E+00  0.4629630E-02
    1      -21.661768
    2      -19.251805
    3      -12.844805
    4       -9.670718
    5       -8.971084
    6       -7.681566
    7       -6.924047
    8       -6.911332
    9        1.284502
   10        1.529842
   11        2.093294
   12        2.488805
 
  0.3333333E+00  0.5555556E-01  0.0000000E+00  0.4629630E-02
    1      -21.508690
    2      -19.577296
    3      -12.308755
    4       -9.489964
    5       -8.823133
    6       -8.123067
    7       -7.276775
    8       -7.147194
    9        1.493477
   10        2.085934
   11        2.304168
   12        2.703053
 
  0.3750000E+00  0.5555556E-01  0.0000000E+00  0.4629630E-02
    1      -21.335541
    2      -19.885093
    3      -11.767477
    4       -9.286167
    5       -8.657920
    6       -8.596480
    7       -7.617696
    8       -7.385066
    9        1.730197
   10        2.542766
   11        2.647872
   12        2.945853
 
  0.4166667E+00  0.5555556E-01  0.0000000E+00  0.4629630E-02
    1      -21.142457
    2      -20.174617
    3      -11.223787
    4       -9.094845
    5       -9.059811
    6       -8.476535
    7       -7.943626
    8       -7.620572
    9        1.994591
   10        2.808700
   11        3.204624
   12        3.217191
 
  0.4583333E+00  0.5555556E-01  0.0000000E+00  0.4629630E-02
    1      -20.929607
    2      -20.445429
    3      -10.680820
    4       -9.611901
    5       -8.811501
    6       -8.280306
    7       -8.252288
    8       -7.850141
    9        2.286563
   10        2.952657
   11        3.100924
   12        3.517045
 
  0.5000000E+00  0.5555556E-01  0.0000000E+00  0.2314815E-02
    1      -20.697186
    2      -20.697186
    3      -10.142151
    4      -10.142151
    5       -8.542002
    6       -8.542002
    7       -8.070852
    8       -8.070852
    9        2.605983
   10        2.605983
   11        3.414688
   12        3.414688
 
  0.0000000E+00  0.8333333E-01  0.0000000E+00  0.2314815E-02
    1      -22.096129
    2      -16.849370
    3      -15.848721
    4      -10.186221
    5       -9.748671
    6       -6.312450
    7       -6.044864
    8       -4.919047
    9       -1.132032
   10        0.693178
   11        1.495819
   12        1.882957
 
  0.4166667E-01  0.8333333E-01  0.0000000E+00  0.4629630E-02
    1      -22.085865
    2      -17.018951
    3      -15.664431
    4      -10.174000
    5       -9.738227
    6       -6.354315
    7       -6.062156
    8       -4.987745
    9       -1.048712
   10        0.707117
   11        1.509921
   12        1.897240
 
  0.8333333E-01  0.8333333E-01  0.0000000E+00  0.4629630E-02
    1      -22.055080
    2      -17.360014
    3      -15.279346
    4      -10.137357
    5       -9.706931
    6       -6.471738
    7       -6.120219
    8       -5.177369
    9       -0.815402
   10        0.748937
   11        1.552221
   12        1.940089
 
  0.1250000E+00  0.8333333E-01  0.0000000E+00  0.4629630E-02
    1      -22.003794
    2      -17.738087
    3      -14.828262
    4      -10.076348
    5       -9.654894
    6       -6.650757
    7       -6.227202
    8       -5.452037
    9       -0.468512
   10        0.818645
   11        1.622708
   12        2.011507
 
  0.1666667E+00  0.8333333E-01  0.0000000E+00  0.4629630E-02
    1      -21.932043
    2      -18.117827
    3      -14.347076
    4       -9.991072
    5       -9.582304
    6       -6.881552
    7       -6.383724
    8       -5.777308
    9       -0.043377
   10        0.916247
   11        1.721362
   12        2.111496
 
  0.2083333E+00  0.8333333E-01  0.0000000E+00  0.4629630E-02
    1      -21.839877
    2      -18.488505
    3      -13.847318
    4       -9.881669
    5       -9.489427
    6       -7.158842
    7       -6.583255
    8       -6.128333
    9        0.433909
   10        1.041738
   11        1.848151
   12        2.240055
 
  0.2500000E+00  0.8333333E-01  0.0000000E+00  0.4629630E-02
    1      -21.727363
    2      -18.845801
    3      -13.334374
    4       -9.748328
    5       -9.376619
    6       -7.480223
    7       -6.814782
    8       -6.488950
    9        0.945566
   10        1.195103
   11        2.003030
   12        2.397185
 
  0.2916667E+00  0.8333333E-01  0.0000000E+00  0.4629630E-02
    1      -21.594583
    2      -19.187559
    3      -12.811773
    4       -9.591293
    5       -9.244330
    6       -7.844194
    7       -7.065819
    8       -6.848840
    9        1.376315
   10        1.479273
   11        2.185932
   12        2.582884
 
  0.3333333E+00  0.8333333E-01  0.0000000E+00  0.4629630E-02
    1      -21.441636
    2      -19.512522
    3      -12.282501
    4       -9.410874
    5       -9.093117
    6       -8.248267
    7       -7.325194
    8       -7.201292
    9        1.585332
   10        2.025884
   11        2.396757
   12        2.797145
 
  0.3750000E+00  0.8333333E-01  0.0000000E+00  0.4629630E-02
    1      -21.268641
    2      -19.819864
    3      -11.749515
    4       -9.207455
    5       -8.923659
    6       -8.688102
    7       -7.584533
    8       -7.541808
    9        1.822098
   10        2.577799
   11        2.635333
   12        3.039963
 
  0.4166667E+00  0.8333333E-01  0.0000000E+00  0.4629630E-02
    1      -21.075741
    2      -20.108996
    3      -11.216013
    4       -9.157916
    5       -8.981517
    6       -8.736774
    7       -7.867267
    8       -7.838198
    9        2.086541
   10        2.901312
   11        3.126781
   12        3.311326
 
  0.4583333E+00  0.8333333E-01  0.0000000E+00  0.4629630E-02
    1      -20.863105
    2      -20.379470
    3      -10.685610
    4       -9.651402
    5       -8.733661
    6       -8.533446
    7       -8.175430
    8       -8.082489
    9        2.378572
   10        3.044877
   11        3.193728
   12        3.611219
 
  0.5000000E+00  0.8333333E-01  0.0000000E+00  0.2314815E-02
    1      -20.630935
    2      -20.630935
    3      -10.162468
    4      -10.162468
    5       -8.464644
    6       -8.464644
    7       -8.314862
    8       -8.314862
    9        2.698072
   10        2.698072
   11        3.507383
   12        3.507383
 
  0.0000000E+00  0.1111111E+00  0.0000000E+00  0.2314815E-02
    1      -22.001608
    2      -16.768094
    3      -15.771825
    4      -10.114707
    5      -10.073735
    6       -6.651335
    7       -6.248628
    8       -4.804229
    9       -1.174441
   10        0.821594
   11        1.625795
   12        2.014630
 
  0.4166667E-01  0.1111111E+00  0.0000000E+00  0.4629630E-02
    1      -21.991355
    2      -16.936730
    3      -15.588926
    4      -10.104044
    5      -10.061547
    6       -6.696238
    7       -6.258739
    8       -4.874205
    9       -1.090775
   10        0.835531
   11        1.639888
   12        2.028913
 
  0.8333333E-01  0.1111111E+00  0.0000000E+00  0.4629630E-02
    1      -21.960601
    2      -17.276170
    3      -15.206819
    4      -10.072078
    5      -10.025001
    6       -6.819639
    7       -6.298994
    8       -5.066682
    9       -0.857407
   10        0.877344
   11        1.682162
   12        2.071762
 
  0.1250000E+00  0.1111111E+00  0.0000000E+00  0.4629630E-02
    1      -21.909368
    2      -17.652699
    3      -14.759608
    4      -10.018871
    5       -9.964154
    6       -7.001913
    7       -6.384815
    8       -5.344167
    9       -0.512368
   10        0.947044
   11        1.752606
   12        2.143179
 
  0.1666667E+00  0.1111111E+00  0.0000000E+00  0.4629630E-02
    1      -21.837693
    2      -18.031080
    3      -14.283191
    4       -9.944526
    5       -9.879105
    6       -7.228693
    7       -6.523562
    8       -5.671418
    9       -0.091790
   10        1.044641
   11        1.851199
   12        2.243168
 
  0.2083333E+00  0.1111111E+00  0.0000000E+00  0.4629630E-02
    1      -21.745627
    2      -18.400582
    3      -13.789265
    4       -9.849183
    5       -9.769995
    6       -7.491437
    7       -6.714200
    8       -6.023517
    9        0.378169
   10        1.170137
   11        1.977911
   12        2.371731
 
  0.2500000E+00  0.1111111E+00  0.0000000E+00  0.4629630E-02
    1      -21.633239
    2      -18.756864
    3      -13.283472
    4       -9.733018
    5       -9.637014
    6       -7.785853
    7       -6.949461
    8       -6.384496
    9        0.879968
   10        1.323517
   11        2.132699
   12        2.528868
 
  0.2916667E+00  0.1111111E+00  0.0000000E+00  0.4629630E-02
    1      -21.500612
    2      -19.097751
    3      -12.769681
    4       -9.596230
    5       -9.480405
    6       -8.110903
    7       -7.217677
    8       -6.744258
    9        1.401609
   10        1.504753
   11        2.315502
   12        2.714576
 
  0.3333333E+00  0.1111111E+00  0.0000000E+00  0.4629630E-02
    1      -21.347849
    2      -19.421964
    3      -12.251328
    4       -9.439035
    5       -9.300477
    6       -8.467687
    7       -7.504782
    8       -7.096273
    9        1.713800
   10        1.934338
   11        2.526231
   12        2.928851
 
  0.3750000E+00  0.1111111E+00  0.0000000E+00  0.4629630E-02
    1      -21.175073
    2      -19.728660
    3      -11.731961
    4       -9.261654
    5       -9.097613
    6       -8.857635
    7       -7.796879
    8       -7.436171
    9        1.950598
   10        2.471197
   11        2.764743
   12        3.171686
 
  0.4166667E+00  0.1111111E+00  0.0000000E+00  0.4629630E-02
    1      -20.982431
    2      -20.017236
    3      -11.215546
    4       -9.280460
    5       -9.064300
    6       -8.872291
    7       -8.082785
    8       -7.760917
    9        2.215073
   10        3.005877
   11        3.030765
   12        3.443071
 
  0.4583333E+00  0.1111111E+00  0.0000000E+00  0.4629630E-02
    1      -20.770100
    2      -20.287231
    3      -10.706654
    4       -9.733154
    5       -8.847192
    6       -8.625106
    7       -8.355289
    8       -8.068333
    9        2.507135
   10        3.173534
   11        3.323498
   12        3.528067
 
  0.5000000E+00  0.1111111E+00  0.0000000E+00  0.2314815E-02
    1      -20.538283
    2      -20.538283
    3      -10.210561
    4      -10.210561
    5       -8.610637
    6       -8.610637
    7       -8.356804
    8       -8.356804
    9        2.826671
   10        2.826671
   11        3.636720
   12        3.636720
 
  0.0000000E+00  0.1388889E+00  0.0000000E+00  0.2314815E-02
    1      -21.880232
    2      -16.663646
    3      -15.675578
    4      -10.544973
    5       -9.929527
    6       -7.052025
    7       -6.502006
    8       -4.656852
    9       -1.238572
   10        0.986731
   11        1.792813
   12        2.183933
 
  0.4166667E-01  0.1388889E+00  0.0000000E+00  0.4629630E-02
    1      -21.869992
    2      -16.831241
    3      -15.494378
    4      -10.533940
    5       -9.917383
    6       -7.099652
    7       -6.504560
    8       -4.728701
    9       -1.154291
   10        1.000660
   11        1.806892
   12        2.198215
 
  0.8333333E-01  0.1388889E+00  0.0000000E+00  0.4629630E-02
    1      -21.839278
    2      -17.168710
    3      -15.116254
    4      -10.500834
    5       -9.880968
    6       -7.228979
    7       -6.524982
    8       -4.925291
    9       -0.920582
   10        1.042451
   11        1.849125
   12        2.241060
 
  0.1250000E+00  0.1388889E+00  0.0000000E+00  0.4629630E-02
    1      -21.788114
    2      -17.543267
    3      -14.674494
    4      -10.445625
    5       -9.820343
    6       -7.416209
    7       -6.584533
    8       -5.206736
    9       -0.577864
   10        1.112122
   11        1.919500
   12        2.312474
 
  0.1666667E+00  0.1388889E+00  0.0000000E+00  0.4629630E-02
    1      -21.716537
    2      -17.919879
    3      -14.204990
    4      -10.368253
    5       -9.735603
    6       -7.643648
    7       -6.696251
    8       -5.536690
    9       -0.163364
   10        1.209687
   11        2.017995
   12        2.412459
 
  0.2083333E+00  0.1388889E+00  0.0000000E+00  0.4629630E-02
    1      -21.624601
    2      -18.287837
    3      -13.719723
    4      -10.268604
    5       -9.626893
    6       -7.900301
    7       -6.864103
    8       -5.890193
    9        0.296759
   10        1.335156
   11        2.144580
   12        2.541020
 
  0.2500000E+00  0.1388889E+00  0.0000000E+00  0.4629630E-02
    1      -21.512375
    2      -18.642789
    3      -13.224793
    4      -10.146479
    5       -9.494402
    6       -8.179644
    7       -7.085324
    8       -6.251586
    9        0.785348
   10        1.488519
   11        2.299210
   12        2.698158
 
  0.2916667E+00  0.1388889E+00  0.0000000E+00  0.4629630E-02
    1      -21.379947
    2      -18.982530
    3      -12.724725
    4      -10.001549
    5       -9.338375
    6       -8.478458
    7       -7.352114
    8       -6.611097
    9        1.290869
   10        1.669750
   11        2.481830
   12        2.883872
 
  0.3333333E+00  0.1388889E+00  0.0000000E+00  0.4629630E-02
    1      -21.227423
    2      -19.305757
    3      -12.223841
    4       -9.833291
    5       -9.159120
    6       -8.796404
    7       -7.652878
    8       -6.962449
    9        1.805062
   10        1.878799
   11        2.692361
   12        3.098157
 
  0.3750000E+00  0.1388889E+00  0.0000000E+00  0.4629630E-02
    1      -21.054932
    2      -19.611605
    3      -11.726865
    4       -9.640931
    5       -9.135700
    6       -8.957018
    7       -7.973386
    8       -7.301449
    9        2.115600
   10        2.321568
   11        2.930695
   12        3.341005
 
  0.4166667E+00  0.1388889E+00  0.0000000E+00  0.4629630E-02
    1      -20.862627
    2      -19.899453
    3      -11.239219
    4       -9.500215
    5       -9.423441
    6       -8.732544
    7       -8.298344
    8       -7.625180
    9        2.380074
   10        2.835136
   11        3.196661
   12        3.612408
 
  0.4583333E+00  0.1388889E+00  0.0000000E+00  0.4629630E-02
    1      -20.650690
    2      -20.168822
    3      -10.767042
    4       -9.893545
    5       -9.179734
    6       -8.613734
    7       -8.486285
    8       -7.931543
    9        2.672123
   10        3.338458
   11        3.340974
   12        3.489832
 
  0.5000000E+00  0.1388889E+00  0.0000000E+00  0.2314815E-02
    1      -20.419336
    2      -20.419336
    3      -10.316698
    4      -10.316698
    5       -8.909325
    6       -8.909325
    7       -8.218976
    8       -8.218976
    9        2.991632
   10        2.991632
   11        3.791007
   12        3.791007
 
  0.0000000E+00  0.1666667E+00  0.0000000E+00  0.2314815E-02
    1      -21.732118
    2      -16.536066
    3      -15.562795
    4      -11.018892
    5       -9.753925
    6       -7.498180
    7       -6.799335
    8       -4.477108
    9       -1.331097
   10        1.188582
   11        1.996794
   12        2.390868
 
  0.4166667E-01  0.1666667E+00  0.0000000E+00  0.4629630E-02
    1      -21.721894
    2      -16.702703
    3      -15.383539
    4      -11.007225
    5       -9.741839
    6       -7.548494
    7       -6.793944
    8       -4.551680
    9       -1.245704
   10        1.202498
   11        2.010851
   12        2.405148
 
  0.8333333E-01  0.1666667E+00  0.0000000E+00  0.4629630E-02
    1      -21.691231
    2      -17.037963
    3      -15.010656
    4      -10.972153
    5       -9.705597
    6       -7.683954
    7       -6.793005
    8       -4.754109
    9       -1.010982
   10        1.244253
   11        2.053018
   12        2.447987
 
  0.1250000E+00  0.1666667E+00  0.0000000E+00  0.4629630E-02
    1      -21.640153
    2      -17.410121
    3      -14.576586
    4      -10.913459
    5       -9.645261
    6       -7.877235
    7       -6.822838
    8       -5.040975
    9       -0.670859
   10        1.313867
   11        2.123280
   12        2.519391
 
  0.1666667E+00  0.1666667E+00  0.0000000E+00  0.4629630E-02
    1      -21.568696
    2      -17.784525
    3      -14.117235
    4      -10.830737
    5       -9.560929
    6       -8.108033
    7       -6.901380
    8       -5.374472
    9       -0.263966
   10        1.411363
   11        2.221612
   12        2.619365
 
  0.2083333E+00  0.1666667E+00  0.0000000E+00  0.4629630E-02
    1      -21.476919
    2      -18.150542
    3      -13.645119
    4      -10.723329
    5       -9.452744
    6       -8.363714
    7       -7.036881
    8       -5.729700
    9        0.183688
   10        1.536761
   11        2.347976
   12        2.747916
 
  0.2500000E+00  0.1666667E+00  0.0000000E+00  0.4629630E-02
    1      -21.364894
    2      -18.503812
    3      -13.167258
    4      -10.590220
    5       -9.320900
    6       -8.636401
    7       -7.230474
    8       -6.091486
    9        0.655586
   10        1.690061
   11        2.502322
   12        2.905047
 
  0.2916667E+00  0.1666667E+00  0.0000000E+00  0.4629630E-02
    1      -21.232711
    2      -18.842108
    3      -12.689492
    4      -10.429919
    5       -9.165642
    6       -8.921296
    7       -7.478011
    8       -6.450523
    9        1.140889
   10        1.871240
   11        2.684579
   12        3.090758
 
  0.3333333E+00  0.1666667E+00  0.0000000E+00  0.4629630E-02
    1      -21.080483
    2      -19.164093
    3      -12.217892
    4      -10.240343
    5       -9.216019
    6       -8.987278
    7       -7.771344
    8       -6.800879
    9        1.632004
   10        2.080249
   11        2.894656
   12        3.305047
 
  0.3750000E+00  0.1666667E+00  0.0000000E+00  0.4629630E-02
    1      -20.908346
    2      -19.468877
    3      -11.759230
    4      -10.018904
    5       -9.520462
    6       -8.786189
    7       -8.099309
    8       -7.138597
    9        2.123234
   10        2.317013
   11        3.132422
   12        3.547904
 
  0.4166667E+00  0.1666667E+00  0.0000000E+00  0.4629630E-02
    1      -20.716459
    2      -19.755809
    3      -11.320663
    4       -9.836887
    5       -9.763118
    6       -8.562845
    7       -8.448439
    8       -7.460916
    9        2.581443
   10        2.610034
   11        3.397672
   12        3.819319
 
  0.4583333E+00  0.1666667E+00  0.0000000E+00  0.4629630E-02
    1      -20.505015
    2      -20.024395
    3      -10.908357
    4      -10.169845
    5       -9.472192
    6       -8.803636
    7       -8.317828
    8       -7.765835
    9        2.873429
   10        3.088551
   11        3.539536
   12        3.689597
 
  0.5000000E+00  0.1666667E+00  0.0000000E+00  0.2314815E-02
    1      -20.274238
    2      -20.274238
    3      -10.525288
    4      -10.525288
    5       -9.149402
    6       -9.149402
    7       -8.051856
    8       -8.051856
    9        3.192845
   10        3.192845
   11        3.555046
   12        3.555046
 