       N       E                     dE             d eps       ncg     rms          rms(c)
DAV:   1     0.187292506641E+03    0.18729E+03   -0.10557E+04  5928   0.274E+03
DAV:   2    -0.926954018939E+01   -0.19656E+03   -0.17417E+03 10416   0.261E+02
DAV:   3    -0.383313465548E+02   -0.29062E+02   -0.28601E+02  7320   0.119E+02    0.731E+00
RMM:   4    -0.376908425314E+02    0.64050E+00   -0.95838E+00  5929   0.265E+01    0.423E+00
RMM:   5    -0.369329880979E+02    0.75785E+00   -0.28355E+00  5932   0.115E+01    0.728E-01
RMM:   6    -0.369347741481E+02   -0.17861E-02   -0.85688E-02  6365   0.204E+00    0.519E-01
RMM:   7    -0.369252335191E+02    0.95406E-02   -0.33192E-02  5937   0.159E+00    0.342E-01
RMM:   8    -0.369196530428E+02    0.55805E-02   -0.74969E-03  5932   0.574E-01    0.135E-01
RMM:   9    -0.369192924726E+02    0.36057E-03   -0.20760E-02  5928   0.853E-01    0.161E-01
RMM:  10    -0.369191530713E+02    0.13940E-03   -0.26167E-03  5928   0.369E-01    0.299E-02
RMM:  11    -0.369217114685E+02   -0.25584E-02   -0.75311E-04  5929   0.179E-01    0.465E-02
RMM:  12    -0.369221601257E+02   -0.44866E-03   -0.23369E-04  5935   0.101E-01    0.530E-03
RMM:  13    -0.369224225027E+02   -0.26238E-03   -0.54669E-05  6004   0.420E-02    0.469E-03
RMM:  14    -0.369225076055E+02   -0.85103E-04   -0.12013E-05  5943   0.202E-02    0.235E-03
RMM:  15    -0.369225160152E+02   -0.84097E-05   -0.15840E-06  6001   0.762E-03    0.900E-04
RMM:  16    -0.369225276250E+02   -0.11610E-04   -0.43685E-07  6000   0.395E-03    0.486E-04
RMM:  17    -0.369225316570E+02   -0.40320E-05   -0.29988E-08  6110   0.137E-03    0.730E-04
RMM:  18    -0.369225331956E+02   -0.15386E-05   -0.61732E-08  5928   0.178E-03    0.721E-05
RMM:  19    -0.369225338453E+02   -0.64968E-06   -0.89887E-09  6025   0.476E-04    0.220E-05
RMM:  20    -0.369225338980E+02   -0.52682E-07   -0.76649E-10  4466   0.137E-04    0.294E-05
RMM:  21    -0.369225339183E+02   -0.20336E-07   -0.32034E-10  4447   0.105E-04    0.443E-06
RMM:  22    -0.369225339181E+02    0.20088E-09   -0.65007E-12  3892   0.436E-05    0.205E-06
RMM:  23    -0.369225339188E+02   -0.63312E-09   -0.12451E-11  3509   0.368E-05    0.104E-06
RMM:  24    -0.369225339187E+02    0.14779E-10   -0.82401E-12  3122   0.285E-05
   1 F= -.36922534E+02 E0= -.36922491E+02  d E =-.369225E+02
       N       E                     dE             d eps       ncg     rms          rms(c)
DAV:   1    -0.369225335053E+02    0.41347E-06   -0.36825E-05  6248   0.571E-02    0.122E-03
RMM:   2    -0.369225335258E+02   -0.20478E-07   -0.60119E-07  5940   0.687E-03    0.872E-04
RMM:   3    -0.369225335038E+02    0.21978E-07   -0.10483E-07  5969   0.261E-03    0.219E-04
RMM:   4    -0.369225335029E+02    0.94042E-09   -0.63015E-09  6046   0.629E-04    0.626E-05
RMM:   5    -0.369225335021E+02    0.71486E-09   -0.46603E-10  4546   0.160E-04    0.289E-05
RMM:   6    -0.369225335024E+02   -0.22987E-09   -0.64769E-11  3776   0.747E-05    0.362E-06
RMM:   7    -0.369225335025E+02   -0.91973E-10   -0.15787E-11  3731   0.505E-05
   2 F= -.36922534E+02 E0= -.36922490E+02  d E =0.416288E-06
       N       E                     dE             d eps       ncg     rms          rms(c)
DAV:   1    -0.369225339442E+02   -0.44184E-06   -0.23596E-05  6892   0.458E-02    0.982E-04
RMM:   2    -0.369225339557E+02   -0.11481E-07   -0.37250E-07  5940   0.549E-03    0.698E-04
RMM:   3    -0.369225339463E+02    0.93880E-08   -0.66155E-08  5966   0.208E-03    0.169E-04
RMM:   4    -0.369225339451E+02    0.11783E-08   -0.38413E-09  6041   0.493E-04    0.499E-05
RMM:   5    -0.369225339453E+02   -0.21180E-09   -0.27000E-10  4207   0.126E-04    0.230E-05
RMM:   6    -0.369225339454E+02   -0.10402E-09   -0.35876E-11  3731   0.631E-05    0.322E-06
RMM:   7    -0.369225339455E+02   -0.76739E-10   -0.17974E-11  3662   0.481E-05
   3 F= -.36922534E+02 E0= -.36922491E+02  d E =-.443054E-06
       N       E                     dE             d eps       ncg     rms          rms(c)
DAV:   1    -0.369225339447E+02    0.77148E-09    0.56983E-09  5120   0.808E-05    0.747E-07
RMM:   2    -0.369225339454E+02   -0.72896E-09    0.14614E-12  2943   0.267E-05    0.446E-07
RMM:   3    -0.369225339452E+02    0.20987E-09   -0.25233E-12  2646   0.272E-05    0.129E-07
RMM:   4    -0.369225339453E+02   -0.75033E-10   -0.99673E-13  2374   0.251E-05    0.162E-07
RMM:   5    -0.369225339453E+02   -0.31946E-10   -0.20234E-12  1971   0.233E-05
   4 F= -.36922534E+02 E0= -.36922491E+02  d E =0.222144E-09
       N       E                     dE             d eps       ncg     rms          rms(c)
DAV:   1    -0.369225339446E+02    0.61004E-09    0.57483E-09  4512   0.442E-05    0.483E-07
RMM:   2    -0.369225339454E+02   -0.77489E-09   -0.17776E-13  1412   0.130E-05    0.296E-07
RMM:   3    -0.369225339454E+02    0.50363E-10   -0.60816E-14  1413   0.128E-05    0.114E-08
RMM:   4    -0.369225339456E+02   -0.25432E-09   -0.30478E-13  1345   0.127E-05    0.106E-08
RMM:   5    -0.369225339454E+02    0.25818E-09   -0.10695E-13  1241   0.126E-05    0.813E-09
RMM:   6    -0.369225339451E+02    0.29456E-09   -0.14782E-13  1298   0.125E-05    0.734E-09
RMM:   7    -0.369225339453E+02   -0.19293E-09   -0.29372E-13  1336   0.123E-05    0.432E-09
RMM:   8    -0.369225339452E+02    0.60368E-10    0.95068E-14   983   0.123E-05
   5 F= -.36922534E+02 E0= -.36922491E+02  d E =0.833325E-10
       N       E                     dE             d eps       ncg     rms          rms(c)
DAV:   1    -0.369225339448E+02    0.43576E-09    0.57629E-09  4504   0.153E-05    0.346E-07
RMM:   2    -0.369225339454E+02   -0.58071E-09   -0.37953E-14   631   0.538E-06    0.213E-07
RMM:   3    -0.369225339456E+02   -0.15052E-09    0.10938E-14  1039   0.530E-06    0.416E-09
RMM:   4    -0.369225339451E+02    0.44179E-09    0.45971E-14   841   0.530E-06    0.192E-09
RMM:   5    -0.369225339453E+02   -0.20486E-09    0.38405E-14  1094   0.529E-06    0.947E-10
RMM:   6    -0.369225339452E+02    0.13529E-09    0.19491E-14   593   0.531E-06    0.110E-09
RMM:   7    -0.369225339455E+02   -0.33367E-09    0.58883E-14   583   0.532E-06    0.310E-09
RMM:   8    -0.369225339456E+02   -0.32855E-10   -0.11004E-13   530   0.537E-06
   6 F= -.36922534E+02 E0= -.36922491E+02  d E =-.350155E-09
       N       E                     dE             d eps       ncg     rms          rms(c)
DAV:   1    -0.369225339447E+02    0.78467E-09    0.35773E-09  6380   0.441E-04    0.936E-06
RMM:   2    -0.369225339454E+02   -0.61743E-09   -0.10177E-11  3034   0.535E-05    0.651E-06
RMM:   3    -0.369225339453E+02    0.49113E-10   -0.87243E-12  3116   0.501E-05    0.157E-06
RMM:   4    -0.369225339455E+02   -0.16780E-09   -0.80940E-12  2551   0.384E-05    0.506E-07
RMM:   5    -0.369225339451E+02    0.38779E-09   -0.57990E-12  1850   0.313E-05    0.977E-07
RMM:   6    -0.369225339453E+02   -0.21555E-09   -0.26577E-12  1522   0.269E-05    0.694E-07
RMM:   7    -0.369225339453E+02    0.46612E-11   -0.46200E-12  1613   0.243E-05
   7 F= -.36922534E+02 E0= -.36922491E+02  d E =0.258296E-09
       N       E                     dE             d eps       ncg     rms          rms(c)
DAV:   1    -0.369225339449E+02    0.39506E-09    0.34118E-09  6380   0.459E-04    0.103E-05
RMM:   2    -0.369225339451E+02   -0.16507E-09   -0.12603E-11  3186   0.530E-05    0.708E-06
RMM:   3    -0.369225339453E+02   -0.23078E-09   -0.85510E-12  3323   0.501E-05    0.150E-06
RMM:   4    -0.369225339454E+02   -0.50363E-10   -0.90520E-12  2569   0.371E-05    0.522E-07
RMM:   5    -0.369225339453E+02    0.56957E-10   -0.72440E-12  2004   0.311E-05
   8 F= -.36922534E+02 E0= -.36922491E+02  d E =0.113687E-11
       N       E                     dE             d eps       ncg     rms          rms(c)
DAV:   1    -0.369225339446E+02    0.74499E-09    0.57468E-09  4204   0.409E-05    0.926E-07
RMM:   2    -0.369225339452E+02   -0.56332E-09   -0.12369E-13   840   0.136E-05    0.567E-07
RMM:   3    -0.369225339456E+02   -0.40973E-09   -0.87025E-13   978   0.139E-05    0.134E-08
RMM:   4    -0.369225339452E+02    0.40075E-09    0.10621E-13   825   0.136E-05    0.972E-09
RMM:   5    -0.369225339454E+02   -0.22726E-09   -0.33196E-13   687   0.136E-05    0.115E-08
RMM:   6    -0.369225339456E+02   -0.18269E-09    0.55881E-13   607   0.134E-05    0.131E-08
RMM:   7    -0.369225339452E+02    0.37664E-09   -0.76309E-13   845   0.135E-05    0.204E-08
RMM:   8    -0.369225339452E+02    0.51159E-11    0.25350E-13   808   0.133E-05
   9 F= -.36922534E+02 E0= -.36922491E+02  d E =0.875389E-10
       N       E                     dE             d eps       ncg     rms          rms(c)
DAV:   1    -0.369225339445E+02    0.66632E-09    0.57634E-09  3700   0.219E-05    0.295E-07
RMM:   2    -0.369225339451E+02   -0.59424E-09    0.20642E-14   231   0.647E-06    0.180E-07
RMM:   3    -0.369225339455E+02   -0.39984E-09   -0.55593E-14   314   0.647E-06    0.508E-09
RMM:   4    -0.369225339454E+02    0.12392E-09    0.57896E-14   839   0.644E-06    0.266E-09
RMM:   5    -0.369225339453E+02    0.16814E-09   -0.21399E-13   278   0.649E-06    0.876E-10
RMM:   6    -0.369225339453E+02   -0.75602E-10    0.65627E-14   352   0.641E-06
  10 F= -.36922534E+02 E0= -.36922491E+02  d E =-.116415E-09
