<?xml version="1.0" encoding="ISO-8859-1"?>
<modeling>
 <generator>
  <i name="program" type="string">vasp </i>
  <i name="version" type="string">5.3.5  </i>
  <i name="subversion" type="string">31Mar14 (build Mar 02 2015 18:14:16) complex                          parallel </i>
  <i name="platform" type="string">LinuxIFC </i>
  <i name="date" type="string">2018 08 09 </i>
  <i name="time" type="string">18:52:50 </i>
 </generator>
 <incar>
  <i type="string" name="SYSTEM">  gr</i>
  <i type="string" name="PREC">accurate : accuracy</i>
  <i type="string" name="ALGO"> FAST.</i>
  <i type="int" name="NELM">   100</i>
  <i type="int" name="NELMDL">    -3</i>
  <i type="int" name="NELMIN">     5</i>
  <i type="int" name="IBRION">     1</i>
  <i name="EDIFF">      0.00000000</i>
  <i name="EDIFFG">     -0.00000100</i>
  <i type="int" name="NSW">   400</i>
  <i type="int" name="ISIF">     2</i>
  <i name="ENCUT">   2000.00000000</i>
  <i type="int" name="ISMEAR">     0</i>
  <i name="SIGMA">      0.05000000</i>
  <i type="int" name="NWRITE">     2</i>
  <i type="logical" name="LWAVE"> F  </i>
  <i type="logical" name="LCHARG"> F  </i>
  <i type="int" name="NELM">   100</i>
 </incar>
 <kpoints>
  <generation param="Gamma">
   <v type="int" name="divisions">      24       36        1 </v>
   <v name="usershift">      0.00000000       0.00000000       0.00000000 </v>
   <v name="genvec1">      0.04166667       0.00000000       0.00000000 </v>
   <v name="genvec2">      0.00000000       0.02777778       0.00000000 </v>
   <v name="genvec3">      0.00000000       0.00000000       1.00000000 </v>
   <v name="shift">      0.00000000       0.00000000       0.00000000 </v>
  </generation>
  <varray name="kpointlist" >
   <v>       0.00000000       0.00000000       0.00000000 </v>
   <v>       0.04166667       0.00000000       0.00000000 </v>
   <v>       0.08333333       0.00000000       0.00000000 </v>
   <v>       0.12500000       0.00000000       0.00000000 </v>
   <v>       0.16666667       0.00000000       0.00000000 </v>
   <v>       0.20833333       0.00000000       0.00000000 </v>
   <v>       0.25000000       0.00000000       0.00000000 </v>
   <v>       0.29166667       0.00000000       0.00000000 </v>
   <v>       0.33333333       0.00000000       0.00000000 </v>
   <v>       0.37500000       0.00000000       0.00000000 </v>
   <v>       0.41666667       0.00000000       0.00000000 </v>
   <v>       0.45833333       0.00000000       0.00000000 </v>
   <v>       0.50000000       0.00000000       0.00000000 </v>
   <v>       0.00000000       0.02777778       0.00000000 </v>
   <v>       0.04166667       0.02777778       0.00000000 </v>
   <v>       0.08333333       0.02777778       0.00000000 </v>
   <v>       0.12500000       0.02777778       0.00000000 </v>
   <v>       0.16666667       0.02777778       0.00000000 </v>
   <v>       0.20833333       0.02777778       0.00000000 </v>
   <v>       0.25000000       0.02777778       0.00000000 </v>
   <v>       0.29166667       0.02777778       0.00000000 </v>
   <v>       0.33333333       0.02777778       0.00000000 </v>
   <v>       0.37500000       0.02777778       0.00000000 </v>
   <v>       0.41666667       0.02777778       0.00000000 </v>
   <v>       0.45833333       0.02777778       0.00000000 </v>
   <v>       0.50000000       0.02777778       0.00000000 </v>
   <v>       0.00000000       0.05555556       0.00000000 </v>
   <v>       0.04166667       0.05555556       0.00000000 </v>
   <v>       0.08333333       0.05555556       0.00000000 </v>
   <v>       0.12500000       0.05555556       0.00000000 </v>
   <v>       0.16666667       0.05555556       0.00000000 </v>
   <v>       0.20833333       0.05555556       0.00000000 </v>
   <v>       0.25000000       0.05555556       0.00000000 </v>
   <v>       0.29166667       0.05555556       0.00000000 </v>
   <v>       0.33333333       0.05555556       0.00000000 </v>
   <v>       0.37500000       0.05555556       0.00000000 </v>
   <v>       0.41666667       0.05555556       0.00000000 </v>
   <v>       0.45833333       0.05555556       0.00000000 </v>
   <v>       0.50000000       0.05555556       0.00000000 </v>
   <v>       0.00000000       0.08333333       0.00000000 </v>
   <v>       0.04166667       0.08333333       0.00000000 </v>
   <v>       0.08333333       0.08333333       0.00000000 </v>
   <v>       0.12500000       0.08333333       0.00000000 </v>
   <v>       0.16666667       0.08333333       0.00000000 </v>
   <v>       0.20833333       0.08333333       0.00000000 </v>
   <v>       0.25000000       0.08333333       0.00000000 </v>
   <v>       0.29166667       0.08333333       0.00000000 </v>
   <v>       0.33333333       0.08333333       0.00000000 </v>
   <v>       0.37500000       0.08333333       0.00000000 </v>
   <v>       0.41666667       0.08333333       0.00000000 </v>
   <v>       0.45833333       0.08333333       0.00000000 </v>
   <v>       0.50000000       0.08333333       0.00000000 </v>
   <v>       0.00000000       0.11111111       0.00000000 </v>
   <v>       0.04166667       0.11111111       0.00000000 </v>
   <v>       0.08333333       0.11111111       0.00000000 </v>
   <v>       0.12500000       0.11111111       0.00000000 </v>
   <v>       0.16666667       0.11111111       0.00000000 </v>
   <v>       0.20833333       0.11111111       0.00000000 </v>
   <v>       0.25000000       0.11111111       0.00000000 </v>
   <v>       0.29166667       0.11111111       0.00000000 </v>
   <v>       0.33333333       0.11111111       0.00000000 </v>
   <v>       0.37500000       0.11111111       0.00000000 </v>
   <v>       0.41666667       0.11111111       0.00000000 </v>
   <v>       0.45833333       0.11111111       0.00000000 </v>
   <v>       0.50000000       0.11111111       0.00000000 </v>
   <v>       0.00000000       0.13888889       0.00000000 </v>
   <v>       0.04166667       0.13888889       0.00000000 </v>
   <v>       0.08333333       0.13888889       0.00000000 </v>
   <v>       0.12500000       0.13888889       0.00000000 </v>
   <v>       0.16666667       0.13888889       0.00000000 </v>
   <v>       0.20833333       0.13888889       0.00000000 </v>
   <v>       0.25000000       0.13888889       0.00000000 </v>
   <v>       0.29166667       0.13888889       0.00000000 </v>
   <v>       0.33333333       0.13888889       0.00000000 </v>
   <v>       0.37500000       0.13888889       0.00000000 </v>
   <v>       0.41666667       0.13888889       0.00000000 </v>
   <v>       0.45833333       0.13888889       0.00000000 </v>
   <v>       0.50000000       0.13888889       0.00000000 </v>
   <v>       0.00000000       0.16666667       0.00000000 </v>
   <v>       0.04166667       0.16666667       0.00000000 </v>
   <v>       0.08333333       0.16666667       0.00000000 </v>
   <v>       0.12500000       0.16666667       0.00000000 </v>
   <v>       0.16666667       0.16666667       0.00000000 </v>
   <v>       0.20833333       0.16666667       0.00000000 </v>
   <v>       0.25000000       0.16666667       0.00000000 </v>
   <v>       0.29166667       0.16666667       0.00000000 </v>
   <v>       0.33333333       0.16666667       0.00000000 </v>
   <v>       0.37500000       0.16666667       0.00000000 </v>
   <v>       0.41666667       0.16666667       0.00000000 </v>
   <v>       0.45833333       0.16666667       0.00000000 </v>
   <v>       0.50000000       0.16666667       0.00000000 </v>
   <v>       0.00000000       0.19444444       0.00000000 </v>
   <v>       0.04166667       0.19444444       0.00000000 </v>
   <v>       0.08333333       0.19444444       0.00000000 </v>
   <v>       0.12500000       0.19444444       0.00000000 </v>
   <v>       0.16666667       0.19444444       0.00000000 </v>
   <v>       0.20833333       0.19444444       0.00000000 </v>
   <v>       0.25000000       0.19444444       0.00000000 </v>
   <v>       0.29166667       0.19444444       0.00000000 </v>
   <v>       0.33333333       0.19444444       0.00000000 </v>
   <v>       0.37500000       0.19444444       0.00000000 </v>
   <v>       0.41666667       0.19444444       0.00000000 </v>
   <v>       0.45833333       0.19444444       0.00000000 </v>
   <v>       0.50000000       0.19444444       0.00000000 </v>
   <v>       0.00000000       0.22222222       0.00000000 </v>
   <v>       0.04166667       0.22222222       0.00000000 </v>
   <v>       0.08333333       0.22222222       0.00000000 </v>
   <v>       0.12500000       0.22222222       0.00000000 </v>
   <v>       0.16666667       0.22222222       0.00000000 </v>
   <v>       0.20833333       0.22222222       0.00000000 </v>
   <v>       0.25000000       0.22222222       0.00000000 </v>
   <v>       0.29166667       0.22222222       0.00000000 </v>
   <v>       0.33333333       0.22222222       0.00000000 </v>
   <v>       0.37500000       0.22222222       0.00000000 </v>
   <v>       0.41666667       0.22222222       0.00000000 </v>
   <v>       0.45833333       0.22222222       0.00000000 </v>
   <v>       0.50000000       0.22222222       0.00000000 </v>
   <v>       0.00000000       0.25000000       0.00000000 </v>
   <v>       0.04166667       0.25000000       0.00000000 </v>
   <v>       0.08333333       0.25000000       0.00000000 </v>
   <v>       0.12500000       0.25000000       0.00000000 </v>
   <v>       0.16666667       0.25000000       0.00000000 </v>
   <v>       0.20833333       0.25000000       0.00000000 </v>
   <v>       0.25000000       0.25000000       0.00000000 </v>
   <v>       0.29166667       0.25000000       0.00000000 </v>
   <v>       0.33333333       0.25000000       0.00000000 </v>
   <v>       0.37500000       0.25000000       0.00000000 </v>
   <v>       0.41666667       0.25000000       0.00000000 </v>
   <v>       0.45833333       0.25000000       0.00000000 </v>
   <v>       0.50000000       0.25000000       0.00000000 </v>
   <v>       0.00000000       0.27777778       0.00000000 </v>
   <v>       0.04166667       0.27777778       0.00000000 </v>
   <v>       0.08333333       0.27777778       0.00000000 </v>
   <v>       0.12500000       0.27777778       0.00000000 </v>
   <v>       0.16666667       0.27777778       0.00000000 </v>
   <v>       0.20833333       0.27777778       0.00000000 </v>
   <v>       0.25000000       0.27777778       0.00000000 </v>
   <v>       0.29166667       0.27777778       0.00000000 </v>
   <v>       0.33333333       0.27777778       0.00000000 </v>
   <v>       0.37500000       0.27777778       0.00000000 </v>
   <v>       0.41666667       0.27777778       0.00000000 </v>
   <v>       0.45833333       0.27777778       0.00000000 </v>
   <v>       0.50000000       0.27777778       0.00000000 </v>
   <v>       0.00000000       0.30555556       0.00000000 </v>
   <v>       0.04166667       0.30555556       0.00000000 </v>
   <v>       0.08333333       0.30555556       0.00000000 </v>
   <v>       0.12500000       0.30555556       0.00000000 </v>
   <v>       0.16666667       0.30555556       0.00000000 </v>
   <v>       0.20833333       0.30555556       0.00000000 </v>
   <v>       0.25000000       0.30555556       0.00000000 </v>
   <v>       0.29166667       0.30555556       0.00000000 </v>
   <v>       0.33333333       0.30555556       0.00000000 </v>
   <v>       0.37500000       0.30555556       0.00000000 </v>
   <v>       0.41666667       0.30555556       0.00000000 </v>
   <v>       0.45833333       0.30555556       0.00000000 </v>
   <v>       0.50000000       0.30555556       0.00000000 </v>
   <v>       0.00000000       0.33333333       0.00000000 </v>
   <v>       0.04166667       0.33333333       0.00000000 </v>
   <v>       0.08333333       0.33333333       0.00000000 </v>
   <v>       0.12500000       0.33333333       0.00000000 </v>
   <v>       0.16666667       0.33333333       0.00000000 </v>
   <v>       0.20833333       0.33333333       0.00000000 </v>
   <v>       0.25000000       0.33333333       0.00000000 </v>
   <v>       0.29166667       0.33333333       0.00000000 </v>
   <v>       0.33333333       0.33333333       0.00000000 </v>
   <v>       0.37500000       0.33333333       0.00000000 </v>
   <v>       0.41666667       0.33333333       0.00000000 </v>
   <v>       0.45833333       0.33333333       0.00000000 </v>
   <v>       0.50000000       0.33333333       0.00000000 </v>
   <v>       0.00000000       0.36111111       0.00000000 </v>
   <v>       0.04166667       0.36111111       0.00000000 </v>
   <v>       0.08333333       0.36111111       0.00000000 </v>
   <v>       0.12500000       0.36111111       0.00000000 </v>
   <v>       0.16666667       0.36111111       0.00000000 </v>
   <v>       0.20833333       0.36111111       0.00000000 </v>
   <v>       0.25000000       0.36111111       0.00000000 </v>
   <v>       0.29166667       0.36111111       0.00000000 </v>
   <v>       0.33333333       0.36111111       0.00000000 </v>
   <v>       0.37500000       0.36111111       0.00000000 </v>
   <v>       0.41666667       0.36111111       0.00000000 </v>
   <v>       0.45833333       0.36111111       0.00000000 </v>
   <v>       0.50000000       0.36111111       0.00000000 </v>
   <v>       0.00000000       0.38888889       0.00000000 </v>
   <v>       0.04166667       0.38888889       0.00000000 </v>
   <v>       0.08333333       0.38888889       0.00000000 </v>
   <v>       0.12500000       0.38888889       0.00000000 </v>
   <v>       0.16666667       0.38888889       0.00000000 </v>
   <v>       0.20833333       0.38888889       0.00000000 </v>
   <v>       0.25000000       0.38888889       0.00000000 </v>
   <v>       0.29166667       0.38888889       0.00000000 </v>
   <v>       0.33333333       0.38888889       0.00000000 </v>
   <v>       0.37500000       0.38888889       0.00000000 </v>
   <v>       0.41666667       0.38888889       0.00000000 </v>
   <v>       0.45833333       0.38888889       0.00000000 </v>
   <v>       0.50000000       0.38888889       0.00000000 </v>
   <v>       0.00000000       0.41666667       0.00000000 </v>
   <v>       0.04166667       0.41666667       0.00000000 </v>
   <v>       0.08333333       0.41666667       0.00000000 </v>
   <v>       0.12500000       0.41666667       0.00000000 </v>
   <v>       0.16666667       0.41666667       0.00000000 </v>
   <v>       0.20833333       0.41666667       0.00000000 </v>
   <v>       0.25000000       0.41666667       0.00000000 </v>
   <v>       0.29166667       0.41666667       0.00000000 </v>
   <v>       0.33333333       0.41666667       0.00000000 </v>
   <v>       0.37500000       0.41666667       0.00000000 </v>
   <v>       0.41666667       0.41666667       0.00000000 </v>
   <v>       0.45833333       0.41666667       0.00000000 </v>
   <v>       0.50000000       0.41666667       0.00000000 </v>
   <v>       0.00000000       0.44444444       0.00000000 </v>
   <v>       0.04166667       0.44444444       0.00000000 </v>
   <v>       0.08333333       0.44444444       0.00000000 </v>
   <v>       0.12500000       0.44444444       0.00000000 </v>
   <v>       0.16666667       0.44444444       0.00000000 </v>
   <v>       0.20833333       0.44444444       0.00000000 </v>
   <v>       0.25000000       0.44444444       0.00000000 </v>
   <v>       0.29166667       0.44444444       0.00000000 </v>
   <v>       0.33333333       0.44444444       0.00000000 </v>
   <v>       0.37500000       0.44444444       0.00000000 </v>
   <v>       0.41666667       0.44444444       0.00000000 </v>
   <v>       0.45833333       0.44444444       0.00000000 </v>
   <v>       0.50000000       0.44444444       0.00000000 </v>
   <v>       0.00000000       0.47222222       0.00000000 </v>
   <v>       0.04166667       0.47222222       0.00000000 </v>
   <v>       0.08333333       0.47222222       0.00000000 </v>
   <v>       0.12500000       0.47222222       0.00000000 </v>
   <v>       0.16666667       0.47222222       0.00000000 </v>
   <v>       0.20833333       0.47222222       0.00000000 </v>
   <v>       0.25000000       0.47222222       0.00000000 </v>
   <v>       0.29166667       0.47222222       0.00000000 </v>
   <v>       0.33333333       0.47222222       0.00000000 </v>
   <v>       0.37500000       0.47222222       0.00000000 </v>
   <v>       0.41666667       0.47222222       0.00000000 </v>
   <v>       0.45833333       0.47222222       0.00000000 </v>
   <v>       0.50000000       0.47222222       0.00000000 </v>
   <v>       0.00000000       0.50000000       0.00000000 </v>
   <v>       0.04166667       0.50000000       0.00000000 </v>
   <v>       0.08333333       0.50000000       0.00000000 </v>
   <v>       0.12500000       0.50000000       0.00000000 </v>
   <v>       0.16666667       0.50000000       0.00000000 </v>
   <v>       0.20833333       0.50000000       0.00000000 </v>
   <v>       0.25000000       0.50000000       0.00000000 </v>
   <v>       0.29166667       0.50000000       0.00000000 </v>
   <v>       0.33333333       0.50000000       0.00000000 </v>
   <v>       0.37500000       0.50000000       0.00000000 </v>
   <v>       0.41666667       0.50000000       0.00000000 </v>
   <v>       0.45833333       0.50000000       0.00000000 </v>
   <v>       0.50000000       0.50000000       0.00000000 </v>
  </varray>
  <varray name="weights" >
   <v>       0.00115741 </v>
   <v>       0.00231481 </v>
   <v>       0.00231481 </v>
   <v>       0.00231481 </v>
   <v>       0.00231481 </v>
   <v>       0.00231481 </v>
   <v>       0.00231481 </v>
   <v>       0.00231481 </v>
   <v>       0.00231481 </v>
   <v>       0.00231481 </v>
   <v>       0.00231481 </v>
   <v>       0.00231481 </v>
   <v>       0.00115741 </v>
   <v>       0.00231481 </v>
   <v>       0.00462963 </v>
   <v>       0.00462963 </v>
   <v>       0.00462963 </v>
   <v>       0.00462963 </v>
   <v>       0.00462963 </v>
   <v>       0.00462963 </v>
   <v>       0.00462963 </v>
   <v>       0.00462963 </v>
   <v>       0.00462963 </v>
   <v>       0.00462963 </v>
   <v>       0.00462963 </v>
   <v>       0.00231481 </v>
   <v>       0.00231481 </v>
   <v>       0.00462963 </v>
   <v>       0.00462963 </v>
   <v>       0.00462963 </v>
   <v>       0.00462963 </v>
   <v>       0.00462963 </v>
   <v>       0.00462963 </v>
   <v>       0.00462963 </v>
   <v>       0.00462963 </v>
   <v>       0.00462963 </v>
   <v>       0.00462963 </v>
   <v>       0.00462963 </v>
   <v>       0.00231481 </v>
   <v>       0.00231481 </v>
   <v>       0.00462963 </v>
   <v>       0.00462963 </v>
   <v>       0.00462963 </v>
   <v>       0.00462963 </v>
   <v>       0.00462963 </v>
   <v>       0.00462963 </v>
   <v>       0.00462963 </v>
   <v>       0.00462963 </v>
   <v>       0.00462963 </v>
   <v>       0.00462963 </v>
   <v>       0.00462963 </v>
   <v>       0.00231481 </v>
   <v>       0.00231481 </v>
   <v>       0.00462963 </v>
   <v>       0.00462963 </v>
   <v>       0.00462963 </v>
   <v>       0.00462963 </v>
   <v>       0.00462963 </v>
   <v>       0.00462963 </v>
   <v>       0.00462963 </v>
   <v>       0.00462963 </v>
   <v>       0.00462963 </v>
   <v>       0.00462963 </v>
   <v>       0.00462963 </v>
   <v>       0.00231481 </v>
   <v>       0.00231481 </v>
   <v>       0.00462963 </v>
   <v>       0.00462963 </v>
   <v>       0.00462963 </v>
   <v>       0.00462963 </v>
   <v>       0.00462963 </v>
   <v>       0.00462963 </v>
   <v>       0.00462963 </v>
   <v>       0.00462963 </v>
   <v>       0.00462963 </v>
   <v>       0.00462963 </v>
   <v>       0.00462963 </v>
   <v>       0.00231481 </v>
   <v>       0.00231481 </v>
   <v>       0.00462963 </v>
   <v>       0.00462963 </v>
   <v>       0.00462963 </v>
   <v>       0.00462963 </v>
   <v>       0.00462963 </v>
   <v>       0.00462963 </v>
   <v>       0.00462963 </v>
   <v>       0.00462963 </v>
   <v>       0.00462963 </v>
   <v>       0.00462963 </v>
   <v>       0.00462963 </v>
   <v>       0.00231481 </v>
   <v>       0.00231481 </v>
   <v>       0.00462963 </v>
   <v>       0.00462963 </v>
   <v>       0.00462963 </v>
   <v>       0.00462963 </v>
   <v>       0.00462963 </v>
   <v>       0.00462963 </v>
   <v>       0.00462963 </v>
   <v>       0.00462963 </v>
   <v>       0.00462963 </v>
   <v>       0.00462963 </v>
   <v>       0.00462963 </v>
   <v>       0.00231481 </v>
   <v>       0.00231481 </v>
   <v>       0.00462963 </v>
   <v>       0.00462963 </v>
   <v>       0.00462963 </v>
   <v>       0.00462963 </v>
   <v>       0.00462963 </v>
   <v>       0.00462963 </v>
   <v>       0.00462963 </v>
   <v>       0.00462963 </v>
   <v>       0.00462963 </v>
   <v>       0.00462963 </v>
   <v>       0.00462963 </v>
   <v>       0.00231481 </v>
   <v>       0.00231481 </v>
   <v>       0.00462963 </v>
   <v>       0.00462963 </v>
   <v>       0.00462963 </v>
   <v>       0.00462963 </v>
   <v>       0.00462963 </v>
   <v>       0.00462963 </v>
   <v>       0.00462963 </v>
   <v>       0.00462963 </v>
   <v>       0.00462963 </v>
   <v>       0.00462963 </v>
   <v>       0.00462963 </v>
   <v>       0.00231481 </v>
   <v>       0.00231481 </v>
   <v>       0.00462963 </v>
   <v>       0.00462963 </v>
   <v>       0.00462963 </v>
   <v>       0.00462963 </v>
   <v>       0.00462963 </v>
   <v>       0.00462963 </v>
   <v>       0.00462963 </v>
   <v>       0.00462963 </v>
   <v>       0.00462963 </v>
   <v>       0.00462963 </v>
   <v>       0.00462963 </v>
   <v>       0.00231481 </v>
   <v>       0.00231481 </v>
   <v>       0.00462963 </v>
   <v>       0.00462963 </v>
   <v>       0.00462963 </v>
   <v>       0.00462963 </v>
   <v>       0.00462963 </v>
   <v>       0.00462963 </v>
   <v>       0.00462963 </v>
   <v>       0.00462963 </v>
   <v>       0.00462963 </v>
   <v>       0.00462963 </v>
   <v>       0.00462963 </v>
   <v>       0.00231481 </v>
   <v>       0.00231481 </v>
   <v>       0.00462963 </v>
   <v>       0.00462963 </v>
   <v>       0.00462963 </v>
   <v>       0.00462963 </v>
   <v>       0.00462963 </v>
   <v>       0.00462963 </v>
   <v>       0.00462963 </v>
   <v>       0.00462963 </v>
   <v>       0.00462963 </v>
   <v>       0.00462963 </v>
   <v>       0.00462963 </v>
   <v>       0.00231481 </v>
   <v>       0.00231481 </v>
   <v>       0.00462963 </v>
   <v>       0.00462963 </v>
   <v>       0.00462963 </v>
   <v>       0.00462963 </v>
   <v>       0.00462963 </v>
   <v>       0.00462963 </v>
   <v>       0.00462963 </v>
   <v>       0.00462963 </v>
   <v>       0.00462963 </v>
   <v>       0.00462963 </v>
   <v>       0.00462963 </v>
   <v>       0.00231481 </v>
   <v>       0.00231481 </v>
   <v>       0.00462963 </v>
   <v>       0.00462963 </v>
   <v>       0.00462963 </v>
   <v>       0.00462963 </v>
   <v>       0.00462963 </v>
   <v>       0.00462963 </v>
   <v>       0.00462963 </v>
   <v>       0.00462963 </v>
   <v>       0.00462963 </v>
   <v>       0.00462963 </v>
   <v>       0.00462963 </v>
   <v>       0.00231481 </v>
   <v>       0.00231481 </v>
   <v>       0.00462963 </v>
   <v>       0.00462963 </v>
   <v>       0.00462963 </v>
   <v>       0.00462963 </v>
   <v>       0.00462963 </v>
   <v>       0.00462963 </v>
   <v>       0.00462963 </v>
   <v>       0.00462963 </v>
   <v>       0.00462963 </v>
   <v>       0.00462963 </v>
   <v>       0.00462963 </v>
   <v>       0.00231481 </v>
   <v>       0.00231481 </v>
   <v>       0.00462963 </v>
   <v>       0.00462963 </v>
   <v>       0.00462963 </v>
   <v>       0.00462963 </v>
   <v>       0.00462963 </v>
   <v>       0.00462963 </v>
   <v>       0.00462963 </v>
   <v>       0.00462963 </v>
   <v>       0.00462963 </v>
   <v>       0.00462963 </v>
   <v>       0.00462963 </v>
   <v>       0.00231481 </v>
   <v>       0.00231481 </v>
   <v>       0.00462963 </v>
   <v>       0.00462963 </v>
   <v>       0.00462963 </v>
   <v>       0.00462963 </v>
   <v>       0.00462963 </v>
   <v>       0.00462963 </v>
   <v>       0.00462963 </v>
   <v>       0.00462963 </v>
   <v>       0.00462963 </v>
   <v>       0.00462963 </v>
   <v>       0.00462963 </v>
   <v>       0.00231481 </v>
   <v>       0.00115741 </v>
   <v>       0.00231481 </v>
   <v>       0.00231481 </v>
   <v>       0.00231481 </v>
   <v>       0.00231481 </v>
   <v>       0.00231481 </v>
   <v>       0.00231481 </v>
   <v>       0.00231481 </v>
   <v>       0.00231481 </v>
   <v>       0.00231481 </v>
   <v>       0.00231481 </v>
   <v>       0.00231481 </v>
   <v>       0.00115741 </v>
  </varray>
 </kpoints>
 <parameters>
  <separator name="general" >
   <i type="string" name="SYSTEM">gr</i>
   <i type="logical" name="LCOMPAT"> F  </i>
  </separator>
  <separator name="electronic" >
   <i type="string" name="PREC">accura</i>
   <i name="ENMAX">   2000.00000000</i>
   <i name="ENAUG">    644.87300000</i>
   <i name="EDIFF">      0.00000000</i>
   <i type="int" name="IALGO">    68</i>
   <i type="int" name="IWAVPR">    11</i>
   <i type="int" name="NBANDS">    12</i>
   <i name="NELECT">     16.00000000</i>
   <i type="int" name="TURBO">     0</i>
   <i type="int" name="IRESTART">     0</i>
   <i type="int" name="NREBOOT">     0</i>
   <i type="int" name="NMIN">     0</i>
   <i name="EREF">      0.00000000</i>
   <separator name="electronic smearing" >
    <i type="int" name="ISMEAR">     0</i>
    <i name="SIGMA">      0.05000000</i>
    <i name="KSPACING">      0.50000000</i>
    <i type="logical" name="KGAMMA"> T  </i>
   </separator>
   <separator name="electronic projectors" >
    <i type="logical" name="LREAL"> F  </i>
    <v name="ROPT">      0.00000000</v>
    <i type="int" name="LMAXPAW">  -100</i>
    <i type="int" name="LMAXMIX">     2</i>
    <i type="logical" name="NLSPLINE"> F  </i>
   </separator>
   <separator name="electronic startup" >
    <i type="int" name="ISTART">     0</i>
    <i type="int" name="ICHARG">     2</i>
    <i type="int" name="INIWAV">     1</i>
   </separator>
   <separator name="electronic spin" >
    <i type="int" name="ISPIN">     1</i>
    <i type="logical" name="LNONCOLLINEAR"> F  </i>
    <v name="MAGMOM">      1.00000000      1.00000000      1.00000000      1.00000000</v>
    <i name="NUPDOWN">     -1.00000000</i>
    <i type="logical" name="LSORBIT"> F  </i>
    <v name="SAXIS">      0.00000000      0.00000000      1.00000000</v>
    <i type="logical" name="LSPIRAL"> F  </i>
    <v name="QSPIRAL">      0.00000000      0.00000000      0.00000000</v>
    <i type="logical" name="LZEROZ"> F  </i>
   </separator>
   <separator name="electronic exchange-correlation" >
    <i type="logical" name="LASPH"> F  </i>
    <i type="logical" name="LMETAGGA"> F  </i>
   </separator>
   <separator name="electronic convergence" >
    <i type="int" name="NELM">   100</i>
    <i type="int" name="NELMDL">    -3</i>
    <i type="int" name="NELMIN">     5</i>
    <i name="ENINI">   2000.00000000</i>
    <separator name="electronic convergence detail" >
     <i type="logical" name="LDIAG"> T  </i>
     <i type="logical" name="LSUBROT"> F  </i>
     <i name="WEIMIN">      0.00100000</i>
     <i name="EBREAK">      0.00000000</i>
     <i name="DEPER">      0.30000000</i>
     <i type="int" name="NRMM">     4</i>
     <i name="TIME">      0.40000000</i>
    </separator>
   </separator>
   <separator name="electronic mixer" >
    <i name="AMIX">      0.40000000</i>
    <i name="BMIX">      1.00000000</i>
    <i name="AMIN">      0.10000000</i>
    <i name="AMIX_MAG">      1.60000000</i>
    <i name="BMIX_MAG">      1.00000000</i>
    <separator name="electronic mixer details" >
     <i type="int" name="IMIX">     4</i>
     <i type="int" name="MAXMIX">   -45</i>
     <i name="WC">    100.00000000</i>
     <i type="int" name="INIMIX">     1</i>
     <i type="int" name="MIXPRE">     1</i>
     <i type="int" name="MREMOVE">     5</i>
    </separator>
   </separator>
   <separator name="electronic dipolcorrection" >
    <i type="logical" name="LDIPOL"> F  </i>
    <i type="logical" name="LMONO"> F  </i>
    <i type="int" name="IDIPOL">     0</i>
    <i name="EPSILON">      1.00000000</i>
    <v name="DIPOL">   -100.00000000   -100.00000000   -100.00000000</v>
    <i name="EFIELD">      0.00000000</i>
   </separator>
  </separator>
  <separator name="grids" >
   <i type="int" name="NGX">    64</i>
   <i type="int" name="NGY">    36</i>
   <i type="int" name="NGZ">   294</i>
   <i type="int" name="NGXF">   128</i>
   <i type="int" name="NGYF">    72</i>
   <i type="int" name="NGZF">   588</i>
   <i type="logical" name="ADDGRID"> F  </i>
  </separator>
  <separator name="ionic" >
   <i type="int" name="NSW">   400</i>
   <i type="int" name="IBRION">     1</i>
   <i type="int" name="ISIF">     2</i>
   <i name="PSTRESS">      0.00000000</i>
   <i name="EDIFFG">     -0.00000100</i>
   <i type="int" name="NFREE">     0</i>
   <i name="POTIM">      0.50000000</i>
   <i name="SMASS">     -3.00000000</i>
   <i name="SCALEE">      1.00000000</i>
  </separator>
  <separator name="ionic md" >
   <i name="TEBEG">      0.00010000</i>
   <i name="TEEND">      0.00010000</i>
   <i type="int" name="NBLOCK">     1</i>
   <i type="int" name="KBLOCK">   400</i>
   <i type="int" name="NPACO">   256</i>
   <i name="APACO">     16.00000000</i>
  </separator>
  <separator name="symmetry" >
   <i type="int" name="ISYM">     2</i>
   <i name="SYMPREC">      0.00001000</i>
  </separator>
  <separator name="dos" >
   <i type="logical" name="LORBIT"> F  </i>
   <v name="RWIGS">     -1.00000000</v>
   <i type="int" name="NEDOS">   301</i>
   <i name="EMIN">     10.00000000</i>
   <i name="EMAX">    -10.00000000</i>
   <i name="EFERMI">      0.00000000</i>
  </separator>
  <separator name="writing" >
   <i type="int" name="NWRITE">     2</i>
   <i type="logical" name="LWAVE"> F  </i>
   <i type="logical" name="LCHARG"> F  </i>
   <i type="logical" name="LPARD"> F  </i>
   <i type="logical" name="LVTOT"> F  </i>
   <i type="logical" name="LVHAR"> F  </i>
   <i type="logical" name="LELF"> F  </i>
   <i type="logical" name="LOPTICS"> F  </i>
   <v name="STM">      0.00000000      0.00000000      0.00000000      0.00000000      0.00000000      0.00000000      0.00000000</v>
  </separator>
  <separator name="performance" >
   <i type="int" name="NPAR">     4</i>
   <i type="int" name="NSIM">     4</i>
   <i type="int" name="NBLK">    -1</i>
   <i type="logical" name="LPLANE"> T  </i>
   <i type="logical" name="LSCALAPACK"> F  </i>
   <i type="logical" name="LSCAAWARE"> F  </i>
   <i type="logical" name="LSCALU"> F  </i>
   <i type="logical" name="LASYNC"> F  </i>
   <i type="logical" name="LORBITALREAL"> F  </i>
  </separator>
  <separator name="miscellaneous" >
   <i type="int" name="IDIOT">     3</i>
   <i type="logical" name="LMUSIC"> F  </i>
   <v name="POMASS">     12.01100000</v>
   <v name="DARWINR">      0.00000000</v>
   <v name="DARWINV">      1.00000000</v>
   <i type="logical" name="LCORR"> T  </i>
  </separator>
  <i type="logical" name="GGA_COMPAT"> T  </i>
  <i type="logical" name="LBERRY"> F  </i>
  <i type="int" name="ICORELEVEL">     0</i>
  <i type="logical" name="LDAU"> F  </i>
  <i type="int" name="I_CONSTRAINED_M">     0</i>
  <separator name="electronic exchange-correlation" >
   <i type="string" name="GGA">--</i>
   <i type="int" name="VOSKOWN">     0</i>
   <i type="logical" name="LHFCALC"> F  </i>
   <i type="string" name="PRECFOCK"></i>
   <i type="logical" name="LSYMGRAD"> F  </i>
   <i type="logical" name="LHFONE"> F  </i>
   <i type="logical" name="LRHFCALC"> F  </i>
   <i type="logical" name="LTHOMAS"> F  </i>
   <i type="logical" name="LMODELHF"> F  </i>
   <i name="ENCUT4O">     -1.00000000</i>
   <i type="int" name="EXXOEP">     0</i>
   <i type="int" name="FOURORBIT">     0</i>
   <i name="AEXX">      0.00000000</i>
   <i name="HFALPHA">      0.00000000</i>
   <i name="MCALPHA">      0.00000000</i>
   <i name="ALDAX">      1.00000000</i>
   <i name="AGGAX">      1.00000000</i>
   <i name="ALDAC">      1.00000000</i>
   <i name="AGGAC">      1.00000000</i>
   <i type="int" name="NKREDX">     1</i>
   <i type="int" name="NKREDY">     1</i>
   <i type="int" name="NKREDZ">     1</i>
   <i type="logical" name="SHIFTRED"> F  </i>
   <i type="logical" name="ODDONLY"> F  </i>
   <i type="logical" name="EVENONLY"> F  </i>
   <i type="int" name="LMAXFOCK">     0</i>
   <i type="int" name="NMAXFOCKAE">     0</i>
   <i type="logical" name="LFOCKAEDFT"> F  </i>
   <i name="HFSCREEN">      0.00000000</i>
   <i name="HFSCREENC">      0.00000000</i>
   <i type="int" name="NBANDSGWLOW">     0</i>
  </separator>
  <separator name="vdW DFT" >
   <i type="logical" name="LUSE_VDW"> F  </i>
   <i name="Zab_VDW">     -0.84910000</i>
   <i name="PARAM1">      0.12340000</i>
   <i name="PARAM2">      1.00000000</i>
   <i name="PARAM3">      0.00000000</i>
  </separator>
  <separator name="model GW" >
   <i type="int" name="MODEL_GW">     0</i>
   <i name="MODEL_EPS0">     31.62568521</i>
   <i name="MODEL_ALPHA">      1.00000000</i>
  </separator>
  <separator name="linear response parameters" >
   <i type="logical" name="LEPSILON"> F  </i>
   <i type="logical" name="LRPA"> F  </i>
   <i type="logical" name="LNABLA"> F  </i>
   <i type="logical" name="LVEL"> F  </i>
   <i type="int" name="KINTER">     0</i>
   <i name="CSHIFT">      0.10000000</i>
   <i name="OMEGAMAX">     -1.00000000</i>
   <i name="DEG_THRESHOLD">      0.00200000</i>
  </separator>
  <separator name="orbital magnetization" >
   <i type="logical" name="NUCIND"> F  </i>
   <v name="MAGPOS">      0.00000000      0.00000000      0.00000000</v>
   <i type="logical" name="LNICSALL"> T  </i>
   <i type="logical" name="ORBITALMAG"> F  </i>
   <i type="logical" name="LMAGBLOCH"> F  </i>
   <i type="logical" name="LCHIMAG"> F  </i>
   <i type="logical" name="LGAUGE"> T  </i>
   <i type="int" name="MAGATOM">     0</i>
   <v name="MAGDIPOL">      0.00000000      0.00000000      0.00000000</v>
   <v name="AVECCONST">      0.00000000      0.00000000      0.00000000</v>
  </separator>
  <separator name="response functions" >
   <i type="logical" name="LADDER"> F  </i>
   <i type="logical" name="LFXC"> F  </i>
   <i type="logical" name="LHARTREE"> T  </i>
   <i type="int" name="IBSE">     0</i>
   <i type="logical" name="LTCTE"> F  </i>
   <i type="logical" name="LTETE"> F  </i>
   <i type="logical" name="LTRIPLET"> F  </i>
   <i type="logical" name="LFXCEPS"> F  </i>
   <i type="logical" name="LFXHEG"> F  </i>
   <i type="logical" name="L2ORDER"> F  </i>
   <i type="logical" name="LUSEW"> F  </i>
   <i name="ENCUTGW">     -2.00000000</i>
   <i name="ENCUTGWSOFT">     -2.00000000</i>
   <i name="ENCUTLF">     -1.00000000</i>
   <i type="int" name="LMAXMP2">    -1</i>
   <i name="SCISSOR">      0.00000000</i>
   <i type="int" name="NOMEGA">     0</i>
   <i type="int" name="NOMEGAR">     0</i>
   <i type="int" name="NBANDSGW">    -1</i>
   <i type="int" name="NBANDSO">    -1</i>
   <i type="int" name="NBANDSV">    -1</i>
   <i type="int" name="NELM">   100</i>
   <i type="int" name="DIM">     3</i>
   <i type="int" name="ANTIRES">     0</i>
   <i name="OMEGAMAX">    -30.00000000</i>
   <i name="OMEGAMIN">    -30.00000000</i>
   <i name="OMEGATL">   -200.00000000</i>
   <i type="int" name="OMEGAGRID">     0</i>
   <i name="CSHIFT">     -0.10000000</i>
   <i type="logical" name="SELFENERGY"> F  </i>
   <i type="logical" name="LSPECTRAL"> F  </i>
   <i type="logical" name="ODDONLYGW"> F  </i>
   <i type="logical" name="EVENONLYGW"> F  </i>
   <i type="int" name="NKREDLFX">     1</i>
   <i type="int" name="NKREDLFY">     1</i>
   <i type="int" name="NKREDLFZ">     1</i>
   <i type="int" name="MAXMEM">  1800</i>
   <i type="int" name="TELESCOPE">     0</i>
   <i type="int" name="TAUPAR">     1</i>
  </separator>
  <separator name="External order field" >
   <i name="OFIELD_KAPPA">      0.00000000</i>
   <v name="OFIELD_K">      0.00000000      0.00000000      0.00000000</v>
   <i name="OFIELD_Q6_NEAR">      0.00000000</i>
   <i name="OFIELD_Q6_FAR">      0.00000000</i>
   <i name="OFIELD_A">      0.00000000</i>
  </separator>
 </parameters>
 <atominfo>
  <atoms>       4 </atoms>
  <types>       1 </types>
  <array name="atoms" >
   <dimension dim="1">ion</dimension>
   <field type="string">element</field>
   <field type="int">atomtype</field>
   <set>
    <rc><c>C </c><c>   1</c></rc>
    <rc><c>C </c><c>   1</c></rc>
    <rc><c>C </c><c>   1</c></rc>
    <rc><c>C </c><c>   1</c></rc>
   </set>
  </array>
  <array name="atomtypes" >
   <dimension dim="1">type</dimension>
   <field type="int">atomspertype</field>
   <field type="string">element</field>
   <field>mass</field>
   <field>valence</field>
   <field type="string">pseudopotential</field>
   <set>
    <rc><c>   4</c><c>C </c><c>     12.01100000</c><c>      4.00000000</c><c> PAW_PBE C 08Apr2002                    </c></rc>
   </set>
  </array>
 </atominfo>
 <structure name="initialpos" >
  <crystal>
   <varray name="basis" >
    <v>       4.26925322       0.00000000       0.00000000 </v>
    <v>       0.00000000       2.48000649       0.00000000 </v>
    <v>       0.00000000       0.00000000      19.91333282 </v>
   </varray>
   <i name="volume">    210.83790140 </i>
   <varray name="rec_basis" >
    <v>       0.23423300       0.00000000       0.00000000 </v>
    <v>       0.00000000       0.40322475       0.00000000 </v>
    <v>       0.00000000       0.00000000       0.05021761 </v>
   </varray>
  </crystal>
  <varray name="positions" >
   <v>       0.00013158       0.00000000       0.00000000 </v>
   <v>       0.16653509       0.50000000       0.00000000 </v>
   <v>       0.50013158       0.50000000       0.00000000 </v>
   <v>       0.66653509       0.00000000       0.00000000 </v>
  </varray>
 </structure>
 <calculation>
  <scstep>
   <time name="dav">  297.34  297.83</time>
   <time name="total">  299.82  300.36</time>
   <energy>
    <i name="alphaZ">      6.18334092 </i>
    <i name="ewald">   2557.52873761 </i>
    <i name="hartreedc">  -2983.78610511 </i>
    <i name="XCdc">     55.03849899 </i>
    <i name="pawpsdc">    151.32577238 </i>
    <i name="pawaedc">   -155.92769107 </i>
    <i name="eentropy">     -0.00181526 </i>
    <i name="bandstr">    -31.69175873 </i>
    <i name="atom">    588.62352690 </i>
    <i name="e_fr_energy">    187.29250664 </i>
    <i name="e_wo_entrp">    187.29432190 </i>
    <i name="e_0_energy">    187.29341427 </i>
   </energy>
  </scstep>
  <scstep>
   <time name="dav">  451.09  451.92</time>
   <time name="total">  451.10  451.93</time>
   <energy>
    <i name="e_fr_energy">     -9.26954019 </i>
    <i name="e_wo_entrp">     -9.26925252 </i>
    <i name="e_0_energy">     -9.26939636 </i>
   </energy>
  </scstep>
  <scstep>
   <time name="dav">  344.22  344.78</time>
   <time name="total">  373.52  374.10</time>
   <energy>
    <i name="e_fr_energy">    -38.33134655 </i>
    <i name="e_wo_entrp">    -38.33129071 </i>
    <i name="e_0_energy">    -38.33131863 </i>
   </energy>
  </scstep>
  <scstep>
   <time name="diag">   79.87   79.88</time>
   <time name="diis">  332.38  333.25</time>
   <time name="orth">    3.07    3.07</time>
   <time name="total">  446.90  447.79</time>
   <energy>
    <i name="e_fr_energy">    -37.69084253 </i>
    <i name="e_wo_entrp">    -37.69075709 </i>
    <i name="e_0_energy">    -37.69079981 </i>
   </energy>
  </scstep>
  <scstep>
   <time name="diag">   79.91   79.94</time>
   <time name="diis">  331.80  331.86</time>
   <time name="orth">    3.10    3.10</time>
   <time name="total">  446.45  446.57</time>
   <energy>
    <i name="e_fr_energy">    -36.93298810 </i>
    <i name="e_wo_entrp">    -36.93290040 </i>
    <i name="e_0_energy">    -36.93294425 </i>
   </energy>
  </scstep>
  <scstep>
   <time name="diag">   79.87   79.89</time>
   <time name="diis">  362.35  362.45</time>
   <time name="orth">    3.11    3.11</time>
   <time name="total">  477.23  477.37</time>
   <energy>
    <i name="e_fr_energy">    -36.93477415 </i>
    <i name="e_wo_entrp">    -36.93468713 </i>
    <i name="e_0_energy">    -36.93473064 </i>
   </energy>
  </scstep>
  <scstep>
   <time name="diag">   79.87   79.89</time>
   <time name="diis">  332.33  332.58</time>
   <time name="orth">    3.07    3.07</time>
   <time name="total">  446.73  447.04</time>
   <energy>
    <i name="e_fr_energy">    -36.92523352 </i>
    <i name="e_wo_entrp">    -36.92514800 </i>
    <i name="e_0_energy">    -36.92519076 </i>
   </energy>
  </scstep>
  <scstep>
   <time name="diag">   79.93   79.94</time>
   <time name="diis">  331.34  331.40</time>
   <time name="orth">    3.10    3.10</time>
   <time name="total">  445.88  446.00</time>
   <energy>
    <i name="e_fr_energy">    -36.91965304 </i>
    <i name="e_wo_entrp">    -36.91956707 </i>
    <i name="e_0_energy">    -36.91961006 </i>
   </energy>
  </scstep>
  <scstep>
   <time name="diag">   79.82   79.84</time>
   <time name="diis">  323.09  323.16</time>
   <time name="orth">    3.08    3.08</time>
   <time name="total">  437.83  437.93</time>
   <energy>
    <i name="e_fr_energy">    -36.91929247 </i>
    <i name="e_wo_entrp">    -36.91920567 </i>
    <i name="e_0_energy">    -36.91924907 </i>
   </energy>
  </scstep>
  <scstep>
   <time name="diag">   79.83   79.85</time>
   <time name="diis">  323.60  323.67</time>
   <time name="orth">    3.09    3.09</time>
   <time name="total">  438.10  438.20</time>
   <energy>
    <i name="e_fr_energy">    -36.91915307 </i>
    <i name="e_wo_entrp">    -36.91906677 </i>
    <i name="e_0_energy">    -36.91910992 </i>
   </energy>
  </scstep>
  <scstep>
   <time name="diag">   79.84   79.86</time>
   <time name="diis">  325.33  325.39</time>
   <time name="orth">    3.09    3.10</time>
   <time name="total">  439.66  439.77</time>
   <energy>
    <i name="e_fr_energy">    -36.92171147 </i>
    <i name="e_wo_entrp">    -36.92162540 </i>
    <i name="e_0_energy">    -36.92166843 </i>
   </energy>
  </scstep>
  <scstep>
   <time name="diag">   79.81   79.82</time>
   <time name="diis">  324.27  324.34</time>
   <time name="orth">    3.09    3.09</time>
   <time name="total">  438.92  439.03</time>
   <energy>
    <i name="e_fr_energy">    -36.92216013 </i>
    <i name="e_wo_entrp">    -36.92207383 </i>
    <i name="e_0_energy">    -36.92211698 </i>
   </energy>
  </scstep>
  <scstep>
   <time name="diag">   79.62   79.85</time>
   <time name="diis">  329.47  329.52</time>
   <time name="orth">    3.07    3.07</time>
   <time name="total">  444.12  444.43</time>
   <energy>
    <i name="e_fr_energy">    -36.92242250 </i>
    <i name="e_wo_entrp">    -36.92233617 </i>
    <i name="e_0_energy">    -36.92237934 </i>
   </energy>
  </scstep>
  <scstep>
   <time name="diag">   79.93   79.94</time>
   <time name="diis">  326.38  327.03</time>
   <time name="orth">    3.07    3.09</time>
   <time name="total">  440.77  441.61</time>
   <energy>
    <i name="e_fr_energy">    -36.92250761 </i>
    <i name="e_wo_entrp">    -36.92242134 </i>
    <i name="e_0_energy">    -36.92246447 </i>
   </energy>
  </scstep>
  <scstep>
   <time name="diag">   79.48   79.85</time>
   <time name="diis">  329.99  330.45</time>
   <time name="orth">    3.09    3.09</time>
   <time name="total">  443.95  444.81</time>
   <energy>
    <i name="e_fr_energy">    -36.92251602 </i>
    <i name="e_wo_entrp">    -36.92242973 </i>
    <i name="e_0_energy">    -36.92247287 </i>
   </energy>
  </scstep>
  <scstep>
   <time name="diag">   79.80   79.82</time>
   <time name="diis">  331.05  331.11</time>
   <time name="orth">    3.09    3.09</time>
   <time name="total">  445.75  445.88</time>
   <energy>
    <i name="e_fr_energy">    -36.92252762 </i>
    <i name="e_wo_entrp">    -36.92244131 </i>
    <i name="e_0_energy">    -36.92248447 </i>
   </energy>
  </scstep>
  <scstep>
   <time name="diag">   79.61   79.86</time>
   <time name="diis">  337.52  338.46</time>
   <time name="orth">    3.09    3.09</time>
   <time name="total">  451.77  453.01</time>
   <energy>
    <i name="e_fr_energy">    -36.92253166 </i>
    <i name="e_wo_entrp">    -36.92244537 </i>
    <i name="e_0_energy">    -36.92248851 </i>
   </energy>
  </scstep>
  <scstep>
   <time name="diag">   79.84   79.86</time>
   <time name="diis">  323.90  324.07</time>
   <time name="orth">    3.07    3.07</time>
   <time name="total">  438.34  438.70</time>
   <energy>
    <i name="e_fr_energy">    -36.92253320 </i>
    <i name="e_wo_entrp">    -36.92244691 </i>
    <i name="e_0_energy">    -36.92249005 </i>
   </energy>
  </scstep>
  <scstep>
   <time name="diag">   79.97   80.08</time>
   <time name="diis">  332.53  332.64</time>
   <time name="orth">    3.09    3.09</time>
   <time name="total">  447.74  448.00</time>
   <energy>
    <i name="e_fr_energy">    -36.92253385 </i>
    <i name="e_wo_entrp">    -36.92244755 </i>
    <i name="e_0_energy">    -36.92249070 </i>
   </energy>
  </scstep>
  <scstep>
   <time name="diag">   80.03   80.04</time>
   <time name="diis">  251.64  251.69</time>
   <time name="orth">    3.07    3.07</time>
   <time name="total">  367.13  367.21</time>
   <energy>
    <i name="e_fr_energy">    -36.92253390 </i>
    <i name="e_wo_entrp">    -36.92244761 </i>
    <i name="e_0_energy">    -36.92249075 </i>
   </energy>
  </scstep>
  <scstep>
   <time name="diag">   80.02   80.03</time>
   <time name="diis">  252.41  252.46</time>
   <time name="orth">    3.09    3.09</time>
   <time name="total">  367.88  367.95</time>
   <energy>
    <i name="e_fr_energy">    -36.92253392 </i>
    <i name="e_wo_entrp">    -36.92244763 </i>
    <i name="e_0_energy">    -36.92249077 </i>
   </energy>
  </scstep>
  <scstep>
   <time name="diag">   80.03   80.05</time>
   <time name="diis">  223.18  223.22</time>
   <time name="orth">    3.09    3.09</time>
   <time name="total">  338.14  338.23</time>
   <energy>
    <i name="e_fr_energy">    -36.92253392 </i>
    <i name="e_wo_entrp">    -36.92244763 </i>
    <i name="e_0_energy">    -36.92249077 </i>
   </energy>
  </scstep>
  <scstep>
   <time name="diag">   80.03   80.06</time>
   <time name="diis">  211.88  211.93</time>
   <time name="orth">    3.09    3.09</time>
   <time name="total">  326.94  327.02</time>
   <energy>
    <i name="e_fr_energy">    -36.92253392 </i>
    <i name="e_wo_entrp">    -36.92244763 </i>
    <i name="e_0_energy">    -36.92249077 </i>
   </energy>
  </scstep>
  <scstep>
   <time name="diag">   80.02   80.03</time>
   <time name="diis">  203.04  203.18</time>
   <time name="orth">    3.09    3.09</time>
   <time name="total">  288.50  288.70</time>
   <energy>
    <i name="alphaZ">      6.18334092 </i>
    <i name="ewald">   2557.52873761 </i>
    <i name="hartreedc">  -3051.54690910 </i>
    <i name="XCdc">     57.44234209 </i>
    <i name="pawpsdc">    275.31638928 </i>
    <i name="pawaedc">   -280.45722537 </i>
    <i name="eentropy">     -0.00008629 </i>
    <i name="bandstr">   -190.01264996 </i>
    <i name="atom">    588.62352690 </i>
    <i name="e_fr_energy">    -36.92253392 </i>
    <i name="e_wo_entrp">    -36.92244763 </i>
    <i name="e_0_energy">    -36.92249077 </i>
   </energy>
  </scstep>
  <structure>
   <crystal>
    <varray name="basis" >
     <v>       4.26925322       0.00000000       0.00000000 </v>
     <v>       0.00000000       2.48000649       0.00000000 </v>
     <v>       0.00000000       0.00000000      19.91333282 </v>
    </varray>
    <i name="volume">    210.83790140 </i>
    <varray name="rec_basis" >
     <v>       0.23423300       0.00000000       0.00000000 </v>
     <v>       0.00000000       0.40322475       0.00000000 </v>
     <v>       0.00000000       0.00000000       0.05021761 </v>
    </varray>
   </crystal>
   <varray name="positions" >
    <v>       0.00013158       0.00000000       0.00000000 </v>
    <v>       0.16653509       0.50000000       0.00000000 </v>
    <v>       0.50013158       0.50000000       0.00000000 </v>
    <v>       0.66653509       0.00000000       0.00000000 </v>
   </varray>
  </structure>
  <varray name="forces" >
   <v>       0.00118992       0.00000000       0.00000000 </v>
   <v>      -0.00118992       0.00000000      -0.00000000 </v>
   <v>       0.00118992       0.00000000       0.00000000 </v>
   <v>      -0.00118992      -0.00000000      -0.00000000 </v>
  </varray>
  <varray name="stress" >
   <v>       0.00780522       0.00000000       0.00000000 </v>
   <v>       0.00000000      -8.67570680       0.00000000 </v>
   <v>       0.00000000       0.00000000      -0.01002206 </v>
  </varray>
  <energy>
   <i name="e_fr_energy">    -36.92253392 </i>
   <i name="e_wo_entrp">    -36.92249077 </i>
   <i name="e_0_energy">     -0.00008629 </i>
  </energy>
  <time name="totalsc">10042.0110050.95</time>
 </calculation>
 <calculation>
  <scstep>
   <time name="dav">  310.64  311.64</time>
   <time name="total">  342.36  343.40</time>
   <energy>
    <i name="alphaZ">      6.18334092 </i>
    <i name="ewald">   2557.52847825 </i>
    <i name="hartreedc">  -3051.54680253 </i>
    <i name="XCdc">     57.44233493 </i>
    <i name="pawpsdc">    275.31639425 </i>
    <i name="pawaedc">   -280.45723041 </i>
    <i name="eentropy">     -0.00008813 </i>
    <i name="bandstr">   -190.01248769 </i>
    <i name="atom">    588.62352690 </i>
    <i name="e_fr_energy">    -36.92253351 </i>
    <i name="e_wo_entrp">    -36.92244538 </i>
    <i name="e_0_energy">    -36.92248944 </i>
   </energy>
  </scstep>
  <scstep>
   <time name="diag">   79.59   80.00</time>
   <time name="diis">  319.97  322.38</time>
   <time name="orth">    3.09    3.10</time>
   <time name="total">  434.06  437.17</time>
   <energy>
    <i name="e_fr_energy">    -36.92253353 </i>
    <i name="e_wo_entrp">    -36.92244546 </i>
    <i name="e_0_energy">    -36.92248949 </i>
   </energy>
  </scstep>
  <scstep>
   <time name="diag">   79.50   80.00</time>
   <time name="diis">  324.65  326.02</time>
   <time name="orth">    3.06    3.10</time>
   <time name="total">  438.86  440.95</time>
   <energy>
    <i name="e_fr_energy">    -36.92253350 </i>
    <i name="e_wo_entrp">    -36.92244555 </i>
    <i name="e_0_energy">    -36.92248952 </i>
   </energy>
  </scstep>
  <scstep>
   <time name="diag">   79.80   79.95</time>
   <time name="diis">  331.30  332.21</time>
   <time name="orth">    3.07    3.07</time>
   <time name="total">  445.79  447.16</time>
   <energy>
    <i name="e_fr_energy">    -36.92253350 </i>
    <i name="e_wo_entrp">    -36.92244552 </i>
    <i name="e_0_energy">    -36.92248951 </i>
   </energy>
  </scstep>
  <scstep>
   <time name="diag">   79.77   80.00</time>
   <time name="diis">  252.71  255.35</time>
   <time name="orth">    3.07    3.07</time>
   <time name="total">  367.03  370.29</time>
   <energy>
    <i name="e_fr_energy">    -36.92253350 </i>
    <i name="e_wo_entrp">    -36.92244551 </i>
    <i name="e_0_energy">    -36.92248951 </i>
   </energy>
  </scstep>
  <scstep>
   <time name="diag">   79.17   79.96</time>
   <time name="diis">  215.73  217.98</time>
   <time name="orth">    3.07    3.09</time>
   <time name="total">  329.19  332.64</time>
   <energy>
    <i name="e_fr_energy">    -36.92253350 </i>
    <i name="e_wo_entrp">    -36.92244552 </i>
    <i name="e_0_energy">    -36.92248951 </i>
   </energy>
  </scstep>
  <scstep>
   <time name="diag">   79.49   79.95</time>
   <time name="diis">  216.50  216.91</time>
   <time name="orth">    3.08    3.08</time>
   <time name="total">  301.47  302.35</time>
   <energy>
    <i name="alphaZ">      6.18334092 </i>
    <i name="ewald">   2557.52847825 </i>
    <i name="hartreedc">  -3051.54669666 </i>
    <i name="XCdc">     57.44233056 </i>
    <i name="pawpsdc">    275.31593326 </i>
    <i name="pawaedc">   -280.45676755 </i>
    <i name="eentropy">     -0.00008798 </i>
    <i name="bandstr">   -190.01259121 </i>
    <i name="atom">    588.62352690 </i>
    <i name="e_fr_energy">    -36.92253350 </i>
    <i name="e_wo_entrp">    -36.92244552 </i>
    <i name="e_0_energy">    -36.92248951 </i>
   </energy>
  </scstep>
  <structure>
   <crystal>
    <varray name="basis" >
     <v>       4.26925322       0.00000000       0.00000000 </v>
     <v>       0.00000000       2.48000649       0.00000000 </v>
     <v>       0.00000000       0.00000000      19.91333282 </v>
    </varray>
    <i name="volume">    210.83790140 </i>
    <varray name="rec_basis" >
     <v>       0.23423300       0.00000000       0.00000000 </v>
     <v>       0.00000000       0.40322475       0.00000000 </v>
     <v>       0.00000000       0.00000000       0.05021761 </v>
    </varray>
   </crystal>
   <varray name="positions" >
    <v>       0.00014502       0.00000000       0.00000000 </v>
    <v>       0.16652164       0.50000000      -0.00000000 </v>
    <v>       0.50014502       0.50000000       0.00000000 </v>
    <v>       0.66652164      -0.00000000      -0.00000000 </v>
   </varray>
  </structure>
  <varray name="forces" >
   <v>      -0.00478331       0.00000000       0.00000000 </v>
   <v>       0.00478331       0.00000000      -0.00000000 </v>
   <v>      -0.00478331      -0.00000000       0.00000000 </v>
   <v>       0.00478331       0.00000000      -0.00000000 </v>
  </varray>
  <varray name="stress" >
   <v>      -0.01094598       0.00000000       0.00000000 </v>
   <v>       0.00000000      -8.65892058       0.00000000 </v>
   <v>       0.00000000       0.00000000      -0.01001731 </v>
  </varray>
  <energy>
   <i name="e_fr_energy">    -36.92253350 </i>
   <i name="e_wo_entrp">    -36.92248951 </i>
   <i name="e_0_energy">     -0.00008798 </i>
  </energy>
  <time name="totalsc"> 2758.19 2774.48</time>
 </calculation>
 <calculation>
  <scstep>
   <time name="dav">  329.24  331.91</time>
   <time name="total">  360.45  363.49</time>
   <energy>
    <i name="alphaZ">      6.18334092 </i>
    <i name="ewald">   2557.52868558 </i>
    <i name="hartreedc">  -3051.54678505 </i>
    <i name="XCdc">     57.44233643 </i>
    <i name="pawpsdc">    275.31593943 </i>
    <i name="pawaedc">   -280.45677371 </i>
    <i name="eentropy">     -0.00008651 </i>
    <i name="bandstr">   -190.01271794 </i>
    <i name="atom">    588.62352690 </i>
    <i name="e_fr_energy">    -36.92253394 </i>
    <i name="e_wo_entrp">    -36.92244743 </i>
    <i name="e_0_energy">    -36.92249069 </i>
   </energy>
  </scstep>
  <scstep>
   <time name="diag">   79.24   80.13</time>
   <time name="diis">  320.32  323.43</time>
   <time name="orth">    3.09    3.10</time>
   <time name="total">  433.83  438.02</time>
   <energy>
    <i name="e_fr_energy">    -36.92253396 </i>
    <i name="e_wo_entrp">    -36.92244739 </i>
    <i name="e_0_energy">    -36.92249067 </i>
   </energy>
  </scstep>
  <scstep>
   <time name="diag">   79.35   80.08</time>
   <time name="diis">  323.40  326.25</time>
   <time name="orth">    3.09    3.10</time>
   <time name="total">  437.61  441.30</time>
   <energy>
    <i name="e_fr_energy">    -36.92253395 </i>
    <i name="e_wo_entrp">    -36.92244730 </i>
    <i name="e_0_energy">    -36.92249062 </i>
   </energy>
  </scstep>
  <scstep>
   <time name="diag">   79.71   80.05</time>
   <time name="diis">  328.88  331.10</time>
   <time name="orth">    3.08    3.08</time>
   <time name="total">  443.12  445.74</time>
   <energy>
    <i name="e_fr_energy">    -36.92253395 </i>
    <i name="e_wo_entrp">    -36.92244731 </i>
    <i name="e_0_energy">    -36.92249063 </i>
   </energy>
  </scstep>
  <scstep>
   <time name="diag">   79.68   80.05</time>
   <time name="diis">  237.49  237.82</time>
   <time name="orth">    3.08    3.10</time>
   <time name="total">  351.90  352.75</time>
   <energy>
    <i name="e_fr_energy">    -36.92253395 </i>
    <i name="e_wo_entrp">    -36.92244732 </i>
    <i name="e_0_energy">    -36.92249063 </i>
   </energy>
  </scstep>
  <scstep>
   <time name="diag">   79.30   80.09</time>
   <time name="diis">  213.20  214.56</time>
   <time name="orth">    3.08    3.10</time>
   <time name="total">  327.04  329.32</time>
   <energy>
    <i name="e_fr_energy">    -36.92253395 </i>
    <i name="e_wo_entrp">    -36.92244732 </i>
    <i name="e_0_energy">    -36.92249063 </i>
   </energy>
  </scstep>
  <scstep>
   <time name="diag">   79.42   80.08</time>
   <time name="diis">  213.18  215.32</time>
   <time name="orth">    3.06    3.09</time>
   <time name="total">  297.99  300.89</time>
   <energy>
    <i name="alphaZ">      6.18334092 </i>
    <i name="ewald">   2557.52868558 </i>
    <i name="hartreedc">  -3051.54686888 </i>
    <i name="XCdc">     57.44234000 </i>
    <i name="pawpsdc">    275.31630984 </i>
    <i name="pawaedc">   -280.45714567 </i>
    <i name="eentropy">     -0.00008663 </i>
    <i name="bandstr">   -190.01263600 </i>
    <i name="atom">    588.62352690 </i>
    <i name="e_fr_energy">    -36.92253395 </i>
    <i name="e_wo_entrp">    -36.92244731 </i>
    <i name="e_0_energy">    -36.92249063 </i>
   </energy>
  </scstep>
  <structure>
   <crystal>
    <varray name="basis" >
     <v>       4.26925322       0.00000000       0.00000000 </v>
     <v>       0.00000000       2.48000649       0.00000000 </v>
     <v>       0.00000000       0.00000000      19.91333282 </v>
    </varray>
    <i name="volume">    210.83790140 </i>
    <varray name="rec_basis" >
     <v>       0.23423300       0.00000000       0.00000000 </v>
     <v>       0.00000000       0.40322475       0.00000000 </v>
     <v>       0.00000000       0.00000000       0.05021761 </v>
    </varray>
   </crystal>
   <varray name="positions" >
    <v>       0.00013426       0.00000000       0.00000000 </v>
    <v>       0.16653241       0.50000000      -0.00000000 </v>
    <v>       0.50013426       0.50000000       0.00000000 </v>
    <v>       0.66653241      -0.00000000      -0.00000000 </v>
   </varray>
  </structure>
  <varray name="forces" >
   <v>      -0.00000813      -0.00000000       0.00000000 </v>
   <v>       0.00000813       0.00000000       0.00000000 </v>
   <v>      -0.00000813       0.00000000       0.00000000 </v>
   <v>       0.00000813      -0.00000000       0.00000000 </v>
  </varray>
  <varray name="stress" >
   <v>       0.00402345       0.00000000       0.00000000 </v>
   <v>       0.00000000      -8.67228881       0.00000000 </v>
   <v>       0.00000000       0.00000000      -0.01001536 </v>
  </varray>
  <energy>
   <i name="e_fr_energy">    -36.92253395 </i>
   <i name="e_wo_entrp">    -36.92249063 </i>
   <i name="e_0_energy">     -0.00008663 </i>
  </energy>
  <time name="totalsc"> 2751.18 2771.39</time>
 </calculation>
 <calculation>
  <scstep>
   <time name="dav">  271.90  273.10</time>
   <time name="total">  303.01  304.52</time>
   <energy>
    <i name="alphaZ">      6.18334092 </i>
    <i name="ewald">   2557.52868593 </i>
    <i name="hartreedc">  -3051.54686937 </i>
    <i name="XCdc">     57.44234002 </i>
    <i name="pawpsdc">    275.31630462 </i>
    <i name="pawaedc">   -280.45714047 </i>
    <i name="eentropy">     -0.00008663 </i>
    <i name="bandstr">   -190.01263586 </i>
    <i name="atom">    588.62352690 </i>
    <i name="e_fr_energy">    -36.92253394 </i>
    <i name="e_wo_entrp">    -36.92244732 </i>
    <i name="e_0_energy">    -36.92249063 </i>
   </energy>
  </scstep>
  <scstep>
   <time name="diag">   79.27   80.10</time>
   <time name="diis">  191.33  193.24</time>
   <time name="orth">    3.08    3.08</time>
   <time name="total">  304.86  307.93</time>
   <energy>
    <i name="e_fr_energy">    -36.92253395 </i>
    <i name="e_wo_entrp">    -36.92244732 </i>
    <i name="e_0_energy">    -36.92249063 </i>
   </energy>
  </scstep>
  <scstep>
   <time name="diag">   79.22   80.10</time>
   <time name="diis">  182.66  184.35</time>
   <time name="orth">    3.07    3.09</time>
   <time name="total">  296.31  299.24</time>
   <energy>
    <i name="e_fr_energy">    -36.92253395 </i>
    <i name="e_wo_entrp">    -36.92244732 </i>
    <i name="e_0_energy">    -36.92249063 </i>
   </energy>
  </scstep>
  <scstep>
   <time name="diag">   79.28   80.11</time>
   <time name="diis">  175.29  176.19</time>
   <time name="orth">    3.08    3.08</time>
   <time name="total">  289.25  291.18</time>
   <energy>
    <i name="e_fr_energy">    -36.92253395 </i>
    <i name="e_wo_entrp">    -36.92244732 </i>
    <i name="e_0_energy">    -36.92249063 </i>
   </energy>
  </scstep>
  <scstep>
   <time name="diag">   79.58   80.06</time>
   <time name="diis">  161.05  162.17</time>
   <time name="orth">    3.10    3.10</time>
   <time name="total">  246.08  247.73</time>
   <energy>
    <i name="alphaZ">      6.18334092 </i>
    <i name="ewald">   2557.52868593 </i>
    <i name="hartreedc">  -3051.54687029 </i>
    <i name="XCdc">     57.44234003 </i>
    <i name="pawpsdc">    275.31630537 </i>
    <i name="pawaedc">   -280.45714123 </i>
    <i name="eentropy">     -0.00008663 </i>
    <i name="bandstr">   -190.01263495 </i>
    <i name="atom">    588.62352690 </i>
    <i name="e_fr_energy">    -36.92253395 </i>
    <i name="e_wo_entrp">    -36.92244732 </i>
    <i name="e_0_energy">    -36.92249063 </i>
   </energy>
  </scstep>
  <structure>
   <crystal>
    <varray name="basis" >
     <v>       4.26925322       0.00000000       0.00000000 </v>
     <v>       0.00000000       2.48000649       0.00000000 </v>
     <v>       0.00000000       0.00000000      19.91333282 </v>
    </varray>
    <i name="volume">    210.83790140 </i>
    <varray name="rec_basis" >
     <v>       0.23423300       0.00000000       0.00000000 </v>
     <v>       0.00000000       0.40322475       0.00000000 </v>
     <v>       0.00000000       0.00000000       0.05021761 </v>
    </varray>
   </crystal>
   <varray name="positions" >
    <v>       0.00013424      -0.00000000       0.00000000 </v>
    <v>       0.16653243       0.50000000      -0.00000000 </v>
    <v>       0.50013424       0.50000000       0.00000000 </v>
    <v>       0.66653243      -0.00000000      -0.00000000 </v>
   </varray>
  </structure>
  <varray name="forces" >
   <v>       0.00001019       0.00000000       0.00000000 </v>
   <v>      -0.00001019       0.00000000      -0.00000000 </v>
   <v>       0.00001019      -0.00000000       0.00000000 </v>
   <v>      -0.00001019       0.00000000      -0.00000000 </v>
  </varray>
  <varray name="stress" >
   <v>       0.00410729       0.00000000       0.00000000 </v>
   <v>       0.00000000      -8.67237579       0.00000000 </v>
   <v>       0.00000000       0.00000000      -0.01001225 </v>
  </varray>
  <energy>
   <i name="e_fr_energy">    -36.92253395 </i>
   <i name="e_wo_entrp">    -36.92249063 </i>
   <i name="e_0_energy">     -0.00008663 </i>
  </energy>
  <time name="totalsc"> 1539.19 1550.92</time>
 </calculation>
 <calculation>
  <scstep>
   <time name="dav">  247.80  249.25</time>
   <time name="total">  278.83  280.64</time>
   <energy>
    <i name="alphaZ">      6.18334092 </i>
    <i name="ewald">   2557.52868573 </i>
    <i name="hartreedc">  -3051.54687060 </i>
    <i name="XCdc">     57.44234003 </i>
    <i name="pawpsdc">    275.31630511 </i>
    <i name="pawaedc">   -280.45714096 </i>
    <i name="eentropy">     -0.00008663 </i>
    <i name="bandstr">   -190.01263445 </i>
    <i name="atom">    588.62352690 </i>
    <i name="e_fr_energy">    -36.92253394 </i>
    <i name="e_wo_entrp">    -36.92244732 </i>
    <i name="e_0_energy">    -36.92249063 </i>
   </energy>
  </scstep>
  <scstep>
   <time name="diag">   79.20   80.04</time>
   <time name="diis">  146.92  148.30</time>
   <time name="orth">    3.08    3.11</time>
   <time name="total">  260.33  262.87</time>
   <energy>
    <i name="e_fr_energy">    -36.92253395 </i>
    <i name="e_wo_entrp">    -36.92244732 </i>
    <i name="e_0_energy">    -36.92249063 </i>
   </energy>
  </scstep>
  <scstep>
   <time name="diag">   79.24   80.03</time>
   <time name="diis">  147.06  148.54</time>
   <time name="orth">    3.08    3.08</time>
   <time name="total">  260.66  263.27</time>
   <energy>
    <i name="e_fr_energy">    -36.92253395 </i>
    <i name="e_wo_entrp">    -36.92244732 </i>
    <i name="e_0_energy">    -36.92249063 </i>
   </energy>
  </scstep>
  <scstep>
   <time name="diag">   79.68   80.01</time>
   <time name="diis">  145.60  146.44</time>
   <time name="orth">    3.08    3.10</time>
   <time name="total">  259.82  261.25</time>
   <energy>
    <i name="e_fr_energy">    -36.92253395 </i>
    <i name="e_wo_entrp">    -36.92244732 </i>
    <i name="e_0_energy">    -36.92249063 </i>
   </energy>
  </scstep>
  <scstep>
   <time name="diag">   79.18   80.00</time>
   <time name="diis">  140.09  141.42</time>
   <time name="orth">    3.08    3.10</time>
   <time name="total">  253.43  256.02</time>
   <energy>
    <i name="e_fr_energy">    -36.92253395 </i>
    <i name="e_wo_entrp">    -36.92244732 </i>
    <i name="e_0_energy">    -36.92249063 </i>
   </energy>
  </scstep>
  <scstep>
   <time name="diag">   79.71   80.03</time>
   <time name="diis">  144.19  145.08</time>
   <time name="orth">    3.07    3.10</time>
   <time name="total">  258.33  259.84</time>
   <energy>
    <i name="e_fr_energy">    -36.92253395 </i>
    <i name="e_wo_entrp">    -36.92244732 </i>
    <i name="e_0_energy">    -36.92249063 </i>
   </energy>
  </scstep>
  <scstep>
   <time name="diag">   79.24   80.06</time>
   <time name="diis">  141.39  142.82</time>
   <time name="orth">    3.07    3.07</time>
   <time name="total">  254.92  257.54</time>
   <energy>
    <i name="e_fr_energy">    -36.92253395 </i>
    <i name="e_wo_entrp">    -36.92244732 </i>
    <i name="e_0_energy">    -36.92249063 </i>
   </energy>
  </scstep>
  <scstep>
   <time name="diag">   79.32   80.03</time>
   <time name="diis">  128.76  130.01</time>
   <time name="orth">    3.07    3.07</time>
   <time name="total">  213.54  215.55</time>
   <energy>
    <i name="alphaZ">      6.18334092 </i>
    <i name="ewald">   2557.52868573 </i>
    <i name="hartreedc">  -3051.54687076 </i>
    <i name="XCdc">     57.44234001 </i>
    <i name="pawpsdc">    275.31630375 </i>
    <i name="pawaedc">   -280.45713959 </i>
    <i name="eentropy">     -0.00008663 </i>
    <i name="bandstr">   -190.01263428 </i>
    <i name="atom">    588.62352690 </i>
    <i name="e_fr_energy">    -36.92253395 </i>
    <i name="e_wo_entrp">    -36.92244732 </i>
    <i name="e_0_energy">    -36.92249063 </i>
   </energy>
  </scstep>
  <structure>
   <crystal>
    <varray name="basis" >
     <v>       4.26925322       0.00000000       0.00000000 </v>
     <v>       0.00000000       2.48000649       0.00000000 </v>
     <v>       0.00000000       0.00000000      19.91333282 </v>
    </varray>
    <i name="volume">    210.83790140 </i>
    <varray name="rec_basis" >
     <v>       0.23423300       0.00000000       0.00000000 </v>
     <v>       0.00000000       0.40322475       0.00000000 </v>
     <v>       0.00000000       0.00000000       0.05021761 </v>
    </varray>
   </crystal>
   <varray name="positions" >
    <v>       0.00013425      -0.00000000       0.00000000 </v>
    <v>       0.16653242       0.50000000      -0.00000000 </v>
    <v>       0.50013425       0.50000000       0.00000000 </v>
    <v>       0.66653242      -0.00000000      -0.00000000 </v>
   </varray>
  </structure>
  <varray name="forces" >
   <v>       0.00000119      -0.00000000       0.00000000 </v>
   <v>      -0.00000119       0.00000000      -0.00000000 </v>
   <v>       0.00000119      -0.00000000       0.00000000 </v>
   <v>      -0.00000119       0.00000000      -0.00000000 </v>
  </varray>
  <varray name="stress" >
   <v>       0.00407658       0.00000000       0.00000000 </v>
   <v>       0.00000000      -8.67234361       0.00000000 </v>
   <v>       0.00000000       0.00000000      -0.01001601 </v>
  </varray>
  <energy>
   <i name="e_fr_energy">    -36.92253395 </i>
   <i name="e_wo_entrp">    -36.92249063 </i>
   <i name="e_0_energy">     -0.00008663 </i>
  </energy>
  <time name="totalsc"> 2138.63 2156.59</time>
 </calculation>
 <calculation>
  <scstep>
   <time name="dav">  250.24  251.80</time>
   <time name="total">  281.40  283.27</time>
   <energy>
    <i name="alphaZ">      6.18334092 </i>
    <i name="ewald">   2557.52868571 </i>
    <i name="hartreedc">  -3051.54687076 </i>
    <i name="XCdc">     57.44234001 </i>
    <i name="pawpsdc">    275.31630375 </i>
    <i name="pawaedc">   -280.45713960 </i>
    <i name="eentropy">     -0.00008663 </i>
    <i name="bandstr">   -190.01263425 </i>
    <i name="atom">    588.62352690 </i>
    <i name="e_fr_energy">    -36.92253394 </i>
    <i name="e_wo_entrp">    -36.92244732 </i>
    <i name="e_0_energy">    -36.92249063 </i>
   </energy>
  </scstep>
  <scstep>
   <time name="diag">   79.38   80.05</time>
   <time name="diis">  117.45  118.08</time>
   <time name="orth">    3.09    3.10</time>
   <time name="total">  231.57  232.94</time>
   <energy>
    <i name="e_fr_energy">    -36.92253395 </i>
    <i name="e_wo_entrp">    -36.92244732 </i>
    <i name="e_0_energy">    -36.92249063 </i>
   </energy>
  </scstep>
  <scstep>
   <time name="diag">   80.03   80.05</time>
   <time name="diis">  135.35  135.45</time>
   <time name="orth">    3.10    3.10</time>
   <time name="total">  249.93  250.08</time>
   <energy>
    <i name="e_fr_energy">    -36.92253395 </i>
    <i name="e_wo_entrp">    -36.92244732 </i>
    <i name="e_0_energy">    -36.92249063 </i>
   </energy>
  </scstep>
  <scstep>
   <time name="diag">   80.02   80.04</time>
   <time name="diis">  128.85  128.87</time>
   <time name="orth">    3.08    3.08</time>
   <time name="total">  243.38  243.44</time>
   <energy>
    <i name="e_fr_energy">    -36.92253395 </i>
    <i name="e_wo_entrp">    -36.92244732 </i>
    <i name="e_0_energy">    -36.92249063 </i>
   </energy>
  </scstep>
  <scstep>
   <time name="diag">   80.08   80.09</time>
   <time name="diis">  138.63  138.71</time>
   <time name="orth">    3.09    3.10</time>
   <time name="total">  253.66  253.78</time>
   <energy>
    <i name="e_fr_energy">    -36.92253395 </i>
    <i name="e_wo_entrp">    -36.92244732 </i>
    <i name="e_0_energy">    -36.92249063 </i>
   </energy>
  </scstep>
  <scstep>
   <time name="diag">   80.02   80.13</time>
   <time name="diis">  119.75  119.89</time>
   <time name="orth">    3.09    3.09</time>
   <time name="total">  235.40  235.71</time>
   <energy>
    <i name="e_fr_energy">    -36.92253395 </i>
    <i name="e_wo_entrp">    -36.92244732 </i>
    <i name="e_0_energy">    -36.92249063 </i>
   </energy>
  </scstep>
  <scstep>
   <time name="diag">   79.96   80.00</time>
   <time name="diis">  125.82  125.84</time>
   <time name="orth">    3.09    3.09</time>
   <time name="total">  241.69  241.76</time>
   <energy>
    <i name="e_fr_energy">    -36.92253395 </i>
    <i name="e_wo_entrp">    -36.92244732 </i>
    <i name="e_0_energy">    -36.92249063 </i>
   </energy>
  </scstep>
  <scstep>
   <time name="diag">   80.01   80.05</time>
   <time name="diis">  121.77  121.79</time>
   <time name="orth">    3.09    3.09</time>
   <time name="total">  207.29  207.38</time>
   <energy>
    <i name="alphaZ">      6.18334092 </i>
    <i name="ewald">   2557.52868571 </i>
    <i name="hartreedc">  -3051.54687101 </i>
    <i name="XCdc">     57.44234002 </i>
    <i name="pawpsdc">    275.31630379 </i>
    <i name="pawaedc">   -280.45713963 </i>
    <i name="eentropy">     -0.00008663 </i>
    <i name="bandstr">   -190.01263401 </i>
    <i name="atom">    588.62352690 </i>
    <i name="e_fr_energy">    -36.92253395 </i>
    <i name="e_wo_entrp">    -36.92244732 </i>
    <i name="e_0_energy">    -36.92249063 </i>
   </energy>
  </scstep>
  <structure>
   <crystal>
    <varray name="basis" >
     <v>       4.26925322       0.00000000       0.00000000 </v>
     <v>       0.00000000       2.48000649       0.00000000 </v>
     <v>       0.00000000       0.00000000      19.91333282 </v>
    </varray>
    <i name="volume">    210.83790140 </i>
    <varray name="rec_basis" >
     <v>       0.23423300       0.00000000       0.00000000 </v>
     <v>       0.00000000       0.40322475       0.00000000 </v>
     <v>       0.00000000       0.00000000       0.05021761 </v>
    </varray>
   </crystal>
   <varray name="positions" >
    <v>       0.00013425      -0.00000000       0.00000000 </v>
    <v>       0.16653242       0.50000000      -0.00000000 </v>
    <v>       0.50013425       0.50000000       0.00000000 </v>
    <v>       0.66653242       0.00000000      -0.00000000 </v>
   </varray>
  </structure>
  <varray name="forces" >
   <v>       0.00000120       0.00000000      -0.00000000 </v>
   <v>      -0.00000120       0.00000000       0.00000000 </v>
   <v>       0.00000120      -0.00000000      -0.00000000 </v>
   <v>      -0.00000120       0.00000000       0.00000000 </v>
  </varray>
  <varray name="stress" >
   <v>       0.00407834       0.00000000       0.00000000 </v>
   <v>       0.00000000      -8.67234709       0.00000000 </v>
   <v>       0.00000000       0.00000000      -0.01001452 </v>
  </varray>
  <energy>
   <i name="e_fr_energy">    -36.92253395 </i>
   <i name="e_wo_entrp">    -36.92249063 </i>
   <i name="e_0_energy">     -0.00008663 </i>
  </energy>
  <time name="totalsc"> 2045.95 2050.04</time>
 </calculation>
 <calculation>
  <scstep>
   <time name="dav">  311.66  311.73</time>
   <time name="total">  344.31  344.39</time>
   <energy>
    <i name="alphaZ">      6.18334092 </i>
    <i name="ewald">   2557.52868773 </i>
    <i name="hartreedc">  -3051.54687189 </i>
    <i name="XCdc">     57.44234007 </i>
    <i name="pawpsdc">    275.31630379 </i>
    <i name="pawaedc">   -280.45713963 </i>
    <i name="eentropy">     -0.00008662 </i>
    <i name="bandstr">   -190.01263522 </i>
    <i name="atom">    588.62352690 </i>
    <i name="e_fr_energy">    -36.92253394 </i>
    <i name="e_wo_entrp">    -36.92244733 </i>
    <i name="e_0_energy">    -36.92249064 </i>
   </energy>
  </scstep>
  <scstep>
   <time name="diag">   80.06   80.08</time>
   <time name="diis">  188.13  188.23</time>
   <time name="orth">    3.09    3.09</time>
   <time name="total">  304.00  304.13</time>
   <energy>
    <i name="e_fr_energy">    -36.92253395 </i>
    <i name="e_wo_entrp">    -36.92244733 </i>
    <i name="e_0_energy">    -36.92249064 </i>
   </energy>
  </scstep>
  <scstep>
   <time name="diag">   80.07   80.09</time>
   <time name="diis">  189.60  189.64</time>
   <time name="orth">    3.10    3.10</time>
   <time name="total">  305.47  305.56</time>
   <energy>
    <i name="e_fr_energy">    -36.92253395 </i>
    <i name="e_wo_entrp">    -36.92244733 </i>
    <i name="e_0_energy">    -36.92249064 </i>
   </energy>
  </scstep>
  <scstep>
   <time name="diag">   80.01   80.06</time>
   <time name="diis">  169.76  170.17</time>
   <time name="orth">    3.08    3.08</time>
   <time name="total">  285.54  286.03</time>
   <energy>
    <i name="e_fr_energy">    -36.92253395 </i>
    <i name="e_wo_entrp">    -36.92244733 </i>
    <i name="e_0_energy">    -36.92249064 </i>
   </energy>
  </scstep>
  <scstep>
   <time name="diag">   80.06   80.07</time>
   <time name="diis">  150.27  150.31</time>
   <time name="orth">    3.07    3.08</time>
   <time name="total">  266.06  266.14</time>
   <energy>
    <i name="e_fr_energy">    -36.92253395 </i>
    <i name="e_wo_entrp">    -36.92244733 </i>
    <i name="e_0_energy">    -36.92249064 </i>
   </energy>
  </scstep>
  <scstep>
   <time name="diag">   80.05   80.07</time>
   <time name="diis">  141.40  141.43</time>
   <time name="orth">    3.10    3.10</time>
   <time name="total">  256.91  257.07</time>
   <energy>
    <i name="e_fr_energy">    -36.92253395 </i>
    <i name="e_wo_entrp">    -36.92244733 </i>
    <i name="e_0_energy">    -36.92249064 </i>
   </energy>
  </scstep>
  <scstep>
   <time name="diag">   79.66   80.06</time>
   <time name="diis">  143.96  144.67</time>
   <time name="orth">    3.07    3.09</time>
   <time name="total">  229.14  230.28</time>
   <energy>
    <i name="alphaZ">      6.18334092 </i>
    <i name="ewald">   2557.52868773 </i>
    <i name="hartreedc">  -3051.54687307 </i>
    <i name="XCdc">     57.44234011 </i>
    <i name="pawpsdc">    275.31631022 </i>
    <i name="pawaedc">   -280.45714610 </i>
    <i name="eentropy">     -0.00008662 </i>
    <i name="bandstr">   -190.01263405 </i>
    <i name="atom">    588.62352690 </i>
    <i name="e_fr_energy">    -36.92253395 </i>
    <i name="e_wo_entrp">    -36.92244733 </i>
    <i name="e_0_energy">    -36.92249064 </i>
   </energy>
  </scstep>
  <structure>
   <crystal>
    <varray name="basis" >
     <v>       4.26925322       0.00000000       0.00000000 </v>
     <v>       0.00000000       2.48000649       0.00000000 </v>
     <v>       0.00000000       0.00000000      19.91333282 </v>
    </varray>
    <i name="volume">    210.83790140 </i>
    <varray name="rec_basis" >
     <v>       0.23423300       0.00000000       0.00000000 </v>
     <v>       0.00000000       0.40322475       0.00000000 </v>
     <v>       0.00000000       0.00000000       0.05021761 </v>
    </varray>
   </crystal>
   <varray name="positions" >
    <v>       0.00013415       0.00000000       0.00000000 </v>
    <v>       0.16653252       0.50000000      -0.00000000 </v>
    <v>       0.50013415       0.50000000       0.00000000 </v>
    <v>       0.66653252      -0.00000000      -0.00000000 </v>
   </varray>
  </structure>
  <varray name="forces" >
   <v>       0.00004716      -0.00000000      -0.00000000 </v>
   <v>      -0.00004716      -0.00000000       0.00000000 </v>
   <v>       0.00004716       0.00000000      -0.00000000 </v>
   <v>      -0.00004716      -0.00000000       0.00000000 </v>
  </varray>
  <varray name="stress" >
   <v>       0.00422542       0.00000000       0.00000000 </v>
   <v>       0.00000000      -8.67247859       0.00000000 </v>
   <v>       0.00000000       0.00000000      -0.01001740 </v>
  </varray>
  <energy>
   <i name="e_fr_energy">    -36.92253395 </i>
   <i name="e_wo_entrp">    -36.92249064 </i>
   <i name="e_0_energy">     -0.00008662 </i>
  </energy>
  <time name="totalsc"> 2092.68 2095.29</time>
 </calculation>
 <calculation>
  <scstep>
   <time name="dav">  308.36  308.67</time>
   <time name="total">  340.99  341.33</time>
   <energy>
    <i name="alphaZ">      6.18334092 </i>
    <i name="ewald">   2557.52868565 </i>
    <i name="hartreedc">  -3051.54687219 </i>
    <i name="XCdc">     57.44234006 </i>
    <i name="pawpsdc">    275.31631024 </i>
    <i name="pawaedc">   -280.45714612 </i>
    <i name="eentropy">     -0.00008663 </i>
    <i name="bandstr">   -190.01263279 </i>
    <i name="atom">    588.62352690 </i>
    <i name="e_fr_energy">    -36.92253394 </i>
    <i name="e_wo_entrp">    -36.92244731 </i>
    <i name="e_0_energy">    -36.92249063 </i>
   </energy>
  </scstep>
  <scstep>
   <time name="diag">   80.05   80.06</time>
   <time name="diis">  192.31  192.35</time>
   <time name="orth">    3.09    3.12</time>
   <time name="total">  307.95  308.03</time>
   <energy>
    <i name="e_fr_energy">    -36.92253395 </i>
    <i name="e_wo_entrp">    -36.92244731 </i>
    <i name="e_0_energy">    -36.92249063 </i>
   </energy>
  </scstep>
  <scstep>
   <time name="diag">   80.05   80.06</time>
   <time name="diis">  195.56  195.61</time>
   <time name="orth">    3.08    3.08</time>
   <time name="total">  311.10  311.37</time>
   <energy>
    <i name="e_fr_energy">    -36.92253395 </i>
    <i name="e_wo_entrp">    -36.92244732 </i>
    <i name="e_0_energy">    -36.92249063 </i>
   </energy>
  </scstep>
  <scstep>
   <time name="diag">   79.87   80.09</time>
   <time name="diis">  170.01  170.87</time>
   <time name="orth">    3.07    3.10</time>
   <time name="total">  285.36  286.60</time>
   <energy>
    <i name="e_fr_energy">    -36.92253395 </i>
[...]
       <r>   -9.1633    1.0000 </r>
       <r>   -5.6103    1.0000 </r>
       <r>   -5.6103    1.0000 </r>
       <r>   -0.4541    0.0000 </r>
       <r>   -0.4541    0.0000 </r>
       <r>    4.8346    0.0000 </r>
       <r>    4.8346    0.0000 </r>
      </set>
      <set comment="kpoint 209">
       <r>  -18.8401    1.0000 </r>
       <r>  -17.0712    1.0000 </r>
       <r>  -14.0096    1.0000 </r>
       <r>  -12.3973    1.0000 </r>
       <r>  -12.3973    1.0000 </r>
       <r>  -10.8790    1.0000 </r>
       <r>   -6.4369    1.0000 </r>
       <r>   -4.5651    1.0000 </r>
       <r>   -0.9869    0.0000 </r>
       <r>    1.1568    0.0000 </r>
       <r>    5.2026    0.0000 </r>
       <r>    5.9913    0.0000 </r>
      </set>
      <set comment="kpoint 210">
       <r>  -18.8304    1.0000 </r>
       <r>  -17.0635    1.0000 </r>
       <r>  -14.0973    1.0000 </r>
       <r>  -12.4784    1.0000 </r>
       <r>  -12.3018    1.0000 </r>
       <r>  -10.8000    1.0000 </r>
       <r>   -6.4281    1.0000 </r>
       <r>   -4.5679    1.0000 </r>
       <r>   -0.9969    0.0000 </r>
       <r>    1.1311    0.0000 </r>
       <r>    5.2162    0.0000 </r>
       <r>    6.0074    0.0000 </r>
      </set>
      <set comment="kpoint 211">
       <r>  -18.8012    1.0000 </r>
       <r>  -17.0407    1.0000 </r>
       <r>  -14.3143    1.0000 </r>
       <r>  -12.6831    1.0000 </r>
       <r>  -12.0611    1.0000 </r>
       <r>  -10.6024    1.0000 </r>
       <r>   -6.4017    1.0000 </r>
       <r>   -4.5766    1.0000 </r>
       <r>   -1.0251    0.0000 </r>
       <r>    1.0559    0.0000 </r>
       <r>    5.2570    0.0000 </r>
       <r>    6.0553    0.0000 </r>
      </set>
      <set comment="kpoint 212">
       <r>  -18.7527    1.0000 </r>
       <r>  -17.0041    1.0000 </r>
       <r>  -14.5906    1.0000 </r>
       <r>  -12.9509    1.0000 </r>
       <r>  -11.7457    1.0000 </r>
       <r>  -10.3486    1.0000 </r>
       <r>   -6.3581    1.0000 </r>
       <r>   -4.5928    1.0000 </r>
       <r>   -1.0661    0.0000 </r>
       <r>    0.9367    0.0000 </r>
       <r>    5.3247    0.0000 </r>
       <r>    6.1339    0.0000 </r>
      </set>
      <set comment="kpoint 213">
       <r>  -18.6850    1.0000 </r>
       <r>  -16.9563    1.0000 </r>
       <r>  -14.8838    1.0000 </r>
       <r>  -13.2454    1.0000 </r>
       <r>  -11.3973    1.0000 </r>
       <r>  -10.0785    1.0000 </r>
       <r>   -6.2977    1.0000 </r>
       <r>   -4.6188    1.0000 </r>
       <r>   -1.1125    0.0000 </r>
       <r>    0.7811    0.0000 </r>
       <r>    5.4182    0.0000 </r>
       <r>    6.2419    0.0000 </r>
      </set>
      <set comment="kpoint 214">
       <r>  -18.5983    1.0000 </r>
       <r>  -16.9024    1.0000 </r>
       <r>  -15.1703    1.0000 </r>
       <r>  -13.5481    1.0000 </r>
       <r>  -11.0380    1.0000 </r>
       <r>   -9.8151    1.0000 </r>
       <r>   -6.2213    1.0000 </r>
       <r>   -4.6574    1.0000 </r>
       <r>   -1.1549    0.0000 </r>
       <r>    0.5979    0.0000 </r>
       <r>    5.5328    0.0000 </r>
       <r>    6.1751    0.0000 </r>
      </set>
      <set comment="kpoint 215">
       <r>  -18.4930    1.0000 </r>
       <r>  -16.8527    1.0000 </r>
       <r>  -15.4305    1.0000 </r>
       <r>  -13.8496    1.0000 </r>
       <r>  -10.6814    1.0000 </r>
       <r>   -9.5737    1.0000 </r>
       <r>   -6.1299    1.0000 </r>
       <r>   -4.7112    1.0000 </r>
       <r>   -1.1843    0.0000 </r>
       <r>    0.3961    0.0000 </r>
       <r>    5.5966    0.0000 </r>
       <r>    5.8176    0.0000 </r>
      </set>
      <set comment="kpoint 216">
       <r>  -18.3694    1.0000 </r>
       <r>  -16.8269    1.0000 </r>
       <r>  -15.6397    1.0000 </r>
       <r>  -14.1440    1.0000 </r>
       <r>  -10.3379    1.0000 </r>
       <r>   -9.3663    1.0000 </r>
       <r>   -6.0248    1.0000 </r>
       <r>   -4.7821    1.0000 </r>
       <r>   -1.1926    0.0000 </r>
       <r>    0.1840    0.0000 </r>
       <r>    5.3087    0.0000 </r>
       <r>    5.9042    0.0000 </r>
      </set>
      <set comment="kpoint 217">
       <r>  -18.2282    1.0000 </r>
       <r>  -16.8553    1.0000 </r>
       <r>  -15.7647    1.0000 </r>
       <r>  -14.4276    1.0000 </r>
       <r>  -10.0170    1.0000 </r>
       <r>   -9.2035    1.0000 </r>
       <r>   -5.9076    1.0000 </r>
       <r>   -4.8709    1.0000 </r>
       <r>   -1.1738    0.0000 </r>
       <r>   -0.0307    0.0000 </r>
       <r>    5.0143    0.0000 </r>
       <r>    5.8415    0.0000 </r>
      </set>
      <set comment="kpoint 218">
       <r>  -18.0702    1.0000 </r>
       <r>  -16.9583    1.0000 </r>
       <r>  -15.7832    1.0000 </r>
       <r>  -14.6971    1.0000 </r>
       <r>   -9.7279    1.0000 </r>
       <r>   -9.0941    1.0000 </r>
       <r>   -5.7804    1.0000 </r>
       <r>   -4.9766    1.0000 </r>
       <r>   -1.1243    0.0000 </r>
       <r>   -0.2413    0.0000 </r>
       <r>    4.7983    0.0000 </r>
       <r>    5.4435    0.0000 </r>
      </set>
      <set comment="kpoint 219">
       <r>  -17.8969    1.0000 </r>
       <r>  -17.1211    1.0000 </r>
       <r>  -15.7091    1.0000 </r>
       <r>  -14.9500    1.0000 </r>
       <r>   -9.4797    1.0000 </r>
       <r>   -9.0448    1.0000 </r>
       <r>   -5.6455    1.0000 </r>
       <r>   -5.0967    1.0000 </r>
       <r>   -1.0431    0.0000 </r>
       <r>   -0.4417    0.0000 </r>
       <r>    4.6726    0.0000 </r>
       <r>    5.1159    0.0000 </r>
      </set>
      <set comment="kpoint 220">
       <r>  -17.7102    1.0000 </r>
       <r>  -17.3134    1.0000 </r>
       <r>  -15.5718    1.0000 </r>
       <r>  -15.1832    1.0000 </r>
       <r>   -9.2810    1.0000 </r>
       <r>   -9.0596    1.0000 </r>
       <r>   -5.5061    1.0000 </r>
       <r>   -5.2277    1.0000 </r>
       <r>   -0.9313    0.0000 </r>
       <r>   -0.6267    0.0000 </r>
       <r>    4.6422    0.0000 </r>
       <r>    4.8681    0.0000 </r>
      </set>
      <set comment="kpoint 221">
       <r>  -17.5137    1.0000 </r>
       <r>  -17.5137    1.0000 </r>
       <r>  -15.3926    1.0000 </r>
       <r>  -15.3926    1.0000 </r>
       <r>   -9.1392    1.0000 </r>
       <r>   -9.1392    1.0000 </r>
       <r>   -5.3655    1.0000 </r>
       <r>   -5.3655    1.0000 </r>
       <r>   -0.7913    0.0000 </r>
       <r>   -0.7913    0.0000 </r>
       <r>    4.7083    0.0000 </r>
       <r>    4.7083    0.0000 </r>
      </set>
      <set comment="kpoint 222">
       <r>  -18.4223    1.0000 </r>
       <r>  -17.5341    1.0000 </r>
       <r>  -13.6364    1.0000 </r>
       <r>  -12.8294    1.0000 </r>
       <r>  -12.0509    1.0000 </r>
       <r>  -11.2870    1.0000 </r>
       <r>   -5.9815    1.0000 </r>
       <r>   -5.0404    1.0000 </r>
       <r>   -0.4840    0.0000 </r>
       <r>    0.5899    0.0000 </r>
       <r>    5.7961    0.0000 </r>
       <r>    6.5492    0.0000 </r>
      </set>
      <set comment="kpoint 223">
       <r>  -18.4127    1.0000 </r>
       <r>  -17.5253    1.0000 </r>
       <r>  -13.7241    1.0000 </r>
       <r>  -12.9133    1.0000 </r>
       <r>  -11.9580    1.0000 </r>
       <r>  -11.2027    1.0000 </r>
       <r>   -5.9740    1.0000 </r>
       <r>   -5.0379    1.0000 </r>
       <r>   -0.5006    0.0000 </r>
       <r>    0.5662    0.0000 </r>
       <r>    5.8097    0.0000 </r>
       <r>    6.5661    0.0000 </r>
      </set>
      <set comment="kpoint 224">
       <r>  -18.3841    1.0000 </r>
       <r>  -17.4992    1.0000 </r>
       <r>  -13.9421    1.0000 </r>
       <r>  -13.1238    1.0000 </r>
       <r>  -11.7248    1.0000 </r>
       <r>  -10.9915    1.0000 </r>
       <r>   -5.9516    1.0000 </r>
       <r>   -5.0309    1.0000 </r>
       <r>   -0.5483    0.0000 </r>
       <r>    0.4972    0.0000 </r>
       <r>    5.8503    0.0000 </r>
       <r>    6.6165    0.0000 </r>
      </set>
      <set comment="kpoint 225">
       <r>  -18.3365    1.0000 </r>
       <r>  -17.4561    1.0000 </r>
       <r>  -14.2218    1.0000 </r>
       <r>  -13.3974    1.0000 </r>
       <r>  -11.4209    1.0000 </r>
       <r>  -10.7188    1.0000 </r>
       <r>   -5.9147    1.0000 </r>
       <r>   -5.0205    1.0000 </r>
       <r>   -0.6221    0.0000 </r>
       <r>    0.3881    0.0000 </r>
       <r>    5.9175    0.0000 </r>
       <r>    6.6988    0.0000 </r>
      </set>
      <set comment="kpoint 226">
       <r>  -18.2702    1.0000 </r>
       <r>  -17.3970    1.0000 </r>
       <r>  -14.5233    1.0000 </r>
       <r>  -13.6965    1.0000 </r>
       <r>  -11.0878    1.0000 </r>
       <r>  -10.4251    1.0000 </r>
       <r>   -5.8643    1.0000 </r>
       <r>   -5.0085    1.0000 </r>
       <r>   -0.7139    0.0000 </r>
       <r>    0.2465    0.0000 </r>
       <r>    6.0092    0.0000 </r>
       <r>    6.8111    0.0000 </r>
      </set>
      <set comment="kpoint 227">
       <r>  -18.1855    1.0000 </r>
       <r>  -17.3236    1.0000 </r>
       <r>  -14.8265    1.0000 </r>
       <r>  -14.0024    1.0000 </r>
       <r>  -10.7479    1.0000 </r>
       <r>  -10.1332    1.0000 </r>
       <r>   -5.8013    1.0000 </r>
       <r>   -4.9976    1.0000 </r>
       <r>   -0.8144    0.0000 </r>
       <r>    0.0814    0.0000 </r>
       <r>    6.1088    0.0000 </r>
       <r>    6.4524    0.0000 </r>
      </set>
      <set comment="kpoint 228">
       <r>  -18.0830    1.0000 </r>
       <r>  -17.2387    1.0000 </r>
       <r>  -15.1193    1.0000 </r>
       <r>  -14.3054    1.0000 </r>
       <r>  -10.4150    1.0000 </r>
       <r>   -9.8580    1.0000 </r>
       <r>   -5.7273    1.0000 </r>
       <r>   -4.9907    1.0000 </r>
       <r>   -0.9134    0.0000 </r>
       <r>   -0.0980    0.0000 </r>
       <r>    5.9081    0.0000 </r>
       <r>    6.3254    0.0000 </r>
      </set>
      <set comment="kpoint 229">
       <r>  -17.9634    1.0000 </r>
       <r>  -17.1479    1.0000 </r>
       <r>  -15.3911    1.0000 </r>
       <r>  -14.5996    1.0000 </r>
       <r>  -10.1002    1.0000 </r>
       <r>   -9.6113    1.0000 </r>
       <r>   -5.6443    1.0000 </r>
       <r>   -4.9914    1.0000 </r>
       <r>   -1.0009    0.0000 </r>
       <r>   -0.2827    0.0000 </r>
       <r>    5.5056    0.0000 </r>
       <r>    6.0010    0.0000 </r>
      </set>
      <set comment="kpoint 230">
       <r>  -17.8281    1.0000 </r>
       <r>  -17.0618    1.0000 </r>
       <r>  -15.6284    1.0000 </r>
       <r>  -14.8805    1.0000 </r>
       <r>   -9.8133    1.0000 </r>
       <r>   -9.4037    1.0000 </r>
       <r>   -5.5548    1.0000 </r>
       <r>   -5.0031    1.0000 </r>
       <r>   -1.0678    0.0000 </r>
       <r>   -0.4643    0.0000 </r>
       <r>    5.1599    0.0000 </r>
       <r>    5.5754    0.0000 </r>
      </set>
      <set comment="kpoint 231">
       <r>  -17.6788    1.0000 </r>
       <r>  -17.0009    1.0000 </r>
       <r>  -15.8089    1.0000 </r>
       <r>  -15.1442    1.0000 </r>
       <r>   -9.5638    1.0000 </r>
       <r>   -9.2444    1.0000 </r>
       <r>   -5.4616    1.0000 </r>
       <r>   -5.0286    1.0000 </r>
       <r>   -1.1067    0.0000 </r>
       <r>   -0.6351    0.0000 </r>
       <r>    4.8916    0.0000 </r>
       <r>    5.2161    0.0000 </r>
      </set>
      <set comment="kpoint 232">
       <r>  -17.5188    1.0000 </r>
       <r>  -16.9960    1.0000 </r>
       <r>  -15.9004    1.0000 </r>
       <r>  -15.3862    1.0000 </r>
       <r>   -9.3607    1.0000 </r>
       <r>   -9.1414    1.0000 </r>
       <r>   -5.3684    1.0000 </r>
       <r>   -5.0696    1.0000 </r>
       <r>   -1.1125    0.0000 </r>
       <r>   -0.7881    0.0000 </r>
       <r>    4.7103    0.0000 </r>
       <r>    4.9335    0.0000 </r>
      </set>
      <set comment="kpoint 233">
       <r>  -17.3543    1.0000 </r>
       <r>  -17.0667    1.0000 </r>
       <r>  -15.8828    1.0000 </r>
       <r>  -15.5994    1.0000 </r>
       <r>   -9.2121    1.0000 </r>
       <r>   -9.1003    1.0000 </r>
       <r>   -5.2788    1.0000 </r>
       <r>   -5.1262    1.0000 </r>
       <r>   -1.0824    0.0000 </r>
       <r>   -0.9170    0.0000 </r>
       <r>    4.6226    0.0000 </r>
       <r>    4.7364    0.0000 </r>
      </set>
      <set comment="kpoint 234">
       <r>  -17.1964    1.0000 </r>
       <r>  -17.1964    1.0000 </r>
       <r>  -15.7722    1.0000 </r>
       <r>  -15.7722    1.0000 </r>
       <r>   -9.1241    1.0000 </r>
       <r>   -9.1241    1.0000 </r>
       <r>   -5.1969    1.0000 </r>
       <r>   -5.1969    1.0000 </r>
       <r>   -1.0165    0.0000 </r>
       <r>   -1.0165    0.0000 </r>
       <r>    4.6314    0.0000 </r>
       <r>    4.6314    0.0000 </r>
      </set>
      <set comment="kpoint 235">
       <r>  -17.9860    1.0000 </r>
       <r>  -17.9860    1.0000 </r>
       <r>  -13.2428    1.0000 </r>
       <r>  -13.2428    1.0000 </r>
       <r>  -11.6791    1.0000 </r>
       <r>  -11.6791    1.0000 </r>
       <r>   -5.5144    1.0000 </r>
       <r>   -5.5144    1.0000 </r>
       <r>    0.0422    0.0000 </r>
       <r>    0.0422    0.0000 </r>
       <r>    6.4206    0.0000 </r>
       <r>    6.4206    0.0000 </r>
      </set>
      <set comment="kpoint 236">
       <r>  -17.9767    1.0000 </r>
       <r>  -17.9767    1.0000 </r>
       <r>  -13.3290    1.0000 </r>
       <r>  -13.3290    1.0000 </r>
       <r>  -11.5900    1.0000 </r>
       <r>  -11.5900    1.0000 </r>
       <r>   -5.5088    1.0000 </r>
       <r>   -5.5088    1.0000 </r>
       <r>    0.0214    0.0000 </r>
       <r>    0.0214    0.0000 </r>
       <r>    6.4341    0.0000 </r>
       <r>    6.4341    0.0000 </r>
      </set>
      <set comment="kpoint 237">
       <r>  -17.9489    1.0000 </r>
       <r>  -17.9489    1.0000 </r>
       <r>  -13.5442    1.0000 </r>
       <r>  -13.5442    1.0000 </r>
       <r>  -11.3668    1.0000 </r>
       <r>  -11.3668    1.0000 </r>
       <r>   -5.4924    1.0000 </r>
       <r>   -5.4924    1.0000 </r>
       <r>   -0.0389    0.0000 </r>
       <r>   -0.0389    0.0000 </r>
       <r>    6.4744    0.0000 </r>
       <r>    6.4744    0.0000 </r>
      </set>
      <set comment="kpoint 238">
       <r>  -17.9029    1.0000 </r>
       <r>  -17.9029    1.0000 </r>
       <r>  -13.8221    1.0000 </r>
       <r>  -13.8221    1.0000 </r>
       <r>  -11.0773    1.0000 </r>
       <r>  -11.0773    1.0000 </r>
       <r>   -5.4659    1.0000 </r>
       <r>   -5.4659    1.0000 </r>
       <r>   -0.1338    0.0000 </r>
       <r>   -0.1338    0.0000 </r>
       <r>    6.5408    0.0000 </r>
       <r>    6.5408    0.0000 </r>
      </set>
      <set comment="kpoint 239">
       <r>  -17.8390    1.0000 </r>
       <r>  -17.8390    1.0000 </r>
       <r>  -14.1241    1.0000 </r>
       <r>  -14.1241    1.0000 </r>
       <r>  -10.7626    1.0000 </r>
       <r>  -10.7626    1.0000 </r>
       <r>   -5.4304    1.0000 </r>
       <r>   -5.4304    1.0000 </r>
       <r>   -0.2553    0.0000 </r>
       <r>   -0.2553    0.0000 </r>
       <r>    6.6286    0.0000 </r>
       <r>    6.6286    0.0000 </r>
      </set>
      <set comment="kpoint 240">
       <r>  -17.7580    1.0000 </r>
       <r>  -17.7580    1.0000 </r>
       <r>  -14.4310    1.0000 </r>
       <r>  -14.4310    1.0000 </r>
       <r>  -10.4452    1.0000 </r>
       <r>  -10.4452    1.0000 </r>
       <r>   -5.3877    1.0000 </r>
       <r>   -5.3877    1.0000 </r>
       <r>   -0.3945    0.0000 </r>
       <r>   -0.3945    0.0000 </r>
       <r>    6.6300    0.0000 </r>
       <r>    6.6300    0.0000 </r>
      </set>
      <set comment="kpoint 241">
       <r>  -17.6608    1.0000 </r>
       <r>  -17.6608    1.0000 </r>
       <r>  -14.7326    1.0000 </r>
       <r>  -14.7326    1.0000 </r>
       <r>  -10.1395    1.0000 </r>
       <r>  -10.1395    1.0000 </r>
       <r>   -5.3402    1.0000 </r>
       <r>   -5.3402    1.0000 </r>
       <r>   -0.5414    0.0000 </r>
       <r>   -0.5414    0.0000 </r>
       <r>    6.1838    0.0000 </r>
       <r>    6.1838    0.0000 </r>
      </set>
      <set comment="kpoint 242">
       <r>  -17.5495    1.0000 </r>
       <r>  -17.5495    1.0000 </r>
       <r>  -15.0220    1.0000 </r>
       <r>  -15.0220    1.0000 </r>
       <r>   -9.8570    1.0000 </r>
       <r>   -9.8570    1.0000 </r>
       <r>   -5.2907    1.0000 </r>
       <r>   -5.2907    1.0000 </r>
       <r>   -0.6864    0.0000 </r>
       <r>   -0.6864    0.0000 </r>
       <r>    5.7360    0.0000 </r>
       <r>    5.7360    0.0000 </r>
      </set>
      <set comment="kpoint 243">
       <r>  -17.4269    1.0000 </r>
       <r>  -17.4269    1.0000 </r>
       <r>  -15.2931    1.0000 </r>
       <r>  -15.2931    1.0000 </r>
       <r>   -9.6079    1.0000 </r>
       <r>   -9.6079    1.0000 </r>
       <r>   -5.2426    1.0000 </r>
       <r>   -5.2426    1.0000 </r>
       <r>   -0.8204    0.0000 </r>
       <r>   -0.8204    0.0000 </r>
       <r>    5.3474    0.0000 </r>
       <r>    5.3474    0.0000 </r>
      </set>
      <set comment="kpoint 244">
       <r>  -17.2990    1.0000 </r>
       <r>  -17.2990    1.0000 </r>
       <r>  -15.5381    1.0000 </r>
       <r>  -15.5381    1.0000 </r>
       <r>   -9.4018    1.0000 </r>
       <r>   -9.4018    1.0000 </r>
       <r>   -5.1997    1.0000 </r>
       <r>   -5.1997    1.0000 </r>
       <r>   -0.9348    0.0000 </r>
       <r>   -0.9348    0.0000 </r>
       <r>    5.0314    0.0000 </r>
       <r>    5.0314    0.0000 </r>
      </set>
      <set comment="kpoint 245">
       <r>  -17.1766    1.0000 </r>
       <r>  -17.1766    1.0000 </r>
       <r>  -15.7449    1.0000 </r>
       <r>  -15.7449    1.0000 </r>
       <r>   -9.2472    1.0000 </r>
       <r>   -9.2472    1.0000 </r>
       <r>   -5.1656    1.0000 </r>
       <r>   -5.1656    1.0000 </r>
       <r>   -1.0225    0.0000 </r>
       <r>   -1.0225    0.0000 </r>
       <r>    4.7977    0.0000 </r>
       <r>    4.7977    0.0000 </r>
      </set>
      <set comment="kpoint 246">
       <r>  -17.0809    1.0000 </r>
       <r>  -17.0809    1.0000 </r>
       <r>  -15.8915    1.0000 </r>
       <r>  -15.8915    1.0000 </r>
       <r>   -9.1514    1.0000 </r>
       <r>   -9.1514    1.0000 </r>
       <r>   -5.1436    1.0000 </r>
       <r>   -5.1436    1.0000 </r>
       <r>   -1.0776    0.0000 </r>
       <r>   -1.0776    0.0000 </r>
       <r>    4.6541    0.0000 </r>
       <r>    4.6541    0.0000 </r>
      </set>
      <set comment="kpoint 247">
       <r>  -17.0429    1.0000 </r>
       <r>  -17.0429    1.0000 </r>
       <r>  -15.9465    1.0000 </r>
       <r>  -15.9465    1.0000 </r>
       <r>   -9.1189    1.0000 </r>
       <r>   -9.1189    1.0000 </r>
       <r>   -5.1360    1.0000 </r>
       <r>   -5.1360    1.0000 </r>
       <r>   -1.0964    0.0000 </r>
       <r>   -1.0964    0.0000 </r>
       <r>    4.6057    0.0000 </r>
       <r>    4.6057    0.0000 </r>
      </set>
     </set>
    </set>
   </array>
  </eigenvalues>
  <separator name="orbital magnetization" >
   <v name="MAGDIPOLOUT">      0.00000000      0.00000000      0.00000000</v>
  </separator>
 </calculation>
 <structure name="finalpos" >
  <crystal>
   <varray name="basis" >
    <v>       4.26925322       0.00000000       0.00000000 </v>
    <v>       0.00000000       2.48000649       0.00000000 </v>
    <v>       0.00000000       0.00000000      19.91333282 </v>
   </varray>
   <i name="volume">    210.83790140 </i>
   <varray name="rec_basis" >
    <v>       0.23423300       0.00000000       0.00000000 </v>
    <v>       0.00000000       0.40322475       0.00000000 </v>
    <v>       0.00000000       0.00000000       0.05021761 </v>
   </varray>
  </crystal>
  <varray name="positions" >
   <v>       0.00013426      -0.00000000       0.00000000 </v>
   <v>       0.16653241       0.50000000      -0.00000000 </v>
   <v>       0.50013426       0.50000000       0.00000000 </v>
   <v>       0.66653241       0.00000000      -0.00000000 </v>
  </varray>
 </structure>
</modeling>
