gr                                      
           1
     4.269253    0.000000    0.000000
     0.000000    2.480006    0.000000
     0.000000    0.000000   19.913333
   C 
   4
Direct configuration=     1
   0.00013158  0.00000000  0.00000000
   0.16653509  0.50000000  0.00000000
   0.50013158  0.50000000  0.00000000
   0.66653509  0.00000000  0.00000000
Direct configuration=     2
   0.00014502  0.00000000  0.00000000
   0.16652164  0.50000000 -0.00000000
   0.50014502  0.50000000  0.00000000
   0.66652164 -0.00000000 -0.00000000
Direct configuration=     3
   0.00013426  0.00000000  0.00000000
   0.16653241  0.50000000 -0.00000000
   0.50013426  0.50000000  0.00000000
   0.66653241 -0.00000000 -0.00000000
Direct configuration=     4
   0.00013424 -0.00000000  0.00000000
   0.16653243  0.50000000 -0.00000000
   0.50013424  0.50000000  0.00000000
   0.66653243 -0.00000000 -0.00000000
Direct configuration=     5
   0.00013425 -0.00000000  0.00000000
   0.16653242  0.50000000 -0.00000000
   0.50013425  0.50000000  0.00000000
   0.66653242 -0.00000000 -0.00000000
Direct configuration=     6
   0.00013425 -0.00000000  0.00000000
   0.16653242  0.50000000 -0.00000000
   0.50013425  0.50000000  0.00000000
   0.66653242  0.00000000 -0.00000000
Direct configuration=     7
   0.00013415  0.00000000  0.00000000
   0.16653252  0.50000000 -0.00000000
   0.50013415  0.50000000  0.00000000
   0.66653252 -0.00000000 -0.00000000
Direct configuration=     8
   0.00013425 -0.00000000  0.00000000
   0.16653241  0.50000000 -0.00000000
   0.50013425  0.50000000  0.00000000
   0.66653241  0.00000000 -0.00000000
Direct configuration=     9
   0.00013426 -0.00000000 -0.00000000
   0.16653240  0.50000000  0.00000000
   0.50013426  0.50000000 -0.00000000
   0.66653240  0.00000000  0.00000000
Direct configuration=    10
   0.00013426 -0.00000000  0.00000000
   0.16653241  0.50000000 -0.00000000
   0.50013426  0.50000000  0.00000000
   0.66653241  0.00000000 -0.00000000
