 running on    8 total cores
 distrk:  each k-point on    8 cores,    1 groups
 distr:  one band on    2 cores,    4 groups
 using from now: INCAR     
 vasp.5.3.5 31Mar14 (build Mar 02 2015 18:14:16) complex                        
  
 POSCAR found type information on POSCAR  C 
 POSCAR found :  1 types and       4 ions
 LDA part: xc-table for Pade appr. of Perdew
 POSCAR, INCAR and KPOINTS ok, starting setup
 WARNING: small aliasing (wrap around) errors must be expected
 FFT: planning ...
 WAVECAR not read
 entering main loop
       N       E                     dE             d eps       ncg     rms          rms(c)
DAV:   1     0.187273054816E+03    0.18727E+03   -0.10646E+04  5928   0.275E+03
DAV:   2    -0.913897226378E+01   -0.19641E+03   -0.17415E+03 10456   0.258E+02
DAV:   3    -0.382270147796E+02   -0.29088E+02   -0.28393E+02  7460   0.119E+02    0.719E+00
RMM:   4    -0.376442187427E+02    0.58280E+00   -0.94783E+00  5928   0.263E+01    0.417E+00
RMM:   5    -0.369105699064E+02    0.73365E+00   -0.27596E+00  5930   0.114E+01    0.721E-01
RMM:   6    -0.369119891013E+02   -0.14192E-02   -0.82160E-02  6369   0.202E+00    0.513E-01
RMM:   7    -0.369028796930E+02    0.91094E-02   -0.32753E-02  5944   0.157E+00    0.336E-01
RMM:   8    -0.368976255520E+02    0.52541E-02   -0.66416E-03  5930   0.541E-01    0.140E-01
RMM:   9    -0.368972827523E+02    0.34280E-03   -0.20859E-02  5928   0.856E-01    0.156E-01
RMM:  10    -0.368971674646E+02    0.11529E-03   -0.22778E-03  5928   0.346E-01    0.275E-02
RMM:  11    -0.368995840548E+02   -0.24166E-02   -0.77664E-04  5930   0.185E-01    0.453E-02
RMM:  12    -0.369000482138E+02   -0.46416E-03   -0.22459E-04  5940   0.994E-02    0.518E-03
RMM:  13    -0.369003052600E+02   -0.25705E-03   -0.48570E-05  6022   0.376E-02    0.325E-03
RMM:  14    -0.369003884042E+02   -0.83144E-04   -0.97239E-06  5966   0.149E-02    0.102E-03
RMM:  15    -0.369004006265E+02   -0.12222E-04   -0.17156E-06  5969   0.721E-03    0.186E-03
RMM:  16    -0.369004125543E+02   -0.11928E-04   -0.15262E-06  5928   0.812E-03    0.129E-03
RMM:  17    -0.369004181350E+02   -0.55807E-05   -0.14174E-07  5949   0.232E-03    0.588E-04
RMM:  18    -0.369004191811E+02   -0.10462E-05   -0.41550E-08  5980   0.163E-03    0.109E-04
WARNING in EDDRMM: call to ZHEGV failed, returncode =   6  3  1
WARNING in EDDRMM: call to ZHEGV failed, returncode =   6  3  1
RMM:  19    -0.369004199953E+02   -0.81418E-06   -0.10743E-08  6032   0.489E-04    0.185E-05
RMM:  20    -0.369004200453E+02   -0.50035E-07   -0.86871E-10  4546   0.151E-04    0.250E-05
RMM:  21    -0.369004200615E+02   -0.16194E-07   -0.22497E-10  4357   0.877E-05    0.748E-06
RMM:  22    -0.369004200617E+02   -0.14734E-09   -0.17451E-11  3896   0.504E-05    0.174E-06
RMM:  23    -0.369004200623E+02   -0.61391E-09   -0.17225E-11  3541   0.386E-05    0.185E-06
RMM:  24    -0.369004200623E+02    0.53433E-11   -0.72991E-12  3087   0.295E-05
   1 F= -.36900420E+02 E0= -.36900418E+02  d E =-.369004E+02
 BRION: g(F)=  0.198E-06 g(S)=  0.000E+00
 bond charge predicted
       N       E                     dE             d eps       ncg     rms          rms(c)
DAV:   1    -0.369004197728E+02    0.28951E-06   -0.26438E-05  6300   0.482E-02    0.989E-04
RMM:   2    -0.369004197856E+02   -0.12826E-07   -0.42130E-07  5952   0.576E-03    0.713E-04
RMM:   3    -0.369004197706E+02    0.14980E-07   -0.72652E-08  5965   0.217E-03    0.188E-04
RMM:   4    -0.369004197700E+02    0.61812E-09   -0.48580E-09  6070   0.555E-04    0.536E-05
RMM:   5    -0.369004197696E+02    0.42814E-09   -0.33922E-10  4296   0.134E-04    0.235E-05
RMM:   6    -0.369004197695E+02    0.10311E-09   -0.39865E-11  3752   0.669E-05    0.353E-06
RMM:   7    -0.369004197696E+02   -0.12642E-09   -0.17091E-11  3721   0.516E-05    0.265E-06
RMM:   8    -0.369004197693E+02    0.35152E-09   -0.10852E-11  3217   0.368E-05    0.102E-06
RMM:   9    -0.369004197694E+02   -0.88221E-10   -0.60339E-12  2860   0.288E-05
   2 F= -.36900420E+02 E0= -.36900417E+02  d E =0.292946E-06
 BRION: g(F)=  0.299E-05 g(S)=  0.000E+00 retain N=  1 mean eig= 0.20
 eig:   0.204
 bond charge predicted
       N       E                     dE             d eps       ncg     rms          rms(c)
DAV:   1    -0.369004200736E+02   -0.30434E-06   -0.16708E-05  6688   0.384E-02    0.787E-04
RMM:   2    -0.369004200868E+02   -0.13164E-07   -0.26181E-07  5951   0.458E-03    0.567E-04
RMM:   3    -0.369004200820E+02    0.48137E-08   -0.45438E-08  5961   0.172E-03    0.147E-04
RMM:   4    -0.369004200805E+02    0.15009E-08   -0.29622E-09  6055   0.435E-04    0.424E-05
RMM:   5    -0.369004200811E+02   -0.62767E-09   -0.19427E-10  4061   0.107E-04    0.184E-05
RMM:   6    -0.369004200809E+02    0.21259E-09   -0.28259E-11  3708   0.588E-05    0.313E-06
RMM:   7    -0.369004200808E+02    0.96861E-10   -0.12553E-11  3616   0.470E-05
   3 F= -.36900420E+02 E0= -.36900418E+02  d E =-.311419E-06
 BRION: g(F)=  0.673E-11 g(S)=  0.000E+00 retain N=  1 mean eig= 0.20
 eig:   0.205
 bond charge predicted
       N       E                     dE             d eps       ncg     rms          rms(c)
DAV:   1    -0.369004200805E+02    0.38085E-09    0.54585E-09  4856   0.637E-05    0.122E-06
RMM:   2    -0.369004200809E+02   -0.44645E-09   -0.10216E-12  2459   0.228E-05    0.745E-07
RMM:   3    -0.369004200810E+02   -0.84583E-10   -0.18715E-12  2332   0.232E-05    0.784E-08
RMM:   4    -0.369004200808E+02    0.17894E-09   -0.90127E-13  2119   0.219E-05    0.871E-08
RMM:   5    -0.369004200809E+02   -0.21828E-10   -0.20915E-12  1975   0.206E-05
   4 F= -.36900420E+02 E0= -.36900418E+02  d E =-.899263E-10
 BRION: g(F)=  0.185E-10 g(S)=  0.000E+00 retain N=  1 mean eig= 0.08
 eig:   0.077
 bond charge predicted
       N       E                     dE             d eps       ncg     rms          rms(c)
DAV:   1    -0.369004200804E+02    0.48090E-09    0.54910E-09  4460   0.356E-05    0.293E-07
RMM:   2    -0.369004200810E+02   -0.68906E-09    0.77329E-13  1397   0.110E-05    0.179E-07
RMM:   3    -0.369004200811E+02   -0.70827E-10   -0.10527E-14  1378   0.109E-05    0.669E-09
RMM:   4    -0.369004200811E+02    0.63210E-10   -0.19151E-13  1363   0.108E-05    0.548E-09
RMM:   5    -0.369004200813E+02   -0.22294E-09   -0.41783E-13  1357   0.107E-05    0.279E-09
RMM:   6    -0.369004200808E+02    0.46361E-09   -0.27571E-14  1233   0.107E-05    0.538E-09
RMM:   7    -0.369004200808E+02    0.49454E-10    0.57773E-14  1115   0.107E-05
   5 F= -.36900420E+02 E0= -.36900418E+02  d E =0.961791E-10
 BRION: g(F)=  0.289E-12 g(S)=  0.000E+00 retain N=  1 mean eig= 0.09
 eig:   0.088
 bond charge predicted
       N       E                     dE             d eps       ncg     rms          rms(c)
DAV:   1    -0.369004200802E+02    0.56832E-09    0.54976E-09  4496   0.136E-05    0.299E-07
RMM:   2    -0.369004200810E+02   -0.78717E-09    0.98358E-14  1005   0.507E-06    0.184E-07
RMM:   3    -0.369004200808E+02    0.22089E-09    0.48994E-14  1091   0.501E-06    0.364E-09
RMM:   4    -0.369004200812E+02   -0.36061E-09    0.17346E-13  1087   0.500E-06    0.201E-09
RMM:   5    -0.369004200811E+02    0.95497E-10    0.82033E-15   864   0.499E-06
   6 F= -.36900420E+02 E0= -.36900418E+02  d E =-.312525E-09
 BRION: g(F)=  0.358E-12 g(S)=  0.000E+00 retain N=  1 mean eig= 0.78
 eig:   0.776
 bond charge predicted
       N       E                     dE             d eps       ncg     rms          rms(c)
DAV:   1    -0.369004200803E+02    0.82809E-09    0.54698E-09  4464   0.492E-05    0.853E-07
RMM:   2    -0.369004200809E+02   -0.57867E-09    0.24199E-14   769   0.125E-05    0.527E-07
RMM:   3    -0.369004200809E+02    0.42860E-10    0.25823E-14   911   0.124E-05    0.104E-08
RMM:   4    -0.369004200811E+02   -0.24011E-09   -0.15013E-13   547   0.124E-05    0.387E-09
RMM:   5    -0.369004200810E+02    0.82764E-10    0.37295E-14   448   0.124E-05
   7 F= -.36900420E+02 E0= -.36900418E+02  d E =0.394493E-10
 BRION: g(F)=  0.104E-10 g(S)=  0.000E+00 retain N=  1 mean eig= 0.18
 eig:   0.176
 bond charge predicted
       N       E                     dE             d eps       ncg     rms          rms(c)
DAV:   1    -0.369004200807E+02    0.37812E-09    0.54564E-09  3544   0.601E-05    0.104E-06
RMM:   2    -0.369004200812E+02   -0.46657E-09    0.42476E-14   914   0.154E-05    0.644E-07
RMM:   3    -0.369004200809E+02    0.32082E-09    0.10497E-12   635   0.149E-05    0.146E-08
RMM:   4    -0.369004200810E+02   -0.14222E-09   -0.12056E-13   847   0.150E-05    0.876E-09
RMM:   5    -0.369004200808E+02    0.22862E-09   -0.12615E-13   415   0.149E-05    0.692E-09
RMM:   6    -0.369004200808E+02    0.20691E-10    0.53167E-14   677   0.149E-05
   8 F= -.36900420E+02 E0= -.36900418E+02  d E =0.256705E-09
 BRION: g(F)=  0.584E-13 g(S)=  0.000E+00 retain N=  1 mean eig= 0.16
 eig:   0.164
 reached required accuracy - stopping structural energy minimisation
