    4    4  400    1
  0.5270948E+02  0.4338215E-09  0.2460786E-09  0.1974985E-08  0.5000000E-15
  1.000000000000000E-004
  CAR 
 gr                                      
     16    247     12
 
  0.0000000E+00  0.0000000E+00  0.0000000E+00  0.1157407E-02
    1      -22.148593
    2      -17.168366
    3      -15.890206
    4      -10.277809
    5       -8.939517
    6       -5.923797
    7       -5.748461
    8       -5.249414
    9       -1.145135
   10        0.536453
   11        1.335775
   12        1.724986
 
  0.4166667E-01  0.0000000E+00  0.0000000E+00  0.2314815E-02
    1      -22.138646
    2      -17.302294
    3      -15.741185
    4      -10.265974
    5       -8.929786
    6       -5.967501
    7       -5.769486
    8       -5.311084
    9       -1.067624
   10        0.549922
   11        1.349432
   12        1.738813
 
  0.8333333E-01  0.0000000E+00  0.0000000E+00  0.2314815E-02
    1      -22.108809
    2      -17.599437
    3      -15.398845
    4      -10.230487
    5       -8.900641
    6       -6.096639
    7       -5.831440
    8       -5.483098
    9       -0.848248
   10        0.590336
   11        1.390400
   12        1.780293
 
  0.1250000E+00  0.0000000E+00  0.0000000E+00  0.2314815E-02
    1      -22.059103
    2      -17.947923
    3      -14.975295
    4      -10.171407
    5       -8.852236
    6       -6.305658
    7       -5.931142
    8       -5.735957
    9       -0.516996
   10        0.657707
   11        1.458664
   12        1.849429
 
  0.1666667E+00  0.0000000E+00  0.0000000E+00  0.2314815E-02
    1      -21.989561
    2      -18.306416
    3      -14.512282
    4      -10.088830
    5       -8.784832
    6       -6.586373
    7       -6.063829
    8       -6.039485
    9       -0.104871
   10        0.752051
   11        1.554201
   12        1.946225
 
  0.2083333E+00  0.0000000E+00  0.0000000E+00  0.2314815E-02
    1      -21.900234
    2      -18.660301
    3      -14.025012
    4       -9.982899
    5       -8.698805
    6       -6.929151
    7       -6.370496
    8       -6.223780
    9        0.363745
   10        0.873378
   11        1.676970
   12        2.070682
 
  0.2500000E+00  0.0000000E+00  0.0000000E+00  0.2314815E-02
    1      -21.791185
    2      -19.003423
    3      -13.520420
    4       -9.853803
    5       -8.594657
    6       -7.323973
    7       -6.713130
    8       -6.404913
    9        0.871389
   10        1.021682
   11        1.826913
   12        2.222802
 
  0.2916667E+00  0.0000000E+00  0.0000000E+00  0.2314815E-02
    1      -21.662498
    2      -19.332730
    3      -13.002561
    4       -9.701790
    5       -8.473035
    6       -7.761214
    7       -7.056900
    8       -6.601260
    9        1.196945
   10        1.405463
   11        2.003934
   12        2.402581
 
  0.3333333E+00  0.0000000E+00  0.0000000E+00  0.2314815E-02
    1      -21.514271
    2      -19.646490
    3      -12.474409
    4       -9.527171
    5       -8.334747
    6       -8.232089
    7       -7.394836
    8       -6.807279
    9        1.399134
   10        1.956136
   11        2.207879
   12        2.610016
 
  0.3750000E+00  0.0000000E+00  0.0000000E+00  0.2314815E-02
    1      -21.346625
    2      -19.943619
    3      -11.938583
    4       -9.330342
    5       -8.728848
    6       -8.180794
    7       -7.722201
    8       -7.018018
    9        1.628200
   10        2.438460
   11        2.514157
   12        2.845099
 
  0.4166667E+00  0.0000000E+00  0.0000000E+00  0.2314815E-02
    1      -21.159703
    2      -20.223377
    3      -11.397683
    4       -9.244789
    5       -9.111796
    6       -8.035693
    7       -8.012399
    8       -7.229169
    9        1.884077
   10        2.695058
   11        3.064455
   12        3.107817
 
  0.4583333E+00  0.0000000E+00  0.0000000E+00  0.2314815E-02
    1      -20.953680
    2      -20.485228
    3      -10.854494
    4       -9.774177
    5       -8.872152
    6       -8.332940
    7       -7.831048
    8       -7.437045
    9        2.166673
   10        2.811485
   11        2.975938
   12        3.398150
 
  0.5000000E+00  0.0000000E+00  0.0000000E+00  0.1157407E-02
    1      -20.728770
    2      -20.728770
    3      -10.312133
    4      -10.312133
    5       -8.612197
    6       -8.612197
    7       -7.638540
    8       -7.638540
    9        2.475868
   10        2.475868
   11        3.273293
   12        3.273293
 
  0.0000000E+00  0.2777778E-01  0.0000000E+00  0.2314815E-02
    1      -22.134825
    2      -17.156466
    3      -15.878491
    4      -10.261428
    5       -9.002182
    6       -5.951445
    7       -5.806679
    8       -5.232745
    9       -1.148132
   10        0.555117
   11        1.354647
   12        1.744093
 
  0.4166667E-01  0.2777778E-01  0.0000000E+00  0.4629630E-02
    1      -22.124878
    2      -17.290259
    3      -15.729653
    4      -10.249596
    5       -8.992437
    6       -5.997011
    7       -5.825211
    8       -5.294540
    9       -1.070603
   10        0.568586
   11        1.368304
   12        1.757919
 
  0.8333333E-01  0.2777778E-01  0.0000000E+00  0.4629630E-02
    1      -22.095046
    2      -17.587165
    3      -15.387692
    4      -10.214121
    5       -8.963252
    6       -6.128450
    7       -5.883085
    8       -5.466847
    9       -0.851259
   10        0.609000
   11        1.409270
   12        1.799400
 
  0.1250000E+00  0.2777778E-01  0.0000000E+00  0.4629630E-02
    1      -22.045347
    2      -17.935432
    3      -14.964603
    4      -10.155061
    5       -8.914776
    6       -6.337267
    7       -5.980356
    8       -5.720016
    9       -0.520239
   10        0.676373
   11        1.477530
   12        1.868537
 
  0.1666667E+00  0.2777778E-01  0.0000000E+00  0.4629630E-02
    1      -21.975816
    2      -18.293736
    3      -14.502129
    4      -10.072512
    5       -8.847266
    6       -6.615434
    7       -6.112481
    8       -6.023781
    9       -0.108639
   10        0.770721
   11        1.573062
   12        1.965333
 
  0.2083333E+00  0.2777778E-01  0.0000000E+00  0.4629630E-02
    1      -21.886504
    2      -18.647459
    3      -14.015488
    4       -9.966616
    5       -8.761090
    6       -6.954281
    7       -6.354935
    8       -6.273105
    9        0.359141
   10        0.892052
   11        1.695825
   12        2.089792
 
  0.2500000E+00  0.2777778E-01  0.0000000E+00  0.4629630E-02
    1      -21.777473
    2      -18.990442
    3      -13.511637
    4       -9.837565
    5       -8.656743
    6       -7.344617
    7       -6.697633
    8       -6.455571
    9        0.865655
   10        1.040363
   11        1.845762
   12        2.241913
 
  0.2916667E+00  0.2777778E-01  0.0000000E+00  0.4629630E-02
    1      -21.648809
    2      -19.319628
    3      -12.994650
    4       -9.685603
    5       -8.534858
    6       -7.777356
    7       -7.041408
    8       -6.653521
    9        1.215634
   10        1.398346
   11        2.022778
   12        2.421695
 
  0.3333333E+00  0.2777778E-01  0.0000000E+00  0.4629630E-02
    1      -21.500609
    2      -19.633284
    3      -12.467532
    4       -9.511044
    5       -8.396232
    6       -8.244020
    7       -7.379308
    8       -6.861178
    9        1.417833
   10        1.947454
   11        2.226720
   12        2.629134
 
  0.3750000E+00  0.2777778E-01  0.0000000E+00  0.4629630E-02
    1      -21.332994
    2      -19.930324
    3      -11.932932
    4       -9.314281
    5       -8.736998
    6       -8.241847
    7       -7.706613
    8       -7.073457
    9        1.646910
   10        2.457305
   11        2.503921
   12        2.864221
 
  0.4166667E+00  0.2777778E-01  0.0000000E+00  0.4629630E-02
    1      -21.146110
    2      -20.210004
    3      -11.393486
    4       -9.249632
    5       -9.095807
    6       -8.072909
    7       -8.020030
    8       -7.285983
    9        1.902799
   10        2.713917
   11        3.053656
   12        3.126945
 
  0.4583333E+00  0.2777778E-01  0.0000000E+00  0.4629630E-02
    1      -20.940131
    2      -20.471787
    3      -10.852024
    4       -9.776178
    5       -8.856241
    6       -8.317195
    7       -7.890882
    8       -7.495049
    9        2.185411
   10        2.830279
   11        2.994821
   12        3.417286
 
  0.5000000E+00  0.2777778E-01  0.0000000E+00  0.2314815E-02
    1      -20.715270
    2      -20.715270
    3      -10.311712
    4      -10.311712
    5       -8.596369
    6       -8.596369
    7       -7.697545
    8       -7.697545
    9        2.494628
   10        2.494628
   11        3.291982
   12        3.291982
 
  0.0000000E+00  0.5555556E-01  0.0000000E+00  0.2314815E-02
    1      -22.093528
    2      -17.120773
    3      -15.843492
    4      -10.212316
    5       -9.185123
    6       -6.033875
    7       -5.976602
    8       -5.182758
    9       -1.157939
   10        0.611110
   11        1.411258
   12        1.801414
 
  0.4166667E-01  0.5555556E-01  0.0000000E+00  0.4629630E-02
    1      -22.083586
    2      -17.254164
    3      -15.695199
    4      -10.200497
    5       -9.175334
    6       -6.093016
    7       -5.979706
    8       -5.244941
    9       -1.080353
   10        0.624579
   11        1.424912
   12        1.815240
 
  0.8333333E-01  0.5555556E-01  0.0000000E+00  0.4629630E-02
    1      -22.053767
    2      -17.550366
    3      -15.354378
    4      -10.165059
    5       -9.146012
    6       -6.233812
    7       -6.022984
    8       -5.418149
    9       -0.861097
   10        0.664993
   11        1.465870
   12        1.856721
 
  0.1250000E+00  0.5555556E-01  0.0000000E+00  0.4629630E-02
    1      -22.004092
    2      -17.897978
    3      -14.932688
    4      -10.106059
    5       -9.097299
    6       -6.441190
    7       -6.113913
    8       -5.672268
    9       -0.530783
   10        0.732368
   11        1.534119
   12        1.925859
 
  0.1666667E+00  0.5555556E-01  0.0000000E+00  0.4629630E-02
    1      -21.934595
    2      -18.255715
    3      -14.471856
    4      -10.023595
    5       -9.029436
    6       -6.710546
    7       -6.245594
    8       -5.976756
    9       -0.120784
   10        0.826722
   11        1.629635
   12        2.022657
 
  0.2083333E+00  0.5555556E-01  0.0000000E+00  0.4629630E-02
    1      -21.845326
    2      -18.608950
    3      -13.987144
    4       -9.917809
    5       -8.942768
    6       -7.036439
    7       -6.409449
    8       -6.308346
    9        0.344438
   10        0.948063
   11        1.752380
   12        2.147119
 
  0.2500000E+00  0.5555556E-01  0.0000000E+00  0.4629630E-02
    1      -21.736351
    2      -18.951514
    3      -13.485565
    4       -9.788890
    5       -8.837760
    6       -7.412170
    7       -6.651234
    8       -6.597082
    9        0.847497
   10        1.096389
   11        1.902297
   12        2.299245
 
  0.2916667E+00  0.5555556E-01  0.0000000E+00  0.4629630E-02
    1      -21.607754
    2      -19.280338
    3      -12.971270
    4       -9.637085
    5       -8.715008
    6       -7.830328
    7       -6.995019
    8       -6.800914
    9        1.271680
   10        1.375950
   11        2.079295
   12        2.479034
 
  0.3333333E+00  0.5555556E-01  0.0000000E+00  0.4629630E-02
    1      -21.459634
    2      -19.593682
    3      -12.447348
    4       -9.462706
    5       -8.575261
    6       -8.283403
    7       -7.332808
    8       -7.014410
    9        1.473902
   10        1.920242
   11        2.283228
   12        2.686481
 
  0.3750000E+00  0.5555556E-01  0.0000000E+00  0.4629630E-02
    1      -21.292115
    2      -19.890451
    3      -11.916551
    4       -9.266145
    5       -8.764243
    6       -8.419448
    7       -7.659927
    8       -7.232070
    9        1.703005
   10        2.471822
   11        2.513823
   12        2.921580
 
  0.4166667E+00  0.5555556E-01  0.0000000E+00  0.4629630E-02
    1      -21.105343
    2      -20.169897
    3      -11.381638
    4       -9.266317
    5       -9.047893
    6       -8.248707
    7       -7.973113
    8       -7.449333
    9        1.958924
   10        2.770483
   11        3.019015
   12        3.184320
 
  0.4583333E+00  0.5555556E-01  0.0000000E+00  0.4629630E-02
    1      -20.899494
    2      -20.431478
    3      -10.845583
    4       -9.783827
    5       -8.808567
    6       -8.270028
    7       -8.064430
    8       -7.662443
    9        2.241572
   10        2.886563
   11        3.051465
   12        3.474701
 
  0.5000000E+00  0.5555556E-01  0.0000000E+00  0.2314815E-02
    1      -20.674785
    2      -20.674785
    3      -10.311711
    4      -10.311711
    5       -8.548945
    6       -8.548945
    7       -7.868319
    8       -7.868319
    9        2.550836
   10        2.550836
   11        3.347935
   12        3.347935
 
  0.0000000E+00  0.8333333E-01  0.0000000E+00  0.2314815E-02
    1      -22.024739
    2      -17.061296
    3      -15.785668
    4      -10.130581
    5       -9.474595
    6       -6.245500
    7       -6.169554
    8       -5.099518
    9       -1.177005
   10        0.704434
   11        1.505584
   12        1.896950
 
  0.4166667E-01  0.8333333E-01  0.0000000E+00  0.4629630E-02
    1      -22.014805
    2      -17.194043
    3      -15.638272
    4      -10.118783
    5       -9.464715
    6       -6.306236
    7       -6.168093
    8       -5.162385
    9       -1.099303
   10        0.717902
   11        1.519233
   12        1.910776
 
  0.8333333E-01  0.8333333E-01  0.0000000E+00  0.4629630E-02
    1      -21.985009
    2      -17.489095
    3      -15.299366
    4      -10.083407
    5       -9.435119
    6       -6.446053
    7       -6.203927
    8       -5.337177
    9       -0.880171
   10        0.758312
   11        1.560179
   12        1.952257
 
  0.1250000E+00  0.8333333E-01  0.0000000E+00  0.4629630E-02
    1      -21.935373
    2      -17.835622
    3      -14.880066
    4      -10.024511
    5       -9.385929
    6       -6.644371
    7       -6.291324
    8       -5.592951
    9       -0.551055
   10        0.825684
   11        1.628406
   12        2.021394
 
  0.1666667E+00  0.8333333E-01  0.0000000E+00  0.4629630E-02
    1      -21.865932
    2      -18.192413
    3      -14.422070
    4       -9.942192
    5       -9.317356
    6       -6.896087
    7       -6.425542
    8       -5.898684
    9       -0.143816
   10        0.920037
   11        1.723893
   12        2.118194
 
  0.2083333E+00  0.8333333E-01  0.0000000E+00  0.4629630E-02
    1      -21.776737
    2      -18.544833
    3      -13.940715
    4       -9.836593
    5       -9.229702
    6       -7.197817
    7       -6.597555
    8       -6.231014
    9        0.316991
   10        1.041383
   11        1.846603
   12        2.242659
 
  0.2500000E+00  0.8333333E-01  0.0000000E+00  0.4629630E-02
    1      -21.667854
    2      -18.886694
    3      -13.443125
    4       -9.707903
    5       -9.123372
    6       -7.546016
    7       -6.797054
    8       -6.574216
    9        0.814080
   10        1.189720
   11        1.996481
   12        2.394790
 
  0.2916667E+00  0.8333333E-01  0.0000000E+00  0.4629630E-02
    1      -21.539370
    2      -19.214912
    3      -12.933585
    4       -9.556367
    5       -8.998884
    6       -7.936269
    7       -7.014266
    8       -6.918007
    9        1.335199
   10        1.365028
   11        2.173445
   12        2.574587
 
  0.3333333E+00  0.8333333E-01  0.0000000E+00  0.4629630E-02
    1      -21.391385
    2      -19.527731
    3      -12.415351
    4       -9.382298
    5       -8.856891
    6       -8.363162
    7       -7.255594
    8       -7.240948
    9        1.567272
   10        1.871089
   11        2.377356
   12        2.782045
 
  0.3750000E+00  0.8333333E-01  0.0000000E+00  0.4629630E-02
    1      -21.224025
    2      -19.824047
    3      -11.891381
    4       -9.186085
    5       -8.820646
    6       -8.698200
    7       -7.582382
    8       -7.470600
    9        1.796400
   10        2.413866
   11        2.607965
   12        3.017158
 
  0.4166667E+00  0.8333333E-01  0.0000000E+00  0.4629630E-02
    1      -21.037439
    2      -20.103101
    3      -11.364679
    4       -9.302547
    5       -8.968216
    6       -8.523802
    7       -7.895165
    8       -7.698236
    9        2.052345
   10        2.864710
   11        2.954555
   12        3.279917
 
  0.4583333E+00  0.8333333E-01  0.0000000E+00  0.4629630E-02
    1      -20.831809
    2      -20.364342
    3      -10.838511
    4       -9.802971
    5       -8.729302
    6       -8.334915
    7       -8.191643
    8       -7.920036
    9        2.335022
   10        2.980109
   11        3.145850
   12        3.459374
 
  0.5000000E+00  0.8333333E-01  0.0000000E+00  0.2314815E-02
    1      -20.607354
    2      -20.607354
    3      -10.316549
    4      -10.316549
    5       -8.470116
    6       -8.470116
    7       -8.133040
    8       -8.133040
    9        2.644324
   10        2.644324
   11        3.440615
   12        3.440615
 
  0.0000000E+00  0.1111111E+00  0.0000000E+00  0.2314815E-02
    1      -21.928519
    2      -16.978058
    3      -15.705882
    4      -10.016398
    5       -9.851500
    6       -6.596040
    7       -6.355948
    8       -4.983131
    9       -1.209399
   10        0.835092
   11        1.637586
   12        2.030703
 
  0.4166667E-01  0.1111111E+00  0.0000000E+00  0.4629630E-02
    1      -21.918595
    2      -17.109954
    3      -15.559721
    4      -10.004630
    5       -9.841462
    6       -6.644775
    7       -6.362582
    8       -5.047046
    9       -1.131483
   10        0.848555
   11        1.651229
   12        2.044529
 
  0.8333333E-01  0.1111111E+00  0.0000000E+00  0.4629630E-02
    1      -21.888832
    2      -17.403448
    3      -15.223537
    4       -9.969346
    5       -9.811376
    6       -6.773599
    7       -6.398263
    8       -5.224243
    9       -0.912452
   10        0.888954
   11        1.692152
   12        2.086007
 
  0.1250000E+00  0.1111111E+00  0.0000000E+00  0.4629630E-02
    1      -21.839251
    2      -17.748472
    3      -14.807730
    4       -9.910601
    5       -9.761336
    6       -6.960174
    7       -6.480569
    8       -5.482493
    9       -0.585041
   10        0.956308
   11        1.760344
   12        2.155143
 
  0.1666667E+00  0.1111111E+00  0.0000000E+00  0.4629630E-02
    1      -21.769888
    2      -18.103937
    3      -14.353951
    4       -9.828496
    5       -9.691495
    6       -7.192920
    7       -6.613320
    8       -5.790059
    9       -0.181834
   10        1.050643
   11        1.855782
   12        2.251941
 
  0.2083333E+00  0.1111111E+00  0.0000000E+00  0.4629630E-02
    1      -21.680797
    2      -18.455207
    3      -13.877660
    4       -9.723171
    5       -9.602076
    6       -7.466273
    7       -6.791769
    8       -6.123455
    9        0.272496
   10        1.171974
   11        1.978433
   12        2.376406
 
  0.2500000E+00  0.1111111E+00  0.0000000E+00  0.4629630E-02
    1      -21.572045
    2      -18.796076
    3      -13.386159
    4       -9.594815
    5       -9.493369
    6       -7.777772
    7       -7.006244
    8       -6.467089
    9        0.760827
   10        1.320303
   11        2.128245
   12        2.528540
 
  0.2916667E+00  0.1111111E+00  0.0000000E+00  0.4629630E-02
    1      -21.443718
    2      -19.123436
    3      -12.883971
    4       -9.443675
    5       -9.365742
    6       -8.126391
    7       -7.244749
    8       -6.810856
    9        1.271173
   10        1.495610
   11        2.305143
   12        2.708343
 
  0.3333333E+00  0.1111111E+00  0.0000000E+00  0.4629630E-02
    1      -21.295923
    2      -19.435514
    3      -12.374654
    4       -9.270061
    5       -9.219646
    6       -8.510943
    7       -7.495444
    8       -7.148119
    9        1.697858
   10        1.794643
   11        2.509008
   12        2.915810
 
  0.3750000E+00  0.1111111E+00  0.0000000E+00  0.4629630E-02
    1      -21.128786
    2      -19.731188
    3      -11.861541
    4       -9.074359
    5       -9.055631
    6       -8.928876
    7       -7.748548
    8       -7.474400
    9        1.926992
   10        2.324010
   11        2.739623
   12        3.150936
 
  0.4166667E+00  0.1111111E+00  0.0000000E+00  0.4629630E-02
    1      -20.942464
    2      -20.009687
    3      -11.348114
    4       -9.375994
    5       -8.874362
    6       -8.857054
    7       -7.997048
    8       -7.786573
    9        2.182940
   10        2.852374
   11        2.996498
   12        3.413711
 
  0.4583333E+00  0.1111111E+00  0.0000000E+00  0.4629630E-02
    1      -20.737142
    2      -20.270449
    3      -10.838217
    4       -9.846987
    5       -8.676653
    6       -8.618749
    7       -8.236351
    8       -8.082396
    9        2.465615
   10        3.110689
   11        3.277938
   12        3.367320
 
  0.5000000E+00  0.1111111E+00  0.0000000E+00  0.2314815E-02
    1      -20.513045
    2      -20.513045
    3      -10.336202
    4      -10.336202
    5       -8.463529
    6       -8.463529
    7       -8.360207
    8       -8.360207
    9        2.774910
   10        2.774910
   11        3.567212
   12        3.567212
 
  0.0000000E+00  0.1388889E+00  0.0000000E+00  0.2314815E-02
    1      -21.804953
    2      -16.871088
    3      -15.605597
    4      -10.294849
    5       -9.870025
    6       -7.009853
    7       -6.589585
    8       -4.833750
    9       -1.260729
   10        1.003078
   11        1.807207
   12        2.202675
 
  0.4166667E-01  0.1388889E+00  0.0000000E+00  0.4629630E-02
    1      -21.795044
    2      -17.001985
    3      -15.460990
    4      -10.284537
    5       -9.858298
    6       -7.056333
    7       -6.593848
    8       -4.899192
    9       -1.182418
   10        1.016533
   11        1.820838
   12        2.216500
 
  0.8333333E-01  0.1388889E+00  0.0000000E+00  0.4629630E-02
    1      -21.765323
    2      -17.293574
    3      -15.128406
    4      -10.253612
    5       -9.823137
    6       -7.181816
    7       -6.619587
    8       -5.079844
    9       -0.963331
   10        1.056907
   11        1.861727
   12        2.257974
 
  0.1250000E+00  0.1388889E+00  0.0000000E+00  0.4629630E-02
    1      -21.715813
    2      -17.636693
    3      -14.717415
    4      -10.202107
    5       -9.764600
    6       -7.363534
    7       -6.686454
    8       -5.341581
    9       -0.638099
   10        1.124224
   11        1.929862
   12        2.327104
 
  0.1666667E+00  0.1388889E+00  0.0000000E+00  0.4629630E-02
    1      -21.646553
    2      -17.990451
    3      -14.269610
    4      -10.130073
    5       -9.682785
    6       -7.586040
    7       -6.804426
    8       -5.651663
    9       -0.240308
   10        1.218513
   11        2.025220
   12        2.423895
 
  0.2083333E+00  0.1388889E+00  0.0000000E+00  0.4629630E-02
    1      -21.557595
    2      -18.340228
    3      -13.800638
    4      -10.037569
    5       -9.577833
    6       -7.840484
    7       -6.974478
    8       -5.986476
    9        0.205261
   10        1.339798
   11        2.147770
   12        2.548354
 
  0.2500000E+00  0.1388889E+00  0.0000000E+00  0.4629630E-02
    1      -21.449010
    2      -18.679802
    3      -13.318117
    4       -9.924662
    5       -9.449935
    6       -8.122282
    7       -7.191200
    8       -6.330638
    9        0.681753
   10        1.488085
   11        2.297465
   12        2.700485
 
  0.2916667E+00  0.1388889E+00  0.0000000E+00  0.4629630E-02
    1      -21.320887
    2      -19.006042
    3      -12.826994
    4       -9.791402
    5       -9.299336
    6       -8.429987
    7       -7.444568
    8       -6.674310
    9        1.177559
   10        1.663358
   11        2.474239
   12        2.880289
 
  0.3333333E+00  0.1388889E+00  0.0000000E+00  0.4629630E-02
    1      -21.173337
    2      -19.317153
    3      -12.331397
    4       -9.637810
    5       -9.126345
    6       -8.764498
    7       -7.721591
    8       -7.011077
    9        1.684223
   10        1.865578
   11        2.677996
   12        3.087761
 
  0.3750000E+00  0.1388889E+00  0.0000000E+00  0.4629630E-02
    1      -21.006491
    2      -19.611990
    3      -11.835398
    4       -9.463861
    5       -9.127816
    6       -8.931346
    7       -8.008335
    8       -7.336618
    9        2.094683
   10        2.195118
   11        2.908571
   12        3.322895
 
  0.4166667E+00  0.1388889E+00  0.0000000E+00  0.4629630E-02
    1      -20.820511
    2      -19.889765
    3      -11.343417
    4       -9.521241
    5       -9.269479
    6       -8.714818
    7       -8.292315
    8       -7.647923
    9        2.350596
   10        2.704594
   11        3.165611
   12        3.585683
 
  0.4583333E+00  0.1388889E+00  0.0000000E+00  0.4629630E-02
    1      -20.615589
    2      -20.149902
    3      -10.860426
    4       -9.943809
    5       -9.054588
    6       -8.564408
    7       -8.477356
    8       -7.942823
    9        2.633223
   10        3.206886
   11        3.278134
   12        3.447651
 
  0.5000000E+00  0.1388889E+00  0.0000000E+00  0.2314815E-02
    1      -20.391959
    2      -20.391959
    3      -10.391958
    4      -10.391958
    5       -8.819302
    6       -8.819302
    7       -8.219709
    8       -8.219709
    9        2.942449
   10        2.942449
   11        3.666569
   12        3.666569
 
  0.0000000E+00  0.1666667E+00  0.0000000E+00  0.2314815E-02
    1      -21.654160
    2      -16.740425
    3      -15.487252
    4      -10.783962
    5       -9.691803
    6       -7.469940
    7       -6.866162
    8       -4.651578
    9       -1.337905
   10        1.208373
   11        2.014363
   12        2.412868
 
  0.4166667E-01  0.1666667E+00  0.0000000E+00  0.4629630E-02
    1      -21.644268
    2      -16.870270
    3      -15.344511
    4      -10.773181
    5       -9.680130
    6       -7.516624
    7       -6.865120
    8       -4.719221
    9       -1.258855
   10        1.221816
   11        2.027975
   12        2.426690
 
  0.8333333E-01  0.1666667E+00  0.0000000E+00  0.4629630E-02
    1      -21.614600
    2      -17.159695
    3      -15.016579
    4      -10.740811
    5       -9.645133
    6       -7.643066
    7       -6.875148
    8       -4.904760
    9       -1.039265
   10        1.262153
   11        2.068808
   12        2.468157
 
  0.1250000E+00  0.1666667E+00  0.0000000E+00  0.4629630E-02
    1      -21.565177
    2      -17.500532
    3      -14.612178
    4      -10.686763
    5       -9.586867
    6       -7.825156
    7       -6.918800
    8       -5.171279
    9       -0.716543
   10        1.329409
   11        2.136849
   12        2.537276
 
  0.1666667E+00  0.1666667E+00  0.0000000E+00  0.4629630E-02
    1      -21.496041
    2      -17.852192
    3      -14.172859
    4      -10.610872
    5       -9.505434
    6       -8.044869
    7       -7.010918
    8       -5.484693
    9       -0.325591
   10        1.423619
   11        2.232073
   12        2.634052
 
  0.2083333E+00  0.1666667E+00  0.0000000E+00  0.4629630E-02
    1      -21.407246
    2      -18.200116
    3      -13.714612
    4      -10.512862
    5       -9.400975
    6       -8.291009
    7       -7.157409
    8       -5.821288
    9        0.108772
   10        1.544814
   11        2.354446
   12        2.758495
 
  0.2500000E+00  0.1666667E+00  0.0000000E+00  0.4629630E-02
    1      -21.298868
    2      -18.538075
    3      -13.245642
    4      -10.392301
    5       -9.273681
    6       -8.556827
    7       -7.357464
    8       -6.166029
    9        0.570144
   10        1.693011
   11        2.503923
   12        2.910613
 
  0.2916667E+00  0.1666667E+00  0.0000000E+00  0.4629630E-02
    1      -21.170997
    2      -18.862917
    3      -12.771747
    4      -10.248534
    5       -9.123798
    6       -8.838683
    7       -7.605191
    8       -6.509460
    9        1.047474
   10        1.868200
   11        2.680441
   12        3.090408
 
  0.3333333E+00  0.1666667E+00  0.0000000E+00  0.4629630E-02
    1      -21.023749
    2      -19.172818
    3      -12.298202
    4      -10.080607
    5       -9.135557
    6       -8.951633
    7       -7.890798
    8       -6.845469
    9        1.532875
   10        2.070344
   11        2.883919
   12        3.297878
 
  0.3750000E+00  0.1666667E+00  0.0000000E+00  0.4629630E-02
    1      -20.857263
    2      -19.466611
    3      -11.830559
    4       -9.887230
    5       -9.448864
    6       -8.757568
    7       -8.201590
    8       -7.169952
    9        2.020329
   10        2.299375
   11        3.114248
   12        3.533015
 
  0.4166667E+00  0.1666667E+00  0.0000000E+00  0.4629630E-02
    1      -20.671707
    2      -19.743485
    3      -11.374933
    4       -9.782092
    5       -9.666886
    6       -8.542077
    7       -8.523076
    8       -7.480045
    9        2.504958
   10        2.555207
   11        3.371275
   12        3.795809
 
  0.4583333E+00  0.1666667E+00  0.0000000E+00  0.4629630E-02
    1      -20.467282
    2      -20.002844
    3      -10.937768
    4      -10.139661
    5       -9.418322
    6       -8.840611
    7       -8.305746
    8       -7.773677
    9        2.837731
   10        2.982588
   11        3.482320
   12        3.654575
 
  0.5000000E+00  0.1666667E+00  0.0000000E+00  0.2314815E-02
    1      -20.244230
    2      -20.244230
    3      -10.524850
    4      -10.524850
    5       -9.141741
    6       -9.141741
    7       -8.049305
    8       -8.049305
    9        3.146820
   10        3.146820
   11        3.449421
   12        3.449421
 