<?xml version="1.0" encoding="ISO-8859-1"?>
<modeling>
 <generator>
  <i name="program" type="string">vasp </i>
  <i name="version" type="string">5.3.5  </i>
  <i name="subversion" type="string">31Mar14 (build Mar 02 2015 18:14:16) complex                          parallel </i>
  <i name="platform" type="string">LinuxIFC </i>
  <i name="date" type="string">2018 08 08 </i>
  <i name="time" type="string">18:31:09 </i>
 </generator>
 <incar>
  <i type="string" name="SYSTEM">  gr</i>
  <i type="string" name="PREC">accurate : accuracy</i>
  <i type="string" name="ALGO"> FAST.</i>
  <i type="int" name="NELM">   100</i>
  <i type="int" name="NELMDL">    -3</i>
  <i type="int" name="NELMIN">     5</i>
  <i type="int" name="IBRION">     1</i>
  <i name="EDIFF">      0.00000000</i>
  <i name="EDIFFG">     -0.00000100</i>
  <i type="int" name="NSW">   400</i>
  <i type="int" name="ISIF">     2</i>
  <i name="ENCUT">   2000.00000000</i>
  <i type="int" name="ISMEAR">     0</i>
  <i name="SIGMA">      0.05000000</i>
  <i type="int" name="NWRITE">     2</i>
  <i type="logical" name="LWAVE"> F  </i>
  <i type="logical" name="LCHARG"> F  </i>
  <i type="int" name="NELM">   100</i>
 </incar>
 <kpoints>
  <generation param="Gamma">
   <v type="int" name="divisions">      24       36        1 </v>
   <v name="usershift">      0.00000000       0.00000000       0.00000000 </v>
   <v name="genvec1">      0.04166667       0.00000000       0.00000000 </v>
   <v name="genvec2">      0.00000000       0.02777778       0.00000000 </v>
   <v name="genvec3">      0.00000000       0.00000000       1.00000000 </v>
   <v name="shift">      0.00000000       0.00000000       0.00000000 </v>
  </generation>
  <varray name="kpointlist" >
   <v>       0.00000000       0.00000000       0.00000000 </v>
   <v>       0.04166667       0.00000000       0.00000000 </v>
   <v>       0.08333333       0.00000000       0.00000000 </v>
   <v>       0.12500000       0.00000000       0.00000000 </v>
   <v>       0.16666667       0.00000000       0.00000000 </v>
   <v>       0.20833333       0.00000000       0.00000000 </v>
   <v>       0.25000000       0.00000000       0.00000000 </v>
   <v>       0.29166667       0.00000000       0.00000000 </v>
   <v>       0.33333333       0.00000000       0.00000000 </v>
   <v>       0.37500000       0.00000000       0.00000000 </v>
   <v>       0.41666667       0.00000000       0.00000000 </v>
   <v>       0.45833333       0.00000000       0.00000000 </v>
   <v>       0.50000000       0.00000000       0.00000000 </v>
   <v>       0.00000000       0.02777778       0.00000000 </v>
   <v>       0.04166667       0.02777778       0.00000000 </v>
   <v>       0.08333333       0.02777778       0.00000000 </v>
   <v>       0.12500000       0.02777778       0.00000000 </v>
   <v>       0.16666667       0.02777778       0.00000000 </v>
   <v>       0.20833333       0.02777778       0.00000000 </v>
   <v>       0.25000000       0.02777778       0.00000000 </v>
   <v>       0.29166667       0.02777778       0.00000000 </v>
   <v>       0.33333333       0.02777778       0.00000000 </v>
   <v>       0.37500000       0.02777778       0.00000000 </v>
   <v>       0.41666667       0.02777778       0.00000000 </v>
   <v>       0.45833333       0.02777778       0.00000000 </v>
   <v>       0.50000000       0.02777778       0.00000000 </v>
   <v>       0.00000000       0.05555556       0.00000000 </v>
   <v>       0.04166667       0.05555556       0.00000000 </v>
   <v>       0.08333333       0.05555556       0.00000000 </v>
   <v>       0.12500000       0.05555556       0.00000000 </v>
   <v>       0.16666667       0.05555556       0.00000000 </v>
   <v>       0.20833333       0.05555556       0.00000000 </v>
   <v>       0.25000000       0.05555556       0.00000000 </v>
   <v>       0.29166667       0.05555556       0.00000000 </v>
   <v>       0.33333333       0.05555556       0.00000000 </v>
   <v>       0.37500000       0.05555556       0.00000000 </v>
   <v>       0.41666667       0.05555556       0.00000000 </v>
   <v>       0.45833333       0.05555556       0.00000000 </v>
   <v>       0.50000000       0.05555556       0.00000000 </v>
   <v>       0.00000000       0.08333333       0.00000000 </v>
   <v>       0.04166667       0.08333333       0.00000000 </v>
   <v>       0.08333333       0.08333333       0.00000000 </v>
   <v>       0.12500000       0.08333333       0.00000000 </v>
   <v>       0.16666667       0.08333333       0.00000000 </v>
   <v>       0.20833333       0.08333333       0.00000000 </v>
   <v>       0.25000000       0.08333333       0.00000000 </v>
   <v>       0.29166667       0.08333333       0.00000000 </v>
   <v>       0.33333333       0.08333333       0.00000000 </v>
   <v>       0.37500000       0.08333333       0.00000000 </v>
   <v>       0.41666667       0.08333333       0.00000000 </v>
   <v>       0.45833333       0.08333333       0.00000000 </v>
   <v>       0.50000000       0.08333333       0.00000000 </v>
   <v>       0.00000000       0.11111111       0.00000000 </v>
   <v>       0.04166667       0.11111111       0.00000000 </v>
   <v>       0.08333333       0.11111111       0.00000000 </v>
   <v>       0.12500000       0.11111111       0.00000000 </v>
   <v>       0.16666667       0.11111111       0.00000000 </v>
   <v>       0.20833333       0.11111111       0.00000000 </v>
   <v>       0.25000000       0.11111111       0.00000000 </v>
   <v>       0.29166667       0.11111111       0.00000000 </v>
   <v>       0.33333333       0.11111111       0.00000000 </v>
   <v>       0.37500000       0.11111111       0.00000000 </v>
   <v>       0.41666667       0.11111111       0.00000000 </v>
   <v>       0.45833333       0.11111111       0.00000000 </v>
   <v>       0.50000000       0.11111111       0.00000000 </v>
   <v>       0.00000000       0.13888889       0.00000000 </v>
   <v>       0.04166667       0.13888889       0.00000000 </v>
   <v>       0.08333333       0.13888889       0.00000000 </v>
   <v>       0.12500000       0.13888889       0.00000000 </v>
   <v>       0.16666667       0.13888889       0.00000000 </v>
   <v>       0.20833333       0.13888889       0.00000000 </v>
   <v>       0.25000000       0.13888889       0.00000000 </v>
   <v>       0.29166667       0.13888889       0.00000000 </v>
   <v>       0.33333333       0.13888889       0.00000000 </v>
   <v>       0.37500000       0.13888889       0.00000000 </v>
   <v>       0.41666667       0.13888889       0.00000000 </v>
   <v>       0.45833333       0.13888889       0.00000000 </v>
   <v>       0.50000000       0.13888889       0.00000000 </v>
   <v>       0.00000000       0.16666667       0.00000000 </v>
   <v>       0.04166667       0.16666667       0.00000000 </v>
   <v>       0.08333333       0.16666667       0.00000000 </v>
   <v>       0.12500000       0.16666667       0.00000000 </v>
   <v>       0.16666667       0.16666667       0.00000000 </v>
   <v>       0.20833333       0.16666667       0.00000000 </v>
   <v>       0.25000000       0.16666667       0.00000000 </v>
   <v>       0.29166667       0.16666667       0.00000000 </v>
   <v>       0.33333333       0.16666667       0.00000000 </v>
   <v>       0.37500000       0.16666667       0.00000000 </v>
   <v>       0.41666667       0.16666667       0.00000000 </v>
   <v>       0.45833333       0.16666667       0.00000000 </v>
   <v>       0.50000000       0.16666667       0.00000000 </v>
   <v>       0.00000000       0.19444444       0.00000000 </v>
   <v>       0.04166667       0.19444444       0.00000000 </v>
   <v>       0.08333333       0.19444444       0.00000000 </v>
   <v>       0.12500000       0.19444444       0.00000000 </v>
   <v>       0.16666667       0.19444444       0.00000000 </v>
   <v>       0.20833333       0.19444444       0.00000000 </v>
   <v>       0.25000000       0.19444444       0.00000000 </v>
   <v>       0.29166667       0.19444444       0.00000000 </v>
   <v>       0.33333333       0.19444444       0.00000000 </v>
   <v>       0.37500000       0.19444444       0.00000000 </v>
   <v>       0.41666667       0.19444444       0.00000000 </v>
   <v>       0.45833333       0.19444444       0.00000000 </v>
   <v>       0.50000000       0.19444444       0.00000000 </v>
   <v>       0.00000000       0.22222222       0.00000000 </v>
   <v>       0.04166667       0.22222222       0.00000000 </v>
   <v>       0.08333333       0.22222222       0.00000000 </v>
   <v>       0.12500000       0.22222222       0.00000000 </v>
   <v>       0.16666667       0.22222222       0.00000000 </v>
   <v>       0.20833333       0.22222222       0.00000000 </v>
   <v>       0.25000000       0.22222222       0.00000000 </v>
   <v>       0.29166667       0.22222222       0.00000000 </v>
   <v>       0.33333333       0.22222222       0.00000000 </v>
   <v>       0.37500000       0.22222222       0.00000000 </v>
   <v>       0.41666667       0.22222222       0.00000000 </v>
   <v>       0.45833333       0.22222222       0.00000000 </v>
   <v>       0.50000000       0.22222222       0.00000000 </v>
   <v>       0.00000000       0.25000000       0.00000000 </v>
   <v>       0.04166667       0.25000000       0.00000000 </v>
   <v>       0.08333333       0.25000000       0.00000000 </v>
   <v>       0.12500000       0.25000000       0.00000000 </v>
   <v>       0.16666667       0.25000000       0.00000000 </v>
   <v>       0.20833333       0.25000000       0.00000000 </v>
   <v>       0.25000000       0.25000000       0.00000000 </v>
   <v>       0.29166667       0.25000000       0.00000000 </v>
   <v>       0.33333333       0.25000000       0.00000000 </v>
   <v>       0.37500000       0.25000000       0.00000000 </v>
   <v>       0.41666667       0.25000000       0.00000000 </v>
   <v>       0.45833333       0.25000000       0.00000000 </v>
   <v>       0.50000000       0.25000000       0.00000000 </v>
   <v>       0.00000000       0.27777778       0.00000000 </v>
   <v>       0.04166667       0.27777778       0.00000000 </v>
   <v>       0.08333333       0.27777778       0.00000000 </v>
   <v>       0.12500000       0.27777778       0.00000000 </v>
   <v>       0.16666667       0.27777778       0.00000000 </v>
   <v>       0.20833333       0.27777778       0.00000000 </v>
   <v>       0.25000000       0.27777778       0.00000000 </v>
   <v>       0.29166667       0.27777778       0.00000000 </v>
   <v>       0.33333333       0.27777778       0.00000000 </v>
   <v>       0.37500000       0.27777778       0.00000000 </v>
   <v>       0.41666667       0.27777778       0.00000000 </v>
   <v>       0.45833333       0.27777778       0.00000000 </v>
   <v>       0.50000000       0.27777778       0.00000000 </v>
   <v>       0.00000000       0.30555556       0.00000000 </v>
   <v>       0.04166667       0.30555556       0.00000000 </v>
   <v>       0.08333333       0.30555556       0.00000000 </v>
   <v>       0.12500000       0.30555556       0.00000000 </v>
   <v>       0.16666667       0.30555556       0.00000000 </v>
   <v>       0.20833333       0.30555556       0.00000000 </v>
   <v>       0.25000000       0.30555556       0.00000000 </v>
   <v>       0.29166667       0.30555556       0.00000000 </v>
   <v>       0.33333333       0.30555556       0.00000000 </v>
   <v>       0.37500000       0.30555556       0.00000000 </v>
   <v>       0.41666667       0.30555556       0.00000000 </v>
   <v>       0.45833333       0.30555556       0.00000000 </v>
   <v>       0.50000000       0.30555556       0.00000000 </v>
   <v>       0.00000000       0.33333333       0.00000000 </v>
   <v>       0.04166667       0.33333333       0.00000000 </v>
   <v>       0.08333333       0.33333333       0.00000000 </v>
   <v>       0.12500000       0.33333333       0.00000000 </v>
   <v>       0.16666667       0.33333333       0.00000000 </v>
   <v>       0.20833333       0.33333333       0.00000000 </v>
   <v>       0.25000000       0.33333333       0.00000000 </v>
   <v>       0.29166667       0.33333333       0.00000000 </v>
   <v>       0.33333333       0.33333333       0.00000000 </v>
   <v>       0.37500000       0.33333333       0.00000000 </v>
   <v>       0.41666667       0.33333333       0.00000000 </v>
   <v>       0.45833333       0.33333333       0.00000000 </v>
   <v>       0.50000000       0.33333333       0.00000000 </v>
   <v>       0.00000000       0.36111111       0.00000000 </v>
   <v>       0.04166667       0.36111111       0.00000000 </v>
   <v>       0.08333333       0.36111111       0.00000000 </v>
   <v>       0.12500000       0.36111111       0.00000000 </v>
   <v>       0.16666667       0.36111111       0.00000000 </v>
   <v>       0.20833333       0.36111111       0.00000000 </v>
   <v>       0.25000000       0.36111111       0.00000000 </v>
   <v>       0.29166667       0.36111111       0.00000000 </v>
   <v>       0.33333333       0.36111111       0.00000000 </v>
   <v>       0.37500000       0.36111111       0.00000000 </v>
   <v>       0.41666667       0.36111111       0.00000000 </v>
   <v>       0.45833333       0.36111111       0.00000000 </v>
   <v>       0.50000000       0.36111111       0.00000000 </v>
   <v>       0.00000000       0.38888889       0.00000000 </v>
   <v>       0.04166667       0.38888889       0.00000000 </v>
   <v>       0.08333333       0.38888889       0.00000000 </v>
   <v>       0.12500000       0.38888889       0.00000000 </v>
   <v>       0.16666667       0.38888889       0.00000000 </v>
   <v>       0.20833333       0.38888889       0.00000000 </v>
   <v>       0.25000000       0.38888889       0.00000000 </v>
   <v>       0.29166667       0.38888889       0.00000000 </v>
   <v>       0.33333333       0.38888889       0.00000000 </v>
   <v>       0.37500000       0.38888889       0.00000000 </v>
   <v>       0.41666667       0.38888889       0.00000000 </v>
   <v>       0.45833333       0.38888889       0.00000000 </v>
   <v>       0.50000000       0.38888889       0.00000000 </v>
   <v>       0.00000000       0.41666667       0.00000000 </v>
   <v>       0.04166667       0.41666667       0.00000000 </v>
   <v>       0.08333333       0.41666667       0.00000000 </v>
   <v>       0.12500000       0.41666667       0.00000000 </v>
   <v>       0.16666667       0.41666667       0.00000000 </v>
   <v>       0.20833333       0.41666667       0.00000000 </v>
   <v>       0.25000000       0.41666667       0.00000000 </v>
   <v>       0.29166667       0.41666667       0.00000000 </v>
   <v>       0.33333333       0.41666667       0.00000000 </v>
   <v>       0.37500000       0.41666667       0.00000000 </v>
   <v>       0.41666667       0.41666667       0.00000000 </v>
   <v>       0.45833333       0.41666667       0.00000000 </v>
   <v>       0.50000000       0.41666667       0.00000000 </v>
   <v>       0.00000000       0.44444444       0.00000000 </v>
   <v>       0.04166667       0.44444444       0.00000000 </v>
   <v>       0.08333333       0.44444444       0.00000000 </v>
   <v>       0.12500000       0.44444444       0.00000000 </v>
   <v>       0.16666667       0.44444444       0.00000000 </v>
   <v>       0.20833333       0.44444444       0.00000000 </v>
   <v>       0.25000000       0.44444444       0.00000000 </v>
   <v>       0.29166667       0.44444444       0.00000000 </v>
   <v>       0.33333333       0.44444444       0.00000000 </v>
   <v>       0.37500000       0.44444444       0.00000000 </v>
   <v>       0.41666667       0.44444444       0.00000000 </v>
   <v>       0.45833333       0.44444444       0.00000000 </v>
   <v>       0.50000000       0.44444444       0.00000000 </v>
   <v>       0.00000000       0.47222222       0.00000000 </v>
   <v>       0.04166667       0.47222222       0.00000000 </v>
   <v>       0.08333333       0.47222222       0.00000000 </v>
   <v>       0.12500000       0.47222222       0.00000000 </v>
   <v>       0.16666667       0.47222222       0.00000000 </v>
   <v>       0.20833333       0.47222222       0.00000000 </v>
   <v>       0.25000000       0.47222222       0.00000000 </v>
   <v>       0.29166667       0.47222222       0.00000000 </v>
   <v>       0.33333333       0.47222222       0.00000000 </v>
   <v>       0.37500000       0.47222222       0.00000000 </v>
   <v>       0.41666667       0.47222222       0.00000000 </v>
   <v>       0.45833333       0.47222222       0.00000000 </v>
   <v>       0.50000000       0.47222222       0.00000000 </v>
   <v>       0.00000000       0.50000000       0.00000000 </v>
   <v>       0.04166667       0.50000000       0.00000000 </v>
   <v>       0.08333333       0.50000000       0.00000000 </v>
   <v>       0.12500000       0.50000000       0.00000000 </v>
   <v>       0.16666667       0.50000000       0.00000000 </v>
   <v>       0.20833333       0.50000000       0.00000000 </v>
   <v>       0.25000000       0.50000000       0.00000000 </v>
   <v>       0.29166667       0.50000000       0.00000000 </v>
   <v>       0.33333333       0.50000000       0.00000000 </v>
   <v>       0.37500000       0.50000000       0.00000000 </v>
   <v>       0.41666667       0.50000000       0.00000000 </v>
   <v>       0.45833333       0.50000000       0.00000000 </v>
   <v>       0.50000000       0.50000000       0.00000000 </v>
  </varray>
  <varray name="weights" >
   <v>       0.00115741 </v>
   <v>       0.00231481 </v>
   <v>       0.00231481 </v>
   <v>       0.00231481 </v>
   <v>       0.00231481 </v>
   <v>       0.00231481 </v>
   <v>       0.00231481 </v>
   <v>       0.00231481 </v>
   <v>       0.00231481 </v>
   <v>       0.00231481 </v>
   <v>       0.00231481 </v>
   <v>       0.00231481 </v>
   <v>       0.00115741 </v>
   <v>       0.00231481 </v>
   <v>       0.00462963 </v>
   <v>       0.00462963 </v>
   <v>       0.00462963 </v>
   <v>       0.00462963 </v>
   <v>       0.00462963 </v>
   <v>       0.00462963 </v>
   <v>       0.00462963 </v>
   <v>       0.00462963 </v>
   <v>       0.00462963 </v>
   <v>       0.00462963 </v>
   <v>       0.00462963 </v>
   <v>       0.00231481 </v>
   <v>       0.00231481 </v>
   <v>       0.00462963 </v>
   <v>       0.00462963 </v>
   <v>       0.00462963 </v>
   <v>       0.00462963 </v>
   <v>       0.00462963 </v>
   <v>       0.00462963 </v>
   <v>       0.00462963 </v>
   <v>       0.00462963 </v>
   <v>       0.00462963 </v>
   <v>       0.00462963 </v>
   <v>       0.00462963 </v>
   <v>       0.00231481 </v>
   <v>       0.00231481 </v>
   <v>       0.00462963 </v>
   <v>       0.00462963 </v>
   <v>       0.00462963 </v>
   <v>       0.00462963 </v>
   <v>       0.00462963 </v>
   <v>       0.00462963 </v>
   <v>       0.00462963 </v>
   <v>       0.00462963 </v>
   <v>       0.00462963 </v>
   <v>       0.00462963 </v>
   <v>       0.00462963 </v>
   <v>       0.00231481 </v>
   <v>       0.00231481 </v>
   <v>       0.00462963 </v>
   <v>       0.00462963 </v>
   <v>       0.00462963 </v>
   <v>       0.00462963 </v>
   <v>       0.00462963 </v>
   <v>       0.00462963 </v>
   <v>       0.00462963 </v>
   <v>       0.00462963 </v>
   <v>       0.00462963 </v>
   <v>       0.00462963 </v>
   <v>       0.00462963 </v>
   <v>       0.00231481 </v>
   <v>       0.00231481 </v>
   <v>       0.00462963 </v>
   <v>       0.00462963 </v>
   <v>       0.00462963 </v>
   <v>       0.00462963 </v>
   <v>       0.00462963 </v>
   <v>       0.00462963 </v>
   <v>       0.00462963 </v>
   <v>       0.00462963 </v>
   <v>       0.00462963 </v>
   <v>       0.00462963 </v>
   <v>       0.00462963 </v>
   <v>       0.00231481 </v>
   <v>       0.00231481 </v>
   <v>       0.00462963 </v>
   <v>       0.00462963 </v>
   <v>       0.00462963 </v>
   <v>       0.00462963 </v>
   <v>       0.00462963 </v>
   <v>       0.00462963 </v>
   <v>       0.00462963 </v>
   <v>       0.00462963 </v>
   <v>       0.00462963 </v>
   <v>       0.00462963 </v>
   <v>       0.00462963 </v>
   <v>       0.00231481 </v>
   <v>       0.00231481 </v>
   <v>       0.00462963 </v>
   <v>       0.00462963 </v>
   <v>       0.00462963 </v>
   <v>       0.00462963 </v>
   <v>       0.00462963 </v>
   <v>       0.00462963 </v>
   <v>       0.00462963 </v>
   <v>       0.00462963 </v>
   <v>       0.00462963 </v>
   <v>       0.00462963 </v>
   <v>       0.00462963 </v>
   <v>       0.00231481 </v>
   <v>       0.00231481 </v>
   <v>       0.00462963 </v>
   <v>       0.00462963 </v>
   <v>       0.00462963 </v>
   <v>       0.00462963 </v>
   <v>       0.00462963 </v>
   <v>       0.00462963 </v>
   <v>       0.00462963 </v>
   <v>       0.00462963 </v>
   <v>       0.00462963 </v>
   <v>       0.00462963 </v>
   <v>       0.00462963 </v>
   <v>       0.00231481 </v>
   <v>       0.00231481 </v>
   <v>       0.00462963 </v>
   <v>       0.00462963 </v>
   <v>       0.00462963 </v>
   <v>       0.00462963 </v>
   <v>       0.00462963 </v>
   <v>       0.00462963 </v>
   <v>       0.00462963 </v>
   <v>       0.00462963 </v>
   <v>       0.00462963 </v>
   <v>       0.00462963 </v>
   <v>       0.00462963 </v>
   <v>       0.00231481 </v>
   <v>       0.00231481 </v>
   <v>       0.00462963 </v>
   <v>       0.00462963 </v>
   <v>       0.00462963 </v>
   <v>       0.00462963 </v>
   <v>       0.00462963 </v>
   <v>       0.00462963 </v>
   <v>       0.00462963 </v>
   <v>       0.00462963 </v>
   <v>       0.00462963 </v>
   <v>       0.00462963 </v>
   <v>       0.00462963 </v>
   <v>       0.00231481 </v>
   <v>       0.00231481 </v>
   <v>       0.00462963 </v>
   <v>       0.00462963 </v>
   <v>       0.00462963 </v>
   <v>       0.00462963 </v>
   <v>       0.00462963 </v>
   <v>       0.00462963 </v>
   <v>       0.00462963 </v>
   <v>       0.00462963 </v>
   <v>       0.00462963 </v>
   <v>       0.00462963 </v>
   <v>       0.00462963 </v>
   <v>       0.00231481 </v>
   <v>       0.00231481 </v>
   <v>       0.00462963 </v>
   <v>       0.00462963 </v>
   <v>       0.00462963 </v>
   <v>       0.00462963 </v>
   <v>       0.00462963 </v>
   <v>       0.00462963 </v>
   <v>       0.00462963 </v>
   <v>       0.00462963 </v>
   <v>       0.00462963 </v>
   <v>       0.00462963 </v>
   <v>       0.00462963 </v>
   <v>       0.00231481 </v>
   <v>       0.00231481 </v>
   <v>       0.00462963 </v>
   <v>       0.00462963 </v>
   <v>       0.00462963 </v>
   <v>       0.00462963 </v>
   <v>       0.00462963 </v>
   <v>       0.00462963 </v>
   <v>       0.00462963 </v>
   <v>       0.00462963 </v>
   <v>       0.00462963 </v>
   <v>       0.00462963 </v>
   <v>       0.00462963 </v>
   <v>       0.00231481 </v>
   <v>       0.00231481 </v>
   <v>       0.00462963 </v>
   <v>       0.00462963 </v>
   <v>       0.00462963 </v>
   <v>       0.00462963 </v>
   <v>       0.00462963 </v>
   <v>       0.00462963 </v>
   <v>       0.00462963 </v>
   <v>       0.00462963 </v>
   <v>       0.00462963 </v>
   <v>       0.00462963 </v>
   <v>       0.00462963 </v>
   <v>       0.00231481 </v>
   <v>       0.00231481 </v>
   <v>       0.00462963 </v>
   <v>       0.00462963 </v>
   <v>       0.00462963 </v>
   <v>       0.00462963 </v>
   <v>       0.00462963 </v>
   <v>       0.00462963 </v>
   <v>       0.00462963 </v>
   <v>       0.00462963 </v>
   <v>       0.00462963 </v>
   <v>       0.00462963 </v>
   <v>       0.00462963 </v>
   <v>       0.00231481 </v>
   <v>       0.00231481 </v>
   <v>       0.00462963 </v>
   <v>       0.00462963 </v>
   <v>       0.00462963 </v>
   <v>       0.00462963 </v>
   <v>       0.00462963 </v>
   <v>       0.00462963 </v>
   <v>       0.00462963 </v>
   <v>       0.00462963 </v>
   <v>       0.00462963 </v>
   <v>       0.00462963 </v>
   <v>       0.00462963 </v>
   <v>       0.00231481 </v>
   <v>       0.00231481 </v>
   <v>       0.00462963 </v>
   <v>       0.00462963 </v>
   <v>       0.00462963 </v>
   <v>       0.00462963 </v>
   <v>       0.00462963 </v>
   <v>       0.00462963 </v>
   <v>       0.00462963 </v>
   <v>       0.00462963 </v>
   <v>       0.00462963 </v>
   <v>       0.00462963 </v>
   <v>       0.00462963 </v>
   <v>       0.00231481 </v>
   <v>       0.00115741 </v>
   <v>       0.00231481 </v>
   <v>       0.00231481 </v>
   <v>       0.00231481 </v>
   <v>       0.00231481 </v>
   <v>       0.00231481 </v>
   <v>       0.00231481 </v>
   <v>       0.00231481 </v>
   <v>       0.00231481 </v>
   <v>       0.00231481 </v>
   <v>       0.00231481 </v>
   <v>       0.00231481 </v>
   <v>       0.00115741 </v>
  </varray>
 </kpoints>
 <parameters>
  <separator name="general" >
   <i type="string" name="SYSTEM">gr</i>
   <i type="logical" name="LCOMPAT"> F  </i>
  </separator>
  <separator name="electronic" >
   <i type="string" name="PREC">accura</i>
   <i name="ENMAX">   2000.00000000</i>
   <i name="ENAUG">    644.87300000</i>
   <i name="EDIFF">      0.00000000</i>
   <i type="int" name="IALGO">    68</i>
   <i type="int" name="IWAVPR">    11</i>
   <i type="int" name="NBANDS">    12</i>
   <i name="NELECT">     16.00000000</i>
   <i type="int" name="TURBO">     0</i>
   <i type="int" name="IRESTART">     0</i>
   <i type="int" name="NREBOOT">     0</i>
   <i type="int" name="NMIN">     0</i>
   <i name="EREF">      0.00000000</i>
   <separator name="electronic smearing" >
    <i type="int" name="ISMEAR">     0</i>
    <i name="SIGMA">      0.05000000</i>
    <i name="KSPACING">      0.50000000</i>
    <i type="logical" name="KGAMMA"> T  </i>
   </separator>
   <separator name="electronic projectors" >
    <i type="logical" name="LREAL"> F  </i>
    <v name="ROPT">      0.00000000</v>
    <i type="int" name="LMAXPAW">  -100</i>
    <i type="int" name="LMAXMIX">     2</i>
    <i type="logical" name="NLSPLINE"> F  </i>
   </separator>
   <separator name="electronic startup" >
    <i type="int" name="ISTART">     0</i>
    <i type="int" name="ICHARG">     2</i>
    <i type="int" name="INIWAV">     1</i>
   </separator>
   <separator name="electronic spin" >
    <i type="int" name="ISPIN">     1</i>
    <i type="logical" name="LNONCOLLINEAR"> F  </i>
    <v name="MAGMOM">      1.00000000      1.00000000      1.00000000      1.00000000</v>
    <i name="NUPDOWN">     -1.00000000</i>
    <i type="logical" name="LSORBIT"> F  </i>
    <v name="SAXIS">      0.00000000      0.00000000      1.00000000</v>
    <i type="logical" name="LSPIRAL"> F  </i>
    <v name="QSPIRAL">      0.00000000      0.00000000      0.00000000</v>
    <i type="logical" name="LZEROZ"> F  </i>
   </separator>
   <separator name="electronic exchange-correlation" >
    <i type="logical" name="LASPH"> F  </i>
    <i type="logical" name="LMETAGGA"> F  </i>
   </separator>
   <separator name="electronic convergence" >
    <i type="int" name="NELM">   100</i>
    <i type="int" name="NELMDL">    -3</i>
    <i type="int" name="NELMIN">     5</i>
    <i name="ENINI">   2000.00000000</i>
    <separator name="electronic convergence detail" >
     <i type="logical" name="LDIAG"> T  </i>
     <i type="logical" name="LSUBROT"> F  </i>
     <i name="WEIMIN">      0.00100000</i>
     <i name="EBREAK">      0.00000000</i>
     <i name="DEPER">      0.30000000</i>
     <i type="int" name="NRMM">     4</i>
     <i name="TIME">      0.40000000</i>
    </separator>
   </separator>
   <separator name="electronic mixer" >
    <i name="AMIX">      0.40000000</i>
    <i name="BMIX">      1.00000000</i>
    <i name="AMIN">      0.10000000</i>
    <i name="AMIX_MAG">      1.60000000</i>
    <i name="BMIX_MAG">      1.00000000</i>
    <separator name="electronic mixer details" >
     <i type="int" name="IMIX">     4</i>
     <i type="int" name="MAXMIX">   -45</i>
     <i name="WC">    100.00000000</i>
     <i type="int" name="INIMIX">     1</i>
     <i type="int" name="MIXPRE">     1</i>
     <i type="int" name="MREMOVE">     5</i>
    </separator>
   </separator>
   <separator name="electronic dipolcorrection" >
    <i type="logical" name="LDIPOL"> F  </i>
    <i type="logical" name="LMONO"> F  </i>
    <i type="int" name="IDIPOL">     0</i>
    <i name="EPSILON">      1.00000000</i>
    <v name="DIPOL">   -100.00000000   -100.00000000   -100.00000000</v>
    <i name="EFIELD">      0.00000000</i>
   </separator>
  </separator>
  <separator name="grids" >
   <i type="int" name="NGX">    64</i>
   <i type="int" name="NGY">    36</i>
   <i type="int" name="NGZ">   288</i>
   <i type="int" name="NGXF">   128</i>
   <i type="int" name="NGYF">    72</i>
   <i type="int" name="NGZF">   576</i>
   <i type="logical" name="ADDGRID"> F  </i>
  </separator>
  <separator name="ionic" >
   <i type="int" name="NSW">   400</i>
   <i type="int" name="IBRION">     1</i>
   <i type="int" name="ISIF">     2</i>
   <i name="PSTRESS">      0.00000000</i>
   <i name="EDIFFG">     -0.00000100</i>
   <i type="int" name="NFREE">     0</i>
   <i name="POTIM">      0.50000000</i>
   <i name="SMASS">     -3.00000000</i>
   <i name="SCALEE">      1.00000000</i>
  </separator>
  <separator name="ionic md" >
   <i name="TEBEG">      0.00010000</i>
   <i name="TEEND">      0.00010000</i>
   <i type="int" name="NBLOCK">     1</i>
   <i type="int" name="KBLOCK">   400</i>
   <i type="int" name="NPACO">   256</i>
   <i name="APACO">     16.00000000</i>
  </separator>
  <separator name="symmetry" >
   <i type="int" name="ISYM">     2</i>
   <i name="SYMPREC">      0.00001000</i>
  </separator>
  <separator name="dos" >
   <i type="logical" name="LORBIT"> F  </i>
   <v name="RWIGS">     -1.00000000</v>
   <i type="int" name="NEDOS">   301</i>
   <i name="EMIN">     10.00000000</i>
   <i name="EMAX">    -10.00000000</i>
   <i name="EFERMI">      0.00000000</i>
  </separator>
  <separator name="writing" >
   <i type="int" name="NWRITE">     2</i>
   <i type="logical" name="LWAVE"> F  </i>
   <i type="logical" name="LCHARG"> F  </i>
   <i type="logical" name="LPARD"> F  </i>
   <i type="logical" name="LVTOT"> F  </i>
   <i type="logical" name="LVHAR"> F  </i>
   <i type="logical" name="LELF"> F  </i>
   <i type="logical" name="LOPTICS"> F  </i>
   <v name="STM">      0.00000000      0.00000000      0.00000000      0.00000000      0.00000000      0.00000000      0.00000000</v>
  </separator>
  <separator name="performance" >
   <i type="int" name="NPAR">     4</i>
   <i type="int" name="NSIM">     4</i>
   <i type="int" name="NBLK">    -1</i>
   <i type="logical" name="LPLANE"> T  </i>
   <i type="logical" name="LSCALAPACK"> F  </i>
   <i type="logical" name="LSCAAWARE"> F  </i>
   <i type="logical" name="LSCALU"> F  </i>
   <i type="logical" name="LASYNC"> F  </i>
   <i type="logical" name="LORBITALREAL"> F  </i>
  </separator>
  <separator name="miscellaneous" >
   <i type="int" name="IDIOT">     3</i>
   <i type="logical" name="LMUSIC"> F  </i>
   <v name="POMASS">     12.01100000</v>
   <v name="DARWINR">      0.00000000</v>
   <v name="DARWINV">      1.00000000</v>
   <i type="logical" name="LCORR"> T  </i>
  </separator>
  <i type="logical" name="GGA_COMPAT"> T  </i>
  <i type="logical" name="LBERRY"> F  </i>
  <i type="int" name="ICORELEVEL">     0</i>
  <i type="logical" name="LDAU"> F  </i>
  <i type="int" name="I_CONSTRAINED_M">     0</i>
  <separator name="electronic exchange-correlation" >
   <i type="string" name="GGA">--</i>
   <i type="int" name="VOSKOWN">     0</i>
   <i type="logical" name="LHFCALC"> F  </i>
   <i type="string" name="PRECFOCK"></i>
   <i type="logical" name="LSYMGRAD"> F  </i>
   <i type="logical" name="LHFONE"> F  </i>
   <i type="logical" name="LRHFCALC"> F  </i>
   <i type="logical" name="LTHOMAS"> F  </i>
   <i type="logical" name="LMODELHF"> F  </i>
   <i name="ENCUT4O">     -1.00000000</i>
   <i type="int" name="EXXOEP">     0</i>
   <i type="int" name="FOURORBIT">     0</i>
   <i name="AEXX">      0.00000000</i>
   <i name="HFALPHA">      0.00000000</i>
   <i name="MCALPHA">      0.00000000</i>
   <i name="ALDAX">      1.00000000</i>
   <i name="AGGAX">      1.00000000</i>
   <i name="ALDAC">      1.00000000</i>
   <i name="AGGAC">      1.00000000</i>
   <i type="int" name="NKREDX">     1</i>
   <i type="int" name="NKREDY">     1</i>
   <i type="int" name="NKREDZ">     1</i>
   <i type="logical" name="SHIFTRED"> F  </i>
   <i type="logical" name="ODDONLY"> F  </i>
   <i type="logical" name="EVENONLY"> F  </i>
   <i type="int" name="LMAXFOCK">     0</i>
   <i type="int" name="NMAXFOCKAE">     0</i>
   <i type="logical" name="LFOCKAEDFT"> F  </i>
   <i name="HFSCREEN">      0.00000000</i>
   <i name="HFSCREENC">      0.00000000</i>
   <i type="int" name="NBANDSGWLOW">     0</i>
  </separator>
  <separator name="vdW DFT" >
   <i type="logical" name="LUSE_VDW"> F  </i>
   <i name="Zab_VDW">     -0.84910000</i>
   <i name="PARAM1">      0.12340000</i>
   <i name="PARAM2">      1.00000000</i>
   <i name="PARAM3">      0.00000000</i>
  </separator>
  <separator name="model GW" >
   <i type="int" name="MODEL_GW">     0</i>
   <i name="MODEL_EPS0">     31.62568521</i>
   <i name="MODEL_ALPHA">      1.00000000</i>
  </separator>
  <separator name="linear response parameters" >
   <i type="logical" name="LEPSILON"> F  </i>
   <i type="logical" name="LRPA"> F  </i>
   <i type="logical" name="LNABLA"> F  </i>
   <i type="logical" name="LVEL"> F  </i>
   <i type="int" name="KINTER">     0</i>
   <i name="CSHIFT">      0.10000000</i>
   <i name="OMEGAMAX">     -1.00000000</i>
   <i name="DEG_THRESHOLD">      0.00200000</i>
  </separator>
  <separator name="orbital magnetization" >
   <i type="logical" name="NUCIND"> F  </i>
   <v name="MAGPOS">      0.00000000      0.00000000      0.00000000</v>
   <i type="logical" name="LNICSALL"> T  </i>
   <i type="logical" name="ORBITALMAG"> F  </i>
   <i type="logical" name="LMAGBLOCH"> F  </i>
   <i type="logical" name="LCHIMAG"> F  </i>
   <i type="logical" name="LGAUGE"> T  </i>
   <i type="int" name="MAGATOM">     0</i>
   <v name="MAGDIPOL">      0.00000000      0.00000000      0.00000000</v>
   <v name="AVECCONST">      0.00000000      0.00000000      0.00000000</v>
  </separator>
  <separator name="response functions" >
   <i type="logical" name="LADDER"> F  </i>
   <i type="logical" name="LFXC"> F  </i>
   <i type="logical" name="LHARTREE"> T  </i>
   <i type="int" name="IBSE">     0</i>
   <i type="logical" name="LTCTE"> F  </i>
   <i type="logical" name="LTETE"> F  </i>
   <i type="logical" name="LTRIPLET"> F  </i>
   <i type="logical" name="LFXCEPS"> F  </i>
   <i type="logical" name="LFXHEG"> F  </i>
   <i type="logical" name="L2ORDER"> F  </i>
   <i type="logical" name="LUSEW"> F  </i>
   <i name="ENCUTGW">     -2.00000000</i>
   <i name="ENCUTGWSOFT">     -2.00000000</i>
   <i name="ENCUTLF">     -1.00000000</i>
   <i type="int" name="LMAXMP2">    -1</i>
   <i name="SCISSOR">      0.00000000</i>
   <i type="int" name="NOMEGA">     0</i>
   <i type="int" name="NOMEGAR">     0</i>
   <i type="int" name="NBANDSGW">    -1</i>
   <i type="int" name="NBANDSO">    -1</i>
   <i type="int" name="NBANDSV">    -1</i>
   <i type="int" name="NELM">   100</i>
   <i type="int" name="DIM">     3</i>
   <i type="int" name="ANTIRES">     0</i>
   <i name="OMEGAMAX">    -30.00000000</i>
   <i name="OMEGAMIN">    -30.00000000</i>
   <i name="OMEGATL">   -200.00000000</i>
   <i type="int" name="OMEGAGRID">     0</i>
   <i name="CSHIFT">     -0.10000000</i>
   <i type="logical" name="SELFENERGY"> F  </i>
   <i type="logical" name="LSPECTRAL"> F  </i>
   <i type="logical" name="ODDONLYGW"> F  </i>
   <i type="logical" name="EVENONLYGW"> F  </i>
   <i type="int" name="NKREDLFX">     1</i>
   <i type="int" name="NKREDLFY">     1</i>
   <i type="int" name="NKREDLFZ">     1</i>
   <i type="int" name="MAXMEM">  1800</i>
   <i type="int" name="TELESCOPE">     0</i>
   <i type="int" name="TAUPAR">     1</i>
  </separator>
  <separator name="External order field" >
   <i name="OFIELD_KAPPA">      0.00000000</i>
   <v name="OFIELD_K">      0.00000000      0.00000000      0.00000000</v>
   <i name="OFIELD_Q6_NEAR">      0.00000000</i>
   <i name="OFIELD_Q6_FAR">      0.00000000</i>
   <i name="OFIELD_A">      0.00000000</i>
  </separator>
 </parameters>
 <atominfo>
  <atoms>       4 </atoms>
  <types>       1 </types>
  <array name="atoms" >
   <dimension dim="1">ion</dimension>
   <field type="string">element</field>
   <field type="int">atomtype</field>
   <set>
    <rc><c>C </c><c>   1</c></rc>
    <rc><c>C </c><c>   1</c></rc>
    <rc><c>C </c><c>   1</c></rc>
    <rc><c>C </c><c>   1</c></rc>
   </set>
  </array>
  <array name="atomtypes" >
   <dimension dim="1">type</dimension>
   <field type="int">atomspertype</field>
   <field type="string">element</field>
   <field>mass</field>
   <field>valence</field>
   <field type="string">pseudopotential</field>
   <set>
    <rc><c>   4</c><c>C </c><c>     12.01100000</c><c>      4.00000000</c><c> PAW_PBE C 08Apr2002                    </c></rc>
   </set>
  </array>
 </atominfo>
 <structure name="initialpos" >
  <crystal>
   <varray name="basis" >
    <v>       4.33821488       0.00000000       0.00000000 </v>
    <v>       0.00000000       2.46078586       0.00000000 </v>
    <v>       0.00000000       0.00000000      19.74985008 </v>
   </varray>
   <i name="volume">    210.83790140 </i>
   <varray name="rec_basis" >
    <v>       0.23050956       0.00000000       0.00000000 </v>
    <v>       0.00000000       0.40637425       0.00000000 </v>
    <v>       0.00000000       0.00000000       0.05063330 </v>
   </varray>
  </crystal>
  <varray name="positions" >
   <v>       0.99964215       0.00000000       0.00000000 </v>
   <v>       0.16702452       0.50000000       0.00000000 </v>
   <v>       0.49964215       0.50000000       0.00000000 </v>
   <v>       0.66702452       0.00000000       0.00000000 </v>
  </varray>
 </structure>
 <calculation>
  <scstep>
   <time name="dav">  299.27  300.87</time>
   <time name="total">  301.71  303.78</time>
   <energy>
    <i name="alphaZ">      6.18334092 </i>
    <i name="ewald">   2502.57844812 </i>
    <i name="hartreedc">  -2930.48073163 </i>
    <i name="XCdc">     54.92660724 </i>
    <i name="pawpsdc">    151.32577238 </i>
    <i name="pawaedc">   -155.92769107 </i>
    <i name="eentropy">     -0.00105745 </i>
    <i name="bandstr">    -29.95516060 </i>
    <i name="atom">    588.62352690 </i>
    <i name="e_fr_energy">    187.27305482 </i>
    <i name="e_wo_entrp">    187.27411226 </i>
    <i name="e_0_energy">    187.27358354 </i>
   </energy>
  </scstep>
  <scstep>
   <time name="dav">  453.12  453.80</time>
   <time name="total">  453.12  453.84</time>
   <energy>
    <i name="e_fr_energy">     -9.13897226 </i>
    <i name="e_wo_entrp">     -9.13842982 </i>
    <i name="e_0_energy">     -9.13870104 </i>
   </energy>
  </scstep>
  <scstep>
   <time name="dav">  350.76  351.25</time>
   <time name="total">  381.75  382.29</time>
   <energy>
    <i name="e_fr_energy">    -38.22701478 </i>
    <i name="e_wo_entrp">    -38.22701225 </i>
    <i name="e_0_energy">    -38.22701351 </i>
   </energy>
  </scstep>
  <scstep>
   <time name="diag">   80.48   80.54</time>
   <time name="diis">  336.78  337.10</time>
   <time name="orth">    3.09    3.09</time>
   <time name="total">  453.74  454.30</time>
   <energy>
    <i name="e_fr_energy">    -37.64421874 </i>
    <i name="e_wo_entrp">    -37.64421566 </i>
    <i name="e_0_energy">    -37.64421720 </i>
   </energy>
  </scstep>
  <scstep>
   <time name="diag">   80.51   80.55</time>
   <time name="diis">  335.32  335.38</time>
   <time name="orth">    3.08    3.08</time>
   <time name="total">  452.23  454.06</time>
   <energy>
    <i name="e_fr_energy">    -36.91056991 </i>
    <i name="e_wo_entrp">    -36.91056468 </i>
    <i name="e_0_energy">    -36.91056729 </i>
   </energy>
  </scstep>
  <scstep>
   <time name="diag">   80.53   80.58</time>
   <time name="diis">  364.93  365.10</time>
   <time name="orth">    3.08    3.10</time>
   <time name="total">  481.77  483.93</time>
   <energy>
    <i name="e_fr_energy">    -36.91198910 </i>
    <i name="e_wo_entrp">    -36.91198416 </i>
    <i name="e_0_energy">    -36.91198663 </i>
   </energy>
  </scstep>
  <scstep>
   <time name="diag">   80.53   80.61</time>
   <time name="diis">  335.41  335.52</time>
   <time name="orth">    3.10    3.11</time>
   <time name="total">  452.34  453.03</time>
   <energy>
    <i name="e_fr_energy">    -36.90287969 </i>
    <i name="e_wo_entrp">    -36.90287552 </i>
    <i name="e_0_energy">    -36.90287760 </i>
   </energy>
  </scstep>
  <scstep>
   <time name="diag">   80.56   80.57</time>
   <time name="diis">  336.42  336.84</time>
   <time name="orth">    3.10    3.11</time>
   <time name="total">  453.43  454.04</time>
   <energy>
    <i name="e_fr_energy">    -36.89762555 </i>
    <i name="e_wo_entrp">    -36.89762118 </i>
    <i name="e_0_energy">    -36.89762337 </i>
   </energy>
  </scstep>
  <scstep>
   <time name="diag">   80.54   80.56</time>
   <time name="diis">  327.90  327.98</time>
   <time name="orth">    3.11    3.11</time>
   <time name="total">  444.85  445.04</time>
   <energy>
    <i name="e_fr_energy">    -36.89728275 </i>
    <i name="e_wo_entrp">    -36.89727798 </i>
    <i name="e_0_energy">    -36.89728037 </i>
   </energy>
  </scstep>
  <scstep>
   <time name="diag">   80.60   80.68</time>
   <time name="diis">  328.77  329.07</time>
   <time name="orth">    3.08    3.10</time>
   <time name="total">  445.69  446.33</time>
   <energy>
    <i name="e_fr_energy">    -36.89716746 </i>
    <i name="e_wo_entrp">    -36.89716292 </i>
    <i name="e_0_energy">    -36.89716519 </i>
   </energy>
  </scstep>
  <scstep>
   <time name="diag">   80.40   80.64</time>
   <time name="diis">  330.60  330.69</time>
   <time name="orth">    3.08    3.08</time>
   <time name="total">  447.45  448.42</time>
   <energy>
    <i name="e_fr_energy">    -36.89958405 </i>
    <i name="e_wo_entrp">    -36.89957962 </i>
    <i name="e_0_energy">    -36.89958184 </i>
   </energy>
  </scstep>
  <scstep>
   <time name="diag">   80.63   80.65</time>
   <time name="diis">  329.93  330.14</time>
   <time name="orth">    3.10    3.10</time>
   <time name="total">  447.08  447.34</time>
   <energy>
    <i name="e_fr_energy">    -36.90004821 </i>
    <i name="e_wo_entrp">    -36.90004369 </i>
    <i name="e_0_energy">    -36.90004595 </i>
   </energy>
  </scstep>
  <scstep>
   <time name="diag">   80.56   80.58</time>
   <time name="diis">  337.85  337.99</time>
   <time name="orth">    3.11    3.11</time>
   <time name="total">  454.82  455.03</time>
   <energy>
    <i name="e_fr_energy">    -36.90030526 </i>
    <i name="e_wo_entrp">    -36.90030072 </i>
    <i name="e_0_energy">    -36.90030299 </i>
   </energy>
  </scstep>
  <scstep>
   <time name="diag">   80.45   80.50</time>
   <time name="diis">  331.02  331.09</time>
   <time name="orth">    3.10    3.10</time>
   <time name="total">  447.92  448.06</time>
   <energy>
    <i name="e_fr_energy">    -36.90038840 </i>
    <i name="e_wo_entrp">    -36.90038388 </i>
    <i name="e_0_energy">    -36.90038614 </i>
   </energy>
  </scstep>
  <scstep>
   <time name="diag">   80.42   80.47</time>
   <time name="diis">  329.60  329.76</time>
   <time name="orth">    3.10    3.10</time>
   <time name="total">  446.43  446.71</time>
   <energy>
    <i name="e_fr_energy">    -36.90040063 </i>
    <i name="e_wo_entrp">    -36.90039610 </i>
    <i name="e_0_energy">    -36.90039836 </i>
   </energy>
  </scstep>
  <scstep>
   <time name="diag">   80.48   80.51</time>
   <time name="diis">  326.29  326.81</time>
   <time name="orth">    3.10    3.10</time>
   <time name="total">  443.23  443.88</time>
   <energy>
    <i name="e_fr_energy">    -36.90041255 </i>
    <i name="e_wo_entrp">    -36.90040803 </i>
    <i name="e_0_energy">    -36.90041029 </i>
   </energy>
  </scstep>
  <scstep>
   <time name="diag">   80.49   80.50</time>
   <time name="diis">  328.12  328.40</time>
   <time name="orth">    3.18    3.18</time>
   <time name="total">  445.09  445.49</time>
   <energy>
    <i name="e_fr_energy">    -36.90041813 </i>
    <i name="e_wo_entrp">    -36.90041361 </i>
    <i name="e_0_energy">    -36.90041587 </i>
   </energy>
  </scstep>
  <scstep>
   <time name="diag">   80.44   80.47</time>
   <time name="diis">  329.26  329.34</time>
   <time name="orth">    3.08    3.08</time>
   <time name="total">  446.13  447.07</time>
   <energy>
    <i name="e_fr_energy">    -36.90041918 </i>
    <i name="e_wo_entrp">    -36.90041465 </i>
    <i name="e_0_energy">    -36.90041692 </i>
   </energy>
  </scstep>
  <scstep>
   <time name="diag">   80.58   80.61</time>
   <time name="diis">  343.05  343.17</time>
   <time name="orth">    3.08    3.08</time>
   <time name="total">  460.11  460.80</time>
   <energy>
    <i name="e_fr_energy">    -36.90042000 </i>
    <i name="e_wo_entrp">    -36.90041547 </i>
    <i name="e_0_energy">    -36.90041773 </i>
   </energy>
  </scstep>
  <scstep>
   <time name="diag">   80.56   80.59</time>
   <time name="diis">  259.51  259.61</time>
   <time name="orth">    3.10    3.10</time>
   <time name="total">  376.52  381.38</time>
   <energy>
    <i name="e_fr_energy">    -36.90042005 </i>
    <i name="e_wo_entrp">    -36.90041552 </i>
    <i name="e_0_energy">    -36.90041778 </i>
   </energy>
  </scstep>
  <scstep>
   <time name="diag">   80.48   80.71</time>
   <time name="diis">  249.03  250.33</time>
   <time name="orth">    3.08    3.08</time>
   <time name="total">  365.88  367.70</time>
   <energy>
    <i name="e_fr_energy">    -36.90042006 </i>
    <i name="e_wo_entrp">    -36.90041553 </i>
    <i name="e_0_energy">    -36.90041780 </i>
   </energy>
  </scstep>
  <scstep>
   <time name="diag">   80.38   80.62</time>
   <time name="diis">  225.59  226.43</time>
   <time name="orth">    3.08    3.10</time>
   <time name="total">  342.16  344.06</time>
   <energy>
    <i name="e_fr_energy">    -36.90042006 </i>
    <i name="e_wo_entrp">    -36.90041553 </i>
    <i name="e_0_energy">    -36.90041780 </i>
   </energy>
  </scstep>
  <scstep>
   <time name="diag">   80.24   80.63</time>
   <time name="diis">  216.08  216.27</time>
   <time name="orth">    3.11    3.11</time>
   <time name="total">  332.82  335.07</time>
   <energy>
    <i name="e_fr_energy">    -36.90042006 </i>
    <i name="e_wo_entrp">    -36.90041554 </i>
    <i name="e_0_energy">    -36.90041780 </i>
   </energy>
  </scstep>
  <scstep>
   <time name="diag">   80.58   80.64</time>
   <time name="diis">  202.73  202.79</time>
   <time name="orth">    3.08    3.08</time>
   <time name="total">  288.73  290.97</time>
   <energy>
    <i name="alphaZ">      6.18334092 </i>
    <i name="ewald">   2502.57844812 </i>
    <i name="hartreedc">  -2996.73286322 </i>
    <i name="XCdc">     57.29039848 </i>
    <i name="pawpsdc">    272.01084830 </i>
    <i name="pawaedc">   -277.13670930 </i>
    <i name="eentropy">     -0.00000453 </i>
    <i name="bandstr">   -189.71740573 </i>
    <i name="atom">    588.62352690 </i>
    <i name="e_fr_energy">    -36.90042006 </i>
    <i name="e_wo_entrp">    -36.90041554 </i>
    <i name="e_0_energy">    -36.90041780 </i>
   </energy>
  </scstep>
  <structure>
   <crystal>
    <varray name="basis" >
     <v>       4.33821488       0.00000000       0.00000000 </v>
     <v>       0.00000000       2.46078586       0.00000000 </v>
     <v>       0.00000000       0.00000000      19.74985008 </v>
    </varray>
    <i name="volume">    210.83790140 </i>
    <varray name="rec_basis" >
     <v>       0.23050956       0.00000000       0.00000000 </v>
     <v>       0.00000000       0.40637425       0.00000000 </v>
     <v>       0.00000000       0.00000000       0.05063330 </v>
    </varray>
   </crystal>
   <varray name="positions" >
    <v>       0.99964215       0.00000000       0.00000000 </v>
    <v>       0.16702452       0.50000000       0.00000000 </v>
    <v>       0.49964215       0.50000000       0.00000000 </v>
    <v>       0.66702452       0.00000000       0.00000000 </v>
   </varray>
  </structure>
  <varray name="forces" >
   <v>      -0.00101218       0.00000000       0.00000000 </v>
   <v>       0.00101218      -0.00000000      -0.00000000 </v>
   <v>      -0.00101218      -0.00000000       0.00000000 </v>
   <v>       0.00101218       0.00000000      -0.00000000 </v>
  </varray>
  <varray name="stress" >
   <v>     -25.27121457       0.00000000       0.00000000 </v>
   <v>       0.00000000       0.00697782       0.00000000 </v>
   <v>       0.00000000       0.00000000      -0.01032027 </v>
  </varray>
  <energy>
   <i name="e_fr_energy">    -36.90042006 </i>
   <i name="e_wo_entrp">    -36.90041780 </i>
   <i name="e_0_energy">     -0.00000453 </i>
  </energy>
  <time name="totalsc">10166.6410194.60</time>
 </calculation>
 <calculation>
  <scstep>
   <time name="dav">  311.45  311.91</time>
   <time name="total">  344.74  345.21</time>
   <energy>
    <i name="alphaZ">      6.18334092 </i>
    <i name="ewald">   2502.57780911 </i>
    <i name="hartreedc">  -2996.73259186 </i>
    <i name="XCdc">     57.29038056 </i>
    <i name="pawpsdc">    272.01085369 </i>
    <i name="pawaedc">   -277.13671478 </i>
    <i name="eentropy">     -0.00000476 </i>
    <i name="bandstr">   -189.71701955 </i>
    <i name="atom">    588.62352690 </i>
    <i name="e_fr_energy">    -36.90041977 </i>
    <i name="e_wo_entrp">    -36.90041501 </i>
    <i name="e_0_energy">    -36.90041739 </i>
   </energy>
  </scstep>
  <scstep>
   <time name="diag">   80.69   80.74</time>
   <time name="diis">  327.08  327.16</time>
   <time name="orth">    3.10    3.10</time>
   <time name="total">  444.22  444.37</time>
   <energy>
    <i name="e_fr_energy">    -36.90041979 </i>
    <i name="e_wo_entrp">    -36.90041503 </i>
    <i name="e_0_energy">    -36.90041741 </i>
   </energy>
  </scstep>
  <scstep>
   <time name="diag">   80.55   80.60</time>
   <time name="diis">  329.44  329.56</time>
   <time name="orth">    3.10    3.10</time>
   <time name="total">  446.38  449.85</time>
   <energy>
    <i name="e_fr_energy">    -36.90041977 </i>
    <i name="e_wo_entrp">    -36.90041503 </i>
    <i name="e_0_energy">    -36.90041740 </i>
   </energy>
  </scstep>
  <scstep>
   <time name="diag">   80.61   80.64</time>
   <time name="diis">  336.53  336.70</time>
   <time name="orth">    3.08    3.08</time>
   <time name="total">  453.62  454.15</time>
   <energy>
    <i name="e_fr_energy">    -36.90041977 </i>
    <i name="e_wo_entrp">    -36.90041502 </i>
    <i name="e_0_energy">    -36.90041740 </i>
   </energy>
  </scstep>
  <scstep>
   <time name="diag">   80.61   80.63</time>
   <time name="diis">  247.08  247.17</time>
   <time name="orth">    3.08    3.08</time>
   <time name="total">  364.14  364.31</time>
   <energy>
    <i name="e_fr_energy">    -36.90041977 </i>
    <i name="e_wo_entrp">    -36.90041502 </i>
    <i name="e_0_energy">    -36.90041740 </i>
   </energy>
  </scstep>
  <scstep>
   <time name="diag">   80.55   80.60</time>
   <time name="diis">  216.70  216.80</time>
   <time name="orth">    3.10    3.10</time>
   <time name="total">  333.75  334.50</time>
   <energy>
    <i name="e_fr_energy">    -36.90041977 </i>
    <i name="e_wo_entrp">    -36.90041502 </i>
    <i name="e_0_energy">    -36.90041740 </i>
   </energy>
  </scstep>
  <scstep>
   <time name="diag">   80.60   80.63</time>
   <time name="diis">  216.22  216.75</time>
   <time name="orth">    3.08    3.10</time>
   <time name="total">  333.14  333.99</time>
   <energy>
    <i name="e_fr_energy">    -36.90041977 </i>
    <i name="e_wo_entrp">    -36.90041502 </i>
    <i name="e_0_energy">    -36.90041740 </i>
   </energy>
  </scstep>
  <scstep>
   <time name="diag">   80.39   80.71</time>
   <time name="diis">  202.03  202.48</time>
   <time name="orth">    3.08    3.10</time>
   <time name="total">  318.75  319.74</time>
   <energy>
    <i name="e_fr_energy">    -36.90041977 </i>
    <i name="e_wo_entrp">    -36.90041502 </i>
    <i name="e_0_energy">    -36.90041740 </i>
   </energy>
  </scstep>
  <scstep>
   <time name="diag">   80.17   80.58</time>
   <time name="diis">  191.43  192.41</time>
   <time name="orth">    3.08    3.10</time>
   <time name="total">  277.02  278.54</time>
   <energy>
    <i name="alphaZ">      6.18334092 </i>
    <i name="ewald">   2502.57780911 </i>
    <i name="hartreedc">  -2996.73233915 </i>
    <i name="XCdc">     57.29037002 </i>
    <i name="pawpsdc">    272.00975421 </i>
    <i name="pawaedc">   -277.13561062 </i>
    <i name="eentropy">     -0.00000475 </i>
    <i name="bandstr">   -189.71726642 </i>
    <i name="atom">    588.62352690 </i>
    <i name="e_fr_energy">    -36.90041977 </i>
    <i name="e_wo_entrp">    -36.90041502 </i>
    <i name="e_0_energy">    -36.90041740 </i>
   </energy>
  </scstep>
  <structure>
   <crystal>
    <varray name="basis" >
     <v>       4.33821488       0.00000000       0.00000000 </v>
     <v>       0.00000000       2.46078586       0.00000000 </v>
     <v>       0.00000000       0.00000000      19.74985008 </v>
    </varray>
    <i name="volume">    210.83790140 </i>
    <varray name="rec_basis" >
     <v>       0.23050956       0.00000000       0.00000000 </v>
     <v>       0.00000000       0.40637425       0.00000000 </v>
     <v>       0.00000000       0.00000000       0.05063330 </v>
    </varray>
   </crystal>
   <varray name="positions" >
    <v>       0.99963089       0.00000000       0.00000000 </v>
    <v>       0.16703577       0.50000000      -0.00000000 </v>
    <v>       0.49963089       0.50000000       0.00000000 </v>
    <v>       0.66703577       0.00000000      -0.00000000 </v>
   </varray>
  </structure>
  <varray name="forces" >
   <v>       0.00393833      -0.00000000       0.00000000 </v>
   <v>      -0.00393833       0.00000000       0.00000000 </v>
   <v>       0.00393833       0.00000000       0.00000000 </v>
   <v>      -0.00393833      -0.00000000       0.00000000 </v>
  </varray>
  <varray name="stress" >
   <v>     -25.25978770       0.00000000       0.00000000 </v>
   <v>       0.00000000      -0.00935857       0.00000000 </v>
   <v>       0.00000000       0.00000000      -0.01034221 </v>
  </varray>
  <energy>
   <i name="e_fr_energy">    -36.90041977 </i>
   <i name="e_wo_entrp">    -36.90041740 </i>
   <i name="e_0_energy">     -0.00000475 </i>
  </energy>
  <time name="totalsc"> 3418.96 3428.63</time>
 </calculation>
 <calculation>
  <scstep>
   <time name="dav">  320.95  321.08</time>
   <time name="total">  354.48  354.63</time>
   <energy>
    <i name="alphaZ">      6.18334092 </i>
    <i name="ewald">   2502.57831720 </i>
    <i name="hartreedc">  -2996.73255054 </i>
    <i name="XCdc">     57.29038439 </i>
    <i name="pawpsdc">    272.00975589 </i>
    <i name="pawaedc">   -277.13561231 </i>
    <i name="eentropy">     -0.00000456 </i>
    <i name="bandstr">   -189.71757797 </i>
    <i name="atom">    588.62352690 </i>
    <i name="e_fr_energy">    -36.90042007 </i>
    <i name="e_wo_entrp">    -36.90041552 </i>
    <i name="e_0_energy">    -36.90041780 </i>
   </energy>
  </scstep>
  <scstep>
   <time name="diag">   80.60   80.65</time>
   <time name="diis">  327.70  327.82</time>
   <time name="orth">    3.08    3.08</time>
   <time name="total">  444.54  444.72</time>
   <energy>
    <i name="e_fr_energy">    -36.90042009 </i>
    <i name="e_wo_entrp">    -36.90041552 </i>
    <i name="e_0_energy">    -36.90041781 </i>
   </energy>
  </scstep>
  <scstep>
   <time name="diag">   80.60   80.62</time>
   <time name="diis">  329.90  330.05</time>
   <time name="orth">    3.10    3.10</time>
   <time name="total">  446.89  447.08</time>
   <energy>
    <i name="e_fr_energy">    -36.90042008 </i>
    <i name="e_wo_entrp">    -36.90041551 </i>
    <i name="e_0_energy">    -36.90041780 </i>
   </energy>
  </scstep>
  <scstep>
   <time name="diag">   80.53   80.60</time>
   <time name="diis">  335.23  335.59</time>
   <time name="orth">    3.08    3.08</time>
   <time name="total">  452.06  452.55</time>
   <energy>
    <i name="e_fr_energy">    -36.90042008 </i>
    <i name="e_wo_entrp">    -36.90041551 </i>
    <i name="e_0_energy">    -36.90041779 </i>
   </energy>
  </scstep>
  <scstep>
   <time name="diag">   80.50   80.60</time>
   <time name="diis">  235.13  235.37</time>
   <time name="orth">    3.10    3.10</time>
   <time name="total">  351.92  352.32</time>
   <energy>
    <i name="e_fr_energy">    -36.90042008 </i>
    <i name="e_wo_entrp">    -36.90041551 </i>
    <i name="e_0_energy">    -36.90041780 </i>
   </energy>
  </scstep>
  <scstep>
   <time name="diag">   80.58   80.59</time>
   <time name="diis">  216.41  216.53</time>
   <time name="orth">    3.08    3.08</time>
   <time name="total">  333.36  333.53</time>
   <energy>
    <i name="e_fr_energy">    -36.90042008 </i>
    <i name="e_wo_entrp">    -36.90041551 </i>
    <i name="e_0_energy">    -36.90041780 </i>
   </energy>
  </scstep>
  <scstep>
   <time name="diag">   80.58   80.64</time>
   <time name="diis">  211.85  212.81</time>
   <time name="orth">    3.08    3.08</time>
   <time name="total">  297.88  298.93</time>
   <energy>
    <i name="alphaZ">      6.18334092 </i>
    <i name="ewald">   2502.57831720 </i>
    <i name="hartreedc">  -2996.73274557 </i>
    <i name="XCdc">     57.29039292 </i>
    <i name="pawpsdc">    272.01062903 </i>
    <i name="pawaedc">   -277.13648929 </i>
    <i name="eentropy">     -0.00000457 </i>
    <i name="bandstr">   -189.71738761 </i>
    <i name="atom">    588.62352690 </i>
    <i name="e_fr_energy">    -36.90042008 </i>
    <i name="e_wo_entrp">    -36.90041551 </i>
    <i name="e_0_energy">    -36.90041780 </i>
   </energy>
  </scstep>
  <structure>
   <crystal>
    <varray name="basis" >
     <v>       4.33821488       0.00000000       0.00000000 </v>
     <v>       0.00000000       2.46078586       0.00000000 </v>
     <v>       0.00000000       0.00000000      19.74985008 </v>
    </varray>
    <i name="volume">    210.83790140 </i>
    <varray name="rec_basis" >
     <v>       0.23050956       0.00000000       0.00000000 </v>
     <v>       0.00000000       0.40637425       0.00000000 </v>
     <v>       0.00000000       0.00000000       0.05063330 </v>
    </varray>
   </crystal>
   <varray name="positions" >
    <v>       0.99963985      -0.00000000       0.00000000 </v>
    <v>       0.16702682       0.50000000      -0.00000000 </v>
    <v>       0.49963985       0.50000000       0.00000000 </v>
    <v>       0.66702682       0.00000000      -0.00000000 </v>
   </varray>
  </structure>
  <varray name="forces" >
   <v>       0.00000591       0.00000000       0.00000000 </v>
   <v>      -0.00000591      -0.00000000      -0.00000000 </v>
   <v>       0.00000591      -0.00000000       0.00000000 </v>
   <v>      -0.00000591       0.00000000      -0.00000000 </v>
  </varray>
  <varray name="stress" >
   <v>     -25.26882283       0.00000000       0.00000000 </v>
   <v>       0.00000000       0.00359583       0.00000000 </v>
   <v>       0.00000000       0.00000000      -0.01028961 </v>
  </varray>
  <energy>
   <i name="e_fr_energy">    -36.90042008 </i>
   <i name="e_wo_entrp">    -36.90041780 </i>
   <i name="e_0_energy">     -0.00000457 </i>
  </energy>
  <time name="totalsc"> 2783.66 2787.27</time>
 </calculation>
 <calculation>
  <scstep>
   <time name="dav">  260.00  260.73</time>
   <time name="total">  293.07  294.01</time>
   <energy>
    <i name="alphaZ">      6.18334092 </i>
    <i name="ewald">   2502.57831796 </i>
    <i name="hartreedc">  -2996.73275375 </i>
    <i name="XCdc">     57.29039304 </i>
    <i name="pawpsdc">    272.01063380 </i>
    <i name="pawaedc">   -277.13649404 </i>
    <i name="eentropy">     -0.00000457 </i>
    <i name="bandstr">   -189.71738034 </i>
    <i name="atom">    588.62352690 </i>
    <i name="e_fr_energy">    -36.90042008 </i>
    <i name="e_wo_entrp">    -36.90041551 </i>
    <i name="e_0_energy">    -36.90041780 </i>
   </energy>
  </scstep>
  <scstep>
   <time name="diag">   80.42   80.65</time>
   <time name="diis">  182.63  182.79</time>
   <time name="orth">    3.10    3.11</time>
   <time name="total">  299.56  300.01</time>
   <energy>
    <i name="e_fr_energy">    -36.90042008 </i>
    <i name="e_wo_entrp">    -36.90041551 </i>
    <i name="e_0_energy">    -36.90041780 </i>
   </energy>
  </scstep>
  <scstep>
   <time name="diag">   80.43   80.66</time>
   <time name="diis">  178.48  178.97</time>
   <time name="orth">    3.08    3.10</time>
   <time name="total">  295.40  296.80</time>
   <energy>
    <i name="e_fr_energy">    -36.90042008 </i>
    <i name="e_wo_entrp">    -36.90041551 </i>
    <i name="e_0_energy">    -36.90041780 </i>
   </energy>
  </scstep>
  <scstep>
   <time name="diag">   80.40   80.63</time>
   <time name="diis">  171.08  171.45</time>
   <time name="orth">    3.09    3.11</time>
   <time name="total">  287.71  288.66</time>
   <energy>
    <i name="e_fr_energy">    -36.90042008 </i>
    <i name="e_wo_entrp">    -36.90041551 </i>
    <i name="e_0_energy">    -36.90041780 </i>
   </energy>
  </scstep>
  <scstep>
   <time name="diag">   79.84   80.74</time>
   <time name="diis">  165.78  167.34</time>
   <time name="orth">    3.07    3.10</time>
   <time name="total">  251.03  253.61</time>
   <energy>
    <i name="alphaZ">      6.18334092 </i>
    <i name="ewald">   2502.57831796 </i>
    <i name="hartreedc">  -2996.73275976 </i>
    <i name="XCdc">     57.29039303 </i>
    <i name="pawpsdc">    272.01063252 </i>
    <i name="pawaedc">   -277.13649275 </i>
    <i name="eentropy">     -0.00000457 </i>
    <i name="bandstr">   -189.71737433 </i>
    <i name="atom">    588.62352690 </i>
    <i name="e_fr_energy">    -36.90042008 </i>
    <i name="e_wo_entrp">    -36.90041551 </i>
    <i name="e_0_energy">    -36.90041780 </i>
   </energy>
  </scstep>
  <structure>
   <crystal>
    <varray name="basis" >
     <v>       4.33821488       0.00000000       0.00000000 </v>
     <v>       0.00000000       2.46078586       0.00000000 </v>
     <v>       0.00000000       0.00000000      19.74985008 </v>
    </varray>
    <i name="volume">    210.83790140 </i>
    <varray name="rec_basis" >
     <v>       0.23050956       0.00000000       0.00000000 </v>
     <v>       0.00000000       0.40637425       0.00000000 </v>
     <v>       0.00000000       0.00000000       0.05063330 </v>
    </varray>
   </crystal>
   <varray name="positions" >
    <v>       0.99963986       0.00000000       0.00000000 </v>
    <v>       0.16702680       0.50000000      -0.00000000 </v>
    <v>       0.49963986       0.50000000       0.00000000 </v>
    <v>       0.66702680       0.00000000      -0.00000000 </v>
   </varray>
  </structure>
  <varray name="forces" >
   <v>      -0.00000979      -0.00000000       0.00000000 </v>
   <v>       0.00000979       0.00000000       0.00000000 </v>
   <v>      -0.00000979       0.00000000       0.00000000 </v>
   <v>       0.00000979      -0.00000000       0.00000000 </v>
  </varray>
  <varray name="stress" >
   <v>     -25.26890195       0.00000000       0.00000000 </v>
   <v>       0.00000000       0.00368886       0.00000000 </v>
   <v>       0.00000000       0.00000000      -0.01031912 </v>
  </varray>
  <energy>
   <i name="e_fr_energy">    -36.90042008 </i>
   <i name="e_wo_entrp">    -36.90041780 </i>
   <i name="e_0_energy">     -0.00000457 </i>
  </energy>
  <time name="totalsc"> 1528.74 1544.33</time>
 </calculation>
 <calculation>
  <scstep>
   <time name="dav">  246.58  247.63</time>
   <time name="total">  279.78  281.06</time>
   <energy>
    <i name="alphaZ">      6.18334092 </i>
    <i name="ewald">   2502.57831748 </i>
    <i name="hartreedc">  -2996.73276373 </i>
    <i name="XCdc">     57.29039305 </i>
    <i name="pawpsdc">    272.01063270 </i>
    <i name="pawaedc">   -277.13649293 </i>
    <i name="eentropy">     -0.00000457 </i>
    <i name="bandstr">   -189.71736991 </i>
    <i name="atom">    588.62352690 </i>
    <i name="e_fr_energy">    -36.90042008 </i>
    <i name="e_wo_entrp">    -36.90041551 </i>
    <i name="e_0_energy">    -36.90041779 </i>
   </energy>
  </scstep>
  <scstep>
   <time name="diag">   80.05   80.68</time>
   <time name="diis">  147.89  149.21</time>
   <time name="orth">    3.08    3.08</time>
   <time name="total">  264.16  266.45</time>
   <energy>
    <i name="e_fr_energy">    -36.90042008 </i>
    <i name="e_wo_entrp">    -36.90041551 </i>
    <i name="e_0_energy">    -36.90041780 </i>
   </energy>
  </scstep>
  <scstep>
   <time name="diag">   79.98   80.66</time>
   <time name="diis">  148.00  148.87</time>
   <time name="orth">    3.08    3.08</time>
   <time name="total">  264.16  266.06</time>
   <energy>
    <i name="e_fr_energy">    -36.90042008 </i>
    <i name="e_wo_entrp">    -36.90041551 </i>
    <i name="e_0_energy">    -36.90041780 </i>
   </energy>
  </scstep>
  <scstep>
   <time name="diag">   80.54   80.70</time>
   <time name="diis">  147.83  148.06</time>
   <time name="orth">    3.08    3.08</time>
   <time name="total">  264.43  264.92</time>
   <energy>
    <i name="e_fr_energy">    -36.90042008 </i>
    <i name="e_wo_entrp">    -36.90041551 </i>
    <i name="e_0_energy">    -36.90041780 </i>
   </energy>
  </scstep>
  <scstep>
   <time name="diag">   80.46   80.60</time>
   <time name="diis">  149.75  150.02</time>
   <time name="orth">    3.10    3.10</time>
   <time name="total">  266.14  267.47</time>
   <energy>
    <i name="e_fr_energy">    -36.90042008 </i>
    <i name="e_wo_entrp">    -36.90041551 </i>
    <i name="e_0_energy">    -36.90041780 </i>
   </energy>
  </scstep>
  <scstep>
   <time name="diag">   80.46   80.61</time>
   <time name="diis">  145.22  145.54</time>
   <time name="orth">    3.08    3.08</time>
   <time name="total">  261.77  262.50</time>
   <energy>
    <i name="e_fr_energy">    -36.90042008 </i>
    <i name="e_wo_entrp">    -36.90041551 </i>
    <i name="e_0_energy">    -36.90041780 </i>
   </energy>
  </scstep>
  <scstep>
   <time name="diag">   80.60   80.69</time>
   <time name="diis">  139.64  139.79</time>
   <time name="orth">    3.08    3.08</time>
   <time name="total">  225.68  228.00</time>
   <energy>
    <i name="alphaZ">      6.18334092 </i>
    <i name="ewald">   2502.57831748 </i>
    <i name="hartreedc">  -2996.73276354 </i>
    <i name="XCdc">     57.29039303 </i>
    <i name="pawpsdc">    272.01063208 </i>
    <i name="pawaedc">   -277.13649230 </i>
    <i name="eentropy">     -0.00000457 </i>
    <i name="bandstr">   -189.71737010 </i>
    <i name="atom">    588.62352690 </i>
    <i name="e_fr_energy">    -36.90042008 </i>
    <i name="e_wo_entrp">    -36.90041551 </i>
    <i name="e_0_energy">    -36.90041780 </i>
   </energy>
  </scstep>
  <structure>
   <crystal>
    <varray name="basis" >
     <v>       4.33821488       0.00000000       0.00000000 </v>
     <v>       0.00000000       2.46078586       0.00000000 </v>
     <v>       0.00000000       0.00000000      19.74985008 </v>
    </varray>
    <i name="volume">    210.83790140 </i>
    <varray name="rec_basis" >
     <v>       0.23050956       0.00000000       0.00000000 </v>
     <v>       0.00000000       0.40637425       0.00000000 </v>
     <v>       0.00000000       0.00000000       0.05063330 </v>
    </varray>
   </crystal>
   <varray name="positions" >
    <v>       0.99963985      -0.00000000       0.00000000 </v>
    <v>       0.16702681       0.50000000      -0.00000000 </v>
    <v>       0.49963985       0.50000000       0.00000000 </v>
    <v>       0.66702681      -0.00000000      -0.00000000 </v>
   </varray>
  </structure>
  <varray name="forces" >
   <v>      -0.00000122      -0.00000000       0.00000000 </v>
   <v>       0.00000122       0.00000000      -0.00000000 </v>
   <v>      -0.00000122      -0.00000000       0.00000000 </v>
   <v>       0.00000122       0.00000000      -0.00000000 </v>
  </varray>
  <varray name="stress" >
   <v>     -25.26886802       0.00000000       0.00000000 </v>
   <v>       0.00000000       0.00364813       0.00000000 </v>
   <v>       0.00000000       0.00000000      -0.01032012 </v>
  </varray>
  <energy>
   <i name="e_fr_energy">    -36.90042008 </i>
   <i name="e_wo_entrp">    -36.90041780 </i>
   <i name="e_0_energy">     -0.00000457 </i>
  </energy>
  <time name="totalsc"> 1928.49 1941.09</time>
 </calculation>
 <calculation>
  <scstep>
   <time name="dav">  247.87  248.61</time>
   <time name="total">  280.68  281.55</time>
   <energy>
    <i name="alphaZ">      6.18334092 </i>
    <i name="ewald">   2502.57831742 </i>
    <i name="hartreedc">  -2996.73276351 </i>
    <i name="XCdc">     57.29039303 </i>
    <i name="pawpsdc">    272.01063208 </i>
    <i name="pawaedc">   -277.13649230 </i>
    <i name="eentropy">     -0.00000457 </i>
    <i name="bandstr">   -189.71737005 </i>
    <i name="atom">    588.62352690 </i>
    <i name="e_fr_energy">    -36.90042008 </i>
    <i name="e_wo_entrp">    -36.90041551 </i>
    <i name="e_0_energy">    -36.90041779 </i>
   </energy>
  </scstep>
  <scstep>
   <time name="diag">   80.48   80.62</time>
   <time name="diis">  135.55  135.69</time>
   <time name="orth">    3.10    3.10</time>
   <time name="total">  251.88  252.20</time>
   <energy>
    <i name="e_fr_energy">    -36.90042008 </i>
    <i name="e_wo_entrp">    -36.90041551 </i>
    <i name="e_0_energy">    -36.90041780 </i>
   </energy>
  </scstep>
  <scstep>
   <time name="diag">   80.48   80.58</time>
   <time name="diis">  140.58  140.80</time>
   <time name="orth">    3.08    3.08</time>
   <time name="total">  257.03  257.66</time>
   <energy>
    <i name="e_fr_energy">    -36.90042008 </i>
    <i name="e_wo_entrp">    -36.90041551 </i>
    <i name="e_0_energy">    -36.90041780 </i>
   </energy>
  </scstep>
  <scstep>
   <time name="diag">   80.10   80.67</time>
   <time name="diis">  137.85  139.01</time>
   <time name="orth">    3.08    3.08</time>
   <time name="total">  253.67  255.99</time>
   <energy>
    <i name="e_fr_energy">    -36.90042008 </i>
    <i name="e_wo_entrp">    -36.90041551 </i>
    <i name="e_0_energy">    -36.90041780 </i>
   </energy>
  </scstep>
  <scstep>
   <time name="diag">   80.13   80.60</time>
   <time name="diis">  129.24  129.99</time>
   <time name="orth">    3.08    3.08</time>
   <time name="total">  214.82  219.37</time>
   <energy>
    <i name="alphaZ">      6.18334092 </i>
    <i name="ewald">   2502.57831742 </i>
    <i name="hartreedc">  -2996.73276342 </i>
    <i name="XCdc">     57.29039303 </i>
    <i name="pawpsdc">    272.01063194 </i>
    <i name="pawaedc">   -277.13649216 </i>
    <i name="eentropy">     -0.00000457 </i>
    <i name="bandstr">   -189.71737014 </i>
    <i name="atom">    588.62352690 </i>
    <i name="e_fr_energy">    -36.90042008 </i>
    <i name="e_wo_entrp">    -36.90041551 </i>
    <i name="e_0_energy">    -36.90041780 </i>
   </energy>
  </scstep>
  <structure>
   <crystal>
    <varray name="basis" >
     <v>       4.33821488       0.00000000       0.00000000 </v>
     <v>       0.00000000       2.46078586       0.00000000 </v>
     <v>       0.00000000       0.00000000      19.74985008 </v>
    </varray>
    <i name="volume">    210.83790140 </i>
    <varray name="rec_basis" >
     <v>       0.23050956       0.00000000       0.00000000 </v>
     <v>       0.00000000       0.40637425       0.00000000 </v>
     <v>       0.00000000       0.00000000       0.05063330 </v>
    </varray>
   </crystal>
   <varray name="positions" >
    <v>       0.99963985      -0.00000000       0.00000000 </v>
    <v>       0.16702681       0.50000000      -0.00000000 </v>
    <v>       0.49963985       0.50000000       0.00000000 </v>
    <v>       0.66702681       0.00000000      -0.00000000 </v>
   </varray>
  </structure>
  <varray name="forces" >
   <v>      -0.00000136      -0.00000000       0.00000000 </v>
   <v>       0.00000136       0.00000000       0.00000000 </v>
   <v>      -0.00000136       0.00000000       0.00000000 </v>
   <v>       0.00000136       0.00000000       0.00000000 </v>
  </varray>
  <varray name="stress" >
   <v>     -25.26887092       0.00000000       0.00000000 </v>
   <v>       0.00000000       0.00365203       0.00000000 </v>
   <v>       0.00000000       0.00000000      -0.01032092 </v>
  </varray>
  <energy>
   <i name="e_fr_energy">    -36.90042008 </i>
   <i name="e_wo_entrp">    -36.90041780 </i>
   <i name="e_0_energy">     -0.00000457 </i>
  </energy>
  <time name="totalsc"> 1360.43 1372.52</time>
 </calculation>
 <calculation>
  <scstep>
   <time name="dav">  246.40  247.05</time>
   <time name="total">  279.22  280.07</time>
   <energy>
    <i name="alphaZ">      6.18334092 </i>
    <i name="ewald">   2502.57831808 </i>
    <i name="hartreedc">  -2996.73276371 </i>
    <i name="XCdc">     57.29039305 </i>
    <i name="pawpsdc">    272.01063194 </i>
    <i name="pawaedc">   -277.13649216 </i>
    <i name="eentropy">     -0.00000457 </i>
    <i name="bandstr">   -189.71737054 </i>
    <i name="atom">    588.62352690 </i>
    <i name="e_fr_energy">    -36.90042008 </i>
    <i name="e_wo_entrp">    -36.90041551 </i>
    <i name="e_0_energy">    -36.90041779 </i>
   </energy>
  </scstep>
  <scstep>
   <time name="diag">   80.01   80.62</time>
   <time name="diis">  130.27  131.02</time>
   <time name="orth">    3.09    3.10</time>
   <time name="total">  245.85  247.61</time>
   <energy>
    <i name="e_fr_energy">    -36.90042008 </i>
    <i name="e_wo_entrp">    -36.90041551 </i>
    <i name="e_0_energy">    -36.90041780 </i>
   </energy>
  </scstep>
  <scstep>
   <time name="diag">   79.58   80.65</time>
   <time name="diis">  134.35  135.56</time>
   <time name="orth">    3.08    3.08</time>
   <time name="total">  249.59  252.31</time>
   <energy>
    <i name="e_fr_energy">    -36.90042008 </i>
    <i name="e_wo_entrp">    -36.90041551 </i>
    <i name="e_0_energy">    -36.90041780 </i>
   </energy>
  </scstep>
  <scstep>
   <time name="diag">   79.72   80.57</time>
   <time name="diis">  117.68  118.72</time>
   <time name="orth">    3.10    3.12</time>
   <time name="total">  233.70  235.88</time>
   <energy>
    <i name="e_fr_energy">    -36.90042008 </i>
    <i name="e_wo_entrp">    -36.90041551 </i>
    <i name="e_0_energy">    -36.90041780 </i>
   </energy>
  </scstep>
  <scstep>
   <time name="diag">   80.18   80.62</time>
   <time name="diis">  113.97  114.76</time>
   <time name="orth">    3.09    3.11</time>
   <time name="total">  199.65  200.91</time>
   <energy>
    <i name="alphaZ">      6.18334092 </i>
    <i name="ewald">   2502.57831808 </i>
    <i name="hartreedc">  -2996.73276391 </i>
    <i name="XCdc">     57.29039306 </i>
    <i name="pawpsdc">    272.01063222 </i>
    <i name="pawaedc">   -277.13649245 </i>
    <i name="eentropy">     -0.00000457 </i>
    <i name="bandstr">   -189.71737034 </i>
    <i name="atom">    588.62352690 </i>
    <i name="e_fr_energy">    -36.90042008 </i>
    <i name="e_wo_entrp">    -36.90041551 </i>
    <i name="e_0_energy">    -36.90041780 </i>
   </energy>
  </scstep>
  <structure>
   <crystal>
    <varray name="basis" >
     <v>       4.33821488       0.00000000       0.00000000 </v>
     <v>       0.00000000       2.46078586       0.00000000 </v>
     <v>       0.00000000       0.00000000      19.74985008 </v>
    </varray>
    <i name="volume">    210.83790140 </i>
    <varray name="rec_basis" >
     <v>       0.23050956       0.00000000       0.00000000 </v>
     <v>       0.00000000       0.40637425       0.00000000 </v>
     <v>       0.00000000       0.00000000       0.05063330 </v>
    </varray>
   </crystal>
   <varray name="positions" >
    <v>       0.99963986      -0.00000000       0.00000000 </v>
    <v>       0.16702680       0.50000000      -0.00000000 </v>
    <v>       0.49963986       0.50000000       0.00000000 </v>
    <v>       0.66702680      -0.00000000      -0.00000000 </v>
   </varray>
  </structure>
  <varray name="forces" >
   <v>      -0.00000735       0.00000000      -0.00000000 </v>
   <v>       0.00000735       0.00000000       0.00000000 </v>
   <v>      -0.00000735       0.00000000      -0.00000000 </v>
   <v>       0.00000735      -0.00000000       0.00000000 </v>
  </varray>
  <varray name="stress" >
   <v>     -25.26888076       0.00000000       0.00000000 </v>
   <v>       0.00000000       0.00367097       0.00000000 </v>
   <v>       0.00000000       0.00000000      -0.01032133 </v>
  </varray>
  <energy>
   <i name="e_fr_energy">    -36.90042008 </i>
   <i name="e_wo_entrp">    -36.90041780 </i>
   <i name="e_0_energy">     -0.00000457 </i>
  </energy>
  <time name="totalsc"> 1310.74 1320.80</time>
 </calculation>
 <calculation>
  <scstep>
   <time name="dav">  215.50  217.02</time>
   <time name="total">  248.47  250.21</time>
   <energy>
    <i name="alphaZ">      6.18334092 </i>
    <i name="ewald">   2502.57831726 </i>
    <i name="hartreedc">  -2996.73276356 </i>
    <i name="XCdc">     57.29039304 </i>
    <i name="pawpsdc">    272.01063222 </i>
    <i name="pawaedc">   -277.13649245 </i>
    <i name="eentropy">     -0.00000457 </i>
    <i name="bandstr">   -189.71736985 </i>
    <i name="atom">    588.62352690 </i>
    <i name="e_fr_energy">    -36.90042008 </i>
    <i name="e_wo_entrp">    -36.90041551 </i>
    <i name="e_0_energy">    -36.90041780 </i>
   </energy>
  </scstep>
  <scstep>
   <time name="diag">   79.78   80.61</time>
   <time name="diis">  127.51  128.69</time>
   <time name="orth">    3.08    3.10</time>
   <time name="total">  243.11  245.54</time>
   <energy>
    <i name="e_fr_energy">    -36.90042008 </i>
    <i name="e_wo_entrp">    -36.90041551 </i>
    <i name="e_0_energy">    -36.90041780 </i>
   </energy>
  </scstep>
  <scstep>
   <time name="diag">   79.72   80.65</time>
   <time name="diis">  119.58  120.66</time>
   <time name="orth">    3.08    3.08</time>
   <time name="total">  235.25  237.90</time>
   <energy>
    <i name="e_fr_energy">    -36.90042008 </i>
    <i name="e_wo_entrp">    -36.90041551 </i>
    <i name="e_0_energy">    -36.90041780 </i>
   </energy>
  </scstep>
  <scstep>
   <time name="diag">   80.60   80.62</time>
   <time name="diis">  130.93  130.96</time>
   <time name="orth">    3.11    3.11</time>
   <time name="total">  248.11  248.47</time>
   <energy>
    <i name="e_fr_energy">    -36.90042008 </i>
    <i name="e_wo_entrp">    -36.90041551 </i>
    <i name="e_0_energy">    -36.90041780 </i>
   </energy>
  </scstep>
  <scstep>
   <time name="diag">   80.48   80.67</time>
   <time name="diis">  110.17  110.74</time>
   <time name="orth">    3.09    3.10</time>
   <time name="total">  226.86  227.82</time>
   <energy>
    <i name="e_fr_energy">    -36.90042008 </i>
    <i name="e_wo_entrp">    -36.90041551 </i>
    <i name="e_0_energy">    -36.90041780 </i>
   </energy>
  </scstep>
  <scstep>
   <time name="diag">   80.54   80.64</time>
   <time name="diis">  123.61  123.64</time>
   <time name="orth">    3.11    3.11</time>
   <time name="total">  209.63  211.16</time>
   <energy>
    <i name="alphaZ">      6.18334092 </i>
    <i name="ewald">   2502.57831726 </i>
    <i name="hartreedc">  -2996.73276318 </i>
    <i name="XCdc">     57.29039301 </i>
    <i name="pawpsdc">    272.01063190 </i>
    <i name="pawaedc">   -277.13649212 </i>
    <i name="eentropy">     -0.00000457 </i>
    <i name="bandstr">   -189.71737021 </i>
    <i name="atom">    588.62352690 </i>
    <i name="e_fr_energy">    -36.90042008 </i>
    <i name="e_wo_entrp">    -36.90041551 </i>
    <i name="e_0_energy">    -36.90041780 </i>
   </energy>
  </scstep>
  <structure>
   <crystal>
    <varray name="basis" >
     <v>       4.33821488       0.00000000       0.00000000 </v>
     <v>       0.00000000       2.46078586       0.00000000 </v>
[...]
       <r>   -9.3018    1.0000 </r>
       <r>   -5.5458    1.0000 </r>
       <r>   -5.5458    1.0000 </r>
       <r>   -0.4633    0.0000 </r>
       <r>   -0.4633    0.0000 </r>
       <r>    4.4091    0.0000 </r>
       <r>    4.4091    0.0000 </r>
      </set>
      <set comment="kpoint 209">
       <r>  -18.7071    1.0000 </r>
       <r>  -16.9002    1.0000 </r>
       <r>  -14.1526    1.0000 </r>
       <r>  -12.5004    1.0000 </r>
       <r>  -12.3482    1.0000 </r>
       <r>  -10.8277    1.0000 </r>
       <r>   -6.3317    1.0000 </r>
       <r>   -4.4491    1.0000 </r>
       <r>   -1.1188    0.0000 </r>
       <r>    1.0444    0.0000 </r>
       <r>    5.2900    0.0000 </r>
       <r>    6.0669    0.0000 </r>
      </set>
      <set comment="kpoint 210">
       <r>  -18.6977    1.0000 </r>
       <r>  -16.8928    1.0000 </r>
       <r>  -14.2264    1.0000 </r>
       <r>  -12.5693    1.0000 </r>
       <r>  -12.2667    1.0000 </r>
       <r>  -10.7613    1.0000 </r>
       <r>   -6.3232    1.0000 </r>
       <r>   -4.4527    1.0000 </r>
       <r>   -1.1264    0.0000 </r>
       <r>    1.0206    0.0000 </r>
       <r>    5.3032    0.0000 </r>
       <r>    6.0824    0.0000 </r>
      </set>
      <set comment="kpoint 211">
       <r>  -18.6695    1.0000 </r>
       <r>  -16.8710    1.0000 </r>
       <r>  -14.4155    1.0000 </r>
       <r>  -12.7485    1.0000 </r>
       <r>  -12.0545    1.0000 </r>
       <r>  -10.5899    1.0000 </r>
       <r>   -6.2978    1.0000 </r>
       <r>   -4.4639    1.0000 </r>
       <r>   -1.1475    0.0000 </r>
       <r>    0.9511    0.0000 </r>
       <r>    5.3425    0.0000 </r>
       <r>    6.1285    0.0000 </r>
      </set>
      <set comment="kpoint 212">
       <r>  -18.6225    1.0000 </r>
       <r>  -16.8361    1.0000 </r>
       <r>  -14.6647    1.0000 </r>
       <r>  -12.9908    1.0000 </r>
       <r>  -11.7670    1.0000 </r>
       <r>  -10.3631    1.0000 </r>
       <r>   -6.2558    1.0000 </r>
       <r>   -4.4842    1.0000 </r>
       <r>   -1.1777    0.0000 </r>
       <r>    0.8404    0.0000 </r>
       <r>    5.4075    0.0000 </r>
       <r>    6.2043    0.0000 </r>
      </set>
      <set comment="kpoint 213">
       <r>  -18.5570    1.0000 </r>
       <r>  -16.7908    1.0000 </r>
       <r>  -14.9347    1.0000 </r>
       <r>  -13.2629    1.0000 </r>
       <r>  -11.4426    1.0000 </r>
       <r>  -10.1171    1.0000 </r>
       <r>   -6.1976    1.0000 </r>
       <r>   -4.5156    1.0000 </r>
       <r>   -1.2102    0.0000 </r>
       <r>    0.6953    0.0000 </r>
       <r>    5.4955    0.0000 </r>
       <r>    6.1749    0.0000 </r>
      </set>
      <set comment="kpoint 214">
       <r>  -18.4732    1.0000 </r>
       <r>  -16.7409    1.0000 </r>
       <r>  -15.2008    1.0000 </r>
       <r>  -13.5464    1.0000 </r>
       <r>  -11.1038    1.0000 </r>
       <r>   -9.8749    1.0000 </r>
       <r>   -6.1239    1.0000 </r>
       <r>   -4.5604    1.0000 </r>
       <r>   -1.2371    0.0000 </r>
       <r>    0.5239    0.0000 </r>
       <r>    5.5588    0.0000 </r>
       <r>    5.7411    0.0000 </r>
      </set>
      <set comment="kpoint 215">
       <r>  -18.3712    1.0000 </r>
       <r>  -16.6977    1.0000 </r>
       <r>  -15.4414    1.0000 </r>
       <r>  -13.8312    1.0000 </r>
       <r>  -10.7648    1.0000 </r>
       <r>   -9.6522    1.0000 </r>
       <r>   -6.0357    1.0000 </r>
       <r>   -4.6207    1.0000 </r>
       <r>   -1.2505    0.0000 </r>
       <r>    0.3341    0.0000 </r>
       <r>    5.2231    0.0000 </r>
       <r>    5.7881    0.0000 </r>
      </set>
      <set comment="kpoint 216">
       <r>  -18.2515    1.0000 </r>
       <r>  -16.6837    1.0000 </r>
       <r>  -15.6285    1.0000 </r>
       <r>  -14.1109    1.0000 </r>
       <r>  -10.4364    1.0000 </r>
       <r>   -9.4612    1.0000 </r>
       <r>   -5.9341    1.0000 </r>
       <r>   -4.6978    1.0000 </r>
       <r>   -1.2436    0.0000 </r>
       <r>    0.1337    0.0000 </r>
       <r>    4.8604    0.0000 </r>
       <r>    5.8304    0.0000 </r>
      </set>
      <set comment="kpoint 217">
       <r>  -18.1146    1.0000 </r>
       <r>  -16.7306    1.0000 </r>
       <r>  -15.7270    1.0000 </r>
       <r>  -14.3814    1.0000 </r>
       <r>  -10.1283    1.0000 </r>
       <r>   -9.3123    1.0000 </r>
       <r>   -5.8206    1.0000 </r>
       <r>   -4.7918    1.0000 </r>
       <r>   -1.2115    0.0000 </r>
       <r>   -0.0704    0.0000 </r>
       <r>    4.5682    0.0000 </r>
       <r>    5.3835    0.0000 </r>
      </set>
      <set comment="kpoint 218">
       <r>  -17.9614    1.0000 </r>
       <r>  -16.8518    1.0000 </r>
       <r>  -15.7213    1.0000 </r>
       <r>  -14.6397    1.0000 </r>
       <r>   -9.8495    1.0000 </r>
       <r>   -9.2141    1.0000 </r>
       <r>   -5.6971    1.0000 </r>
       <r>   -4.9011    1.0000 </r>
       <r>   -1.1516    0.0000 </r>
       <r>   -0.2717    0.0000 </r>
       <r>    4.3584    0.0000 </r>
       <r>    4.9954    0.0000 </r>
      </set>
      <set comment="kpoint 219">
       <r>  -17.7929    1.0000 </r>
       <r>  -17.0247    1.0000 </r>
       <r>  -15.6331    1.0000 </r>
       <r>  -14.8831    1.0000 </r>
       <r>   -9.6089    1.0000 </r>
       <r>   -9.1732    1.0000 </r>
       <r>   -5.5658    1.0000 </r>
       <r>   -5.0231    1.0000 </r>
       <r>   -1.0631    0.0000 </r>
       <r>   -0.4648    0.0000 </r>
       <r>    4.2378    0.0000 </r>
       <r>    4.6757    0.0000 </r>
      </set>
      <set comment="kpoint 220">
       <r>  -17.6108    1.0000 </r>
       <r>  -17.2195    1.0000 </r>
       <r>  -15.4910    1.0000 </r>
       <r>  -15.1086    1.0000 </r>
       <r>   -9.4149    1.0000 </r>
       <r>   -9.1931    1.0000 </r>
       <r>   -5.4295    1.0000 </r>
       <r>   -5.1545    1.0000 </r>
       <r>   -0.9474    0.0000 </r>
       <r>   -0.6447    0.0000 </r>
       <r>    4.2104    0.0000 </r>
       <r>    4.4335    0.0000 </r>
      </set>
      <set comment="kpoint 221">
       <r>  -17.4180    1.0000 </r>
       <r>  -17.4180    1.0000 </r>
       <r>  -15.3130    1.0000 </r>
       <r>  -15.3130    1.0000 </r>
       <r>   -9.2745    1.0000 </r>
       <r>   -9.2745    1.0000 </r>
       <r>   -5.2912    1.0000 </r>
       <r>   -5.2912    1.0000 </r>
       <r>   -0.8069    0.0000 </r>
       <r>   -0.8069    0.0000 </r>
       <r>    4.2765    0.0000 </r>
       <r>    4.2765    0.0000 </r>
      </set>
      <set comment="kpoint 222">
       <r>  -18.2807    1.0000 </r>
       <r>  -17.3735    1.0000 </r>
       <r>  -13.7702    1.0000 </r>
       <r>  -12.9433    1.0000 </r>
       <r>  -11.9998    1.0000 </r>
       <r>  -11.2346    1.0000 </r>
       <r>   -5.8721    1.0000 </r>
       <r>   -4.9252    1.0000 </r>
       <r>   -0.6107    0.0000 </r>
       <r>    0.4730    0.0000 </r>
       <r>    5.8941    0.0000 </r>
       <r>    6.6292    0.0000 </r>
      </set>
      <set comment="kpoint 223">
       <r>  -18.2714    1.0000 </r>
       <r>  -17.3650    1.0000 </r>
       <r>  -13.8443    1.0000 </r>
       <r>  -13.0144    1.0000 </r>
       <r>  -11.9207    1.0000 </r>
       <r>  -11.1634    1.0000 </r>
       <r>   -5.8649    1.0000 </r>
       <r>   -4.9233    1.0000 </r>
       <r>   -0.6252    0.0000 </r>
       <r>    0.4513    0.0000 </r>
       <r>    5.9072    0.0000 </r>
       <r>    6.6455    0.0000 </r>
      </set>
      <set comment="kpoint 224">
       <r>  -18.2437    1.0000 </r>
       <r>  -17.3397    1.0000 </r>
       <r>  -14.0348    1.0000 </r>
       <r>  -13.1986    1.0000 </r>
       <r>  -11.7157    1.0000 </r>
       <r>  -10.9792    1.0000 </r>
       <r>   -5.8435    1.0000 </r>
       <r>   -4.9177    1.0000 </r>
       <r>   -0.6670    0.0000 </r>
       <r>    0.3879    0.0000 </r>
       <r>    5.9463    0.0000 </r>
       <r>    6.6942    0.0000 </r>
      </set>
      <set comment="kpoint 225">
       <r>  -18.1977    1.0000 </r>
       <r>  -17.2980    1.0000 </r>
       <r>  -14.2879    1.0000 </r>
       <r>  -13.4462    1.0000 </r>
       <r>  -11.4395    1.0000 </r>
       <r>  -10.7337    1.0000 </r>
       <r>   -5.8083    1.0000 </r>
       <r>   -4.9097    1.0000 </r>
       <r>   -0.7315    0.0000 </r>
       <r>    0.2873    0.0000 </r>
       <r>    6.0105    0.0000 </r>
       <r>    6.7738    0.0000 </r>
      </set>
      <set comment="kpoint 226">
       <r>  -18.1335    1.0000 </r>
       <r>  -17.2409    1.0000 </r>
       <r>  -14.5669    1.0000 </r>
       <r>  -13.7228    1.0000 </r>
       <r>  -11.1305    1.0000 </r>
       <r>  -10.4641    1.0000 </r>
       <r>   -5.7600    1.0000 </r>
       <r>   -4.9010    1.0000 </r>
       <r>   -0.8116    0.0000 </r>
       <r>    0.1564    0.0000 </r>
       <r>    6.0914    0.0000 </r>
       <r>    6.4632    0.0000 </r>
      </set>
      <set comment="kpoint 227">
       <r>  -18.0515    1.0000 </r>
       <r>  -17.1698    1.0000 </r>
       <r>  -14.8512    1.0000 </r>
       <r>  -14.0096    1.0000 </r>
       <r>  -10.8111    1.0000 </r>
       <r>  -10.1931    1.0000 </r>
       <r>   -5.6997    1.0000 </r>
       <r>   -4.8940    1.0000 </r>
       <r>   -0.8989    0.0000 </r>
       <r>    0.0030    0.0000 </r>
       <r>    5.9053    0.0000 </r>
       <r>    6.2516    0.0000 </r>
      </set>
      <set comment="kpoint 228">
       <r>  -17.9521    1.0000 </r>
       <r>  -17.0878    1.0000 </r>
       <r>  -15.1280    1.0000 </r>
       <r>  -14.2961    1.0000 </r>
       <r>  -10.4960    1.0000 </r>
       <r>   -9.9362    1.0000 </r>
       <r>   -5.6288    1.0000 </r>
       <r>   -4.8915    1.0000 </r>
       <r>   -0.9842    0.0000 </r>
       <r>   -0.1642    0.0000 </r>
       <r>    5.4506    0.0000 </r>
       <r>    6.0033    0.0000 </r>
      </set>
      <set comment="kpoint 229">
       <r>  -17.8362    1.0000 </r>
       <r>  -17.0004    1.0000 </r>
       <r>  -15.3861    1.0000 </r>
       <r>  -14.5760    1.0000 </r>
       <r>  -10.1965    1.0000 </r>
       <r>   -9.7054    1.0000 </r>
       <r>   -5.5492    1.0000 </r>
       <r>   -4.8968    1.0000 </r>
       <r>   -1.0582    0.0000 </r>
       <r>   -0.3372    0.0000 </r>
       <r>    5.0447    0.0000 </r>
       <r>    5.5322    0.0000 </r>
      </set>
      <set comment="kpoint 230">
       <r>  -17.7046    1.0000 </r>
       <r>  -16.9184    1.0000 </r>
       <r>  -15.6111    1.0000 </r>
       <r>  -14.8446    1.0000 </r>
       <r>   -9.9224    1.0000 </r>
       <r>   -9.5113    1.0000 </r>
       <r>   -5.4631    1.0000 </r>
       <r>   -4.9129    1.0000 </r>
       <r>   -1.1130    0.0000 </r>
       <r>   -0.5081    0.0000 </r>
       <r>    4.7063    0.0000 </r>
       <r>    5.1165    0.0000 </r>
      </set>
      <set comment="kpoint 231">
       <r>  -17.5592    1.0000 </r>
       <r>  -16.8636    1.0000 </r>
       <r>  -15.7794    1.0000 </r>
       <r>  -15.0981    1.0000 </r>
       <r>   -9.6833    1.0000 </r>
       <r>   -9.3629    1.0000 </r>
       <r>   -5.3733    1.0000 </r>
       <r>   -4.9421    1.0000 </r>
       <r>   -1.1418    0.0000 </r>
       <r>   -0.6698    0.0000 </r>
       <r>    4.4456    0.0000 </r>
       <r>    4.7664    0.0000 </r>
      </set>
      <set comment="kpoint 232">
       <r>  -17.4028    1.0000 </r>
       <r>  -16.8678    1.0000 </r>
       <r>  -15.8576    1.0000 </r>
       <r>  -15.3319    1.0000 </r>
       <r>   -9.4879    1.0000 </r>
       <r>   -9.2680    1.0000 </r>
       <r>   -5.2829    1.0000 </r>
       <r>   -4.9859    1.0000 </r>
       <r>   -1.1399    0.0000 </r>
       <r>   -0.8158    0.0000 </r>
       <r>    4.2704    0.0000 </r>
       <r>    4.4911    0.0000 </r>
      </set>
      <set comment="kpoint 233">
       <r>  -17.2404    1.0000 </r>
       <r>  -16.9477    1.0000 </r>
       <r>  -15.8283    1.0000 </r>
       <r>  -15.5402    1.0000 </r>
       <r>   -9.3439    1.0000 </r>
       <r>   -9.2320    1.0000 </r>
       <r>   -5.1955    1.0000 </r>
       <r>   -5.0439    1.0000 </r>
       <r>   -1.1052    0.0000 </r>
       <r>   -0.9402    0.0000 </r>
       <r>    4.1863    0.0000 </r>
       <r>    4.2988    0.0000 </r>
      </set>
      <set comment="kpoint 234">
       <r>  -17.0823    1.0000 </r>
       <r>  -17.0823    1.0000 </r>
       <r>  -15.7122    1.0000 </r>
       <r>  -15.7122    1.0000 </r>
       <r>   -9.2575    1.0000 </r>
       <r>   -9.2575    1.0000 </r>
       <r>   -5.1147    1.0000 </r>
       <r>   -5.1147    1.0000 </r>
       <r>   -1.0379    0.0000 </r>
       <r>   -1.0379    0.0000 </r>
       <r>    4.1960    0.0000 </r>
       <r>    4.1960    0.0000 </r>
      </set>
      <set comment="kpoint 235">
       <r>  -17.8351    1.0000 </r>
       <r>  -17.8351    1.0000 </r>
       <r>  -13.3669    1.0000 </r>
       <r>  -13.3669    1.0000 </r>
       <r>  -11.6267    1.0000 </r>
       <r>  -11.6267    1.0000 </r>
       <r>   -5.4016    1.0000 </r>
       <r>   -5.4016    1.0000 </r>
       <r>   -0.0794    0.0000 </r>
       <r>   -0.0794    0.0000 </r>
       <r>    6.5302    0.0000 </r>
       <r>    6.5302    0.0000 </r>
      </set>
      <set comment="kpoint 236">
       <r>  -17.8262    1.0000 </r>
       <r>  -17.8262    1.0000 </r>
       <r>  -13.4398    1.0000 </r>
       <r>  -13.4398    1.0000 </r>
       <r>  -11.5513    1.0000 </r>
       <r>  -11.5513    1.0000 </r>
       <r>   -5.3964    1.0000 </r>
       <r>   -5.3964    1.0000 </r>
       <r>   -0.0982    0.0000 </r>
       <r>   -0.0982    0.0000 </r>
       <r>    6.5432    0.0000 </r>
       <r>    6.5432    0.0000 </r>
      </set>
      <set comment="kpoint 237">
       <r>  -17.7993    1.0000 </r>
       <r>  -17.7993    1.0000 </r>
       <r>  -13.6280    1.0000 </r>
       <r>  -13.6280    1.0000 </r>
       <r>  -11.3558    1.0000 </r>
       <r>  -11.3558    1.0000 </r>
       <r>   -5.3811    1.0000 </r>
       <r>   -5.3811    1.0000 </r>
       <r>   -0.1530    0.0000 </r>
       <r>   -0.1530    0.0000 </r>
       <r>    6.5819    0.0000 </r>
       <r>    6.5819    0.0000 </r>
      </set>
      <set comment="kpoint 238">
       <r>  -17.7547    1.0000 </r>
       <r>  -17.7547    1.0000 </r>
       <r>  -13.8796    1.0000 </r>
       <r>  -13.8796    1.0000 </r>
       <r>  -11.0938    1.0000 </r>
       <r>  -11.0938    1.0000 </r>
       <r>   -5.3563    1.0000 </r>
       <r>   -5.3563    1.0000 </r>
       <r>   -0.2391    0.0000 </r>
       <r>   -0.2391    0.0000 </r>
       <r>    6.6441    0.0000 </r>
       <r>    6.6441    0.0000 </r>
      </set>
      <set comment="kpoint 239">
       <r>  -17.6928    1.0000 </r>
       <r>  -17.6928    1.0000 </r>
       <r>  -14.1591    1.0000 </r>
       <r>  -14.1591    1.0000 </r>
       <r>  -10.8031    1.0000 </r>
       <r>  -10.8031    1.0000 </r>
       <r>   -5.3233    1.0000 </r>
       <r>   -5.3233    1.0000 </r>
       <r>   -0.3498    0.0000 </r>
       <r>   -0.3498    0.0000 </r>
       <r>    6.6698    0.0000 </r>
       <r>    6.6698    0.0000 </r>
      </set>
      <set comment="kpoint 240">
       <r>  -17.6143    1.0000 </r>
       <r>  -17.6143    1.0000 </r>
       <r>  -14.4471    1.0000 </r>
       <r>  -14.4471    1.0000 </r>
       <r>  -10.5064    1.0000 </r>
       <r>  -10.5064    1.0000 </r>
       <r>   -5.2836    1.0000 </r>
       <r>   -5.2836    1.0000 </r>
       <r>   -0.4768    0.0000 </r>
       <r>   -0.4768    0.0000 </r>
       <r>    6.2021    0.0000 </r>
       <r>    6.2021    0.0000 </r>
      </set>
      <set comment="kpoint 241">
       <r>  -17.5200    1.0000 </r>
       <r>  -17.5200    1.0000 </r>
       <r>  -14.7326    1.0000 </r>
       <r>  -14.7326    1.0000 </r>
       <r>  -10.2186    1.0000 </r>
       <r>  -10.2186    1.0000 </r>
       <r>   -5.2395    1.0000 </r>
       <r>   -5.2395    1.0000 </r>
       <r>   -0.6111    0.0000 </r>
       <r>   -0.6111    0.0000 </r>
       <r>    5.7108    0.0000 </r>
       <r>    5.7108    0.0000 </r>
      </set>
      <set comment="kpoint 242">
       <r>  -17.4118    1.0000 </r>
       <r>  -17.4118    1.0000 </r>
       <r>  -15.0083    1.0000 </r>
       <r>  -15.0083    1.0000 </r>
       <r>   -9.9516    1.0000 </r>
       <r>   -9.9516    1.0000 </r>
       <r>   -5.1936    1.0000 </r>
       <r>   -5.1936    1.0000 </r>
       <r>   -0.7440    0.0000 </r>
       <r>   -0.7440    0.0000 </r>
       <r>    5.2693    0.0000 </r>
       <r>    5.2693    0.0000 </r>
      </set>
      <set comment="kpoint 243">
       <r>  -17.2924    1.0000 </r>
       <r>  -17.2924    1.0000 </r>
       <r>  -15.2679    1.0000 </r>
       <r>  -15.2679    1.0000 </r>
       <r>   -9.7157    1.0000 </r>
       <r>   -9.7157    1.0000 </r>
       <r>   -5.1491    1.0000 </r>
       <r>   -5.1491    1.0000 </r>
       <r>   -0.8668    0.0000 </r>
       <r>   -0.8668    0.0000 </r>
       <r>    4.8898    0.0000 </r>
       <r>    4.8898    0.0000 </r>
      </set>
      <set comment="kpoint 244">
       <r>  -17.1673    1.0000 </r>
       <r>  -17.1673    1.0000 </r>
       <r>  -15.5039    1.0000 </r>
       <r>  -15.5039    1.0000 </r>
       <r>   -9.5202    1.0000 </r>
       <r>   -9.5202    1.0000 </r>
       <r>   -5.1094    1.0000 </r>
       <r>   -5.1094    1.0000 </r>
       <r>   -0.9719    0.0000 </r>
       <r>   -0.9719    0.0000 </r>
       <r>    4.5822    0.0000 </r>
       <r>    4.5822    0.0000 </r>
      </set>
      <set comment="kpoint 245">
       <r>  -17.0468    1.0000 </r>
       <r>  -17.0468    1.0000 </r>
       <r>  -15.7044    1.0000 </r>
       <r>  -15.7044    1.0000 </r>
       <r>   -9.3735    1.0000 </r>
       <r>   -9.3735    1.0000 </r>
       <r>   -5.0779    1.0000 </r>
       <r>   -5.0779    1.0000 </r>
       <r>   -1.0524    0.0000 </r>
       <r>   -1.0524    0.0000 </r>
       <r>    4.3552    0.0000 </r>
       <r>    4.3552    0.0000 </r>
      </set>
      <set comment="kpoint 246">
       <r>  -16.9516    1.0000 </r>
       <r>  -16.9516    1.0000 </r>
       <r>  -15.8479    1.0000 </r>
       <r>  -15.8479    1.0000 </r>
       <r>   -9.2825    1.0000 </r>
       <r>   -9.2825    1.0000 </r>
       <r>   -5.0577    1.0000 </r>
       <r>   -5.0577    1.0000 </r>
       <r>   -1.1030    0.0000 </r>
       <r>   -1.1030    0.0000 </r>
       <r>    4.2159    0.0000 </r>
       <r>    4.2159    0.0000 </r>
      </set>
      <set comment="kpoint 247">
       <r>  -16.9135    1.0000 </r>
       <r>  -16.9135    1.0000 </r>
       <r>  -15.9022    1.0000 </r>
       <r>  -15.9022    1.0000 </r>
       <r>   -9.2516    1.0000 </r>
       <r>   -9.2516    1.0000 </r>
       <r>   -5.0507    1.0000 </r>
       <r>   -5.0507    1.0000 </r>
       <r>   -1.1203    0.0000 </r>
       <r>   -1.1203    0.0000 </r>
       <r>    4.1689    0.0000 </r>
       <r>    4.1689    0.0000 </r>
      </set>
     </set>
    </set>
   </array>
  </eigenvalues>
  <separator name="orbital magnetization" >
   <v name="MAGDIPOLOUT">      0.00000000      0.00000000      0.00000000</v>
  </separator>
 </calculation>
 <structure name="finalpos" >
  <crystal>
   <varray name="basis" >
    <v>       4.33821488       0.00000000       0.00000000 </v>
    <v>       0.00000000       2.46078586       0.00000000 </v>
    <v>       0.00000000       0.00000000      19.74985008 </v>
   </varray>
   <i name="volume">    210.83790140 </i>
   <varray name="rec_basis" >
    <v>       0.23050956       0.00000000       0.00000000 </v>
    <v>       0.00000000       0.40637425       0.00000000 </v>
    <v>       0.00000000       0.00000000       0.05063330 </v>
   </varray>
  </crystal>
  <varray name="positions" >
   <v>       0.99963985      -0.00000000       0.00000000 </v>
   <v>       0.16702682       0.50000000      -0.00000000 </v>
   <v>       0.49963985       0.50000000       0.00000000 </v>
   <v>       0.66702682       0.00000000      -0.00000000 </v>
  </varray>
 </structure>
</modeling>
