gr                                      
           1
     4.338215    0.000000    0.000000
     0.000000    2.460786    0.000000
     0.000000    0.000000   19.749850
   C 
   4
Direct configuration=     1
   0.99964215  0.00000000  0.00000000
   0.16702452  0.50000000  0.00000000
   0.49964215  0.50000000  0.00000000
   0.66702452  0.00000000  0.00000000
Direct configuration=     2
   0.99963089  0.00000000  0.00000000
   0.16703577  0.50000000 -0.00000000
   0.49963089  0.50000000  0.00000000
   0.66703577  0.00000000 -0.00000000
Direct configuration=     3
   0.99963985 -0.00000000  0.00000000
   0.16702682  0.50000000 -0.00000000
   0.49963985  0.50000000  0.00000000
   0.66702682  0.00000000 -0.00000000
Direct configuration=     4
   0.99963986  0.00000000  0.00000000
   0.16702680  0.50000000 -0.00000000
   0.49963986  0.50000000  0.00000000
   0.66702680  0.00000000 -0.00000000
Direct configuration=     5
   0.99963985 -0.00000000  0.00000000
   0.16702681  0.50000000 -0.00000000
   0.49963985  0.50000000  0.00000000
   0.66702681 -0.00000000 -0.00000000
Direct configuration=     6
   0.99963985 -0.00000000  0.00000000
   0.16702681  0.50000000 -0.00000000
   0.49963985  0.50000000  0.00000000
   0.66702681  0.00000000 -0.00000000
Direct configuration=     7
   0.99963986 -0.00000000  0.00000000
   0.16702680  0.50000000 -0.00000000
   0.49963986  0.50000000  0.00000000
   0.66702680 -0.00000000 -0.00000000
Direct configuration=     8
   0.99963985 -0.00000000  0.00000000
   0.16702682  0.50000000 -0.00000000
   0.49963985  0.50000000  0.00000000
   0.66702682  0.00000000 -0.00000000
