    4    4  400    1
  0.5270948E+02  0.4274110E-09  0.2467372E-09  0.1999256E-08  0.5000000E-15
  1.000000000000000E-004
  CAR 
 gr                                      
     16    247     12
 
  0.0000000E+00  0.0000000E+00  0.0000000E+00  0.1157407E-02
    1      -22.251261
    2      -17.021018
    3      -15.971278
    4      -10.357093
    5       -9.156896
    6       -5.787498
    7       -5.786529
    8       -5.111537
    9       -1.076459
   10        0.524160
   11        1.325228
   12        1.708378
 
  0.4166667E-01  0.0000000E+00  0.0000000E+00  0.2314815E-02
    1      -22.241015
    2      -17.185688
    3      -15.791347
    4      -10.344854
    5       -9.146714
    6       -5.830254
    7       -5.809088
    8       -5.177989
    9       -0.994030
   10        0.538057
   11        1.339308
   12        1.722627
 
  0.8333333E-01  0.0000000E+00  0.0000000E+00  0.2314815E-02
    1      -22.210284
    2      -17.522294
    3      -15.409044
    4      -10.308156
    5       -9.116220
    6       -5.956759
    7       -5.875521
    8       -5.362390
    9       -0.761868
   10        0.579747
   11        1.381543
   12        1.765377
 
  0.1250000E+00  0.0000000E+00  0.0000000E+00  0.2314815E-02
    1      -22.159087
    2      -17.898412
    3      -14.957050
    4      -10.247056
    5       -9.065567
    6       -6.162022
    7       -5.982292
    8       -5.631466
    9       -0.413763
   10        0.649239
   11        1.451921
   12        1.836627
 
  0.1666667E+00  0.0000000E+00  0.0000000E+00  0.2314815E-02
    1      -22.087458
    2      -18.277273
    3      -14.472580
    4      -10.161652
    5       -8.995016
    6       -6.438597
    7       -6.124138
    8       -5.952225
    9        0.016423
   10        0.746536
   11        1.550420
   12        1.936381
 
  0.2083333E+00  0.0000000E+00  0.0000000E+00  0.2314815E-02
    1      -21.995446
    2      -18.647500
    3      -13.967645
    4      -10.052084
    5       -8.904948
    6       -6.777592
    7       -6.300103
    8       -6.294784
    9        0.502875
   10        0.871639
   11        1.677006
   12        2.064637
 
  0.2500000E+00  0.0000000E+00  0.0000000E+00  0.2314815E-02
    1      -21.883113
    2      -19.004510
    3      -13.447673
    4       -9.918542
    5       -8.795867
    6       -7.169598
    7       -6.658727
    8       -6.487611
    9        1.024535
   10        1.027551
   11        1.831628
   12        2.221396
 
  0.2916667E+00  0.0000000E+00  0.0000000E+00  0.2314815E-02
    1      -21.750540
    2      -19.346039
    3      -12.916004
    4       -9.761270
    5       -8.668427
    6       -7.605412
    7       -7.017469
    8       -6.696187
    9        1.205200
   10        1.577651
   11        2.014208
   12        2.406654
 
  0.3333333E+00  0.0000000E+00  0.0000000E+00  0.2314815E-02
    1      -21.597824
    2      -19.670780
    3      -12.375284
    4       -9.580580
    5       -8.523444
    6       -8.076485
    7       -7.369356
    8       -6.914588
    9        1.413599
   10        2.143277
   11        2.224622
   12        2.620408
 
  0.3750000E+00  0.0000000E+00  0.0000000E+00  0.2314815E-02
    1      -21.425080
    2      -19.977890
    3      -11.827994
    4       -9.376862
    5       -8.575152
    6       -8.361932
    7       -7.709690
    8       -7.137570
    9        1.649677
   10        2.462649
   11        2.715100
   12        2.862649
 
  0.4166667E+00  0.0000000E+00  0.0000000E+00  0.2314815E-02
    1      -21.232445
    2      -20.266774
    3      -11.276715
    4       -9.150602
    5       -9.094687
    6       -8.185132
    7       -8.035208
    8       -7.360601
    9        1.913365
   10        2.727844
   11        3.133373
   12        3.241410
 
  0.4583333E+00  0.0000000E+00  0.0000000E+00  0.2314815E-02
    1      -21.020080
    2      -20.536988
    3      -10.724279
    4       -9.629271
    5       -8.902415
    6       -8.343575
    7       -7.994558
    8       -7.579836
    9        2.204563
   10        2.868869
   11        3.019039
   12        3.432523
 
  0.5000000E+00  0.0000000E+00  0.0000000E+00  0.1157407E-02
    1      -20.788184
    2      -20.788184
    3      -10.173900
    4      -10.173900
    5       -8.633075
    6       -8.633075
    7       -7.792051
    8       -7.792051
    9        2.523134
   10        2.523134
   11        3.331537
   12        3.331537
 
  0.0000000E+00  0.2777778E-01  0.0000000E+00  0.2314815E-02
    1      -22.237597
    2      -17.009294
    3      -15.959693
    4      -10.340771
    5       -9.218481
    6       -5.843343
    7       -5.817657
    8       -5.094911
    9       -1.080399
   10        0.542693
   11        1.344005
   12        1.727382
 
  0.4166667E-01  0.2777778E-01  0.0000000E+00  0.4629630E-02
    1      -22.227353
    2      -17.173794
    3      -15.779983
    4      -10.328537
    5       -9.208282
    6       -5.886097
    7       -5.839545
    8       -5.161508
    9       -0.997942
   10        0.556590
   11        1.358084
   12        1.741631
 
  0.8333333E-01  0.2777778E-01  0.0000000E+00  0.4629630E-02
    1      -22.196626
    2      -17.510140
    3      -15.398095
    4      -10.291851
    5       -9.177737
    6       -6.009929
    7       -5.906747
    8       -5.346243
    9       -0.765803
   10        0.598283
   11        1.400316
   12        1.784381
 
  0.1250000E+00  0.2777778E-01  0.0000000E+00  0.4629630E-02
    1      -22.145436
    2      -17.886031
    3      -14.946595
    4      -10.230772
    5       -9.126993
    6       -6.210092
    7       -6.015803
    8       -5.615662
    9       -0.417950
   10        0.667778
   11        1.470690
   12        1.855633
 
  0.1666667E+00  0.2777778E-01  0.0000000E+00  0.4629630E-02
    1      -22.073817
    2      -18.264698
    3      -14.462702
    4      -10.145397
    5       -9.056309
    6       -6.480267
    7       -6.160718
    8       -5.936673
    9        0.011652
   10        0.765081
   11        1.569183
   12        1.955387
 
  0.2083333E+00  0.2777778E-01  0.0000000E+00  0.4629630E-02
    1      -21.981819
    2      -18.634760
    3      -13.958450
    4      -10.035866
    5       -8.966052
    6       -6.812406
    7       -6.334733
    8       -6.284698
    9        0.497174
   10        0.890192
   11        1.695763
   12        2.083645
 
  0.2500000E+00  0.2777778E-01  0.0000000E+00  0.4629630E-02
    1      -21.869504
    2      -18.991629
    3      -13.439287
    4       -9.902371
    5       -8.856717
    6       -7.197694
    7       -6.643380
    8       -6.530909
    9        1.020597
   10        1.043098
   11        1.850377
   12        2.240406
 
  0.2916667E+00  0.2777778E-01  0.0000000E+00  0.4629630E-02
    1      -21.736954
    2      -19.333036
    3      -12.908581
    4       -9.745154
    5       -8.728940
    6       -7.627293
    7       -7.002119
    8       -6.742611
    9        1.223776
   10        1.569166
   11        2.032949
   12        2.425668
 
  0.3333333E+00  0.2777778E-01  0.0000000E+00  0.4629630E-02
    1      -21.584264
    2      -19.657673
    3      -12.369012
    4       -9.564527
    5       -8.583521
    6       -8.092836
    7       -7.353961
    8       -6.963807
    9        1.432187
   10        2.133064
   11        2.243356
   12        2.639426
 
  0.3750000E+00  0.2777778E-01  0.0000000E+00  0.4629630E-02
    1      -21.411552
    2      -19.964693
    3      -11.823103
    4       -9.360878
    5       -8.586706
    6       -8.421448
    7       -7.694224
    8       -7.189208
    9        1.668281
   10        2.481383
   11        2.703180
   12        2.881671
 
  0.4166667E+00  0.2777778E-01  0.0000000E+00  0.4629630E-02
    1      -21.218952
    2      -20.253499
    3      -11.273481
    4       -9.134697
    5       -9.102158
    6       -8.243933
    7       -8.019658
    8       -7.414286
    9        1.931986
   10        2.746589
   11        3.152413
   12        3.260280
 
  0.4583333E+00  0.2777778E-01  0.0000000E+00  0.4629630E-02
    1      -21.006630
    2      -20.523646
    3      -10.723039
    4       -9.633302
    5       -8.886593
    6       -8.327934
    7       -8.052460
    8       -7.635221
    9        2.223206
   10        2.887594
   11        3.037814
   12        3.451566
 
  0.5000000E+00  0.2777778E-01  0.0000000E+00  0.2314815E-02
    1      -20.774784
    2      -20.774784
    3      -10.175055
    4      -10.175055
    5       -8.617342
    6       -8.617342
    7       -7.848827
    8       -7.848827
    9        2.541809
   10        2.541809
   11        3.350287
   12        3.350287
 
  0.0000000E+00  0.5555556E-01  0.0000000E+00  0.2314815E-02
    1      -22.196616
    2      -16.974124
    3      -15.925088
    4      -10.291839
    5       -9.398308
    6       -6.009264
    7       -5.907404
    8       -5.045051
    9       -1.093049
   10        0.598297
   11        1.400329
   12        1.784395
 
  0.4166667E-01  0.5555556E-01  0.0000000E+00  0.4629630E-02
    1      -22.186376
    2      -17.138127
    3      -15.746034
    4      -10.279617
    5       -9.388054
    6       -6.052221
    7       -5.927114
    8       -5.112099
    9       -1.010505
   10        0.612195
   11        1.414405
   12        1.798645
 
  0.8333333E-01  0.5555556E-01  0.0000000E+00  0.4629630E-02
    1      -22.155662
    2      -17.473701
    3      -15.365397
    4      -10.242969
    5       -9.357337
    6       -6.173160
    7       -5.991625
    8       -5.297861
    9       -0.778425
   10        0.653891
   11        1.456630
   12        1.841395
 
  0.1250000E+00  0.5555556E-01  0.0000000E+00  0.4629630E-02
    1      -22.104494
    2      -17.848909
    3      -14.915399
    4      -10.181954
    5       -9.306297
    6       -6.362737
    7       -6.102965
    8       -5.568331
    9       -0.431339
   10        0.723394
   11        1.526990
   12        1.912648
 
  0.1666667E+00  0.5555556E-01  0.0000000E+00  0.4629630E-02
    1      -22.032909
    2      -18.226994
    3      -14.433274
    4      -10.096668
    5       -9.235167
    6       -6.615618
    7       -6.255298
    8       -5.890114
    9       -0.003518
   10        0.820711
   11        1.625465
   12        2.012406
 
  0.2083333E+00  0.5555556E-01  0.0000000E+00  0.4629630E-02
    1      -21.940953
    2      -18.596559
    3      -13.931117
    4       -9.987253
    5       -9.144290
    6       -6.926897
    7       -6.439796
    8       -6.238581
    9        0.479161
   10        0.945841
   11        1.752021
   12        2.140668
 
  0.2500000E+00  0.5555556E-01  0.0000000E+00  0.4629630E-02
    1      -21.828691
    2      -18.953003
    3      -13.414448
    4       -9.853898
    5       -9.034117
    6       -7.290644
    7       -6.647444
    8       -6.597438
    9        0.998755
   10        1.098772
   11        1.906610
   12        2.297435
 
  0.2916667E+00  0.5555556E-01  0.0000000E+00  0.4629630E-02
    1      -21.696207
    2      -19.294045
    3      -12.886725
    4       -9.696847
    5       -8.905235
    6       -7.699910
    7       -6.956161
    8       -6.870214
    9        1.279480
   10        1.542640
   11        2.089157
   12        2.482705
 
  0.3333333E+00  0.5555556E-01  0.0000000E+00  0.4629630E-02
    1      -21.543597
    2      -19.618367
    3      -12.350736
    4       -9.516410
    5       -8.758374
    6       -8.147281
    7       -7.307861
    8       -7.101347
    9        1.487926
   10        2.101222
   11        2.299544
   12        2.696473
 
  0.3750000E+00  0.5555556E-01  0.0000000E+00  0.4629630E-02
    1      -21.370977
    2      -19.925116
    3      -11.809137
    4       -9.312977
    5       -8.625453
    6       -8.594443
    7       -7.647906
    8       -7.335290
    9        1.724058
   10        2.537567
   11        2.665965
   12        2.938732
 
  0.4166667E+00  0.5555556E-01  0.0000000E+00  0.4629630E-02
    1      -21.178487
    2      -20.213689
    3      -11.264719
    4       -9.127621
    5       -9.087033
    6       -8.414554
    7       -7.973080
    8       -7.567506
    9        1.987805
   10        2.802806
   11        3.209470
   12        3.224644
 
  0.4583333E+00  0.5555556E-01  0.0000000E+00  0.4629630E-02
    1      -20.966294
    2      -20.483633
    3      -10.720571
    4       -9.647664
    5       -8.839187
    6       -8.281080
    7       -8.220067
    8       -7.794295
    9        2.279078
   10        2.943652
   11        3.094127
   12        3.508686
 
  0.5000000E+00  0.5555556E-01  0.0000000E+00  0.2314815E-02
    1      -20.734597
    2      -20.734597
    3      -10.180206
    4      -10.180206
    5       -8.570208
    6       -8.570208
    7       -8.012639
    8       -8.012639
    9        2.597752
   10        2.597752
   11        3.406516
   12        3.406516
 
  0.0000000E+00  0.8333333E-01  0.0000000E+00  0.2314815E-02
    1      -22.128353
    2      -16.915522
    3      -15.867950
    4      -10.210397
    5       -9.682952
    6       -6.272087
    7       -6.054589
    8       -4.962020
    9       -1.116906
   10        0.690983
   11        1.494179
   12        1.879419
 
  0.4166667E-01  0.8333333E-01  0.0000000E+00  0.4629630E-02
    1      -22.118120
    2      -17.078732
    3      -15.689968
    4      -10.198197
    5       -9.672587
    6       -6.316099
    7       -6.070101
    8       -5.029864
    9       -1.034189
   10        0.704881
   11        1.508250
   12        1.893669
 
  0.8333333E-01  0.8333333E-01  0.0000000E+00  0.4629630E-02
    1      -22.087428
    2      -17.413045
    3      -15.311436
    4      -10.161615
    5       -9.641532
    6       -6.437692
    7       -6.125038
    8       -5.217433
    9       -0.802175
   10        0.746578
   11        1.550460
   12        1.936421
 
  0.1250000E+00  0.8333333E-01  0.0000000E+00  0.4629630E-02
    1      -22.036299
    2      -17.787119
    3      -14.864014
    4      -10.100709
    5       -9.589901
    6       -6.621349
    7       -6.228944
    8       -5.489732
    9       -0.456388
   10        0.816085
   11        1.620795
   12        2.007675
 
  0.1666667E+00  0.8333333E-01  0.0000000E+00  0.4629630E-02
    1      -21.964767
    2      -18.164231
    3      -14.384963
    4      -10.015576
    5       -9.517890
    6       -6.857750
    7       -6.381724
    8       -5.812842
    9       -0.031631
   10        0.913412
   11        1.719235
   12        2.107435
 
  0.2083333E+00  0.8333333E-01  0.0000000E+00  0.4629630E-02
    1      -21.872882
    2      -18.532962
    3      -13.886478
    4       -9.906358
    5       -9.425780
    6       -7.142177
    7       -6.576064
    8       -6.162061
    9        0.446146
   10        1.038560
   11        1.845749
   12        2.235702
 
  0.2500000E+00  0.8333333E-01  0.0000000E+00  0.4629630E-02
    1      -21.760712
    2      -18.888692
    3      -13.374218
    4       -9.773244
    5       -9.313941
    6       -7.472131
    7       -6.800856
    8       -6.521203
    9        0.959136
   10        1.191517
   11        2.000289
   12        2.392477
 
  0.2916667E+00  0.8333333E-01  0.0000000E+00  0.4629630E-02
    1      -21.628338
    2      -19.229120
    3      -12.851813
    4       -9.616479
    5       -9.182851
    6       -7.845328
    7       -7.044264
    8       -6.879881
    9        1.372259
   10        1.494932
   11        2.182786
   12        2.577757
 
  0.3333333E+00  0.8333333E-01  0.0000000E+00  0.4629630E-02
    1      -21.475859
    2      -19.552913
    3      -12.322268
    4       -9.436371
    5       -9.033099
    6       -8.258254
    7       -7.296060
    8       -7.231324
    9        1.580744
   10        2.044266
   11        2.393132
   12        2.791537
 
  0.3750000E+00  0.8333333E-01  0.0000000E+00  0.4629630E-02
    1      -21.303395
    2      -19.859206
    3      -11.788511
    4       -9.233308
    5       -8.865409
    6       -8.705828
    7       -7.570984
    8       -7.548578
    9        1.816918
   10        2.599327
   11        2.631141
   12        3.033812
 
  0.4166667E+00  0.8333333E-01  0.0000000E+00  0.4629630E-02
    1      -21.111089
    2      -20.147387
    3      -11.253673
    4       -9.181983
    5       -9.007773
    6       -8.680663
    7       -7.895703
    8       -7.796467
    9        2.080712
   10        2.896432
   11        3.151168
   12        3.304572
 
  0.4583333E+00  0.8333333E-01  0.0000000E+00  0.4629630E-02
    1      -20.899111
    2      -20.416993
    3      -10.721266
    4       -9.680449
    5       -8.760370
    6       -8.479928
    7       -8.203219
    8       -8.036006
    9        2.372038
   10        3.036786
   11        3.187939
   12        3.611981
 
  0.5000000E+00  0.8333333E-01  0.0000000E+00  0.2314815E-02
    1      -20.667665
    2      -20.667665
    3      -10.195311
    4      -10.195311
    5       -8.491861
    6       -8.491861
    7       -8.264506
    8       -8.264506
    9        2.690780
   10        2.690780
   11        3.500124
   12        3.500124
 
  0.0000000E+00  0.1111111E+00  0.0000000E+00  0.2314815E-02
    1      -22.032869
    2      -16.833507
    3      -15.789193
    4      -10.096620
    5      -10.053693
    6       -6.615119
    7       -6.255765
    8       -4.845920
    9       -1.156094
   10        0.820767
   11        1.625518
   12        2.012459
 
  0.4166667E-01  0.1111111E+00  0.0000000E+00  0.4629630E-02
    1      -22.022647
    2      -16.995685
    3      -15.612667
    4      -10.084451
    5      -10.043134
    6       -6.660680
    7       -6.265631
    8       -4.914986
    9       -1.073067
   10        0.834661
   11        1.639580
   12        2.026709
 
  0.8333333E-01  0.1111111E+00  0.0000000E+00  0.4629630E-02
    1      -21.991987
    2      -17.328291
    3      -15.237136
    4      -10.047965
    5      -10.011480
    6       -6.785166
    7       -6.305972
    8       -5.105302
    9       -0.841048
   10        0.876350
   11        1.681765
   12        2.069459
 
  0.1250000E+00  0.1111111E+00  0.0000000E+00  0.4629630E-02
    1      -21.940911
    2      -17.700788
    3      -14.793512
    4       -9.987219
    5       -9.958805
    6       -6.968465
    7       -6.392531
    8       -5.380339
    9       -0.497099
   10        0.945847
   11        1.752059
   12        2.140712
 
  0.1666667E+00  0.1111111E+00  0.0000000E+00  0.4629630E-02
    1      -21.869455
    2      -18.076528
    3      -14.319077
    4       -9.902310
    5       -9.885229
    6       -7.196730
    7       -6.531906
    8       -5.705397
    9       -0.076810
   10        1.043166
   11        1.850443
   12        2.240473
 
  0.2083333E+00  0.1111111E+00  0.0000000E+00  0.4629630E-02
    1      -21.777671
    2      -18.444080
    3      -13.826192
    4       -9.793380
    5       -9.790919
    6       -7.462123
    7       -6.722110
    8       -6.055690
    9        0.393794
   10        1.168315
   11        1.976885
   12        2.368743
 
  0.2500000E+00  0.1111111E+00  0.0000000E+00  0.4629630E-02
    1      -21.665627
    2      -18.798797
    3      -13.320752
    4       -9.676089
    5       -9.660619
    6       -7.760958
    7       -6.955049
    8       -6.415211
    9        0.897125
   10        1.321283
   11        2.131342
   12        2.525523
 
  0.2916667E+00  0.1111111E+00  0.0000000E+00  0.4629630E-02
    1      -21.533407
    2      -19.138353
    3      -12.806701
    4       -9.540992
    5       -9.504271
    6       -8.092536
    7       -7.218558
    8       -6.773788
    9        1.421085
   10        1.502044
   11        2.313748
   12        2.710812
 
  0.3333333E+00  0.1111111E+00  0.0000000E+00  0.4629630E-02
    1      -21.381113
    2      -19.461398
    3      -12.287447
    4       -9.385925
    5       -9.324645
    6       -8.457753
    7       -7.498682
    8       -7.124823
    9        1.710556
   10        1.956807
   11        2.524011
   12        2.924605
 
  0.3750000E+00  0.1111111E+00  0.0000000E+00  0.4629630E-02
    1      -21.208869
    2      -19.767046
    3      -11.766448
    4       -9.211213
    5       -9.122126
    6       -8.857159
    7       -7.782368
    8       -7.463892
    9        1.946759
   10        2.497174
   11        2.761974
   12        3.166895
 
  0.4166667E+00  0.1111111E+00  0.0000000E+00  0.4629630E-02
    1      -21.016822
    2      -20.054671
    3      -11.247513
    4       -9.289242
    5       -9.017216
    6       -8.897194
    7       -8.059660
    8       -7.787924
    9        2.210580
   10        3.027325
   11        3.035528
   12        3.437675
 
  0.4583333E+00  0.1111111E+00  0.0000000E+00  0.4629630E-02
    1      -20.805148
    2      -20.323798
    3      -10.735005
    4       -9.750031
    5       -8.804339
    6       -8.650446
    7       -8.324339
    8       -8.094716
    9        2.501931
   10        3.166746
   11        3.319148
   12        3.558929
 
  0.5000000E+00  0.1111111E+00  0.0000000E+00  0.2314815E-02
    1      -20.574057
    2      -20.574057
    3      -10.233953
    4      -10.233953
    5       -8.573103
    6       -8.573103
    7       -8.382635
    8       -8.382635
    9        2.820700
   10        2.820700
   11        3.630704
   12        3.630704
 
  0.0000000E+00  0.1388889E+00  0.0000000E+00  0.2314815E-02
    1      -21.910253
    2      -16.728108
    3      -15.690372
    4      -10.489843
    5       -9.950755
    6       -7.020561
    7       -6.506390
    8       -4.696897
    9       -1.216247
   10        0.987655
   11        1.794287
   12        2.183517
 
  0.4166667E-01  0.1388889E+00  0.0000000E+00  0.4629630E-02
    1      -21.900044
    2      -16.889111
    3      -15.515644
    4      -10.478951
    5       -9.938630
    6       -7.068035
    7       -6.509542
    8       -4.767751
    9       -1.132668
   10        1.001542
   11        1.808337
   12        2.197766
 
  0.8333333E-01  0.1388889E+00  0.0000000E+00  0.4629630E-02
    1      -21.869425
    2      -17.219632
    3      -15.144106
    4      -10.446275
    5       -9.902274
    6       -7.196748
    7       -6.531854
    8       -4.962023
    9       -0.900403
   10        1.043208
   11        1.850483
   12        2.240513
 
  0.1250000E+00  0.1388889E+00  0.0000000E+00  0.4629630E-02
    1      -21.818418
    2      -17.590114
    3      -14.705788
    4      -10.391805
    5       -9.841744
    6       -7.383035
    7       -6.594280
    8       -5.240910
    9       -0.558784
   10        1.112673
   11        1.920712
   12        2.311762
 
  0.1666667E+00  0.1388889E+00  0.0000000E+00  0.4629630E-02
    1      -21.747061
    2      -17.964075
    3      -14.237989
    4      -10.315515
    5       -9.757140
    6       -7.609664
    7       -6.709148
    8       -5.568632
    9       -0.144475
   10        1.209957
   11        2.019004
   12        2.411518
 
  0.2083333E+00  0.1388889E+00  0.0000000E+00  0.4629630E-02
    1      -21.655408
    2      -18.330083
    3      -13.753341
    4      -10.217350
    5       -9.648603
    6       -7.866101
    7       -6.879692
    8       -5.920335
    9        0.316463
   10        1.335074
   11        2.145327
   12        2.539785
 
  0.2500000E+00  0.1388889E+00  0.0000000E+00  0.4629630E-02
    1      -21.543527
    2      -18.683472
    3      -13.258165
    4      -10.097194
    5       -9.516324
    6       -8.146254
    7       -7.102469
    8       -6.280301
    9        0.806795
   10        1.488020
   11        2.299638
   12        2.696566
 
  0.2916667E+00  0.1388889E+00  0.0000000E+00  0.4629630E-02
    1      -21.411507
    2      -19.021887
    3      -12.756989
    4       -9.954837
    5       -9.360548
    6       -8.447362
    7       -7.369034
    8       -6.638667
    9        1.314870
   10        1.668771
   11        2.481880
   12        2.881859
 
  0.3333333E+00  0.1388889E+00  0.0000000E+00  0.4629630E-02
    1      -21.259453
    2      -19.343950
    3      -12.254022
    4       -9.789926
    5       -9.181583
    6       -8.769555
    7       -7.667214
    8       -6.989080
    9        1.832304
   10        1.877279
   11        2.691971
   12        3.095661
 
  0.3750000E+00  0.1388889E+00  0.0000000E+00  0.4629630E-02
    1      -21.087493
    2      -19.648754
    3      -11.753774
    4       -9.601909
    5       -9.115356
    6       -8.979811
    7       -7.982423
    8       -7.327290
    9        2.113481
   10        2.352604
   11        2.929793
   12        3.337964
 
  0.4166667E+00  0.1388889E+00  0.0000000E+00  0.4629630E-02
    1      -20.895783
    2      -19.935652
    3      -11.261391
    4       -9.488447
    5       -9.390022
    6       -8.755709
    7       -8.299558
    8       -7.650344
    9        2.377296
   10        2.870352
   11        3.195144
   12        3.608760
 
  0.4583333E+00  0.1388889E+00  0.0000000E+00  0.4629630E-02
    1      -20.684506
    2      -20.204155
    3      -10.782754
    4       -9.891507
    5       -9.153406
    6       -8.605554
    7       -8.509867
    8       -7.956115
    9        2.668628
   10        3.333356
   11        3.380328
   12        3.487453
 
  0.5000000E+00  0.1388889E+00  0.0000000E+00  0.2314815E-02
    1      -20.453876
    2      -20.453876
    3      -10.324187
    4      -10.324187
    5       -8.891579
    6       -8.891579
    7       -8.243024
    8       -8.243024
    9        2.987362
   10        2.987362
   11        3.791184
   12        3.791188
 
  0.0000000E+00  0.1666667E+00  0.0000000E+00  0.2314815E-02
    1      -21.760622
    2      -16.599363
    3      -15.574101
    4      -10.970859
    5       -9.773136
    6       -7.471848
    7       -6.801085
    8       -4.515146
    9       -1.304224
   10        1.191641
   11        2.000408
   12        2.392597
 
  0.4166667E-01  0.1666667E+00  0.0000000E+00  0.4629630E-02
    1      -21.750430
    2      -16.759199
    3      -15.401468
    4      -10.959395
    5       -9.761068
    6       -7.521525
    7       -6.796794
    8       -4.588595
    9       -1.219641
   10        1.205515
   11        2.014437
   12        2.406843
 
  0.8333333E-01  0.1666667E+00  0.0000000E+00  0.4629630E-02
    1      -21.719862
    2      -17.087357
    3      -15.035140
    4      -10.924949
    5       -9.724882
    6       -7.655351
    7       -6.798821
    8       -4.788475
    9       -0.986529
   10        1.247144
   11        2.056521
   12        2.449584
 
  0.1250000E+00  0.1666667E+00  0.0000000E+00  0.4629630E-02
    1      -21.668941
    2      -17.455398
    3      -14.604223
    4      -10.867343
    5       -9.664637
    6       -7.846563
    7       -6.832762
    8       -5.072636
    9       -0.647552
   10        1.316550
   11        2.126644
   12        2.520823
 
  0.1666667E+00  0.1666667E+00  0.0000000E+00  0.4629630E-02
    1      -21.597705
    2      -17.827147
    3      -14.146060
    4      -10.786248
    5       -9.580434
    6       -8.075326
    7       -6.915842
    8       -5.403857
    9       -0.240768
   10        1.413761
   11        2.224782
   12        2.620568
 
  0.2083333E+00  0.1666667E+00  0.0000000E+00  0.4629630E-02
    1      -21.506211
    2      -18.191223
    3      -13.673786
    4      -10.681126
    5       -9.472415
    6       -8.329311
    7       -7.055728
    8       -5.757306
    9        0.207864
   10        1.538802
   11        2.350900
   12        2.748824
 
  0.2500000E+00  0.1666667E+00  0.0000000E+00  0.4629630E-02
    1      -21.394532
    2      -18.542941
    3      -13.194550
    4      -10.551139
    5       -9.340772
    6       -8.600866
    7       -7.253060
    8       -6.117714
    9        0.681699
   10        1.691679
   11        2.504950
   12        2.905597
 
  0.2916667E+00  0.1666667E+00  0.0000000E+00  0.4629630E-02
    1      -21.262757
    2      -18.879922
    3      -12.714075
    4      -10.395039
    5       -9.185751
    6       -8.885429
    7       -7.503244
    8       -6.475665
    9        1.169744
   10        1.872371
   11        2.686864
   12        3.090887
 
  0.3333333E+00  0.1666667E+00  0.0000000E+00  0.4629630E-02
    1      -21.110999
    2      -19.200752
    3      -12.238180
    4      -10.211049
    5       -9.180912
    6       -9.007661
    7       -7.797698
    8       -6.825141
    9        1.664259
   10        2.080832
   11        2.896559
   12        3.304691
 
  0.3750000E+00  0.1666667E+00  0.0000000E+00  0.4629630E-02
    1      -20.939394
    2      -19.504498
    3      -11.773353
    4       -9.996872
    5       -9.487604
    6       -8.806883
    7       -8.124800
    8       -7.162125
    9        2.159410
   10        2.316990
   11        3.133918
   12        3.547002
 
  0.4166667E+00  0.1666667E+00  0.0000000E+00  0.4629630E-02
    1      -20.748102
    2      -19.790487
    3      -11.326668
    4       -9.808233
    5       -9.750088
    6       -8.583888
    7       -8.470613
    8       -7.483815
    9        2.580755
   10        2.650526
   11        3.398787
   12        3.817809
 
  0.4583333E+00  0.1666667E+00  0.0000000E+00  0.4629630E-02
    1      -20.537316
    2      -20.058210
    3      -10.904765
    4      -10.147703
    5       -9.469396
    6       -8.819721
    7       -8.339260
    8       -7.788186
    9        2.872018
   10        3.133658
   11        3.536500
   12        3.690849
 
  0.5000000E+00  0.1666667E+00  0.0000000E+00  0.2314815E-02
    1      -20.307262
    2      -20.307262
    3      -10.511819
    4      -10.511819
    5       -9.156824
    6       -9.156824
    7       -8.073722
    8       -8.073722
    9        3.190650
   10        3.190650
   11        3.605187
   12        3.605187
 