gr                                      
           1
     4.274110    0.000000    0.000000
     0.000000    2.467372    0.000000
     0.000000    0.000000   19.992555
   C 
   4
Direct configuration=     1
   0.99987391  0.00000000  0.00000000
   0.16679275  0.50000000  0.00000000
   0.49987391  0.50000000  0.00000000
   0.66679275  0.00000000  0.00000000
Direct configuration=     2
   1.00049589 -0.00000000  0.00000000
   0.16617078  0.50000000 -0.00000000
   0.50049589  0.50000000  0.00000000
   0.66617078  0.00000000 -0.00000000
Direct configuration=     3
   0.99999843 -0.00000000  0.00000000
   0.16666824  0.50000000 -0.00000000
   0.49999843  0.50000000  0.00000000
   0.66666824  0.00000000 -0.00000000
Direct configuration=     4
   0.99999826 -0.00000000  0.00000000
   0.16666841  0.50000000 -0.00000000
   0.49999826  0.50000000  0.00000000
   0.66666841  0.00000000 -0.00000000
Direct configuration=     5
   0.99999824 -0.00000000  0.00000000
   0.16666842  0.50000000 -0.00000000
   0.49999824  0.50000000  0.00000000
   0.66666842 -0.00000000 -0.00000000
