    4    4  400    1
  0.5270948E+02  0.4358301E-09  0.2459029E-09  0.1967288E-08  0.5000000E-15
  1.000000000000000E-004
  CAR 
 gr                                      
     16    247     12
