 running on    8 total cores
 distrk:  each k-point on    8 cores,    1 groups
 distr:  one band on    2 cores,    4 groups
 using from now: INCAR     
 vasp.5.3.5 31Mar14 (build Mar 02 2015 18:14:16) complex                        
  
 POSCAR found type information on POSCAR  C 
 POSCAR found :  1 types and       4 ions
 LDA part: xc-table for Pade appr. of Perdew
 POSCAR, INCAR and KPOINTS ok, starting setup
 WARNING: small aliasing (wrap around) errors must be expected
 FFT: planning ...
 WAVECAR not read
 entering main loop
       N       E                     dE             d eps       ncg     rms          rms(c)
DAV:   1     0.187394108105E+03    0.18739E+03   -0.10620E+04  5928   0.275E+03
DAV:   2    -0.907971162577E+01   -0.19647E+03   -0.17319E+03 10360   0.259E+02
DAV:   3    -0.382439578885E+02   -0.29164E+02   -0.28542E+02  7480   0.119E+02    0.719E+00
RMM:   4    -0.376434828197E+02    0.60048E+00   -0.93436E+00  5928   0.262E+01    0.417E+00
RMM:   5    -0.369107467341E+02    0.73274E+00   -0.27410E+00  5932   0.113E+01    0.718E-01
RMM:   6    -0.369121089542E+02   -0.13622E-02   -0.80223E-02  6361   0.200E+00    0.512E-01
RMM:   7    -0.369030748839E+02    0.90341E-02   -0.32435E-02  5943   0.157E+00    0.337E-01
RMM:   8    -0.368977974861E+02    0.52774E-02   -0.66404E-03  5930   0.541E-01    0.140E-01
RMM:   9    -0.368974579638E+02    0.33952E-03   -0.20948E-02  5928   0.857E-01    0.157E-01
RMM:  10    -0.368973346228E+02    0.12334E-03   -0.23574E-03  5928   0.351E-01    0.279E-02
RMM:  11    -0.368997619953E+02   -0.24274E-02   -0.75062E-04  5930   0.181E-01    0.448E-02
RMM:  12    -0.369002169065E+02   -0.45491E-03   -0.21236E-04  5942   0.965E-02    0.574E-03
RMM:  13    -0.369004707461E+02   -0.25384E-03   -0.51335E-05  6005   0.396E-02    0.353E-03
RMM:  14    -0.369005529318E+02   -0.82186E-04   -0.10027E-05  5966   0.159E-02    0.122E-03
RMM:  15    -0.369005643322E+02   -0.11400E-04   -0.17041E-06  5995   0.723E-03    0.163E-03
RMM:  16    -0.369005764258E+02   -0.12094E-04   -0.12368E-06  5928   0.726E-03    0.117E-03
RMM:  17    -0.369005817111E+02   -0.52853E-05   -0.10537E-07  6008   0.199E-03    0.632E-04
RMM:  18    -0.369005827663E+02   -0.10551E-05   -0.51056E-08  5936   0.175E-03    0.118E-04
WARNING in EDDRMM: call to ZHEGV failed, returncode =   6  3  1
WARNING in EDDRMM: call to ZHEGV failed, returncode =   6  3  1
WARNING in EDDRMM: call to ZHEGV failed, returncode =   6  3  1
RMM:  19    -0.369005835400E+02   -0.77371E-06   -0.10324E-08  6062   0.493E-04    0.166E-05
RMM:  20    -0.369005835918E+02   -0.51831E-07   -0.85159E-10  4510   0.144E-04    0.240E-05
RMM:  21    -0.369005836083E+02   -0.16465E-07   -0.23260E-10  4370   0.884E-05    0.701E-06
RMM:  22    -0.369005836084E+02   -0.16951E-09   -0.16370E-11  3900   0.507E-05    0.211E-06
RMM:  23    -0.369005836091E+02   -0.66723E-09   -0.19136E-11  3540   0.392E-05    0.216E-06
RMM:  24    -0.369005836089E+02    0.26137E-09   -0.55004E-12  3087   0.286E-05    0.919E-07
RMM:  25    -0.369005836093E+02   -0.40211E-09   -0.26303E-12  2759   0.247E-05    0.311E-07
RMM:  26    -0.369005836091E+02    0.12506E-09   -0.35580E-12  2543   0.222E-05    0.133E-07
RMM:  27    -0.369005836087E+02    0.38267E-09   -0.21696E-12  2350   0.203E-05    0.790E-08
RMM:  28    -0.369005836092E+02   -0.41007E-09   -0.92378E-13  2219   0.185E-05    0.878E-08
RMM:  29    -0.369005836090E+02    0.17963E-09   -0.12950E-12  2121   0.178E-05    0.893E-08
RMM:  30    -0.369005836089E+02    0.10380E-09   -0.11828E-12  2048   0.172E-05    0.990E-08
RMM:  31    -0.369005836088E+02    0.86516E-10   -0.10491E-12  1988   0.167E-05
   1 F= -.36900584E+02 E0= -.36900581E+02  d E =-.369006E+02
 BRION: g(F)=  0.551E-07 g(S)=  0.000E+00
 bond charge predicted
       N       E                     dE             d eps       ncg     rms          rms(c)
DAV:   1    -0.369005835275E+02    0.81384E-07   -0.73654E-06  6260   0.255E-02    0.522E-04
RMM:   2    -0.369005835310E+02   -0.35350E-08   -0.11837E-07  5958   0.305E-03    0.377E-04
WARNING in EDDRMM: call to ZHEGV failed, returncode =   6  3  1
RMM:   3    -0.369005835260E+02    0.49769E-08   -0.20318E-08  5967   0.115E-03    0.100E-04
RMM:   4    -0.369005835258E+02    0.21930E-09   -0.13435E-09  5958   0.292E-04    0.283E-05
RMM:   5    -0.369005835256E+02    0.22783E-09   -0.70035E-11  3843   0.742E-05    0.112E-05
RMM:   6    -0.369005835257E+02   -0.11687E-09   -0.15638E-11  3497   0.487E-05    0.223E-06
RMM:   7    -0.369005835258E+02   -0.47748E-10   -0.11645E-11  3407   0.391E-05
   2 F= -.36900584E+02 E0= -.36900581E+02  d E =0.830217E-07
 BRION: g(F)=  0.833E-06 g(S)=  0.000E+00 retain N=  1 mean eig= 0.20
 eig:   0.205
 bond charge predicted
       N       E                     dE             d eps       ncg     rms          rms(c)
DAV:   1    -0.369005836101E+02   -0.84375E-07   -0.46561E-06  6680   0.203E-02    0.417E-04
RMM:   2    -0.369005836149E+02   -0.48149E-08   -0.72620E-08  5958   0.242E-03    0.300E-04
RMM:   3    -0.369005836143E+02    0.64665E-09   -0.12692E-08  5961   0.907E-04    0.772E-05
WARNING in EDDRMM: call to ZHEGV failed, returncode =   6  3  1
RMM:   4    -0.369005836139E+02    0.36403E-09   -0.80558E-10  5595   0.230E-04    0.223E-05
RMM:   5    -0.369005836140E+02   -0.94587E-10   -0.42249E-11  3762   0.645E-05
   3 F= -.36900584E+02 E0= -.36900581E+02  d E =-.882255E-07
 BRION: g(F)=  0.105E-10 g(S)=  0.000E+00 retain N=  1 mean eig= 0.20
 eig:   0.204
 bond charge predicted
       N       E                     dE             d eps       ncg     rms          rms(c)
DAV:   1    -0.369005836134E+02    0.49147E-09    0.54187E-09  4724   0.918E-05    0.138E-06
RMM:   2    -0.369005836139E+02   -0.48203E-09    0.29974E-12  3082   0.305E-05    0.705E-07
RMM:   3    -0.369005836137E+02    0.23158E-09   -0.15000E-12  2814   0.295E-05    0.136E-07
RMM:   4    -0.369005836136E+02    0.87994E-10   -0.33747E-12  2527   0.266E-05    0.143E-07
RMM:   5    -0.369005836140E+02   -0.41086E-09   -0.73558E-13  2283   0.243E-05    0.255E-08
RMM:   6    -0.369005836137E+02    0.24795E-09   -0.15076E-12  2108   0.226E-05    0.359E-08
RMM:   7    -0.369005836138E+02   -0.11971E-09   -0.12553E-12  1959   0.209E-05    0.242E-08
RMM:   8    -0.369005836136E+02    0.25977E-09   -0.19143E-12  1777   0.200E-05    0.335E-08
RMM:   9    -0.369005836137E+02   -0.11494E-09   -0.33923E-14  1730   0.187E-05    0.312E-08
RMM:  10    -0.369005836139E+02   -0.17531E-09   -0.62107E-13  1638   0.182E-05    0.858E-09
RMM:  11    -0.369005836139E+02   -0.14552E-10   -0.24384E-13  1591   0.177E-05
   4 F= -.36900584E+02 E0= -.36900581E+02  d E =0.959517E-10
 BRION: g(F)=  0.190E-10 g(S)=  0.000E+00 retain N=  1 mean eig= 0.09
 eig:   0.087
 bond charge predicted
       N       E                     dE             d eps       ncg     rms          rms(c)
DAV:   1    -0.369005836131E+02    0.74817E-09    0.54837E-09  4544   0.395E-05    0.455E-07
RMM:   2    -0.369005836139E+02   -0.81957E-09   -0.37221E-13  1276   0.121E-05    0.279E-07
RMM:   3    -0.369005836139E+02    0.84810E-10   -0.24425E-14  1330   0.119E-05    0.951E-09
RMM:   4    -0.369005836139E+02   -0.19554E-10    0.25597E-13  1194   0.119E-05    0.663E-09
RMM:   5    -0.369005836140E+02   -0.90267E-10   -0.20848E-13  1214   0.119E-05
   5 F= -.36900584E+02 E0= -.36900581E+02  d E =-.818545E-10
 BRION: g(F)=  0.754E-12 g(S)=  0.000E+00 retain N=  1 mean eig= 0.11
 eig:   0.109
 bond charge predicted
       N       E                     dE             d eps       ncg     rms          rms(c)
DAV:   1    -0.369005836132E+02    0.71395E-09    0.54942E-09  4536   0.182E-05    0.416E-07
RMM:   2    -0.369005836138E+02   -0.58276E-09    0.44985E-14   993   0.640E-06    0.256E-07
RMM:   3    -0.369005836137E+02    0.43201E-10    0.74015E-15   970   0.637E-06    0.436E-09
RMM:   4    -0.369005836139E+02   -0.21544E-09    0.77304E-15   581   0.637E-06    0.183E-09
RMM:   5    -0.369005836139E+02    0.25807E-10    0.35938E-14   488   0.636E-06
   6 F= -.36900584E+02 E0= -.36900581E+02  d E =0.750333E-10
 BRION: g(F)=  0.727E-12 g(S)=  0.000E+00 retain N=  1 mean eig= 6.04
 eig:   6.036
 bond charge predicted
       N       E                     dE             d eps       ncg     rms          rms(c)
DAV:   1    -0.369005836134E+02    0.51375E-09    0.19472E-09  6512   0.559E-04    0.115E-05
RMM:   2    -0.369005836139E+02   -0.46589E-09   -0.26425E-11  3217   0.678E-05    0.808E-06
RMM:   3    -0.369005836136E+02    0.24772E-09   -0.17132E-11  3298   0.565E-05    0.208E-06
RMM:   4    -0.369005836137E+02   -0.55365E-10   -0.11781E-11  2600   0.394E-05    0.719E-07
RMM:   5    -0.369005836138E+02   -0.94587E-10   -0.56430E-12  2173   0.323E-05
   7 F= -.36900584E+02 E0= -.36900581E+02  d E =0.119826E-09
 BRION: g(F)=  0.536E-09 g(S)=  0.000E+00 retain N=  1 mean eig= 0.21
 eig:   0.214
 bond charge predicted
       N       E                     dE             d eps       ncg     rms          rms(c)
DAV:   1    -0.369005836136E+02    0.10255E-09    0.21581E-09  6600   0.543E-04    0.116E-05
RMM:   2    -0.369005836137E+02   -0.15393E-09   -0.20119E-11  3203   0.618E-05    0.812E-06
RMM:   3    -0.369005836137E+02    0.40586E-10   -0.15510E-11  3296   0.557E-05    0.218E-06
RMM:   4    -0.369005836140E+02   -0.28183E-09   -0.10999E-11  2683   0.383E-05    0.689E-07
RMM:   5    -0.369005836137E+02    0.24920E-09   -0.69387E-12  2562   0.310E-05    0.140E-06
RMM:   6    -0.369005836138E+02   -0.73896E-10   -0.15130E-12  2225   0.254E-05
   8 F= -.36900584E+02 E0= -.36900581E+02  d E =-.227374E-10
 BRION: g(F)=  0.265E-13 g(S)=  0.000E+00 retain N=  1 mean eig= 0.22
 eig:   0.216
 reached required accuracy - stopping structural energy minimisation
