    4    4  400    1
  0.5270948E+02  0.4338001E-09  0.2460808E-09  0.1975065E-08  0.5000000E-15
  1.000000000000000E-004
  CAR 
 gr                                      
     16    247     12
 
  0.0000000E+00  0.0000000E+00  0.0000000E+00  0.1157407E-02
    1      -22.148931
    2      -17.167888
    3      -15.890483
    4      -10.278070
    5       -8.940233
    6       -5.923355
    7       -5.748591
    8       -5.248963
    9       -1.144917
   10        0.536412
   11        1.335739
   12        1.724922
 
  0.4166667E-01  0.0000000E+00  0.0000000E+00  0.2314815E-02
    1      -22.138982
    2      -17.301905
    3      -15.741373
    4      -10.266233
    5       -8.930500
    6       -5.967057
    7       -5.769621
    8       -5.310649
    9       -1.067390
   10        0.549883
   11        1.349397
   12        1.738750
 
  0.8333333E-01  0.0000000E+00  0.0000000E+00  0.2314815E-02
    1      -22.109142
    2      -17.599173
    3      -15.398906
    4      -10.230743
    5       -8.901351
    6       -6.096186
    7       -5.831589
    8       -5.482703
    9       -0.847972
   10        0.590300
   11        1.390369
   12        1.780234
 
  0.1250000E+00  0.0000000E+00  0.0000000E+00  0.2314815E-02
    1      -22.059431
    2      -17.947752
    3      -14.975260
    4      -10.171656
    5       -8.852939
    6       -6.305192
    7       -5.931314
    8       -5.735615
    9       -0.516665
   10        0.657678
   11        1.458641
   12        1.849378
 
  0.1666667E+00  0.0000000E+00  0.0000000E+00  0.2314815E-02
    1      -21.989882
    2      -18.306314
    3      -14.512175
    4      -10.089069
    5       -8.785524
    6       -6.585894
    7       -6.064031
    8       -6.039199
    9       -0.104481
   10        0.752032
   11        1.554187
   12        1.946183
 
  0.2083333E+00  0.0000000E+00  0.0000000E+00  0.2314815E-02
    1      -21.900547
    2      -18.660255
    3      -14.024845
    4       -9.983126
    5       -8.699484
    6       -6.928661
    7       -6.370265
    8       -6.224017
    9        0.364194
   10        0.873371
   11        1.676968
   12        2.070653
 
  0.2500000E+00  0.0000000E+00  0.0000000E+00  0.2314815E-02
    1      -21.791487
    2      -19.003424
    3      -13.520201
    4       -9.854016
    5       -8.595319
    6       -7.323475
    7       -6.712952
    8       -6.405188
    9        0.871895
   10        1.021690
   11        1.826926
   12        2.222787
 
  0.2916667E+00  0.0000000E+00  0.0000000E+00  0.2314815E-02
    1      -21.662787
    2      -19.332771
    3      -13.002295
    4       -9.701985
    5       -8.473678
    6       -7.760711
    7       -7.056772
    8       -6.601575
    9        1.196971
   10        1.406023
   11        2.003966
   12        2.402584
 
  0.3333333E+00  0.0000000E+00  0.0000000E+00  0.2314815E-02
    1      -21.514545
    2      -19.646568
    3      -12.474101
    4       -9.527347
    5       -8.335369
    6       -8.231588
    7       -7.394753
    8       -6.807634
    9        1.399180
   10        1.956747
   11        2.207932
   12        2.610040
 
  0.3750000E+00  0.0000000E+00  0.0000000E+00  0.2314815E-02
    1      -21.346883
    2      -19.943731
    3      -11.938237
    4       -9.330496
    5       -8.728355
    6       -8.181391
    7       -7.722161
    8       -7.018413
    9        1.628269
   10        2.438538
   11        2.514814
   12        2.845146
 
  0.4166667E+00  0.0000000E+00  0.0000000E+00  0.2314815E-02
    1      -21.159942
    2      -20.223519
    3      -11.397302
    4       -9.244308
    5       -9.111924
    6       -8.035692
    7       -8.012968
    8       -7.229603
    9        1.884171
   10        2.695164
   11        3.065151
   12        3.107890
 
  0.4583333E+00  0.0000000E+00  0.0000000E+00  0.2314815E-02
    1      -20.953899
    2      -20.485398
    3      -10.854081
    4       -9.773715
    5       -8.872252
    6       -8.332976
    7       -7.831587
    8       -7.437517
    9        2.166796
   10        2.811671
   11        2.976078
   12        3.398250
 
  0.5000000E+00  0.0000000E+00  0.0000000E+00  0.1157407E-02
    1      -20.728965
    2      -20.728965
    3      -10.311693
    4      -10.311693
    5       -8.612267
    6       -8.612267
    7       -7.639047
    8       -7.639047
    9        2.476021
   10        2.476021
   11        3.273488
   12        3.273488
 
  0.0000000E+00  0.2777778E-01  0.0000000E+00  0.2314815E-02
    1      -22.135163
    2      -17.155989
    3      -15.878769
    4      -10.261689
    5       -9.002894
    6       -5.951011
    7       -5.806805
    8       -5.232294
    9       -1.147917
   10        0.555075
   11        1.354611
   12        1.744028
 
  0.4166667E-01  0.2777778E-01  0.0000000E+00  0.4629630E-02
    1      -22.125215
    2      -17.289870
    3      -15.729842
    4      -10.249856
    5       -8.993148
    6       -5.996584
    7       -5.825331
    8       -5.294105
    9       -1.070372
   10        0.568546
   11        1.368269
   12        1.757856
 
  0.8333333E-01  0.2777778E-01  0.0000000E+00  0.4629630E-02
    1      -22.095380
    2      -17.586901
    3      -15.387754
    4      -10.214377
    5       -8.963958
    6       -6.128025
    7       -5.883209
    8       -5.466452
    9       -0.850986
   10        0.608964
   11        1.409238
   12        1.799341
 
  0.1250000E+00  0.2777778E-01  0.0000000E+00  0.4629630E-02
    1      -22.045676
    2      -17.935261
    3      -14.964569
    4      -10.155310
    5       -8.915475
    6       -6.336833
    7       -5.980501
    8       -5.719674
    9       -0.519911
   10        0.676344
   11        1.477506
   12        1.868485
 
  0.1666667E+00  0.2777778E-01  0.0000000E+00  0.4629630E-02
    1      -21.976138
    2      -18.293634
    3      -14.502022
    4      -10.072752
    5       -8.847954
    6       -6.614983
    7       -6.112657
    8       -6.023495
    9       -0.108252
   10        0.770701
   11        1.573047
   12        1.965291
 
  0.2083333E+00  0.2777778E-01  0.0000000E+00  0.4629630E-02
    1      -21.886817
    2      -18.647413
    3      -14.015322
    4       -9.966844
    5       -8.761765
    6       -6.953814
    7       -6.354705
    8       -6.273319
    9        0.359587
   10        0.892045
   11        1.695823
   12        2.089762
 
  0.2500000E+00  0.2777778E-01  0.0000000E+00  0.4629630E-02
    1      -21.777776
    2      -18.990443
    3      -13.511418
    4       -9.837778
    5       -8.657401
    6       -7.344137
    7       -6.697456
    8       -6.455827
    9        0.866158
   10        1.040371
   11        1.845775
   12        2.241898
 
  0.2916667E+00  0.2777778E-01  0.0000000E+00  0.4629630E-02
    1      -21.649099
    2      -19.319670
    3      -12.994386
    4       -9.685799
    5       -8.535497
    6       -7.776869
    7       -7.041280
    8       -6.653821
    9        1.215660
   10        1.398902
   11        2.022809
   12        2.421698
 
  0.3333333E+00  0.2777778E-01  0.0000000E+00  0.4629630E-02
    1      -21.500884
    2      -19.633363
    3      -12.467226
    4       -9.511220
    5       -8.396849
    6       -8.243531
    7       -7.379225
    8       -6.861520
    9        1.417879
   10        1.948060
   11        2.226773
   12        2.629157
 
  0.3750000E+00  0.2777778E-01  0.0000000E+00  0.4629630E-02
    1      -21.333253
    2      -19.930436
    3      -11.932588
    4       -9.314434
    5       -8.736514
    6       -8.242439
    7       -7.706573
    8       -7.073841
    9        1.646979
   10        2.457382
   11        2.504573
   12        2.864268
 
  0.4166667E+00  0.2777778E-01  0.0000000E+00  0.4629630E-02
    1      -21.146349
    2      -20.210146
    3      -11.393108
    4       -9.249159
    5       -9.095935
    6       -8.073473
    7       -8.020029
    8       -7.286407
    9        1.902894
   10        2.714023
   11        3.054347
   12        3.127018
 
  0.4583333E+00  0.2777778E-01  0.0000000E+00  0.4629630E-02
    1      -20.940349
    2      -20.471957
    3      -10.851615
    4       -9.775721
    5       -8.856342
    6       -8.317231
    7       -7.891415
    8       -7.495512
    9        2.185534
   10        2.830465
   11        2.994962
   12        3.417388
 
  0.5000000E+00  0.2777778E-01  0.0000000E+00  0.2314815E-02
    1      -20.715466
    2      -20.715466
    3      -10.311277
    4      -10.311277
    5       -8.596439
    6       -8.596439
    7       -7.698045
    8       -7.698045
    9        2.494781
   10        2.494781
   11        3.292177
   12        3.292177
 
  0.0000000E+00  0.5555556E-01  0.0000000E+00  0.2314815E-02
    1      -22.093867
    2      -17.120297
    3      -15.843771
    4      -10.212578
    5       -9.185825
    6       -6.033465
    7       -5.976714
    8       -5.182308
    9       -1.157734
   10        0.611067
   11        1.411220
   12        1.801348
 
  0.4166667E-01  0.5555556E-01  0.0000000E+00  0.4629630E-02
    1      -22.083924
    2      -17.253777
    3      -15.695390
    4      -10.200758
    5       -9.176034
    6       -6.092698
    7       -5.979727
    8       -5.244507
    9       -1.080131
   10        0.624537
   11        1.424876
   12        1.815176
 
  0.8333333E-01  0.5555556E-01  0.0000000E+00  0.4629630E-02
    1      -22.054102
    2      -17.550104
    3      -15.354442
    4      -10.165315
    5       -9.146708
    6       -6.233509
    7       -6.022996
    8       -5.417756
    9       -0.860834
   10        0.664956
   11        1.465838
   12        1.856661
 
  0.1250000E+00  0.5555556E-01  0.0000000E+00  0.4629630E-02
    1      -22.004422
    2      -17.897809
    3      -14.932657
    4      -10.106309
    5       -9.097987
    6       -6.440866
    7       -6.113954
    8       -5.671928
    9       -0.530464
   10        0.732338
   11        1.534094
   12        1.925806
 
  0.1666667E+00  0.5555556E-01  0.0000000E+00  0.4629630E-02
    1      -21.934918
    2      -18.255614
    3      -14.471752
    4      -10.023835
    5       -9.030113
    6       -6.710191
    7       -6.245679
    8       -5.976472
    9       -0.120407
   10        0.826701
   11        1.629620
   12        2.022614
 
  0.2083333E+00  0.5555556E-01  0.0000000E+00  0.4629630E-02
    1      -21.845641
    2      -18.608905
    3      -13.986981
    4       -9.918037
    5       -8.943432
    6       -7.036052
    7       -6.409587
    8       -6.308117
    9        0.344874
   10        0.948055
   11        1.752377
   12        2.147088
 
  0.2500000E+00  0.5555556E-01  0.0000000E+00  0.4629630E-02
    1      -21.736654
    2      -18.951516
    3      -13.485351
    4       -9.789104
    5       -8.838406
    6       -7.411755
    7       -6.651058
    8       -6.597274
    9        0.847988
   10        1.096396
   11        1.902309
   12        2.299229
 
  0.2916667E+00  0.5555556E-01  0.0000000E+00  0.4629630E-02
    1      -21.608045
    2      -19.280381
    3      -12.971011
    4       -9.637282
    5       -8.715634
    6       -7.829893
    7       -6.994892
    8       -6.801160
    9        1.271704
   10        1.376493
   11        2.079326
   12        2.479036
 
  0.3333333E+00  0.5555556E-01  0.0000000E+00  0.4629630E-02
    1      -21.459911
    2      -19.593762
    3      -12.447047
    4       -9.462883
    5       -8.575865
    6       -8.282956
    7       -7.332727
    8       -7.014709
    9        1.473946
   10        1.920833
   11        2.283280
   12        2.686504
 
  0.3750000E+00  0.5555556E-01  0.0000000E+00  0.4629630E-02
    1      -21.292375
    2      -19.890564
    3      -11.916214
    4       -9.266300
    5       -8.763791
    6       -8.420025
    7       -7.659888
    8       -7.232418
    9        1.703073
   10        2.472458
   11        2.513899
   12        2.921626
 
  0.4166667E+00  0.5555556E-01  0.0000000E+00  0.4629630E-02
    1      -21.105583
    2      -20.170040
    3      -11.381269
    4       -9.265869
    5       -9.048023
    6       -8.249254
    7       -7.973114
    8       -7.449728
    9        1.959017
   10        2.770588
   11        3.019690
   12        3.184392
 
  0.4583333E+00  0.5555556E-01  0.0000000E+00  0.4629630E-02
    1      -20.899713
    2      -20.431649
    3      -10.845186
    4       -9.783390
    5       -8.808668
    6       -8.270065
    7       -8.064945
    8       -7.662882
    9        2.241693
   10        2.886749
   11        3.051605
   12        3.475027
 
  0.5000000E+00  0.5555556E-01  0.0000000E+00  0.2314815E-02
    1      -20.674982
    2      -20.674982
    3      -10.311291
    4      -10.311291
    5       -8.549016
    6       -8.549016
    7       -7.868797
    8       -7.868797
    9        2.550989
   10        2.550989
   11        3.348132
   12        3.348132
 
  0.0000000E+00  0.8333333E-01  0.0000000E+00  0.2314815E-02
    1      -22.025080
    2      -17.060824
    3      -15.785949
    4      -10.130843
    5       -9.475280
    6       -6.245592
    7       -6.169182
    8       -5.099068
    9       -1.176815
   10        0.704389
   11        1.505544
   12        1.896883
 
  0.4166667E-01  0.8333333E-01  0.0000000E+00  0.4629630E-02
    1      -22.015145
    2      -17.193658
    3      -15.638466
    4      -10.119044
    5       -9.465400
    6       -6.306217
    7       -6.167832
    8       -5.161952
    9       -1.099096
   10        0.717858
   11        1.519196
   12        1.910710
 
  0.8333333E-01  0.8333333E-01  0.0000000E+00  0.4629630E-02
    1      -21.985346
    2      -17.488835
    3      -15.299434
    4      -10.083664
    5       -9.435799
    6       -6.445967
    7       -6.203737
    8       -5.336785
    9       -0.879923
   10        0.758273
   11        1.560145
   12        1.952195
 
  0.1250000E+00  0.8333333E-01  0.0000000E+00  0.4629630E-02
    1      -21.935705
    2      -17.835454
    3      -14.880039
    4      -10.024761
    5       -9.386601
    6       -6.644238
    7       -6.291187
    8       -5.592613
    9       -0.550752
   10        0.825652
   11        1.628379
   12        2.021340
 
  0.1666667E+00  0.8333333E-01  0.0000000E+00  0.4629630E-02
    1      -21.866257
    2      -18.192314
    3      -14.421971
    4       -9.942434
    5       -9.318016
    6       -6.895907
    7       -6.425464
    8       -5.898402
    9       -0.143455
   10        0.920015
   11        1.723876
   12        2.118149
 
  0.2083333E+00  0.8333333E-01  0.0000000E+00  0.4629630E-02
    1      -21.777053
    2      -18.544789
    3      -13.940558
    4       -9.836823
    5       -9.230348
    6       -7.197585
    7       -6.597544
    8       -6.230788
    9        0.317409
   10        1.041373
   11        1.846598
   12        2.242626
 
  0.2500000E+00  0.8333333E-01  0.0000000E+00  0.4629630E-02
    1      -21.668160
    2      -18.886698
    3      -13.442918
    4       -9.708118
    5       -9.124000
    6       -7.545735
    7       -6.797117
    8       -6.574043
    9        0.814552
   10        1.189724
   11        1.996492
   12        2.394773
 
  0.2916667E+00  0.8333333E-01  0.0000000E+00  0.4629630E-02
    1      -21.539663
    2      -19.214956
    3      -12.933334
    4       -9.556565
    5       -8.999491
    6       -7.935942
    7       -7.014405
    8       -6.917882
    9        1.335720
   10        1.365050
   11        2.173473
   12        2.574588
 
  0.3333333E+00  0.8333333E-01  0.0000000E+00  0.4629630E-02
    1      -21.391663
    2      -19.527813
    3      -12.415062
    4       -9.382477
    5       -8.857473
    6       -8.362800
    7       -7.255515
    8       -7.241160
    9        1.567315
   10        1.871656
   11        2.377406
   12        2.782066
 
  0.3750000E+00  0.8333333E-01  0.0000000E+00  0.4629630E-02
    1      -21.224286
    2      -19.824161
    3      -11.891058
    4       -9.186241
    5       -8.820261
    6       -8.698753
    7       -7.582345
    8       -7.470878
    9        1.796466
   10        2.414475
   11        2.608039
   12        3.017203
 
  0.4166667E+00  0.8333333E-01  0.0000000E+00  0.4629630E-02
    1      -21.037681
    2      -20.103246
    3      -11.364327
    4       -9.302150
    5       -8.968347
    6       -8.524321
    7       -7.895168
    8       -7.698574
    9        2.052437
   10        2.864812
   11        2.955202
   12        3.279987
 
  0.4583333E+00  0.8333333E-01  0.0000000E+00  0.4629630E-02
    1      -20.832030
    2      -20.364514
    3      -10.838137
    4       -9.802573
    5       -8.729405
    6       -8.335397
    7       -8.191682
    8       -7.920428
    9        2.335142
   10        2.980293
   11        3.145988
   12        3.460020
 
  0.5000000E+00  0.8333333E-01  0.0000000E+00  0.2314815E-02
    1      -20.607552
    2      -20.607552
    3      -10.316159
    4      -10.316159
    5       -8.470188
    6       -8.470188
    7       -8.133479
    8       -8.133479
    9        2.644474
   10        2.644474
   11        3.440818
   12        3.440818
 
  0.0000000E+00  0.1111111E+00  0.0000000E+00  0.2314815E-02
    1      -21.928862
    2      -16.977589
    3      -15.706167
    4      -10.016662
    5       -9.852166
    6       -6.596108
    7       -6.355625
    8       -4.982682
    9       -1.209231
   10        0.835044
   11        1.637545
   12        2.030634
 
  0.4166667E-01  0.1111111E+00  0.0000000E+00  0.4629630E-02
    1      -21.918938
    2      -17.109572
    3      -15.559919
    4      -10.004893
    5       -9.842125
    6       -6.644825
    7       -6.362276
    8       -5.046614
    9       -1.131298
   10        0.848509
   11        1.651189
   12        2.044461
 
  0.8333333E-01  0.1111111E+00  0.0000000E+00  0.4629630E-02
    1      -21.889172
    2      -17.403191
    3      -15.223609
    4       -9.969604
    5       -9.812035
    6       -6.773626
    7       -6.397982
    8       -5.223853
    9       -0.912224
   10        0.888912
   11        1.692116
   12        2.085943
 
  0.1250000E+00  0.1111111E+00  0.0000000E+00  0.4629630E-02
    1      -21.839586
    2      -17.748307
    3      -14.807708
    4       -9.910854
    5       -9.761986
    6       -6.960182
    7       -6.480309
    8       -5.482158
    9       -0.584759
   10        0.956273
   11        1.760315
   12        2.155086
 
  0.1666667E+00  0.1111111E+00  0.0000000E+00  0.4629630E-02
    1      -21.770216
    2      -18.103841
    3      -14.353860
    4       -9.828739
    5       -9.692133
    6       -7.192907
    7       -6.613090
    8       -5.789781
    9       -0.181496
   10        1.050617
   11        1.855763
   12        2.251893
 
  0.2083333E+00  0.1111111E+00  0.0000000E+00  0.4629630E-02
    1      -21.681115
    2      -18.455167
    3      -13.877512
    4       -9.723402
    5       -9.602698
    6       -7.466226
    7       -6.791585
    8       -6.123233
    9        0.272888
   10        1.171961
   11        1.978426
   12        2.376371
 
  0.2500000E+00  0.1111111E+00  0.0000000E+00  0.4629630E-02
    1      -21.572353
    2      -18.796082
    3      -13.385963
    4       -9.595032
    5       -9.493972
    6       -7.777678
    7       -7.006126
    8       -6.466919
    9        0.761270
   10        1.320305
   11        2.128253
   12        2.528520
 
  0.2916667E+00  0.1111111E+00  0.0000000E+00  0.4629630E-02
    1      -21.444013
    2      -19.123483
    3      -12.883735
    4       -9.443875
    5       -9.366320
    6       -8.126239
    7       -7.244716
    8       -6.810735
    9        1.271663
   10        1.495630
   11        2.305169
   12        2.708341
 
  0.3333333E+00  0.1111111E+00  0.0000000E+00  0.4629630E-02
    1      -21.296203
    2      -19.435598
    3      -12.374382
    4       -9.270241
    5       -9.220196
    6       -8.510732
    7       -7.495504
    8       -7.148044
    9        1.697899
   10        1.795174
   11        2.509055
   12        2.915829
 
  0.3750000E+00  0.1111111E+00  0.0000000E+00  0.4629630E-02
    1      -21.129050
    2      -19.731305
    3      -11.861242
    4       -9.074517
    5       -9.056148
    6       -8.928614
    7       -7.748700
    8       -7.474366
    9        1.927056
   10        2.324579
   11        2.739694
   12        3.150978
 
  0.4166667E+00  0.1111111E+00  0.0000000E+00  0.4629630E-02
    1      -20.942708
    2      -20.009835
    3      -11.347794
    4       -9.375693
    5       -8.874839
    6       -8.857187
    7       -7.997285
    8       -7.786579
    9        2.183029
   10        2.852978
   11        2.996597
   12        3.413780
 
  0.4583333E+00  0.1111111E+00  0.0000000E+00  0.4629630E-02
    1      -20.737366
    2      -20.270624
    3      -10.837884
    4       -9.846661
    5       -8.677083
    6       -8.618854
    7       -8.236663
    8       -8.082437
    9        2.465733
   10        3.110871
   11        3.278073
   12        3.367953
 
  0.5000000E+00  0.1111111E+00  0.0000000E+00  0.2314815E-02
    1      -20.513246
    2      -20.513246
    3      -10.335867
    4      -10.335867
    5       -8.463905
    6       -8.463905
    7       -8.360282
    8       -8.360282
    9        2.775059
   10        2.775059
   11        3.567441
   12        3.567441
 
  0.0000000E+00  0.1388889E+00  0.0000000E+00  0.2314815E-02
    1      -21.805300
    2      -16.870624
    3      -15.605887
    4      -10.295490
    5       -9.870290
    6       -7.009893
    7       -6.589318
    8       -4.833303
    9       -1.260589
   10        1.003026
   11        1.807163
   12        2.202603
 
  0.4166667E-01  0.1388889E+00  0.0000000E+00  0.4629630E-02
    1      -21.795390
    2      -17.001608
    3      -15.461193
    4      -10.285176
    5       -9.858563
    6       -7.056375
    7       -6.593578
    8       -4.898762
    9       -1.182261
   10        1.016483
   11        1.820795
   12        2.216428
 
  0.8333333E-01  0.1388889E+00  0.0000000E+00  0.4629630E-02
    1      -21.765666
    2      -17.293320
    3      -15.128485
    4      -10.254246
    5       -9.823398
    6       -7.181867
    7       -6.619309
    8       -5.079458
    9       -0.963131
   10        1.056861
   11        1.861688
   12        2.257907
 
  0.1250000E+00  0.1388889E+00  0.0000000E+00  0.4629630E-02
    1      -21.716151
    2      -17.636531
    3      -14.717402
    4      -10.202732
    5       -9.764854
    6       -7.363597
    7       -6.686164
    8       -5.341251
    9       -0.637846
   10        1.124185
   11        1.929830
   12        2.327043
 
  0.1666667E+00  0.1388889E+00  0.0000000E+00  0.4629630E-02
    1      -21.646883
    2      -17.990358
    3      -14.269529
    4      -10.130683
    5       -9.683030
    6       -7.586112
    7       -6.804130
    8       -5.651391
    9       -0.239999
   10        1.218484
   11        2.025198
   12        2.423844
 
  0.2083333E+00  0.1388889E+00  0.0000000E+00  0.4629630E-02
    1      -21.557916
    2      -18.340190
    3      -13.800503
    4      -10.038162
    5       -9.578066
    6       -7.840558
    7       -6.974189
    8       -5.986259
    9        0.205622
   10        1.339782
   11        2.147760
   12        2.548316
 
  0.2500000E+00  0.1388889E+00  0.0000000E+00  0.4629630E-02
    1      -21.449321
    2      -18.679811
    3      -13.317938
    4       -9.925232
    5       -9.450154
    6       -8.122343
    7       -7.190938
    8       -6.330473
    9        0.682160
   10        1.488084
   11        2.297470
   12        2.700462
 
  0.2916667E+00  0.1388889E+00  0.0000000E+00  0.4629630E-02
    1      -21.321186
    2      -19.006092
    3      -12.826780
    4       -9.791943
    5       -9.299538
    6       -8.430019
    7       -7.444358
    8       -6.674194
    9        1.178008
   10        1.663375
   11        2.474262
   12        2.880284
 
  0.3333333E+00  0.1388889E+00  0.0000000E+00  0.4629630E-02
    1      -21.173620
    2      -19.317240
    3      -12.331155
    4       -9.638317
    5       -9.126527
    6       -8.764483
    7       -7.721458
    8       -7.011005
    9        1.684709
   10        1.865615
   11        2.678039
   12        3.087777
 
  0.3750000E+00  0.1388889E+00  0.0000000E+00  0.4629630E-02
    1      -21.006757
    2      -19.612110
    3      -11.835139
    4       -9.464325
    5       -9.127740
    6       -8.931506
    7       -8.008299
    8       -7.336588
    9        2.094743
   10        2.195638
   11        2.908639
   12        3.322934
 
  0.4166667E+00  0.1388889E+00  0.0000000E+00  0.4629630E-02
    1      -20.820758
    2      -19.889916
    3      -11.343151
    4       -9.521102
    5       -9.269890
    6       -8.714953
    7       -8.292387
    8       -7.647932
    9        2.350682
   10        2.705142
   11        3.165706
   12        3.585748
 
  0.4583333E+00  0.1388889E+00  0.0000000E+00  0.4629630E-02
    1      -20.615815
    2      -20.150081
    3      -10.860166
    4       -9.943613
    5       -9.054934
    6       -8.564583
    7       -8.477464
    8       -7.942867
    9        2.633337
   10        3.207461
   11        3.278313
   12        3.447783
 
  0.5000000E+00  0.1388889E+00  0.0000000E+00  0.2314815E-02
    1      -20.392162
    2      -20.392162
    3      -10.391722
    4      -10.391722
    5       -8.819569
    6       -8.819569
    7       -8.219786
    8       -8.219786
    9        2.942594
   10        2.942594
   11        3.667091
   12        3.667091
 
  0.0000000E+00  0.1666667E+00  0.0000000E+00  0.2314815E-02
    1      -21.654510
    2      -16.739968
    3      -15.487549
    4      -10.784577
    5       -9.692070
    6       -7.469952
    7       -6.865955
    8       -4.651132
    9       -1.337800
   10        1.208318
   11        2.014315
   12        2.412792
 
  0.4166667E-01  0.1666667E+00  0.0000000E+00  0.4629630E-02
    1      -21.644617
    2      -16.869899
    3      -15.344722
    4      -10.773794
    5       -9.680397
    6       -7.516645
    7       -6.864902
    8       -4.718794
    9       -1.258733
   10        1.221762
   11        2.027929
   12        2.426615
 
  0.8333333E-01  0.1666667E+00  0.0000000E+00  0.4629630E-02
    1      -21.614946
    2      -17.159447
    3      -15.016668
    4      -10.741417
    5       -9.645395
    6       -7.643111
    7       -6.874905
    8       -4.904379
    9       -1.039098
   10        1.262103
   11        2.068766
   12        2.468087
 
  0.1250000E+00  0.1666667E+00  0.0000000E+00  0.4629630E-02
    1      -21.565519
    2      -17.500375
    3      -14.612177
    4      -10.687358
    5       -9.587123
    6       -7.825230
    7       -6.918525
    8       -5.170956
    9       -0.716323
   10        1.329366
   11        2.136813
   12        2.537212
 
  0.1666667E+00  0.1666667E+00  0.0000000E+00  0.4629630E-02
    1      -21.496375
    2      -17.852104
    3      -14.172794
    4      -10.611450
    5       -9.505681
    6       -8.044971
    7       -7.010615
    8       -5.484428
    9       -0.325318
   10        1.423586
   11        2.232047
   12        2.633998
 
  0.2083333E+00  0.1666667E+00  0.0000000E+00  0.4629630E-02
    1      -21.407572
    2      -18.200082
    3      -13.714497
    4      -10.513418
    5       -9.401210
    6       -8.291135
    7       -7.157088
    8       -5.821078
    9        0.109093
   10        1.544793
   11        2.354433
   12        2.758453
 
  0.2500000E+00  0.1666667E+00  0.0000000E+00  0.4629630E-02
    1      -21.299183
    2      -18.538088
    3      -13.245490
    4      -10.392828
    5       -9.273902
    6       -8.556968
    7       -7.357137
    8       -6.165871
    9        0.570508
   10        1.693006
   11        2.503925
   12        2.910586
 
  0.2916667E+00  0.1666667E+00  0.0000000E+00  0.4629630E-02
    1      -21.171299
    2      -18.862971
    3      -12.771570
    4      -10.249023
    5       -9.124002
    6       -8.838829
    7       -7.604878
    8       -6.509350
    9        1.047875
   10        1.868213
   11        2.680460
   12        3.090399
 
  0.3333333E+00  0.1666667E+00  0.0000000E+00  0.4629630E-02
    1      -21.024036
    2      -19.172909
    3      -12.298012
    4      -10.081048
    5       -9.135692
    6       -8.951818
    7       -7.890520
    8       -6.845403
    9        1.533307
   10        2.070377
   11        2.883958
   12        3.297890
 
  0.3750000E+00  0.1666667E+00  0.0000000E+00  0.4629630E-02
    1      -20.857533
    2      -19.466735
    3      -11.830370
    4       -9.887610
    5       -9.448971
    6       -8.757731
    7       -8.201373
    8       -7.169927
    9        2.020788
   10        2.299432
   11        3.114310
   12        3.533050
 
  0.4166667E+00  0.1666667E+00  0.0000000E+00  0.4629630E-02
    1      -20.671959
    2      -19.743639
    3      -11.374764
    4       -9.782150
    5       -9.667187
    6       -8.542216
    7       -8.522947
    8       -7.480058
    9        2.505441
   10        2.555289
   11        3.371363
   12        3.795871
 
  0.4583333E+00  0.1666667E+00  0.0000000E+00  0.4629630E-02
    1      -20.467512
    2      -20.003026
    3      -10.937640
    4      -10.139657
    5       -9.418527
    6       -8.840589
    7       -8.305857
    8       -7.773726
    9        2.837842
   10        2.983092
   11        3.482496
   12        3.654697
 
  0.5000000E+00  0.1666667E+00  0.0000000E+00  0.2314815E-02
    1      -20.244437
    2      -20.244437
    3      -10.524779
    4      -10.524779
    5       -9.141835
    6       -9.141835
    7       -8.049386
    8       -8.049386
    9        3.146962
   10        3.146962
   11        3.449944
   12        3.449944
 