<?xml version="1.0" encoding="ISO-8859-1"?>
<modeling>
 <generator>
  <i name="program" type="string">vasp </i>
  <i name="version" type="string">5.3.5  </i>
  <i name="subversion" type="string">31Mar14 (build Mar 02 2015 18:14:16) complex                          parallel </i>
  <i name="platform" type="string">LinuxIFC </i>
  <i name="date" type="string">2018 08 08 </i>
  <i name="time" type="string">18:30:46 </i>
 </generator>
 <incar>
  <i type="string" name="SYSTEM">  gr</i>
  <i type="string" name="PREC">accurate : accuracy</i>
  <i type="string" name="ALGO"> FAST.</i>
  <i type="int" name="NELM">   100</i>
  <i type="int" name="NELMDL">    -3</i>
  <i type="int" name="NELMIN">     5</i>
  <i type="int" name="IBRION">     1</i>
  <i name="EDIFF">      0.00000000</i>
  <i name="EDIFFG">     -0.00000100</i>
  <i type="int" name="NSW">   400</i>
  <i type="int" name="ISIF">     2</i>
  <i name="ENCUT">   2000.00000000</i>
  <i type="int" name="ISMEAR">     0</i>
  <i name="SIGMA">      0.05000000</i>
  <i type="int" name="NWRITE">     2</i>
  <i type="logical" name="LWAVE"> F  </i>
  <i type="logical" name="LCHARG"> F  </i>
  <i type="int" name="NELM">   100</i>
 </incar>
 <kpoints>
  <generation param="Gamma">
   <v type="int" name="divisions">      24       36        1 </v>
   <v name="usershift">      0.00000000       0.00000000       0.00000000 </v>
   <v name="genvec1">      0.04166667       0.00000000       0.00000000 </v>
   <v name="genvec2">      0.00000000       0.02777778       0.00000000 </v>
   <v name="genvec3">      0.00000000       0.00000000       1.00000000 </v>
   <v name="shift">      0.00000000       0.00000000       0.00000000 </v>
  </generation>
  <varray name="kpointlist" >
   <v>       0.00000000       0.00000000       0.00000000 </v>
   <v>       0.04166667       0.00000000       0.00000000 </v>
   <v>       0.08333333       0.00000000       0.00000000 </v>
   <v>       0.12500000       0.00000000       0.00000000 </v>
   <v>       0.16666667       0.00000000       0.00000000 </v>
   <v>       0.20833333       0.00000000       0.00000000 </v>
   <v>       0.25000000       0.00000000       0.00000000 </v>
   <v>       0.29166667       0.00000000       0.00000000 </v>
   <v>       0.33333333       0.00000000       0.00000000 </v>
   <v>       0.37500000       0.00000000       0.00000000 </v>
   <v>       0.41666667       0.00000000       0.00000000 </v>
   <v>       0.45833333       0.00000000       0.00000000 </v>
   <v>       0.50000000       0.00000000       0.00000000 </v>
   <v>       0.00000000       0.02777778       0.00000000 </v>
   <v>       0.04166667       0.02777778       0.00000000 </v>
   <v>       0.08333333       0.02777778       0.00000000 </v>
   <v>       0.12500000       0.02777778       0.00000000 </v>
   <v>       0.16666667       0.02777778       0.00000000 </v>
   <v>       0.20833333       0.02777778       0.00000000 </v>
   <v>       0.25000000       0.02777778       0.00000000 </v>
   <v>       0.29166667       0.02777778       0.00000000 </v>
   <v>       0.33333333       0.02777778       0.00000000 </v>
   <v>       0.37500000       0.02777778       0.00000000 </v>
   <v>       0.41666667       0.02777778       0.00000000 </v>
   <v>       0.45833333       0.02777778       0.00000000 </v>
   <v>       0.50000000       0.02777778       0.00000000 </v>
   <v>       0.00000000       0.05555556       0.00000000 </v>
   <v>       0.04166667       0.05555556       0.00000000 </v>
   <v>       0.08333333       0.05555556       0.00000000 </v>
   <v>       0.12500000       0.05555556       0.00000000 </v>
   <v>       0.16666667       0.05555556       0.00000000 </v>
   <v>       0.20833333       0.05555556       0.00000000 </v>
   <v>       0.25000000       0.05555556       0.00000000 </v>
   <v>       0.29166667       0.05555556       0.00000000 </v>
   <v>       0.33333333       0.05555556       0.00000000 </v>
   <v>       0.37500000       0.05555556       0.00000000 </v>
   <v>       0.41666667       0.05555556       0.00000000 </v>
   <v>       0.45833333       0.05555556       0.00000000 </v>
   <v>       0.50000000       0.05555556       0.00000000 </v>
   <v>       0.00000000       0.08333333       0.00000000 </v>
   <v>       0.04166667       0.08333333       0.00000000 </v>
   <v>       0.08333333       0.08333333       0.00000000 </v>
   <v>       0.12500000       0.08333333       0.00000000 </v>
   <v>       0.16666667       0.08333333       0.00000000 </v>
   <v>       0.20833333       0.08333333       0.00000000 </v>
   <v>       0.25000000       0.08333333       0.00000000 </v>
   <v>       0.29166667       0.08333333       0.00000000 </v>
   <v>       0.33333333       0.08333333       0.00000000 </v>
   <v>       0.37500000       0.08333333       0.00000000 </v>
   <v>       0.41666667       0.08333333       0.00000000 </v>
   <v>       0.45833333       0.08333333       0.00000000 </v>
   <v>       0.50000000       0.08333333       0.00000000 </v>
   <v>       0.00000000       0.11111111       0.00000000 </v>
   <v>       0.04166667       0.11111111       0.00000000 </v>
   <v>       0.08333333       0.11111111       0.00000000 </v>
   <v>       0.12500000       0.11111111       0.00000000 </v>
   <v>       0.16666667       0.11111111       0.00000000 </v>
   <v>       0.20833333       0.11111111       0.00000000 </v>
   <v>       0.25000000       0.11111111       0.00000000 </v>
   <v>       0.29166667       0.11111111       0.00000000 </v>
   <v>       0.33333333       0.11111111       0.00000000 </v>
   <v>       0.37500000       0.11111111       0.00000000 </v>
   <v>       0.41666667       0.11111111       0.00000000 </v>
   <v>       0.45833333       0.11111111       0.00000000 </v>
   <v>       0.50000000       0.11111111       0.00000000 </v>
   <v>       0.00000000       0.13888889       0.00000000 </v>
   <v>       0.04166667       0.13888889       0.00000000 </v>
   <v>       0.08333333       0.13888889       0.00000000 </v>
   <v>       0.12500000       0.13888889       0.00000000 </v>
   <v>       0.16666667       0.13888889       0.00000000 </v>
   <v>       0.20833333       0.13888889       0.00000000 </v>
   <v>       0.25000000       0.13888889       0.00000000 </v>
   <v>       0.29166667       0.13888889       0.00000000 </v>
   <v>       0.33333333       0.13888889       0.00000000 </v>
   <v>       0.37500000       0.13888889       0.00000000 </v>
   <v>       0.41666667       0.13888889       0.00000000 </v>
   <v>       0.45833333       0.13888889       0.00000000 </v>
   <v>       0.50000000       0.13888889       0.00000000 </v>
   <v>       0.00000000       0.16666667       0.00000000 </v>
   <v>       0.04166667       0.16666667       0.00000000 </v>
   <v>       0.08333333       0.16666667       0.00000000 </v>
   <v>       0.12500000       0.16666667       0.00000000 </v>
   <v>       0.16666667       0.16666667       0.00000000 </v>
   <v>       0.20833333       0.16666667       0.00000000 </v>
   <v>       0.25000000       0.16666667       0.00000000 </v>
   <v>       0.29166667       0.16666667       0.00000000 </v>
   <v>       0.33333333       0.16666667       0.00000000 </v>
   <v>       0.37500000       0.16666667       0.00000000 </v>
   <v>       0.41666667       0.16666667       0.00000000 </v>
   <v>       0.45833333       0.16666667       0.00000000 </v>
   <v>       0.50000000       0.16666667       0.00000000 </v>
   <v>       0.00000000       0.19444444       0.00000000 </v>
   <v>       0.04166667       0.19444444       0.00000000 </v>
   <v>       0.08333333       0.19444444       0.00000000 </v>
   <v>       0.12500000       0.19444444       0.00000000 </v>
   <v>       0.16666667       0.19444444       0.00000000 </v>
   <v>       0.20833333       0.19444444       0.00000000 </v>
   <v>       0.25000000       0.19444444       0.00000000 </v>
   <v>       0.29166667       0.19444444       0.00000000 </v>
   <v>       0.33333333       0.19444444       0.00000000 </v>
   <v>       0.37500000       0.19444444       0.00000000 </v>
   <v>       0.41666667       0.19444444       0.00000000 </v>
   <v>       0.45833333       0.19444444       0.00000000 </v>
   <v>       0.50000000       0.19444444       0.00000000 </v>
   <v>       0.00000000       0.22222222       0.00000000 </v>
   <v>       0.04166667       0.22222222       0.00000000 </v>
   <v>       0.08333333       0.22222222       0.00000000 </v>
   <v>       0.12500000       0.22222222       0.00000000 </v>
   <v>       0.16666667       0.22222222       0.00000000 </v>
   <v>       0.20833333       0.22222222       0.00000000 </v>
   <v>       0.25000000       0.22222222       0.00000000 </v>
   <v>       0.29166667       0.22222222       0.00000000 </v>
   <v>       0.33333333       0.22222222       0.00000000 </v>
   <v>       0.37500000       0.22222222       0.00000000 </v>
   <v>       0.41666667       0.22222222       0.00000000 </v>
   <v>       0.45833333       0.22222222       0.00000000 </v>
   <v>       0.50000000       0.22222222       0.00000000 </v>
   <v>       0.00000000       0.25000000       0.00000000 </v>
   <v>       0.04166667       0.25000000       0.00000000 </v>
   <v>       0.08333333       0.25000000       0.00000000 </v>
   <v>       0.12500000       0.25000000       0.00000000 </v>
   <v>       0.16666667       0.25000000       0.00000000 </v>
   <v>       0.20833333       0.25000000       0.00000000 </v>
   <v>       0.25000000       0.25000000       0.00000000 </v>
   <v>       0.29166667       0.25000000       0.00000000 </v>
   <v>       0.33333333       0.25000000       0.00000000 </v>
   <v>       0.37500000       0.25000000       0.00000000 </v>
   <v>       0.41666667       0.25000000       0.00000000 </v>
   <v>       0.45833333       0.25000000       0.00000000 </v>
   <v>       0.50000000       0.25000000       0.00000000 </v>
   <v>       0.00000000       0.27777778       0.00000000 </v>
   <v>       0.04166667       0.27777778       0.00000000 </v>
   <v>       0.08333333       0.27777778       0.00000000 </v>
   <v>       0.12500000       0.27777778       0.00000000 </v>
   <v>       0.16666667       0.27777778       0.00000000 </v>
   <v>       0.20833333       0.27777778       0.00000000 </v>
   <v>       0.25000000       0.27777778       0.00000000 </v>
   <v>       0.29166667       0.27777778       0.00000000 </v>
   <v>       0.33333333       0.27777778       0.00000000 </v>
   <v>       0.37500000       0.27777778       0.00000000 </v>
   <v>       0.41666667       0.27777778       0.00000000 </v>
   <v>       0.45833333       0.27777778       0.00000000 </v>
   <v>       0.50000000       0.27777778       0.00000000 </v>
   <v>       0.00000000       0.30555556       0.00000000 </v>
   <v>       0.04166667       0.30555556       0.00000000 </v>
   <v>       0.08333333       0.30555556       0.00000000 </v>
   <v>       0.12500000       0.30555556       0.00000000 </v>
   <v>       0.16666667       0.30555556       0.00000000 </v>
   <v>       0.20833333       0.30555556       0.00000000 </v>
   <v>       0.25000000       0.30555556       0.00000000 </v>
   <v>       0.29166667       0.30555556       0.00000000 </v>
   <v>       0.33333333       0.30555556       0.00000000 </v>
   <v>       0.37500000       0.30555556       0.00000000 </v>
   <v>       0.41666667       0.30555556       0.00000000 </v>
   <v>       0.45833333       0.30555556       0.00000000 </v>
   <v>       0.50000000       0.30555556       0.00000000 </v>
   <v>       0.00000000       0.33333333       0.00000000 </v>
   <v>       0.04166667       0.33333333       0.00000000 </v>
   <v>       0.08333333       0.33333333       0.00000000 </v>
   <v>       0.12500000       0.33333333       0.00000000 </v>
   <v>       0.16666667       0.33333333       0.00000000 </v>
   <v>       0.20833333       0.33333333       0.00000000 </v>
   <v>       0.25000000       0.33333333       0.00000000 </v>
   <v>       0.29166667       0.33333333       0.00000000 </v>
   <v>       0.33333333       0.33333333       0.00000000 </v>
   <v>       0.37500000       0.33333333       0.00000000 </v>
   <v>       0.41666667       0.33333333       0.00000000 </v>
   <v>       0.45833333       0.33333333       0.00000000 </v>
   <v>       0.50000000       0.33333333       0.00000000 </v>
   <v>       0.00000000       0.36111111       0.00000000 </v>
   <v>       0.04166667       0.36111111       0.00000000 </v>
   <v>       0.08333333       0.36111111       0.00000000 </v>
   <v>       0.12500000       0.36111111       0.00000000 </v>
   <v>       0.16666667       0.36111111       0.00000000 </v>
   <v>       0.20833333       0.36111111       0.00000000 </v>
   <v>       0.25000000       0.36111111       0.00000000 </v>
   <v>       0.29166667       0.36111111       0.00000000 </v>
   <v>       0.33333333       0.36111111       0.00000000 </v>
   <v>       0.37500000       0.36111111       0.00000000 </v>
   <v>       0.41666667       0.36111111       0.00000000 </v>
   <v>       0.45833333       0.36111111       0.00000000 </v>
   <v>       0.50000000       0.36111111       0.00000000 </v>
   <v>       0.00000000       0.38888889       0.00000000 </v>
   <v>       0.04166667       0.38888889       0.00000000 </v>
   <v>       0.08333333       0.38888889       0.00000000 </v>
   <v>       0.12500000       0.38888889       0.00000000 </v>
   <v>       0.16666667       0.38888889       0.00000000 </v>
   <v>       0.20833333       0.38888889       0.00000000 </v>
   <v>       0.25000000       0.38888889       0.00000000 </v>
   <v>       0.29166667       0.38888889       0.00000000 </v>
   <v>       0.33333333       0.38888889       0.00000000 </v>
   <v>       0.37500000       0.38888889       0.00000000 </v>
   <v>       0.41666667       0.38888889       0.00000000 </v>
   <v>       0.45833333       0.38888889       0.00000000 </v>
   <v>       0.50000000       0.38888889       0.00000000 </v>
   <v>       0.00000000       0.41666667       0.00000000 </v>
   <v>       0.04166667       0.41666667       0.00000000 </v>
   <v>       0.08333333       0.41666667       0.00000000 </v>
   <v>       0.12500000       0.41666667       0.00000000 </v>
   <v>       0.16666667       0.41666667       0.00000000 </v>
   <v>       0.20833333       0.41666667       0.00000000 </v>
   <v>       0.25000000       0.41666667       0.00000000 </v>
   <v>       0.29166667       0.41666667       0.00000000 </v>
   <v>       0.33333333       0.41666667       0.00000000 </v>
   <v>       0.37500000       0.41666667       0.00000000 </v>
   <v>       0.41666667       0.41666667       0.00000000 </v>
   <v>       0.45833333       0.41666667       0.00000000 </v>
   <v>       0.50000000       0.41666667       0.00000000 </v>
   <v>       0.00000000       0.44444444       0.00000000 </v>
   <v>       0.04166667       0.44444444       0.00000000 </v>
   <v>       0.08333333       0.44444444       0.00000000 </v>
   <v>       0.12500000       0.44444444       0.00000000 </v>
   <v>       0.16666667       0.44444444       0.00000000 </v>
   <v>       0.20833333       0.44444444       0.00000000 </v>
   <v>       0.25000000       0.44444444       0.00000000 </v>
   <v>       0.29166667       0.44444444       0.00000000 </v>
   <v>       0.33333333       0.44444444       0.00000000 </v>
   <v>       0.37500000       0.44444444       0.00000000 </v>
   <v>       0.41666667       0.44444444       0.00000000 </v>
   <v>       0.45833333       0.44444444       0.00000000 </v>
   <v>       0.50000000       0.44444444       0.00000000 </v>
   <v>       0.00000000       0.47222222       0.00000000 </v>
   <v>       0.04166667       0.47222222       0.00000000 </v>
   <v>       0.08333333       0.47222222       0.00000000 </v>
   <v>       0.12500000       0.47222222       0.00000000 </v>
   <v>       0.16666667       0.47222222       0.00000000 </v>
   <v>       0.20833333       0.47222222       0.00000000 </v>
   <v>       0.25000000       0.47222222       0.00000000 </v>
   <v>       0.29166667       0.47222222       0.00000000 </v>
   <v>       0.33333333       0.47222222       0.00000000 </v>
   <v>       0.37500000       0.47222222       0.00000000 </v>
   <v>       0.41666667       0.47222222       0.00000000 </v>
   <v>       0.45833333       0.47222222       0.00000000 </v>
   <v>       0.50000000       0.47222222       0.00000000 </v>
   <v>       0.00000000       0.50000000       0.00000000 </v>
   <v>       0.04166667       0.50000000       0.00000000 </v>
   <v>       0.08333333       0.50000000       0.00000000 </v>
   <v>       0.12500000       0.50000000       0.00000000 </v>
   <v>       0.16666667       0.50000000       0.00000000 </v>
   <v>       0.20833333       0.50000000       0.00000000 </v>
   <v>       0.25000000       0.50000000       0.00000000 </v>
   <v>       0.29166667       0.50000000       0.00000000 </v>
   <v>       0.33333333       0.50000000       0.00000000 </v>
   <v>       0.37500000       0.50000000       0.00000000 </v>
   <v>       0.41666667       0.50000000       0.00000000 </v>
   <v>       0.45833333       0.50000000       0.00000000 </v>
   <v>       0.50000000       0.50000000       0.00000000 </v>
  </varray>
  <varray name="weights" >
   <v>       0.00115741 </v>
   <v>       0.00231481 </v>
   <v>       0.00231481 </v>
   <v>       0.00231481 </v>
   <v>       0.00231481 </v>
   <v>       0.00231481 </v>
   <v>       0.00231481 </v>
   <v>       0.00231481 </v>
   <v>       0.00231481 </v>
   <v>       0.00231481 </v>
   <v>       0.00231481 </v>
   <v>       0.00231481 </v>
   <v>       0.00115741 </v>
   <v>       0.00231481 </v>
   <v>       0.00462963 </v>
   <v>       0.00462963 </v>
   <v>       0.00462963 </v>
   <v>       0.00462963 </v>
   <v>       0.00462963 </v>
   <v>       0.00462963 </v>
   <v>       0.00462963 </v>
   <v>       0.00462963 </v>
   <v>       0.00462963 </v>
   <v>       0.00462963 </v>
   <v>       0.00462963 </v>
   <v>       0.00231481 </v>
   <v>       0.00231481 </v>
   <v>       0.00462963 </v>
   <v>       0.00462963 </v>
   <v>       0.00462963 </v>
   <v>       0.00462963 </v>
   <v>       0.00462963 </v>
   <v>       0.00462963 </v>
   <v>       0.00462963 </v>
   <v>       0.00462963 </v>
   <v>       0.00462963 </v>
   <v>       0.00462963 </v>
   <v>       0.00462963 </v>
   <v>       0.00231481 </v>
   <v>       0.00231481 </v>
   <v>       0.00462963 </v>
   <v>       0.00462963 </v>
   <v>       0.00462963 </v>
   <v>       0.00462963 </v>
   <v>       0.00462963 </v>
   <v>       0.00462963 </v>
   <v>       0.00462963 </v>
   <v>       0.00462963 </v>
   <v>       0.00462963 </v>
   <v>       0.00462963 </v>
   <v>       0.00462963 </v>
   <v>       0.00231481 </v>
   <v>       0.00231481 </v>
   <v>       0.00462963 </v>
   <v>       0.00462963 </v>
   <v>       0.00462963 </v>
   <v>       0.00462963 </v>
   <v>       0.00462963 </v>
   <v>       0.00462963 </v>
   <v>       0.00462963 </v>
   <v>       0.00462963 </v>
   <v>       0.00462963 </v>
   <v>       0.00462963 </v>
   <v>       0.00462963 </v>
   <v>       0.00231481 </v>
   <v>       0.00231481 </v>
   <v>       0.00462963 </v>
   <v>       0.00462963 </v>
   <v>       0.00462963 </v>
   <v>       0.00462963 </v>
   <v>       0.00462963 </v>
   <v>       0.00462963 </v>
   <v>       0.00462963 </v>
   <v>       0.00462963 </v>
   <v>       0.00462963 </v>
   <v>       0.00462963 </v>
   <v>       0.00462963 </v>
   <v>       0.00231481 </v>
   <v>       0.00231481 </v>
   <v>       0.00462963 </v>
   <v>       0.00462963 </v>
   <v>       0.00462963 </v>
   <v>       0.00462963 </v>
   <v>       0.00462963 </v>
   <v>       0.00462963 </v>
   <v>       0.00462963 </v>
   <v>       0.00462963 </v>
   <v>       0.00462963 </v>
   <v>       0.00462963 </v>
   <v>       0.00462963 </v>
   <v>       0.00231481 </v>
   <v>       0.00231481 </v>
   <v>       0.00462963 </v>
   <v>       0.00462963 </v>
   <v>       0.00462963 </v>
   <v>       0.00462963 </v>
   <v>       0.00462963 </v>
   <v>       0.00462963 </v>
   <v>       0.00462963 </v>
   <v>       0.00462963 </v>
   <v>       0.00462963 </v>
   <v>       0.00462963 </v>
   <v>       0.00462963 </v>
   <v>       0.00231481 </v>
   <v>       0.00231481 </v>
   <v>       0.00462963 </v>
   <v>       0.00462963 </v>
   <v>       0.00462963 </v>
   <v>       0.00462963 </v>
   <v>       0.00462963 </v>
   <v>       0.00462963 </v>
   <v>       0.00462963 </v>
   <v>       0.00462963 </v>
   <v>       0.00462963 </v>
   <v>       0.00462963 </v>
   <v>       0.00462963 </v>
   <v>       0.00231481 </v>
   <v>       0.00231481 </v>
   <v>       0.00462963 </v>
   <v>       0.00462963 </v>
   <v>       0.00462963 </v>
   <v>       0.00462963 </v>
   <v>       0.00462963 </v>
   <v>       0.00462963 </v>
   <v>       0.00462963 </v>
   <v>       0.00462963 </v>
   <v>       0.00462963 </v>
   <v>       0.00462963 </v>
   <v>       0.00462963 </v>
   <v>       0.00231481 </v>
   <v>       0.00231481 </v>
   <v>       0.00462963 </v>
   <v>       0.00462963 </v>
   <v>       0.00462963 </v>
   <v>       0.00462963 </v>
   <v>       0.00462963 </v>
   <v>       0.00462963 </v>
   <v>       0.00462963 </v>
   <v>       0.00462963 </v>
   <v>       0.00462963 </v>
   <v>       0.00462963 </v>
   <v>       0.00462963 </v>
   <v>       0.00231481 </v>
   <v>       0.00231481 </v>
   <v>       0.00462963 </v>
   <v>       0.00462963 </v>
   <v>       0.00462963 </v>
   <v>       0.00462963 </v>
   <v>       0.00462963 </v>
   <v>       0.00462963 </v>
   <v>       0.00462963 </v>
   <v>       0.00462963 </v>
   <v>       0.00462963 </v>
   <v>       0.00462963 </v>
   <v>       0.00462963 </v>
   <v>       0.00231481 </v>
   <v>       0.00231481 </v>
   <v>       0.00462963 </v>
   <v>       0.00462963 </v>
   <v>       0.00462963 </v>
   <v>       0.00462963 </v>
   <v>       0.00462963 </v>
   <v>       0.00462963 </v>
   <v>       0.00462963 </v>
   <v>       0.00462963 </v>
   <v>       0.00462963 </v>
   <v>       0.00462963 </v>
   <v>       0.00462963 </v>
   <v>       0.00231481 </v>
   <v>       0.00231481 </v>
   <v>       0.00462963 </v>
   <v>       0.00462963 </v>
   <v>       0.00462963 </v>
   <v>       0.00462963 </v>
   <v>       0.00462963 </v>
   <v>       0.00462963 </v>
   <v>       0.00462963 </v>
   <v>       0.00462963 </v>
   <v>       0.00462963 </v>
   <v>       0.00462963 </v>
   <v>       0.00462963 </v>
   <v>       0.00231481 </v>
   <v>       0.00231481 </v>
   <v>       0.00462963 </v>
   <v>       0.00462963 </v>
   <v>       0.00462963 </v>
   <v>       0.00462963 </v>
   <v>       0.00462963 </v>
   <v>       0.00462963 </v>
   <v>       0.00462963 </v>
   <v>       0.00462963 </v>
   <v>       0.00462963 </v>
   <v>       0.00462963 </v>
   <v>       0.00462963 </v>
   <v>       0.00231481 </v>
   <v>       0.00231481 </v>
   <v>       0.00462963 </v>
   <v>       0.00462963 </v>
   <v>       0.00462963 </v>
   <v>       0.00462963 </v>
   <v>       0.00462963 </v>
   <v>       0.00462963 </v>
   <v>       0.00462963 </v>
   <v>       0.00462963 </v>
   <v>       0.00462963 </v>
   <v>       0.00462963 </v>
   <v>       0.00462963 </v>
   <v>       0.00231481 </v>
   <v>       0.00231481 </v>
   <v>       0.00462963 </v>
   <v>       0.00462963 </v>
   <v>       0.00462963 </v>
   <v>       0.00462963 </v>
   <v>       0.00462963 </v>
   <v>       0.00462963 </v>
   <v>       0.00462963 </v>
   <v>       0.00462963 </v>
   <v>       0.00462963 </v>
   <v>       0.00462963 </v>
   <v>       0.00462963 </v>
   <v>       0.00231481 </v>
   <v>       0.00231481 </v>
   <v>       0.00462963 </v>
   <v>       0.00462963 </v>
   <v>       0.00462963 </v>
   <v>       0.00462963 </v>
   <v>       0.00462963 </v>
   <v>       0.00462963 </v>
   <v>       0.00462963 </v>
   <v>       0.00462963 </v>
   <v>       0.00462963 </v>
   <v>       0.00462963 </v>
   <v>       0.00462963 </v>
   <v>       0.00231481 </v>
   <v>       0.00115741 </v>
   <v>       0.00231481 </v>
   <v>       0.00231481 </v>
   <v>       0.00231481 </v>
   <v>       0.00231481 </v>
   <v>       0.00231481 </v>
   <v>       0.00231481 </v>
   <v>       0.00231481 </v>
   <v>       0.00231481 </v>
   <v>       0.00231481 </v>
   <v>       0.00231481 </v>
   <v>       0.00231481 </v>
   <v>       0.00115741 </v>
  </varray>
 </kpoints>
 <parameters>
  <separator name="general" >
   <i type="string" name="SYSTEM">gr</i>
   <i type="logical" name="LCOMPAT"> F  </i>
  </separator>
  <separator name="electronic" >
   <i type="string" name="PREC">accura</i>
   <i name="ENMAX">   2000.00000000</i>
   <i name="ENAUG">    644.87300000</i>
   <i name="EDIFF">      0.00000000</i>
   <i type="int" name="IALGO">    68</i>
   <i type="int" name="IWAVPR">    11</i>
   <i type="int" name="NBANDS">    12</i>
   <i name="NELECT">     16.00000000</i>
   <i type="int" name="TURBO">     0</i>
   <i type="int" name="IRESTART">     0</i>
   <i type="int" name="NREBOOT">     0</i>
   <i type="int" name="NMIN">     0</i>
   <i name="EREF">      0.00000000</i>
   <separator name="electronic smearing" >
    <i type="int" name="ISMEAR">     0</i>
    <i name="SIGMA">      0.05000000</i>
    <i name="KSPACING">      0.50000000</i>
    <i type="logical" name="KGAMMA"> T  </i>
   </separator>
   <separator name="electronic projectors" >
    <i type="logical" name="LREAL"> F  </i>
    <v name="ROPT">      0.00000000</v>
    <i type="int" name="LMAXPAW">  -100</i>
    <i type="int" name="LMAXMIX">     2</i>
    <i type="logical" name="NLSPLINE"> F  </i>
   </separator>
   <separator name="electronic startup" >
    <i type="int" name="ISTART">     0</i>
    <i type="int" name="ICHARG">     2</i>
    <i type="int" name="INIWAV">     1</i>
   </separator>
   <separator name="electronic spin" >
    <i type="int" name="ISPIN">     1</i>
    <i type="logical" name="LNONCOLLINEAR"> F  </i>
    <v name="MAGMOM">      1.00000000      1.00000000      1.00000000      1.00000000</v>
    <i name="NUPDOWN">     -1.00000000</i>
    <i type="logical" name="LSORBIT"> F  </i>
    <v name="SAXIS">      0.00000000      0.00000000      1.00000000</v>
    <i type="logical" name="LSPIRAL"> F  </i>
    <v name="QSPIRAL">      0.00000000      0.00000000      0.00000000</v>
    <i type="logical" name="LZEROZ"> F  </i>
   </separator>
   <separator name="electronic exchange-correlation" >
    <i type="logical" name="LASPH"> F  </i>
    <i type="logical" name="LMETAGGA"> F  </i>
   </separator>
   <separator name="electronic convergence" >
    <i type="int" name="NELM">   100</i>
    <i type="int" name="NELMDL">    -3</i>
    <i type="int" name="NELMIN">     5</i>
    <i name="ENINI">   2000.00000000</i>
    <separator name="electronic convergence detail" >
     <i type="logical" name="LDIAG"> T  </i>
     <i type="logical" name="LSUBROT"> F  </i>
     <i name="WEIMIN">      0.00100000</i>
     <i name="EBREAK">      0.00000000</i>
     <i name="DEPER">      0.30000000</i>
     <i type="int" name="NRMM">     4</i>
     <i name="TIME">      0.40000000</i>
    </separator>
   </separator>
   <separator name="electronic mixer" >
    <i name="AMIX">      0.40000000</i>
    <i name="BMIX">      1.00000000</i>
    <i name="AMIN">      0.10000000</i>
    <i name="AMIX_MAG">      1.60000000</i>
    <i name="BMIX_MAG">      1.00000000</i>
    <separator name="electronic mixer details" >
     <i type="int" name="IMIX">     4</i>
     <i type="int" name="MAXMIX">   -45</i>
     <i name="WC">    100.00000000</i>
     <i type="int" name="INIMIX">     1</i>
     <i type="int" name="MIXPRE">     1</i>
     <i type="int" name="MREMOVE">     5</i>
    </separator>
   </separator>
   <separator name="electronic dipolcorrection" >
    <i type="logical" name="LDIPOL"> F  </i>
    <i type="logical" name="LMONO"> F  </i>
    <i type="int" name="IDIPOL">     0</i>
    <i name="EPSILON">      1.00000000</i>
    <v name="DIPOL">   -100.00000000   -100.00000000   -100.00000000</v>
    <i name="EFIELD">      0.00000000</i>
   </separator>
  </separator>
  <separator name="grids" >
   <i type="int" name="NGX">    64</i>
   <i type="int" name="NGY">    36</i>
   <i type="int" name="NGZ">   288</i>
   <i type="int" name="NGXF">   128</i>
   <i type="int" name="NGYF">    72</i>
   <i type="int" name="NGZF">   576</i>
   <i type="logical" name="ADDGRID"> F  </i>
  </separator>
  <separator name="ionic" >
   <i type="int" name="NSW">   400</i>
   <i type="int" name="IBRION">     1</i>
   <i type="int" name="ISIF">     2</i>
   <i name="PSTRESS">      0.00000000</i>
   <i name="EDIFFG">     -0.00000100</i>
   <i type="int" name="NFREE">     0</i>
   <i name="POTIM">      0.50000000</i>
   <i name="SMASS">     -3.00000000</i>
   <i name="SCALEE">      1.00000000</i>
  </separator>
  <separator name="ionic md" >
   <i name="TEBEG">      0.00010000</i>
   <i name="TEEND">      0.00010000</i>
   <i type="int" name="NBLOCK">     1</i>
   <i type="int" name="KBLOCK">   400</i>
   <i type="int" name="NPACO">   256</i>
   <i name="APACO">     16.00000000</i>
  </separator>
  <separator name="symmetry" >
   <i type="int" name="ISYM">     2</i>
   <i name="SYMPREC">      0.00001000</i>
  </separator>
  <separator name="dos" >
   <i type="logical" name="LORBIT"> F  </i>
   <v name="RWIGS">     -1.00000000</v>
   <i type="int" name="NEDOS">   301</i>
   <i name="EMIN">     10.00000000</i>
   <i name="EMAX">    -10.00000000</i>
   <i name="EFERMI">      0.00000000</i>
  </separator>
  <separator name="writing" >
   <i type="int" name="NWRITE">     2</i>
   <i type="logical" name="LWAVE"> F  </i>
   <i type="logical" name="LCHARG"> F  </i>
   <i type="logical" name="LPARD"> F  </i>
   <i type="logical" name="LVTOT"> F  </i>
   <i type="logical" name="LVHAR"> F  </i>
   <i type="logical" name="LELF"> F  </i>
   <i type="logical" name="LOPTICS"> F  </i>
   <v name="STM">      0.00000000      0.00000000      0.00000000      0.00000000      0.00000000      0.00000000      0.00000000</v>
  </separator>
  <separator name="performance" >
   <i type="int" name="NPAR">     4</i>
   <i type="int" name="NSIM">     4</i>
   <i type="int" name="NBLK">    -1</i>
   <i type="logical" name="LPLANE"> T  </i>
   <i type="logical" name="LSCALAPACK"> F  </i>
   <i type="logical" name="LSCAAWARE"> F  </i>
   <i type="logical" name="LSCALU"> F  </i>
   <i type="logical" name="LASYNC"> F  </i>
   <i type="logical" name="LORBITALREAL"> F  </i>
  </separator>
  <separator name="miscellaneous" >
   <i type="int" name="IDIOT">     3</i>
   <i type="logical" name="LMUSIC"> F  </i>
   <v name="POMASS">     12.01100000</v>
   <v name="DARWINR">      0.00000000</v>
   <v name="DARWINV">      1.00000000</v>
   <i type="logical" name="LCORR"> T  </i>
  </separator>
  <i type="logical" name="GGA_COMPAT"> T  </i>
  <i type="logical" name="LBERRY"> F  </i>
  <i type="int" name="ICORELEVEL">     0</i>
  <i type="logical" name="LDAU"> F  </i>
  <i type="int" name="I_CONSTRAINED_M">     0</i>
  <separator name="electronic exchange-correlation" >
   <i type="string" name="GGA">--</i>
   <i type="int" name="VOSKOWN">     0</i>
   <i type="logical" name="LHFCALC"> F  </i>
   <i type="string" name="PRECFOCK"></i>
   <i type="logical" name="LSYMGRAD"> F  </i>
   <i type="logical" name="LHFONE"> F  </i>
   <i type="logical" name="LRHFCALC"> F  </i>
   <i type="logical" name="LTHOMAS"> F  </i>
   <i type="logical" name="LMODELHF"> F  </i>
   <i name="ENCUT4O">     -1.00000000</i>
   <i type="int" name="EXXOEP">     0</i>
   <i type="int" name="FOURORBIT">     0</i>
   <i name="AEXX">      0.00000000</i>
   <i name="HFALPHA">      0.00000000</i>
   <i name="MCALPHA">      0.00000000</i>
   <i name="ALDAX">      1.00000000</i>
   <i name="AGGAX">      1.00000000</i>
   <i name="ALDAC">      1.00000000</i>
   <i name="AGGAC">      1.00000000</i>
   <i type="int" name="NKREDX">     1</i>
   <i type="int" name="NKREDY">     1</i>
   <i type="int" name="NKREDZ">     1</i>
   <i type="logical" name="SHIFTRED"> F  </i>
   <i type="logical" name="ODDONLY"> F  </i>
   <i type="logical" name="EVENONLY"> F  </i>
   <i type="int" name="LMAXFOCK">     0</i>
   <i type="int" name="NMAXFOCKAE">     0</i>
   <i type="logical" name="LFOCKAEDFT"> F  </i>
   <i name="HFSCREEN">      0.00000000</i>
   <i name="HFSCREENC">      0.00000000</i>
   <i type="int" name="NBANDSGWLOW">     0</i>
  </separator>
  <separator name="vdW DFT" >
   <i type="logical" name="LUSE_VDW"> F  </i>
   <i name="Zab_VDW">     -0.84910000</i>
   <i name="PARAM1">      0.12340000</i>
   <i name="PARAM2">      1.00000000</i>
   <i name="PARAM3">      0.00000000</i>
  </separator>
  <separator name="model GW" >
   <i type="int" name="MODEL_GW">     0</i>
   <i name="MODEL_EPS0">     31.62568521</i>
   <i name="MODEL_ALPHA">      1.00000000</i>
  </separator>
  <separator name="linear response parameters" >
   <i type="logical" name="LEPSILON"> F  </i>
   <i type="logical" name="LRPA"> F  </i>
   <i type="logical" name="LNABLA"> F  </i>
   <i type="logical" name="LVEL"> F  </i>
   <i type="int" name="KINTER">     0</i>
   <i name="CSHIFT">      0.10000000</i>
   <i name="OMEGAMAX">     -1.00000000</i>
   <i name="DEG_THRESHOLD">      0.00200000</i>
  </separator>
  <separator name="orbital magnetization" >
   <i type="logical" name="NUCIND"> F  </i>
   <v name="MAGPOS">      0.00000000      0.00000000      0.00000000</v>
   <i type="logical" name="LNICSALL"> T  </i>
   <i type="logical" name="ORBITALMAG"> F  </i>
   <i type="logical" name="LMAGBLOCH"> F  </i>
   <i type="logical" name="LCHIMAG"> F  </i>
   <i type="logical" name="LGAUGE"> T  </i>
   <i type="int" name="MAGATOM">     0</i>
   <v name="MAGDIPOL">      0.00000000      0.00000000      0.00000000</v>
   <v name="AVECCONST">      0.00000000      0.00000000      0.00000000</v>
  </separator>
  <separator name="response functions" >
   <i type="logical" name="LADDER"> F  </i>
   <i type="logical" name="LFXC"> F  </i>
   <i type="logical" name="LHARTREE"> T  </i>
   <i type="int" name="IBSE">     0</i>
   <i type="logical" name="LTCTE"> F  </i>
   <i type="logical" name="LTETE"> F  </i>
   <i type="logical" name="LTRIPLET"> F  </i>
   <i type="logical" name="LFXCEPS"> F  </i>
   <i type="logical" name="LFXHEG"> F  </i>
   <i type="logical" name="L2ORDER"> F  </i>
   <i type="logical" name="LUSEW"> F  </i>
   <i name="ENCUTGW">     -2.00000000</i>
   <i name="ENCUTGWSOFT">     -2.00000000</i>
   <i name="ENCUTLF">     -1.00000000</i>
   <i type="int" name="LMAXMP2">    -1</i>
   <i name="SCISSOR">      0.00000000</i>
   <i type="int" name="NOMEGA">     0</i>
   <i type="int" name="NOMEGAR">     0</i>
   <i type="int" name="NBANDSGW">    -1</i>
   <i type="int" name="NBANDSO">    -1</i>
   <i type="int" name="NBANDSV">    -1</i>
   <i type="int" name="NELM">   100</i>
   <i type="int" name="DIM">     3</i>
   <i type="int" name="ANTIRES">     0</i>
   <i name="OMEGAMAX">    -30.00000000</i>
   <i name="OMEGAMIN">    -30.00000000</i>
   <i name="OMEGATL">   -200.00000000</i>
   <i type="int" name="OMEGAGRID">     0</i>
   <i name="CSHIFT">     -0.10000000</i>
   <i type="logical" name="SELFENERGY"> F  </i>
   <i type="logical" name="LSPECTRAL"> F  </i>
   <i type="logical" name="ODDONLYGW"> F  </i>
   <i type="logical" name="EVENONLYGW"> F  </i>
   <i type="int" name="NKREDLFX">     1</i>
   <i type="int" name="NKREDLFY">     1</i>
   <i type="int" name="NKREDLFZ">     1</i>
   <i type="int" name="MAXMEM">  1800</i>
   <i type="int" name="TELESCOPE">     0</i>
   <i type="int" name="TAUPAR">     1</i>
  </separator>
  <separator name="External order field" >
   <i name="OFIELD_KAPPA">      0.00000000</i>
   <v name="OFIELD_K">      0.00000000      0.00000000      0.00000000</v>
   <i name="OFIELD_Q6_NEAR">      0.00000000</i>
   <i name="OFIELD_Q6_FAR">      0.00000000</i>
   <i name="OFIELD_A">      0.00000000</i>
  </separator>
 </parameters>
 <atominfo>
  <atoms>       4 </atoms>
  <types>       1 </types>
  <array name="atoms" >
   <dimension dim="1">ion</dimension>
   <field type="string">element</field>
   <field type="int">atomtype</field>
   <set>
    <rc><c>C </c><c>   1</c></rc>
    <rc><c>C </c><c>   1</c></rc>
    <rc><c>C </c><c>   1</c></rc>
    <rc><c>C </c><c>   1</c></rc>
   </set>
  </array>
  <array name="atomtypes" >
   <dimension dim="1">type</dimension>
   <field type="int">atomspertype</field>
   <field type="string">element</field>
   <field>mass</field>
   <field>valence</field>
   <field type="string">pseudopotential</field>
   <set>
    <rc><c>   4</c><c>C </c><c>     12.01100000</c><c>      4.00000000</c><c> PAW_PBE C 08Apr2002                    </c></rc>
   </set>
  </array>
 </atominfo>
 <structure name="initialpos" >
  <crystal>
   <varray name="basis" >
    <v>       4.33800119       0.00000000       0.00000000 </v>
    <v>       0.00000000       2.46080783       0.00000000 </v>
    <v>       0.00000000       0.00000000      19.75064654 </v>
   </varray>
   <i name="volume">    210.83790140 </i>
   <varray name="rec_basis" >
    <v>       0.23052091       0.00000000       0.00000000 </v>
    <v>       0.00000000       0.40637062       0.00000000 </v>
    <v>       0.00000000       0.00000000       0.05063125 </v>
   </varray>
  </crystal>
  <varray name="positions" >
   <v>       0.99964215       0.00000000       0.00000000 </v>
   <v>       0.16702452       0.50000000       0.00000000 </v>
   <v>       0.49964215       0.50000000       0.00000000 </v>
   <v>       0.66702452       0.00000000       0.00000000 </v>
  </varray>
 </structure>
 <calculation>
  <scstep>
   <time name="dav">  292.09  294.05</time>
   <time name="total">  294.47  300.91</time>
   <energy>
    <i name="alphaZ">      6.18334092 </i>
    <i name="ewald">   2502.84486630 </i>
    <i name="hartreedc">  -2930.73920829 </i>
    <i name="XCdc">     54.92715210 </i>
    <i name="pawpsdc">    151.32577238 </i>
    <i name="pawaedc">   -155.92769107 </i>
    <i name="eentropy">     -0.00145502 </i>
    <i name="bandstr">    -29.84219613 </i>
    <i name="atom">    588.62352690 </i>
    <i name="e_fr_energy">    187.39410810 </i>
    <i name="e_wo_entrp">    187.39556312 </i>
    <i name="e_0_energy">    187.39483561 </i>
   </energy>
  </scstep>
  <scstep>
   <time name="dav">  440.71  444.69</time>
   <time name="total">  440.72  444.70</time>
   <energy>
    <i name="e_fr_energy">     -9.07971163 </i>
    <i name="e_wo_entrp">     -9.07938531 </i>
    <i name="e_0_energy">     -9.07954847 </i>
   </energy>
  </scstep>
  <scstep>
   <time name="dav">  340.76  343.77</time>
   <time name="total">  370.55  373.93</time>
   <energy>
    <i name="e_fr_energy">    -38.24395789 </i>
    <i name="e_wo_entrp">    -38.24392871 </i>
    <i name="e_0_energy">    -38.24394330 </i>
   </energy>
  </scstep>
  <scstep>
   <time name="diag">   78.21   78.74</time>
   <time name="diis">  329.03  329.45</time>
   <time name="orth">    3.08    3.08</time>
   <time name="total">  442.61  443.60</time>
   <energy>
    <i name="e_fr_energy">    -37.64348282 </i>
    <i name="e_wo_entrp">    -37.64347158 </i>
    <i name="e_0_energy">    -37.64347720 </i>
   </energy>
  </scstep>
  <scstep>
   <time name="diag">   78.59   78.69</time>
   <time name="diis">  327.08  327.41</time>
   <time name="orth">    3.09    3.10</time>
   <time name="total">  441.07  441.55</time>
   <energy>
    <i name="e_fr_energy">    -36.91074673 </i>
    <i name="e_wo_entrp">    -36.91074075 </i>
    <i name="e_0_energy">    -36.91074374 </i>
   </energy>
  </scstep>
  <scstep>
   <time name="diag">   78.52   78.66</time>
   <time name="diis">  355.94  356.31</time>
   <time name="orth">    3.09    3.10</time>
   <time name="total">  469.79  470.41</time>
   <energy>
    <i name="e_fr_energy">    -36.91210895 </i>
    <i name="e_wo_entrp">    -36.91210391 </i>
    <i name="e_0_energy">    -36.91210643 </i>
   </energy>
  </scstep>
  <scstep>
   <time name="diag">   78.62   78.68</time>
   <time name="diis">  326.59  327.50</time>
   <time name="orth">    3.08    3.08</time>
   <time name="total">  440.40  441.59</time>
   <energy>
    <i name="e_fr_energy">    -36.90307488 </i>
    <i name="e_wo_entrp">    -36.90307057 </i>
    <i name="e_0_energy">    -36.90307273 </i>
   </energy>
  </scstep>
  <scstep>
   <time name="diag">   78.17   78.71</time>
   <time name="diis">  325.03  327.75</time>
   <time name="orth">    3.08    3.10</time>
   <time name="total">  438.51  441.99</time>
   <energy>
    <i name="e_fr_energy">    -36.89779749 </i>
    <i name="e_wo_entrp">    -36.89779298 </i>
    <i name="e_0_energy">    -36.89779523 </i>
   </energy>
  </scstep>
  <scstep>
   <time name="diag">   78.31   78.81</time>
   <time name="diis">  315.92  318.69</time>
   <time name="orth">    3.08    3.08</time>
   <time name="total">  429.46  433.12</time>
   <energy>
    <i name="e_fr_energy">    -36.89745796 </i>
    <i name="e_wo_entrp">    -36.89745309 </i>
    <i name="e_0_energy">    -36.89745553 </i>
   </energy>
  </scstep>
  <scstep>
   <time name="diag">   78.17   78.77</time>
   <time name="diis">  316.26  319.63</time>
   <time name="orth">    3.08    3.10</time>
   <time name="total">  429.70  433.92</time>
   <energy>
    <i name="e_fr_energy">    -36.89733462 </i>
    <i name="e_wo_entrp">    -36.89732996 </i>
    <i name="e_0_energy">    -36.89733229 </i>
   </energy>
  </scstep>
  <scstep>
   <time name="diag">   78.45   78.77</time>
   <time name="diis">  318.79  321.24</time>
   <time name="orth">    3.10    3.10</time>
   <time name="total">  432.49  435.55</time>
   <energy>
    <i name="e_fr_energy">    -36.89976200 </i>
    <i name="e_wo_entrp">    -36.89975743 </i>
    <i name="e_0_energy">    -36.89975971 </i>
   </energy>
  </scstep>
  <scstep>
   <time name="diag">   78.21   78.80</time>
   <time name="diis">  318.31  320.97</time>
   <time name="orth">    3.08    3.08</time>
   <time name="total">  431.71  435.56</time>
   <energy>
    <i name="e_fr_energy">    -36.90021691 </i>
    <i name="e_wo_entrp">    -36.90021226 </i>
    <i name="e_0_energy">    -36.90021458 </i>
   </energy>
  </scstep>
  <scstep>
   <time name="diag">   78.47   78.74</time>
   <time name="diis">  325.17  326.02</time>
   <time name="orth">    3.08    3.08</time>
   <time name="total">  438.91  440.25</time>
   <energy>
    <i name="e_fr_energy">    -36.90047075 </i>
    <i name="e_wo_entrp">    -36.90046609 </i>
    <i name="e_0_energy">    -36.90046842 </i>
   </energy>
  </scstep>
  <scstep>
   <time name="diag">   78.31   78.71</time>
   <time name="diis">  318.96  322.09</time>
   <time name="orth">    3.08    3.08</time>
   <time name="total">  432.32  436.34</time>
   <energy>
    <i name="e_fr_energy">    -36.90055293 </i>
    <i name="e_wo_entrp">    -36.90054829 </i>
    <i name="e_0_energy">    -36.90055061 </i>
   </energy>
  </scstep>
  <scstep>
   <time name="diag">   77.71   78.78</time>
   <time name="diis">  319.11  322.61</time>
   <time name="orth">    3.08    3.10</time>
   <time name="total">  431.90  436.93</time>
   <energy>
    <i name="e_fr_energy">    -36.90056433 </i>
    <i name="e_wo_entrp">    -36.90055968 </i>
    <i name="e_0_energy">    -36.90056201 </i>
   </energy>
  </scstep>
  <scstep>
   <time name="diag">   78.49   78.78</time>
   <time name="diis">  317.61  318.67</time>
   <time name="orth">    3.08    3.08</time>
   <time name="total">  431.30  432.88</time>
   <energy>
    <i name="e_fr_energy">    -36.90057643 </i>
    <i name="e_wo_entrp">    -36.90057178 </i>
    <i name="e_0_energy">    -36.90057410 </i>
   </energy>
  </scstep>
  <scstep>
   <time name="diag">   78.23   78.71</time>
   <time name="diis">  321.03  323.84</time>
   <time name="orth">    3.09    3.10</time>
   <time name="total">  434.42  438.01</time>
   <energy>
    <i name="e_fr_energy">    -36.90058171 </i>
    <i name="e_wo_entrp">    -36.90057706 </i>
    <i name="e_0_energy">    -36.90057939 </i>
   </energy>
  </scstep>
  <scstep>
   <time name="diag">   77.87   78.74</time>
   <time name="diis">  314.07  317.53</time>
   <time name="orth">    3.08    3.08</time>
   <time name="total">  427.02  431.76</time>
   <energy>
    <i name="e_fr_energy">    -36.90058277 </i>
    <i name="e_wo_entrp">    -36.90057812 </i>
    <i name="e_0_energy">    -36.90058044 </i>
   </energy>
  </scstep>
  <scstep>
   <time name="diag">   78.12   78.69</time>
   <time name="diis">  329.21  332.59</time>
   <time name="orth">    3.06    3.10</time>
   <time name="total">  442.33  446.74</time>
   <energy>
    <i name="e_fr_energy">    -36.90058354 </i>
    <i name="e_wo_entrp">    -36.90057889 </i>
    <i name="e_0_energy">    -36.90058122 </i>
   </energy>
  </scstep>
  <scstep>
   <time name="diag">   77.72   78.69</time>
   <time name="diis">  246.39  249.13</time>
   <time name="orth">    3.08    3.08</time>
   <time name="total">  359.28  363.31</time>
   <energy>
    <i name="e_fr_energy">    -36.90058359 </i>
    <i name="e_wo_entrp">    -36.90057894 </i>
    <i name="e_0_energy">    -36.90058127 </i>
   </energy>
  </scstep>
  <scstep>
   <time name="diag">   77.96   78.68</time>
   <time name="diis">  241.35  243.24</time>
   <time name="orth">    3.06    3.10</time>
   <time name="total">  354.25  357.36</time>
   <energy>
    <i name="e_fr_energy">    -36.90058361 </i>
    <i name="e_wo_entrp">    -36.90057896 </i>
    <i name="e_0_energy">    -36.90058128 </i>
   </energy>
  </scstep>
  <scstep>
   <time name="diag">   77.83   78.70</time>
   <time name="diis">  217.42  219.88</time>
   <time name="orth">    3.07    3.10</time>
   <time name="total">  330.26  334.00</time>
   <energy>
    <i name="e_fr_energy">    -36.90058361 </i>
    <i name="e_wo_entrp">    -36.90057896 </i>
    <i name="e_0_energy">    -36.90058128 </i>
   </energy>
  </scstep>
  <scstep>
   <time name="diag">   77.72   78.63</time>
   <time name="diis">  206.80  209.30</time>
   <time name="orth">    3.08    3.08</time>
   <time name="total">  319.65  323.36</time>
   <energy>
    <i name="e_fr_energy">    -36.90058361 </i>
    <i name="e_wo_entrp">    -36.90057896 </i>
    <i name="e_0_energy">    -36.90058128 </i>
   </energy>
  </scstep>
  <scstep>
   <time name="diag">   78.05   78.72</time>
   <time name="diis">  193.88  196.16</time>
   <time name="orth">    3.07    3.08</time>
   <time name="total">  307.08  310.43</time>
   <energy>
    <i name="e_fr_energy">    -36.90058361 </i>
    <i name="e_wo_entrp">    -36.90057896 </i>
    <i name="e_0_energy">    -36.90058128 </i>
   </energy>
  </scstep>
  <scstep>
   <time name="diag">   78.46   78.70</time>
   <time name="diis">  184.78  186.58</time>
   <time name="orth">    3.07    3.10</time>
   <time name="total">  298.39  301.09</time>
   <energy>
    <i name="e_fr_energy">    -36.90058361 </i>
    <i name="e_wo_entrp">    -36.90057896 </i>
    <i name="e_0_energy">    -36.90058129 </i>
   </energy>
  </scstep>
  <scstep>
   <time name="diag">   78.57   78.76</time>
   <time name="diis">  179.71  180.31</time>
   <time name="orth">    3.09    3.10</time>
   <time name="total">  293.62  294.58</time>
   <energy>
    <i name="e_fr_energy">    -36.90058361 </i>
    <i name="e_wo_entrp">    -36.90057896 </i>
    <i name="e_0_energy">    -36.90058128 </i>
   </energy>
  </scstep>
  <scstep>
   <time name="diag">   78.12   78.66</time>
   <time name="diis">  173.30  174.85</time>
   <time name="orth">    3.08    3.08</time>
   <time name="total">  286.72  289.01</time>
   <energy>
    <i name="e_fr_energy">    -36.90058361 </i>
    <i name="e_wo_entrp">    -36.90057896 </i>
    <i name="e_0_energy">    -36.90058128 </i>
   </energy>
  </scstep>
  <scstep>
   <time name="diag">   78.23   78.71</time>
   <time name="diis">  170.24  170.81</time>
   <time name="orth">    3.07    3.08</time>
   <time name="total">  283.91  285.04</time>
   <energy>
    <i name="e_fr_energy">    -36.90058361 </i>
    <i name="e_wo_entrp">    -36.90057896 </i>
    <i name="e_0_energy">    -36.90058128 </i>
   </energy>
  </scstep>
  <scstep>
   <time name="diag">   78.55   78.59</time>
   <time name="diis">  172.82  172.92</time>
   <time name="orth">    3.13    3.15</time>
   <time name="total">  286.66  287.06</time>
   <energy>
    <i name="e_fr_energy">    -36.90058361 </i>
    <i name="e_wo_entrp">    -36.90057896 </i>
    <i name="e_0_energy">    -36.90058128 </i>
   </energy>
  </scstep>
  <scstep>
   <time name="diag">   78.29   78.61</time>
   <time name="diis">  169.06  170.89</time>
   <time name="orth">    3.08    3.10</time>
   <time name="total">  282.48  285.01</time>
   <energy>
    <i name="e_fr_energy">    -36.90058361 </i>
    <i name="e_wo_entrp">    -36.90057896 </i>
    <i name="e_0_energy">    -36.90058128 </i>
   </energy>
  </scstep>
  <scstep>
   <time name="diag">   77.83   78.59</time>
   <time name="diis">  168.17  169.51</time>
   <time name="orth">    3.06    3.10</time>
   <time name="total">  251.40  253.56</time>
   <energy>
    <i name="alphaZ">      6.18334092 </i>
    <i name="ewald">   2502.84486630 </i>
    <i name="hartreedc">  -2996.99864382 </i>
    <i name="XCdc">     57.29113794 </i>
    <i name="pawpsdc">    272.02677841 </i>
    <i name="pawaedc">   -277.15271141 </i>
    <i name="eentropy">     -0.00000465 </i>
    <i name="bandstr">   -189.71887421 </i>
    <i name="atom">    588.62352690 </i>
    <i name="e_fr_energy">    -36.90058361 </i>
    <i name="e_wo_entrp">    -36.90057896 </i>
    <i name="e_0_energy">    -36.90058128 </i>
   </energy>
  </scstep>
  <structure>
   <crystal>
    <varray name="basis" >
     <v>       4.33800119       0.00000000       0.00000000 </v>
     <v>       0.00000000       2.46080783       0.00000000 </v>
     <v>       0.00000000       0.00000000      19.75064654 </v>
    </varray>
    <i name="volume">    210.83790140 </i>
    <varray name="rec_basis" >
     <v>       0.23052091       0.00000000       0.00000000 </v>
     <v>       0.00000000       0.40637062       0.00000000 </v>
     <v>       0.00000000       0.00000000       0.05063125 </v>
    </varray>
   </crystal>
   <varray name="positions" >
    <v>       0.99964215       0.00000000       0.00000000 </v>
    <v>       0.16702452       0.50000000       0.00000000 </v>
    <v>       0.49964215       0.50000000       0.00000000 </v>
    <v>       0.66702452       0.00000000       0.00000000 </v>
   </varray>
  </structure>
  <varray name="forces" >
   <v>      -0.00053450      -0.00000000       0.00000000 </v>
   <v>       0.00053450       0.00000000       0.00000000 </v>
   <v>      -0.00053450       0.00000000       0.00000000 </v>
   <v>       0.00053450      -0.00000000       0.00000000 </v>
  </varray>
  <varray name="stress" >
   <v>     -25.18827798       0.00000000       0.00000000 </v>
   <v>       0.00000000       0.00346166       0.00000000 </v>
   <v>       0.00000000       0.00000000      -0.01029987 </v>
  </varray>
  <energy>
   <i name="e_fr_energy">    -36.90058361 </i>
   <i name="e_wo_entrp">    -36.90058128 </i>
   <i name="e_0_energy">     -0.00000465 </i>
  </energy>
  <time name="totalsc">11853.2911944.39</time>
 </calculation>
 <calculation>
  <scstep>
   <time name="dav">  299.83  300.75</time>
   <time name="total">  332.18  333.11</time>
   <energy>
    <i name="alphaZ">      6.18334092 </i>
    <i name="ewald">   2502.84452974 </i>
    <i name="hartreedc">  -2996.99849921 </i>
    <i name="XCdc">     57.29112844 </i>
    <i name="pawpsdc">    272.02677991 </i>
    <i name="pawaedc">   -277.15271296 </i>
    <i name="eentropy">     -0.00000478 </i>
    <i name="bandstr">   -189.71867249 </i>
    <i name="atom">    588.62352690 </i>
    <i name="e_fr_energy">    -36.90058353 </i>
    <i name="e_wo_entrp">    -36.90057875 </i>
    <i name="e_0_energy">    -36.90058114 </i>
   </energy>
  </scstep>
  <scstep>
   <time name="diag">   78.81   78.82</time>
   <time name="diis">  319.97  320.04</time>
   <time name="orth">    3.08    3.08</time>
   <time name="total">  434.26  434.35</time>
   <energy>
    <i name="e_fr_energy">    -36.90058353 </i>
    <i name="e_wo_entrp">    -36.90057876 </i>
    <i name="e_0_energy">    -36.90058115 </i>
   </energy>
  </scstep>
  <scstep>
   <time name="diag">   78.81   78.82</time>
   <time name="diis">  322.30  322.40</time>
   <time name="orth">    3.10    3.10</time>
   <time name="total">  436.65  436.81</time>
   <energy>
    <i name="e_fr_energy">    -36.90058353 </i>
    <i name="e_wo_entrp">    -36.90057876 </i>
    <i name="e_0_energy">    -36.90058114 </i>
   </energy>
  </scstep>
  <scstep>
   <time name="diag">   78.80   78.81</time>
   <time name="diis">  320.93  320.99</time>
   <time name="orth">    3.10    3.10</time>
   <time name="total">  435.22  435.32</time>
   <energy>
    <i name="e_fr_energy">    -36.90058353 </i>
    <i name="e_wo_entrp">    -36.90057876 </i>
    <i name="e_0_energy">    -36.90058114 </i>
   </energy>
  </scstep>
  <scstep>
   <time name="diag">   78.87   78.89</time>
   <time name="diis">  215.87  215.95</time>
   <time name="orth">    3.10    3.10</time>
   <time name="total">  330.26  330.41</time>
   <energy>
    <i name="e_fr_energy">    -36.90058353 </i>
    <i name="e_wo_entrp">    -36.90057876 </i>
    <i name="e_0_energy">    -36.90058114 </i>
   </energy>
  </scstep>
  <scstep>
   <time name="diag">   78.83   78.85</time>
   <time name="diis">  204.26  204.32</time>
   <time name="orth">    3.08    3.08</time>
   <time name="total">  318.62  318.70</time>
   <energy>
    <i name="e_fr_energy">    -36.90058353 </i>
    <i name="e_wo_entrp">    -36.90057876 </i>
    <i name="e_0_energy">    -36.90058114 </i>
   </energy>
  </scstep>
  <scstep>
   <time name="diag">   78.83   78.86</time>
   <time name="diis">  201.61  201.75</time>
   <time name="orth">    3.10    3.10</time>
   <time name="total">  285.89  286.09</time>
   <energy>
    <i name="alphaZ">      6.18334092 </i>
    <i name="ewald">   2502.84452974 </i>
    <i name="hartreedc">  -2996.99836909 </i>
    <i name="XCdc">     57.29112278 </i>
    <i name="pawpsdc">    272.02620052 </i>
    <i name="pawaedc">   -277.15213106 </i>
    <i name="eentropy">     -0.00000477 </i>
    <i name="bandstr">   -189.71879948 </i>
    <i name="atom">    588.62352690 </i>
    <i name="e_fr_energy">    -36.90058353 </i>
    <i name="e_wo_entrp">    -36.90057876 </i>
    <i name="e_0_energy">    -36.90058114 </i>
   </energy>
  </scstep>
  <structure>
   <crystal>
    <varray name="basis" >
     <v>       4.33800119       0.00000000       0.00000000 </v>
     <v>       0.00000000       2.46080783       0.00000000 </v>
     <v>       0.00000000       0.00000000      19.75064654 </v>
    </varray>
    <i name="volume">    210.83790140 </i>
    <varray name="rec_basis" >
     <v>       0.23052091       0.00000000       0.00000000 </v>
     <v>       0.00000000       0.40637062       0.00000000 </v>
     <v>       0.00000000       0.00000000       0.05063125 </v>
    </varray>
   </crystal>
   <varray name="positions" >
    <v>       0.99963621      -0.00000000       0.00000000 </v>
    <v>       0.16703046       0.50000000       0.00000000 </v>
    <v>       0.49963621       0.50000000       0.00000000 </v>
    <v>       0.66703046      -0.00000000       0.00000000 </v>
   </varray>
  </structure>
  <varray name="forces" >
   <v>       0.00207769      -0.00000000      -0.00000000 </v>
   <v>      -0.00207769       0.00000000       0.00000000 </v>
   <v>       0.00207769       0.00000000      -0.00000000 </v>
   <v>      -0.00207769      -0.00000000       0.00000000 </v>
  </varray>
  <varray name="stress" >
   <v>     -25.18226153       0.00000000       0.00000000 </v>
   <v>       0.00000000      -0.00513145       0.00000000 </v>
   <v>       0.00000000       0.00000000      -0.01033591 </v>
  </varray>
  <energy>
   <i name="e_fr_energy">    -36.90058353 </i>
   <i name="e_wo_entrp">    -36.90058114 </i>
   <i name="e_0_energy">     -0.00000477 </i>
  </energy>
  <time name="totalsc"> 2674.71 2676.64</time>
 </calculation>
 <calculation>
  <scstep>
   <time name="dav">  318.42  319.51</time>
   <time name="total">  350.65  351.94</time>
   <energy>
    <i name="alphaZ">      6.18334092 </i>
    <i name="ewald">   2502.84479736 </i>
    <i name="hartreedc">  -2996.99847839 </i>
    <i name="XCdc">     57.29113029 </i>
    <i name="pawpsdc">    272.02619671 </i>
    <i name="pawaedc">   -277.15212726 </i>
    <i name="eentropy">     -0.00000466 </i>
    <i name="bandstr">   -189.71896549 </i>
    <i name="atom">    588.62352690 </i>
    <i name="e_fr_energy">    -36.90058361 </i>
    <i name="e_wo_entrp">    -36.90057895 </i>
    <i name="e_0_energy">    -36.90058128 </i>
   </energy>
  </scstep>
  <scstep>
   <time name="diag">   78.32   78.77</time>
   <time name="diis">  320.89  321.73</time>
   <time name="orth">    3.09    3.10</time>
   <time name="total">  434.52  435.99</time>
   <energy>
    <i name="e_fr_energy">    -36.90058361 </i>
    <i name="e_wo_entrp">    -36.90057895 </i>
    <i name="e_0_energy">    -36.90058128 </i>
   </energy>
  </scstep>
  <scstep>
   <time name="diag">   78.13   78.73</time>
   <time name="diis">  320.49  322.73</time>
   <time name="orth">    3.08    3.08</time>
   <time name="total">  433.72  436.87</time>
   <energy>
    <i name="e_fr_energy">    -36.90058361 </i>
    <i name="e_wo_entrp">    -36.90057894 </i>
    <i name="e_0_energy">    -36.90058128 </i>
   </energy>
  </scstep>
  <scstep>
   <time name="diag">   78.54   78.72</time>
   <time name="diis">  305.36  305.63</time>
   <time name="orth">    3.08    3.10</time>
   <time name="total">  419.32  419.84</time>
   <energy>
    <i name="e_fr_energy">    -36.90058361 </i>
    <i name="e_wo_entrp">    -36.90057894 </i>
    <i name="e_0_energy">    -36.90058128 </i>
   </energy>
  </scstep>
  <scstep>
   <time name="diag">   78.71   78.82</time>
   <time name="diis">  210.91  213.07</time>
   <time name="orth">    3.08    3.10</time>
   <time name="total">  295.01  297.34</time>
   <energy>
    <i name="alphaZ">      6.18334092 </i>
    <i name="ewald">   2502.84479736 </i>
    <i name="hartreedc">  -2996.99857186 </i>
    <i name="XCdc">     57.29113449 </i>
    <i name="pawpsdc">    272.02666684 </i>
    <i name="pawaedc">   -277.15259928 </i>
    <i name="eentropy">     -0.00000467 </i>
    <i name="bandstr">   -189.71887432 </i>
    <i name="atom">    588.62352690 </i>
    <i name="e_fr_energy">    -36.90058361 </i>
    <i name="e_wo_entrp">    -36.90057894 </i>
    <i name="e_0_energy">    -36.90058128 </i>
   </energy>
  </scstep>
  <structure>
   <crystal>
    <varray name="basis" >
     <v>       4.33800119       0.00000000       0.00000000 </v>
     <v>       0.00000000       2.46080783       0.00000000 </v>
     <v>       0.00000000       0.00000000      19.75064654 </v>
    </varray>
    <i name="volume">    210.83790140 </i>
    <varray name="rec_basis" >
     <v>       0.23052091       0.00000000       0.00000000 </v>
     <v>       0.00000000       0.40637062       0.00000000 </v>
     <v>       0.00000000       0.00000000       0.05063125 </v>
    </varray>
   </crystal>
   <varray name="positions" >
    <v>       0.99964093      -0.00000000      -0.00000000 </v>
    <v>       0.16702573       0.50000000       0.00000000 </v>
    <v>       0.49964093       0.50000000      -0.00000000 </v>
    <v>       0.66702573      -0.00000000       0.00000000 </v>
   </varray>
  </structure>
  <varray name="forces" >
   <v>      -0.00000736       0.00000000      -0.00000000 </v>
   <v>       0.00000736      -0.00000000       0.00000000 </v>
   <v>      -0.00000736       0.00000000      -0.00000000 </v>
   <v>       0.00000736      -0.00000000       0.00000000 </v>
  </varray>
  <varray name="stress" >
   <v>     -25.18697915       0.00000000       0.00000000 </v>
   <v>       0.00000000       0.00164512       0.00000000 </v>
   <v>       0.00000000       0.00000000      -0.01029017 </v>
  </varray>
  <energy>
   <i name="e_fr_energy">    -36.90058361 </i>
   <i name="e_wo_entrp">    -36.90058128 </i>
   <i name="e_0_energy">     -0.00000467 </i>
  </energy>
  <time name="totalsc"> 2034.34 2045.26</time>
 </calculation>
 <calculation>
  <scstep>
   <time name="dav">  249.49  251.70</time>
   <time name="total">  281.40  284.03</time>
   <energy>
    <i name="alphaZ">      6.18334092 </i>
    <i name="ewald">   2502.84479642 </i>
    <i name="hartreedc">  -2996.99857313 </i>
    <i name="XCdc">     57.29113461 </i>
    <i name="pawpsdc">    272.02665488 </i>
    <i name="pawaedc">   -277.15258742 </i>
    <i name="eentropy">     -0.00000467 </i>
    <i name="bandstr">   -189.71887213 </i>
    <i name="atom">    588.62352690 </i>
    <i name="e_fr_energy">    -36.90058361 </i>
    <i name="e_wo_entrp">    -36.90057894 </i>
    <i name="e_0_energy">    -36.90058128 </i>
   </energy>
  </scstep>
  <scstep>
   <time name="diag">   77.91   78.72</time>
   <time name="diis">  192.34  194.26</time>
   <time name="orth">    3.08    3.10</time>
   <time name="total">  305.28  308.39</time>
   <energy>
    <i name="e_fr_energy">    -36.90058361 </i>
    <i name="e_wo_entrp">    -36.90057894 </i>
    <i name="e_0_energy">    -36.90058128 </i>
   </energy>
  </scstep>
  <scstep>
   <time name="diag">   78.02   78.83</time>
   <time name="diis">  184.93  186.82</time>
   <time name="orth">    3.09    3.11</time>
   <time name="total">  298.06  301.97</time>
   <energy>
    <i name="e_fr_energy">    -36.90058361 </i>
    <i name="e_wo_entrp">    -36.90057894 </i>
    <i name="e_0_energy">    -36.90058128 </i>
   </energy>
  </scstep>
  <scstep>
   <time name="diag">   78.62   78.80</time>
   <time name="diis">  178.41  178.61</time>
   <time name="orth">    3.08    3.10</time>
   <time name="total">  292.47  292.89</time>
   <energy>
    <i name="e_fr_energy">    -36.90058361 </i>
    <i name="e_wo_entrp">    -36.90057894 </i>
    <i name="e_0_energy">    -36.90058128 </i>
   </energy>
  </scstep>
  <scstep>
   <time name="diag">   78.59   78.88</time>
   <time name="diis">  170.79  171.15</time>
   <time name="orth">    3.11    3.11</time>
   <time name="total">  284.80  285.56</time>
   <energy>
    <i name="e_fr_energy">    -36.90058361 </i>
    <i name="e_wo_entrp">    -36.90057894 </i>
    <i name="e_0_energy">    -36.90058128 </i>
   </energy>
  </scstep>
  <scstep>
   <time name="diag">   78.53   78.56</time>
   <time name="diis">  165.67  165.87</time>
   <time name="orth">    3.11    3.17</time>
   <time name="total">  279.64  279.94</time>
   <energy>
    <i name="e_fr_energy">    -36.90058361 </i>
    <i name="e_wo_entrp">    -36.90057894 </i>
    <i name="e_0_energy">    -36.90058128 </i>
   </energy>
  </scstep>
  <scstep>
   <time name="diag">   78.06   78.79</time>
   <time name="diis">  158.47  159.86</time>
   <time name="orth">    3.08    3.08</time>
   <time name="total">  271.71  274.26</time>
   <energy>
    <i name="e_fr_energy">    -36.90058361 </i>
    <i name="e_wo_entrp">    -36.90057894 </i>
    <i name="e_0_energy">    -36.90058128 </i>
   </energy>
  </scstep>
  <scstep>
   <time name="diag">   78.22   78.79</time>
   <time name="diis">  153.19  154.36</time>
   <time name="orth">    3.08    3.08</time>
   <time name="total">  266.58  268.64</time>
   <energy>
    <i name="e_fr_energy">    -36.90058361 </i>
    <i name="e_wo_entrp">    -36.90057894 </i>
    <i name="e_0_energy">    -36.90058128 </i>
   </energy>
  </scstep>
  <scstep>
   <time name="diag">   77.98   78.82</time>
   <time name="diis">  152.47  152.76</time>
   <time name="orth">    3.10    3.10</time>
   <time name="total">  265.85  267.08</time>
   <energy>
    <i name="e_fr_energy">    -36.90058361 </i>
    <i name="e_wo_entrp">    -36.90057894 </i>
    <i name="e_0_energy">    -36.90058128 </i>
   </energy>
  </scstep>
  <scstep>
   <time name="diag">   78.16   78.82</time>
   <time name="diis">  148.80  149.97</time>
   <time name="orth">    3.08    3.08</time>
   <time name="total">  262.30  264.34</time>
   <energy>
    <i name="e_fr_energy">    -36.90058361 </i>
    <i name="e_wo_entrp">    -36.90057894 </i>
    <i name="e_0_energy">    -36.90058128 </i>
   </energy>
  </scstep>
  <scstep>
   <time name="diag">   78.59   78.76</time>
   <time name="diis">  147.81  148.63</time>
   <time name="orth">    3.08    3.10</time>
   <time name="total">  231.85  232.88</time>
   <energy>
    <i name="alphaZ">      6.18334092 </i>
    <i name="ewald">   2502.84479642 </i>
    <i name="hartreedc">  -2996.99858432 </i>
    <i name="XCdc">     57.29113479 </i>
    <i name="pawpsdc">    272.02665812 </i>
    <i name="pawaedc">   -277.15259067 </i>
    <i name="eentropy">     -0.00000467 </i>
    <i name="bandstr">   -189.71886109 </i>
    <i name="atom">    588.62352690 </i>
    <i name="e_fr_energy">    -36.90058361 </i>
    <i name="e_wo_entrp">    -36.90057894 </i>
    <i name="e_0_energy">    -36.90058128 </i>
   </energy>
  </scstep>
  <structure>
   <crystal>
    <varray name="basis" >
     <v>       4.33800119       0.00000000       0.00000000 </v>
     <v>       0.00000000       2.46080783       0.00000000 </v>
     <v>       0.00000000       0.00000000      19.75064654 </v>
    </varray>
    <i name="volume">    210.83790140 </i>
    <varray name="rec_basis" >
     <v>       0.23052091       0.00000000       0.00000000 </v>
     <v>       0.00000000       0.40637062       0.00000000 </v>
     <v>       0.00000000       0.00000000       0.05063125 </v>
    </varray>
   </crystal>
   <varray name="positions" >
    <v>       0.99964092       0.00000000      -0.00000000 </v>
    <v>       0.16702575       0.50000000       0.00000000 </v>
    <v>       0.49964092       0.50000000      -0.00000000 </v>
    <v>       0.66702575      -0.00000000       0.00000000 </v>
   </varray>
  </structure>
  <varray name="forces" >
   <v>       0.00000991      -0.00000000       0.00000000 </v>
   <v>      -0.00000991      -0.00000000      -0.00000000 </v>
   <v>       0.00000991      -0.00000000       0.00000000 </v>
   <v>      -0.00000991       0.00000000      -0.00000000 </v>
  </varray>
  <varray name="stress" >
   <v>     -25.18700864       0.00000000       0.00000000 </v>
   <v>       0.00000000       0.00166779       0.00000000 </v>
   <v>       0.00000000       0.00000000      -0.01030513 </v>
  </varray>
  <energy>
   <i name="e_fr_energy">    -36.90058361 </i>
   <i name="e_wo_entrp">    -36.90058128 </i>
   <i name="e_0_energy">     -0.00000467 </i>
  </energy>
  <time name="totalsc"> 3142.66 3163.37</time>
 </calculation>
 <calculation>
  <scstep>
   <time name="dav">  243.81  244.66</time>
   <time name="total">  276.14  277.07</time>
   <energy>
    <i name="alphaZ">      6.18334092 </i>
    <i name="ewald">   2502.84479696 </i>
    <i name="hartreedc">  -2996.99858456 </i>
    <i name="XCdc">     57.29113480 </i>
    <i name="pawpsdc">    272.02665812 </i>
    <i name="pawaedc">   -277.15259067 </i>
    <i name="eentropy">     -0.00000467 </i>
    <i name="bandstr">   -189.71886141 </i>
    <i name="atom">    588.62352690 </i>
    <i name="e_fr_energy">    -36.90058361 </i>
    <i name="e_wo_entrp">    -36.90057894 </i>
    <i name="e_0_energy">    -36.90058128 </i>
   </energy>
  </scstep>
  <scstep>
   <time name="diag">   78.51   78.79</time>
   <time name="diis">  137.47  137.87</time>
   <time name="orth">    3.09    3.09</time>
   <time name="total">  251.46  252.20</time>
   <energy>
    <i name="e_fr_energy">    -36.90058361 </i>
    <i name="e_wo_entrp">    -36.90057894 </i>
    <i name="e_0_energy">    -36.90058128 </i>
   </energy>
  </scstep>
  <scstep>
   <time name="diag">   78.17   78.77</time>
   <time name="diis">  141.02  142.05</time>
   <time name="orth">    3.08    3.10</time>
   <time name="total">  254.35  256.27</time>
   <energy>
    <i name="e_fr_energy">    -36.90058361 </i>
    <i name="e_wo_entrp">    -36.90057894 </i>
    <i name="e_0_energy">    -36.90058128 </i>
   </energy>
  </scstep>
  <scstep>
   <time name="diag">   78.63   78.79</time>
   <time name="diis">  132.88  133.51</time>
   <time name="orth">    3.08    3.08</time>
   <time name="total">  246.75  247.80</time>
   <energy>
    <i name="e_fr_energy">    -36.90058361 </i>
    <i name="e_wo_entrp">    -36.90057894 </i>
    <i name="e_0_energy">    -36.90058128 </i>
   </energy>
  </scstep>
  <scstep>
   <time name="diag">   78.69   78.84</time>
   <time name="diis">  136.88  137.24</time>
   <time name="orth">    3.07    3.10</time>
   <time name="total">  220.99  221.56</time>
   <energy>
    <i name="alphaZ">      6.18334092 </i>
    <i name="ewald">   2502.84479696 </i>
    <i name="hartreedc">  -2996.99858360 </i>
    <i name="XCdc">     57.29113477 </i>
    <i name="pawpsdc">    272.02665760 </i>
    <i name="pawaedc">   -277.15259015 </i>
    <i name="eentropy">     -0.00000467 </i>
    <i name="bandstr">   -189.71886234 </i>
    <i name="atom">    588.62352690 </i>
    <i name="e_fr_energy">    -36.90058361 </i>
    <i name="e_wo_entrp">    -36.90057894 </i>
    <i name="e_0_energy">    -36.90058128 </i>
   </energy>
  </scstep>
  <structure>
   <crystal>
    <varray name="basis" >
     <v>       4.33800119       0.00000000       0.00000000 </v>
     <v>       0.00000000       2.46080783       0.00000000 </v>
     <v>       0.00000000       0.00000000      19.75064654 </v>
    </varray>
    <i name="volume">    210.83790140 </i>
    <varray name="rec_basis" >
     <v>       0.23052091       0.00000000       0.00000000 </v>
     <v>       0.00000000       0.40637062       0.00000000 </v>
     <v>       0.00000000       0.00000000       0.05063125 </v>
    </varray>
   </crystal>
   <varray name="positions" >
    <v>       0.99964093       0.00000000       0.00000000 </v>
    <v>       0.16702574       0.50000000      -0.00000000 </v>
    <v>       0.49964093       0.50000000       0.00000000 </v>
    <v>       0.66702574      -0.00000000      -0.00000000 </v>
   </varray>
  </structure>
  <varray name="forces" >
   <v>       0.00000198      -0.00000000       0.00000000 </v>
   <v>      -0.00000198       0.00000000      -0.00000000 </v>
   <v>       0.00000198      -0.00000000       0.00000000 </v>
   <v>      -0.00000198       0.00000000      -0.00000000 </v>
  </varray>
  <varray name="stress" >
   <v>     -25.18703050       0.00000000       0.00000000 </v>
   <v>       0.00000000       0.00170212       0.00000000 </v>
   <v>       0.00000000       0.00000000      -0.01031372 </v>
  </varray>
  <energy>
   <i name="e_fr_energy">    -36.90058361 </i>
   <i name="e_wo_entrp">    -36.90058128 </i>
   <i name="e_0_energy">     -0.00000467 </i>
  </energy>
  <time name="totalsc"> 1351.08 1357.27</time>
 </calculation>
 <calculation>
  <scstep>
   <time name="dav">  241.94  243.39</time>
   <time name="total">  274.11  275.86</time>
   <energy>
    <i name="alphaZ">      6.18334092 </i>
    <i name="ewald">   2502.84479709 </i>
    <i name="hartreedc">  -2996.99858365 </i>
    <i name="XCdc">     57.29113477 </i>
    <i name="pawpsdc">    272.02665760 </i>
    <i name="pawaedc">   -277.15259015 </i>
    <i name="eentropy">     -0.00000467 </i>
    <i name="bandstr">   -189.71886244 </i>
    <i name="atom">    588.62352690 </i>
    <i name="e_fr_energy">    -36.90058361 </i>
    <i name="e_wo_entrp">    -36.90057894 </i>
    <i name="e_0_energy">    -36.90058128 </i>
   </energy>
  </scstep>
  <scstep>
   <time name="diag">   78.19   78.60</time>
   <time name="diis">  122.71  123.25</time>
   <time name="orth">    3.09    3.10</time>
   <time name="total">  236.12  237.77</time>
   <energy>
    <i name="e_fr_energy">    -36.90058361 </i>
    <i name="e_wo_entrp">    -36.90057894 </i>
    <i name="e_0_energy">    -36.90058128 </i>
   </energy>
  </scstep>
  <scstep>
   <time name="diag">   78.45   78.58</time>
   <time name="diis">  125.55  125.78</time>
   <time name="orth">    3.08    3.10</time>
   <time name="total">  239.48  239.92</time>
   <energy>
    <i name="e_fr_energy">    -36.90058361 </i>
    <i name="e_wo_entrp">    -36.90057894 </i>
    <i name="e_0_energy">    -36.90058128 </i>
   </energy>
  </scstep>
  <scstep>
   <time name="diag">   78.45   78.66</time>
   <time name="diis">  112.41  112.63</time>
   <time name="orth">    3.08    3.08</time>
   <time name="total">  226.29  226.85</time>
   <energy>
    <i name="e_fr_energy">    -36.90058361 </i>
    <i name="e_wo_entrp">    -36.90057894 </i>
    <i name="e_0_energy">    -36.90058128 </i>
   </energy>
  </scstep>
  <scstep>
   <time name="diag">   77.91   78.82</time>
   <time name="diis">  108.06  109.06</time>
   <time name="orth">    3.07    3.10</time>
   <time name="total">  191.35  193.37</time>
   <energy>
    <i name="alphaZ">      6.18334092 </i>
    <i name="ewald">   2502.84479709 </i>
    <i name="hartreedc">  -2996.99858373 </i>
    <i name="XCdc">     57.29113478 </i>
    <i name="pawpsdc">    272.02665787 </i>
    <i name="pawaedc">   -277.15259042 </i>
    <i name="eentropy">     -0.00000467 </i>
    <i name="bandstr">   -189.71886236 </i>
    <i name="atom">    588.62352690 </i>
    <i name="e_fr_energy">    -36.90058361 </i>
    <i name="e_wo_entrp">    -36.90057894 </i>
    <i name="e_0_energy">    -36.90058128 </i>
   </energy>
  </scstep>
  <structure>
   <crystal>
    <varray name="basis" >
     <v>       4.33800119       0.00000000       0.00000000 </v>
     <v>       0.00000000       2.46080783       0.00000000 </v>
     <v>       0.00000000       0.00000000      19.75064654 </v>
    </varray>
    <i name="volume">    210.83790140 </i>
    <varray name="rec_basis" >
     <v>       0.23052091       0.00000000       0.00000000 </v>
     <v>       0.00000000       0.40637062       0.00000000 </v>
     <v>       0.00000000       0.00000000       0.05063125 </v>
    </varray>
   </crystal>
   <varray name="positions" >
    <v>       0.99964093       0.00000000       0.00000000 </v>
    <v>       0.16702574       0.50000000      -0.00000000 </v>
    <v>       0.49964093       0.50000000       0.00000000 </v>
    <v>       0.66702574      -0.00000000      -0.00000000 </v>
   </varray>
  </structure>
  <varray name="forces" >
   <v>       0.00000194       0.00000000       0.00000000 </v>
   <v>      -0.00000194      -0.00000000       0.00000000 </v>
   <v>       0.00000194      -0.00000000       0.00000000 </v>
   <v>      -0.00000194       0.00000000       0.00000000 </v>
  </varray>
  <varray name="stress" >
   <v>     -25.18702996       0.00000000       0.00000000 </v>
   <v>       0.00000000       0.00170005       0.00000000 </v>
   <v>       0.00000000       0.00000000      -0.01031119 </v>
  </varray>
  <energy>
   <i name="e_fr_energy">    -36.90058361 </i>
   <i name="e_wo_entrp">    -36.90058128 </i>
   <i name="e_0_energy">     -0.00000467 </i>
  </energy>
  <time name="totalsc"> 1268.37 1275.49</time>
 </calculation>
 <calculation>
  <scstep>
   <time name="dav">  306.23  307.90</time>
   <time name="total">  338.48  340.36</time>
   <energy>
    <i name="alphaZ">      6.18334092 </i>
    <i name="ewald">   2502.84480448 </i>
    <i name="hartreedc">  -2996.99858694 </i>
    <i name="XCdc">     57.29113499 </i>
    <i name="pawpsdc">    272.02665787 </i>
    <i name="pawaedc">   -277.15259042 </i>
    <i name="eentropy">     -0.00000467 </i>
    <i name="bandstr">   -189.71886674 </i>
    <i name="atom">    588.62352690 </i>
    <i name="e_fr_energy">    -36.90058361 </i>
    <i name="e_wo_entrp">    -36.90057894 </i>
    <i name="e_0_energy">    -36.90058128 </i>
   </energy>
  </scstep>
  <scstep>
   <time name="diag">   77.79   78.74</time>
   <time name="diis">  183.24  185.19</time>
   <time name="orth">    3.08    3.08</time>
   <time name="total">  296.23  299.51</time>
   <energy>
    <i name="e_fr_energy">    -36.90058361 </i>
    <i name="e_wo_entrp">    -36.90057894 </i>
    <i name="e_0_energy">    -36.90058128 </i>
   </energy>
  </scstep>
  <scstep>
   <time name="diag">   78.75   78.94</time>
   <time name="diis">  194.18  194.62</time>
   <time name="orth">    3.09    3.09</time>
   <time name="total">  308.42  309.09</time>
   <energy>
    <i name="e_fr_energy">    -36.90058361 </i>
    <i name="e_wo_entrp">    -36.90057894 </i>
    <i name="e_0_energy">    -36.90058128 </i>
   </energy>
  </scstep>
  <scstep>
   <time name="diag">   78.95   78.97</time>
   <time name="diis">  168.89  168.92</time>
   <time name="orth">    3.10    3.10</time>
   <time name="total">  283.57  283.72</time>
   <energy>
    <i name="e_fr_energy">    -36.90058361 </i>
    <i name="e_wo_entrp">    -36.90057894 </i>
    <i name="e_0_energy">    -36.90058128 </i>
   </energy>
  </scstep>
  <scstep>
   <time name="diag">   78.93   78.94</time>
   <time name="diis">  159.15  159.18</time>
   <time name="orth">    3.10    3.10</time>
   <time name="total">  243.52  243.59</time>
   <energy>
    <i name="alphaZ">      6.18334092 </i>
    <i name="ewald">   2502.84480448 </i>
    <i name="hartreedc">  -2996.99858976 </i>
    <i name="XCdc">     57.29113513 </i>
    <i name="pawpsdc">    272.02666760 </i>
    <i name="pawaedc">   -277.15260018 </i>
    <i name="eentropy">     -0.00000467 </i>
    <i name="bandstr">   -189.71886403 </i>
    <i name="atom">    588.62352690 </i>
    <i name="e_fr_energy">    -36.90058361 </i>
    <i name="e_wo_entrp">    -36.90057894 </i>
    <i name="e_0_energy">    -36.90058128 </i>
   </energy>
  </scstep>
  <structure>
   <crystal>
    <varray name="basis" >
     <v>       4.33800119       0.00000000       0.00000000 </v>
     <v>       0.00000000       2.46080783       0.00000000 </v>
     <v>       0.00000000       0.00000000      19.75064654 </v>
    </varray>
    <i name="volume">    210.83790140 </i>
    <varray name="rec_basis" >
     <v>       0.23052091       0.00000000       0.00000000 </v>
     <v>       0.00000000       0.40637062       0.00000000 </v>
     <v>       0.00000000       0.00000000       0.05063125 </v>
    </varray>
   </crystal>
   <varray name="positions" >
    <v>       0.99964106       0.00000000      -0.00000000 </v>
    <v>       0.16702561       0.50000000       0.00000000 </v>
    <v>       0.49964106       0.50000000      -0.00000000 </v>
    <v>       0.66702561       0.00000000       0.00000000 </v>
   </varray>
  </structure>
  <varray name="forces" >
   <v>      -0.00005271      -0.00000000      -0.00000000 </v>
   <v>       0.00005271       0.00000000       0.00000000 </v>
   <v>      -0.00005271       0.00000000      -0.00000000 </v>
   <v>       0.00005271      -0.00000000       0.00000000 </v>
  </varray>
  <varray name="stress" >
   <v>     -25.18716117       0.00000000       0.00000000 </v>
   <v>       0.00000000       0.00188581       0.00000000 </v>
   <v>       0.00000000       0.00000000      -0.01030933 </v>
  </varray>
  <energy>
   <i name="e_fr_energy">    -36.90058361 </i>
   <i name="e_wo_entrp">    -36.90058128 </i>
   <i name="e_0_energy">     -0.00000467 </i>
  </energy>
  <time name="totalsc"> 1572.71 1578.96</time>
 </calculation>
 <calculation>
  <scstep>
   <time name="dav">  309.77  309.83</time>
   <time name="total">  342.34  342.41</time>
   <energy>
    <i name="alphaZ">      6.18334092 </i>
    <i name="ewald">   2502.84479736 </i>
    <i name="hartreedc">  -2996.99858699 </i>
    <i name="XCdc">     57.29113493 </i>
    <i name="pawpsdc">    272.02666843 </i>
    <i name="pawaedc">   -277.15260102 </i>
    <i name="eentropy">     -0.00000467 </i>
    <i name="bandstr">   -189.71885947 </i>
    <i name="atom">    588.62352690 </i>
    <i name="e_fr_energy">    -36.90058361 </i>
[...]
       <r>   -9.3015    1.0000 </r>
       <r>   -5.5460    1.0000 </r>
       <r>   -5.5460    1.0000 </r>
       <r>   -0.4632    0.0000 </r>
       <r>   -0.4632    0.0000 </r>
       <r>    4.4105    0.0000 </r>
       <r>    4.4105    0.0000 </r>
      </set>
      <set comment="kpoint 209">
       <r>  -18.7075    1.0000 </r>
       <r>  -16.9007    1.0000 </r>
       <r>  -14.1523    1.0000 </r>
       <r>  -12.5002    1.0000 </r>
       <r>  -12.3484    1.0000 </r>
       <r>  -10.8279    1.0000 </r>
       <r>   -6.3320    1.0000 </r>
       <r>   -4.4494    1.0000 </r>
       <r>   -1.1183    0.0000 </r>
       <r>    1.0448    0.0000 </r>
       <r>    5.2899    0.0000 </r>
       <r>    6.0668    0.0000 </r>
      </set>
      <set comment="kpoint 210">
       <r>  -18.6981    1.0000 </r>
       <r>  -16.8933    1.0000 </r>
       <r>  -14.2261    1.0000 </r>
       <r>  -12.5690    1.0000 </r>
       <r>  -12.2669    1.0000 </r>
       <r>  -10.7614    1.0000 </r>
       <r>   -6.3235    1.0000 </r>
       <r>   -4.4530    1.0000 </r>
       <r>   -1.1259    0.0000 </r>
       <r>    1.0211    0.0000 </r>
       <r>    5.3030    0.0000 </r>
       <r>    6.0823    0.0000 </r>
      </set>
      <set comment="kpoint 211">
       <r>  -18.6699    1.0000 </r>
       <r>  -16.8715    1.0000 </r>
       <r>  -14.4153    1.0000 </r>
       <r>  -12.7484    1.0000 </r>
       <r>  -12.0546    1.0000 </r>
       <r>  -10.5900    1.0000 </r>
       <r>   -6.2981    1.0000 </r>
       <r>   -4.4642    1.0000 </r>
       <r>   -1.1471    0.0000 </r>
       <r>    0.9515    0.0000 </r>
       <r>    5.3424    0.0000 </r>
       <r>    6.1284    0.0000 </r>
      </set>
      <set comment="kpoint 212">
       <r>  -18.6230    1.0000 </r>
       <r>  -16.8365    1.0000 </r>
       <r>  -14.6645    1.0000 </r>
       <r>  -12.9907    1.0000 </r>
       <r>  -11.7670    1.0000 </r>
       <r>  -10.3631    1.0000 </r>
       <r>   -6.2561    1.0000 </r>
       <r>   -4.4845    1.0000 </r>
       <r>   -1.1774    0.0000 </r>
       <r>    0.8408    0.0000 </r>
       <r>    5.4074    0.0000 </r>
       <r>    6.2042    0.0000 </r>
      </set>
      <set comment="kpoint 213">
       <r>  -18.5574    1.0000 </r>
       <r>  -16.7913    1.0000 </r>
       <r>  -14.9346    1.0000 </r>
       <r>  -13.2629    1.0000 </r>
       <r>  -11.4426    1.0000 </r>
       <r>  -10.1171    1.0000 </r>
       <r>   -6.1978    1.0000 </r>
       <r>   -4.5158    1.0000 </r>
       <r>   -1.2099    0.0000 </r>
       <r>    0.6957    0.0000 </r>
       <r>    5.4954    0.0000 </r>
       <r>    6.1764    0.0000 </r>
      </set>
      <set comment="kpoint 214">
       <r>  -18.4736    1.0000 </r>
       <r>  -16.7413    1.0000 </r>
       <r>  -15.2008    1.0000 </r>
       <r>  -13.5465    1.0000 </r>
       <r>  -11.1037    1.0000 </r>
       <r>   -9.8748    1.0000 </r>
       <r>   -6.1242    1.0000 </r>
       <r>   -4.5606    1.0000 </r>
       <r>   -1.2368    0.0000 </r>
       <r>    0.5242    0.0000 </r>
       <r>    5.5593    0.0000 </r>
       <r>    5.7421    0.0000 </r>
      </set>
      <set comment="kpoint 215">
       <r>  -18.3716    1.0000 </r>
       <r>  -16.6981    1.0000 </r>
       <r>  -15.4415    1.0000 </r>
       <r>  -13.8312    1.0000 </r>
       <r>  -10.7646    1.0000 </r>
       <r>   -9.6520    1.0000 </r>
       <r>   -6.0359    1.0000 </r>
       <r>   -4.6209    1.0000 </r>
       <r>   -1.2502    0.0000 </r>
       <r>    0.3344    0.0000 </r>
       <r>    5.2245    0.0000 </r>
       <r>    5.7881    0.0000 </r>
      </set>
      <set comment="kpoint 216">
       <r>  -18.2519    1.0000 </r>
       <r>  -16.6841    1.0000 </r>
       <r>  -15.6286    1.0000 </r>
       <r>  -14.1110    1.0000 </r>
       <r>  -10.4363    1.0000 </r>
       <r>   -9.4610    1.0000 </r>
       <r>   -5.9343    1.0000 </r>
       <r>   -4.6980    1.0000 </r>
       <r>   -1.2434    0.0000 </r>
       <r>    0.1339    0.0000 </r>
       <r>    4.8619    0.0000 </r>
       <r>    5.8319    0.0000 </r>
      </set>
      <set comment="kpoint 217">
       <r>  -18.1150    1.0000 </r>
       <r>  -16.7309    1.0000 </r>
       <r>  -15.7272    1.0000 </r>
       <r>  -14.3816    1.0000 </r>
       <r>  -10.1281    1.0000 </r>
       <r>   -9.3120    1.0000 </r>
       <r>   -5.8208    1.0000 </r>
       <r>   -4.7919    1.0000 </r>
       <r>   -1.2113    0.0000 </r>
       <r>   -0.0701    0.0000 </r>
       <r>    4.5697    0.0000 </r>
       <r>    5.3850    0.0000 </r>
      </set>
      <set comment="kpoint 218">
       <r>  -17.9617    1.0000 </r>
       <r>  -16.8521    1.0000 </r>
       <r>  -15.7216    1.0000 </r>
       <r>  -14.6399    1.0000 </r>
       <r>   -9.8493    1.0000 </r>
       <r>   -9.2139    1.0000 </r>
       <r>   -5.6973    1.0000 </r>
       <r>   -4.9013    1.0000 </r>
       <r>   -1.1514    0.0000 </r>
       <r>   -0.2715    0.0000 </r>
       <r>    4.3598    0.0000 </r>
       <r>    4.9968    0.0000 </r>
      </set>
      <set comment="kpoint 219">
       <r>  -17.7932    1.0000 </r>
       <r>  -17.0250    1.0000 </r>
       <r>  -15.6333    1.0000 </r>
       <r>  -14.8833    1.0000 </r>
       <r>   -9.6087    1.0000 </r>
       <r>   -9.1729    1.0000 </r>
       <r>   -5.5660    1.0000 </r>
       <r>   -5.0233    1.0000 </r>
       <r>   -1.0630    0.0000 </r>
       <r>   -0.4646    0.0000 </r>
       <r>    4.2392    0.0000 </r>
       <r>    4.6771    0.0000 </r>
      </set>
      <set comment="kpoint 220">
       <r>  -17.6111    1.0000 </r>
       <r>  -17.2198    1.0000 </r>
       <r>  -15.4913    1.0000 </r>
       <r>  -15.1089    1.0000 </r>
       <r>   -9.4146    1.0000 </r>
       <r>   -9.1928    1.0000 </r>
       <r>   -5.4297    1.0000 </r>
       <r>   -5.1546    1.0000 </r>
       <r>   -0.9473    0.0000 </r>
       <r>   -0.6445    0.0000 </r>
       <r>    4.2118    0.0000 </r>
       <r>    4.4349    0.0000 </r>
      </set>
      <set comment="kpoint 221">
       <r>  -17.4183    1.0000 </r>
       <r>  -17.4183    1.0000 </r>
       <r>  -15.3133    1.0000 </r>
       <r>  -15.3133    1.0000 </r>
       <r>   -9.2742    1.0000 </r>
       <r>   -9.2742    1.0000 </r>
       <r>   -5.2914    1.0000 </r>
       <r>   -5.2914    1.0000 </r>
       <r>   -0.8067    0.0000 </r>
       <r>   -0.8067    0.0000 </r>
       <r>    4.2779    0.0000 </r>
       <r>    4.2779    0.0000 </r>
      </set>
      <set comment="kpoint 222">
       <r>  -18.2811    1.0000 </r>
       <r>  -17.3740    1.0000 </r>
       <r>  -13.7699    1.0000 </r>
       <r>  -12.9430    1.0000 </r>
       <r>  -12.0000    1.0000 </r>
       <r>  -11.2348    1.0000 </r>
       <r>   -5.8724    1.0000 </r>
       <r>   -4.9255    1.0000 </r>
       <r>   -0.6103    0.0000 </r>
       <r>    0.4735    0.0000 </r>
       <r>    5.8940    0.0000 </r>
       <r>    6.6291    0.0000 </r>
      </set>
      <set comment="kpoint 223">
       <r>  -18.2718    1.0000 </r>
       <r>  -17.3655    1.0000 </r>
       <r>  -13.8440    1.0000 </r>
       <r>  -13.0141    1.0000 </r>
       <r>  -11.9209    1.0000 </r>
       <r>  -11.1636    1.0000 </r>
       <r>   -5.8652    1.0000 </r>
       <r>   -4.9235    1.0000 </r>
       <r>   -0.6248    0.0000 </r>
       <r>    0.4518    0.0000 </r>
       <r>    5.9071    0.0000 </r>
       <r>    6.6454    0.0000 </r>
      </set>
      <set comment="kpoint 224">
       <r>  -18.2441    1.0000 </r>
       <r>  -17.3402    1.0000 </r>
       <r>  -14.0346    1.0000 </r>
       <r>  -13.1985    1.0000 </r>
       <r>  -11.7158    1.0000 </r>
       <r>  -10.9793    1.0000 </r>
       <r>   -5.8438    1.0000 </r>
       <r>   -4.9180    1.0000 </r>
       <r>   -0.6666    0.0000 </r>
       <r>    0.3883    0.0000 </r>
       <r>    5.9462    0.0000 </r>
       <r>    6.6941    0.0000 </r>
      </set>
      <set comment="kpoint 225">
       <r>  -18.1981    1.0000 </r>
       <r>  -17.2985    1.0000 </r>
       <r>  -14.2877    1.0000 </r>
       <r>  -13.4461    1.0000 </r>
       <r>  -11.4396    1.0000 </r>
       <r>  -10.7338    1.0000 </r>
       <r>   -5.8086    1.0000 </r>
       <r>   -4.9100    1.0000 </r>
       <r>   -0.7311    0.0000 </r>
       <r>    0.2877    0.0000 </r>
       <r>    6.0103    0.0000 </r>
       <r>    6.7737    0.0000 </r>
      </set>
      <set comment="kpoint 226">
       <r>  -18.1339    1.0000 </r>
       <r>  -17.2413    1.0000 </r>
       <r>  -14.5668    1.0000 </r>
       <r>  -13.7228    1.0000 </r>
       <r>  -11.1305    1.0000 </r>
       <r>  -10.4641    1.0000 </r>
       <r>   -5.7603    1.0000 </r>
       <r>   -4.9013    1.0000 </r>
       <r>   -0.8113    0.0000 </r>
       <r>    0.1567    0.0000 </r>
       <r>    6.0913    0.0000 </r>
       <r>    6.4648    0.0000 </r>
      </set>
      <set comment="kpoint 227">
       <r>  -18.0519    1.0000 </r>
       <r>  -17.1703    1.0000 </r>
       <r>  -14.8512    1.0000 </r>
       <r>  -14.0096    1.0000 </r>
       <r>  -10.8110    1.0000 </r>
       <r>  -10.1930    1.0000 </r>
       <r>   -5.7000    1.0000 </r>
       <r>   -4.8942    1.0000 </r>
       <r>   -0.8986    0.0000 </r>
       <r>    0.0034    0.0000 </r>
       <r>    5.9067    0.0000 </r>
       <r>    6.2516    0.0000 </r>
      </set>
      <set comment="kpoint 228">
       <r>  -17.9525    1.0000 </r>
       <r>  -17.0883    1.0000 </r>
       <r>  -15.1281    1.0000 </r>
       <r>  -14.2962    1.0000 </r>
       <r>  -10.4959    1.0000 </r>
       <r>   -9.9361    1.0000 </r>
       <r>   -5.6291    1.0000 </r>
       <r>   -4.8917    1.0000 </r>
       <r>   -0.9839    0.0000 </r>
       <r>   -0.1639    0.0000 </r>
       <r>    5.4521    0.0000 </r>
       <r>    6.0048    0.0000 </r>
      </set>
      <set comment="kpoint 229">
       <r>  -17.8366    1.0000 </r>
       <r>  -17.0008    1.0000 </r>
       <r>  -15.3862    1.0000 </r>
       <r>  -14.5761    1.0000 </r>
       <r>  -10.1963    1.0000 </r>
       <r>   -9.7052    1.0000 </r>
       <r>   -5.5494    1.0000 </r>
       <r>   -4.8970    1.0000 </r>
       <r>   -1.0580    0.0000 </r>
       <r>   -0.3369    0.0000 </r>
       <r>    5.0462    0.0000 </r>
       <r>    5.5337    0.0000 </r>
      </set>
      <set comment="kpoint 230">
       <r>  -17.7050    1.0000 </r>
       <r>  -16.9188    1.0000 </r>
       <r>  -15.6112    1.0000 </r>
       <r>  -14.8448    1.0000 </r>
       <r>   -9.9222    1.0000 </r>
       <r>   -9.5110    1.0000 </r>
       <r>   -5.4633    1.0000 </r>
       <r>   -4.9131    1.0000 </r>
       <r>   -1.1128    0.0000 </r>
       <r>   -0.5079    0.0000 </r>
       <r>    4.7078    0.0000 </r>
       <r>    5.1180    0.0000 </r>
      </set>
      <set comment="kpoint 231">
       <r>  -17.5596    1.0000 </r>
       <r>  -16.8639    1.0000 </r>
       <r>  -15.7796    1.0000 </r>
       <r>  -15.0982    1.0000 </r>
       <r>   -9.6831    1.0000 </r>
       <r>   -9.3627    1.0000 </r>
       <r>   -5.3735    1.0000 </r>
       <r>   -4.9423    1.0000 </r>
       <r>   -1.1416    0.0000 </r>
       <r>   -0.6696    0.0000 </r>
       <r>    4.4470    0.0000 </r>
       <r>    4.7678    0.0000 </r>
      </set>
      <set comment="kpoint 232">
       <r>  -17.4031    1.0000 </r>
       <r>  -16.8681    1.0000 </r>
       <r>  -15.8578    1.0000 </r>
       <r>  -15.3322    1.0000 </r>
       <r>   -9.4876    1.0000 </r>
       <r>   -9.2677    1.0000 </r>
       <r>   -5.2831    1.0000 </r>
       <r>   -4.9861    1.0000 </r>
       <r>   -1.1397    0.0000 </r>
       <r>   -0.8156    0.0000 </r>
       <r>    4.2718    0.0000 </r>
       <r>    4.4925    0.0000 </r>
      </set>
      <set comment="kpoint 233">
       <r>  -17.2408    1.0000 </r>
       <r>  -16.9481    1.0000 </r>
       <r>  -15.8285    1.0000 </r>
       <r>  -15.5404    1.0000 </r>
       <r>   -9.3437    1.0000 </r>
       <r>   -9.2317    1.0000 </r>
       <r>   -5.1957    1.0000 </r>
       <r>   -5.0441    1.0000 </r>
       <r>   -1.1051    0.0000 </r>
       <r>   -0.9400    0.0000 </r>
       <r>    4.1877    0.0000 </r>
       <r>    4.3002    0.0000 </r>
      </set>
      <set comment="kpoint 234">
       <r>  -17.0826    1.0000 </r>
       <r>  -17.0826    1.0000 </r>
       <r>  -15.7124    1.0000 </r>
       <r>  -15.7124    1.0000 </r>
       <r>   -9.2572    1.0000 </r>
       <r>   -9.2572    1.0000 </r>
       <r>   -5.1149    1.0000 </r>
       <r>   -5.1149    1.0000 </r>
       <r>   -1.0378    0.0000 </r>
       <r>   -1.0378    0.0000 </r>
       <r>    4.1974    0.0000 </r>
       <r>    4.1974    0.0000 </r>
      </set>
      <set comment="kpoint 235">
       <r>  -17.8356    1.0000 </r>
       <r>  -17.8356    1.0000 </r>
       <r>  -13.3666    1.0000 </r>
       <r>  -13.3666    1.0000 </r>
       <r>  -11.6270    1.0000 </r>
       <r>  -11.6270    1.0000 </r>
       <r>   -5.4019    1.0000 </r>
       <r>   -5.4019    1.0000 </r>
       <r>   -0.0790    0.0000 </r>
       <r>   -0.0790    0.0000 </r>
       <r>    6.5300    0.0000 </r>
       <r>    6.5300    0.0000 </r>
      </set>
      <set comment="kpoint 236">
       <r>  -17.8266    1.0000 </r>
       <r>  -17.8266    1.0000 </r>
       <r>  -13.4395    1.0000 </r>
       <r>  -13.4395    1.0000 </r>
       <r>  -11.5514    1.0000 </r>
       <r>  -11.5514    1.0000 </r>
       <r>   -5.3967    1.0000 </r>
       <r>   -5.3967    1.0000 </r>
       <r>   -0.0978    0.0000 </r>
       <r>   -0.0978    0.0000 </r>
       <r>    6.5430    0.0000 </r>
       <r>    6.5430    0.0000 </r>
      </set>
      <set comment="kpoint 237">
       <r>  -17.7997    1.0000 </r>
       <r>  -17.7997    1.0000 </r>
       <r>  -13.6279    1.0000 </r>
       <r>  -13.6279    1.0000 </r>
       <r>  -11.3559    1.0000 </r>
       <r>  -11.3559    1.0000 </r>
       <r>   -5.3814    1.0000 </r>
       <r>   -5.3814    1.0000 </r>
       <r>   -0.1526    0.0000 </r>
       <r>   -0.1526    0.0000 </r>
       <r>    6.5817    0.0000 </r>
       <r>    6.5817    0.0000 </r>
      </set>
      <set comment="kpoint 238">
       <r>  -17.7552    1.0000 </r>
       <r>  -17.7552    1.0000 </r>
       <r>  -13.8795    1.0000 </r>
       <r>  -13.8795    1.0000 </r>
       <r>  -11.0938    1.0000 </r>
       <r>  -11.0938    1.0000 </r>
       <r>   -5.3566    1.0000 </r>
       <r>   -5.3566    1.0000 </r>
       <r>   -0.2388    0.0000 </r>
       <r>   -0.2388    0.0000 </r>
       <r>    6.6440    0.0000 </r>
       <r>    6.6440    0.0000 </r>
      </set>
      <set comment="kpoint 239">
       <r>  -17.6933    1.0000 </r>
       <r>  -17.6933    1.0000 </r>
       <r>  -14.1590    1.0000 </r>
       <r>  -14.1590    1.0000 </r>
       <r>  -10.8030    1.0000 </r>
       <r>  -10.8030    1.0000 </r>
       <r>   -5.3236    1.0000 </r>
       <r>   -5.3236    1.0000 </r>
       <r>   -0.3495    0.0000 </r>
       <r>   -0.3495    0.0000 </r>
       <r>    6.6704    0.0000 </r>
       <r>    6.6705    0.0000 </r>
      </set>
      <set comment="kpoint 240">
       <r>  -17.6147    1.0000 </r>
       <r>  -17.6147    1.0000 </r>
       <r>  -14.4471    1.0000 </r>
       <r>  -14.4471    1.0000 </r>
       <r>  -10.5063    1.0000 </r>
       <r>  -10.5063    1.0000 </r>
       <r>   -5.2839    1.0000 </r>
       <r>   -5.2839    1.0000 </r>
       <r>   -0.4764    0.0000 </r>
       <r>   -0.4764    0.0000 </r>
       <r>    6.2036    0.0000 </r>
       <r>    6.2036    0.0000 </r>
      </set>
      <set comment="kpoint 241">
       <r>  -17.5205    1.0000 </r>
       <r>  -17.5205    1.0000 </r>
       <r>  -14.7326    1.0000 </r>
       <r>  -14.7326    1.0000 </r>
       <r>  -10.2185    1.0000 </r>
       <r>  -10.2185    1.0000 </r>
       <r>   -5.2397    1.0000 </r>
       <r>   -5.2397    1.0000 </r>
       <r>   -0.6108    0.0000 </r>
       <r>   -0.6108    0.0000 </r>
       <r>    5.7123    0.0000 </r>
       <r>    5.7123    0.0000 </r>
      </set>
      <set comment="kpoint 242">
       <r>  -17.4122    1.0000 </r>
       <r>  -17.4122    1.0000 </r>
       <r>  -15.0084    1.0000 </r>
       <r>  -15.0084    1.0000 </r>
       <r>   -9.9515    1.0000 </r>
       <r>   -9.9515    1.0000 </r>
       <r>   -5.1938    1.0000 </r>
       <r>   -5.1938    1.0000 </r>
       <r>   -0.7437    0.0000 </r>
       <r>   -0.7437    0.0000 </r>
       <r>    5.2708    0.0000 </r>
       <r>    5.2708    0.0000 </r>
      </set>
      <set comment="kpoint 243">
       <r>  -17.2928    1.0000 </r>
       <r>  -17.2928    1.0000 </r>
       <r>  -15.2680    1.0000 </r>
       <r>  -15.2680    1.0000 </r>
       <r>   -9.7154    1.0000 </r>
       <r>   -9.7154    1.0000 </r>
       <r>   -5.1493    1.0000 </r>
       <r>   -5.1493    1.0000 </r>
       <r>   -0.8666    0.0000 </r>
       <r>   -0.8666    0.0000 </r>
       <r>    4.8913    0.0000 </r>
       <r>    4.8913    0.0000 </r>
      </set>
      <set comment="kpoint 244">
       <r>  -17.1677    1.0000 </r>
       <r>  -17.1677    1.0000 </r>
       <r>  -15.5041    1.0000 </r>
       <r>  -15.5041    1.0000 </r>
       <r>   -9.5199    1.0000 </r>
       <r>   -9.5199    1.0000 </r>
       <r>   -5.1096    1.0000 </r>
       <r>   -5.1096    1.0000 </r>
       <r>   -0.9717    0.0000 </r>
       <r>   -0.9717    0.0000 </r>
       <r>    4.5837    0.0000 </r>
       <r>    4.5837    0.0000 </r>
      </set>
      <set comment="kpoint 245">
       <r>  -17.0472    1.0000 </r>
       <r>  -17.0472    1.0000 </r>
       <r>  -15.7046    1.0000 </r>
       <r>  -15.7046    1.0000 </r>
       <r>   -9.3732    1.0000 </r>
       <r>   -9.3732    1.0000 </r>
       <r>   -5.0781    1.0000 </r>
       <r>   -5.0781    1.0000 </r>
       <r>   -1.0523    0.0000 </r>
       <r>   -1.0523    0.0000 </r>
       <r>    4.3567    0.0000 </r>
       <r>    4.3567    0.0000 </r>
      </set>
      <set comment="kpoint 246">
       <r>  -16.9520    1.0000 </r>
       <r>  -16.9520    1.0000 </r>
       <r>  -15.8481    1.0000 </r>
       <r>  -15.8481    1.0000 </r>
       <r>   -9.2822    1.0000 </r>
       <r>   -9.2822    1.0000 </r>
       <r>   -5.0579    1.0000 </r>
       <r>   -5.0579    1.0000 </r>
       <r>   -1.1029    0.0000 </r>
       <r>   -1.1029    0.0000 </r>
       <r>    4.2173    0.0000 </r>
       <r>    4.2173    0.0000 </r>
      </set>
      <set comment="kpoint 247">
       <r>  -16.9139    1.0000 </r>
       <r>  -16.9139    1.0000 </r>
       <r>  -15.9024    1.0000 </r>
       <r>  -15.9024    1.0000 </r>
       <r>   -9.2514    1.0000 </r>
       <r>   -9.2514    1.0000 </r>
       <r>   -5.0509    1.0000 </r>
       <r>   -5.0509    1.0000 </r>
       <r>   -1.1202    0.0000 </r>
       <r>   -1.1202    0.0000 </r>
       <r>    4.1704    0.0000 </r>
       <r>    4.1704    0.0000 </r>
      </set>
     </set>
    </set>
   </array>
  </eigenvalues>
  <separator name="orbital magnetization" >
   <v name="MAGDIPOLOUT">      0.00000000      0.00000000      0.00000000</v>
  </separator>
 </calculation>
 <structure name="finalpos" >
  <crystal>
   <varray name="basis" >
    <v>       4.33800119       0.00000000       0.00000000 </v>
    <v>       0.00000000       2.46080783       0.00000000 </v>
    <v>       0.00000000       0.00000000      19.75064654 </v>
   </varray>
   <i name="volume">    210.83790140 </i>
   <varray name="rec_basis" >
    <v>       0.23052091       0.00000000       0.00000000 </v>
    <v>       0.00000000       0.40637062       0.00000000 </v>
    <v>       0.00000000       0.00000000       0.05063125 </v>
   </varray>
  </crystal>
  <varray name="positions" >
   <v>       0.99964093       0.00000000      -0.00000000 </v>
   <v>       0.16702573       0.50000000       0.00000000 </v>
   <v>       0.49964093       0.50000000      -0.00000000 </v>
   <v>       0.66702573      -0.00000000       0.00000000 </v>
  </varray>
 </structure>
</modeling>
