gr                                      
           1
     4.338001    0.000000    0.000000
     0.000000    2.460808    0.000000
     0.000000    0.000000   19.750647
   C 
   4
Direct configuration=     1
   0.99964215  0.00000000  0.00000000
   0.16702452  0.50000000  0.00000000
   0.49964215  0.50000000  0.00000000
   0.66702452  0.00000000  0.00000000
Direct configuration=     2
   0.99963621 -0.00000000  0.00000000
   0.16703046  0.50000000  0.00000000
   0.49963621  0.50000000  0.00000000
   0.66703046 -0.00000000  0.00000000
Direct configuration=     3
   0.99964093 -0.00000000 -0.00000000
   0.16702573  0.50000000  0.00000000
   0.49964093  0.50000000 -0.00000000
   0.66702573 -0.00000000  0.00000000
Direct configuration=     4
   0.99964092  0.00000000 -0.00000000
   0.16702575  0.50000000  0.00000000
   0.49964092  0.50000000 -0.00000000
   0.66702575 -0.00000000  0.00000000
Direct configuration=     5
   0.99964093  0.00000000  0.00000000
   0.16702574  0.50000000 -0.00000000
   0.49964093  0.50000000  0.00000000
   0.66702574 -0.00000000 -0.00000000
Direct configuration=     6
   0.99964093  0.00000000  0.00000000
   0.16702574  0.50000000 -0.00000000
   0.49964093  0.50000000  0.00000000
   0.66702574 -0.00000000 -0.00000000
Direct configuration=     7
   0.99964106  0.00000000 -0.00000000
   0.16702561  0.50000000  0.00000000
   0.49964106  0.50000000 -0.00000000
   0.66702561  0.00000000  0.00000000
Direct configuration=     8
   0.99964093  0.00000000 -0.00000000
   0.16702573  0.50000000  0.00000000
   0.49964093  0.50000000 -0.00000000
   0.66702573 -0.00000000  0.00000000
