 running on    8 total cores
 distrk:  each k-point on    8 cores,    1 groups
 distr:  one band on    2 cores,    4 groups
 using from now: INCAR     
 vasp.5.3.5 31Mar14 (build Mar 02 2015 18:14:16) complex                        
  
 POSCAR found type information on POSCAR  C 
 POSCAR found :  1 types and       4 ions
 LDA part: xc-table for Pade appr. of Perdew
 POSCAR, INCAR and KPOINTS ok, starting setup
 FFT: planning ...
 WAVECAR not read
 entering main loop
       N       E                     dE             d eps       ncg     rms          rms(c)
DAV:   1     0.191286431247E+03    0.19129E+03   -0.10603E+04  5928   0.275E+03
DAV:   2    -0.931455878498E+01   -0.20060E+03   -0.17905E+03 10576   0.262E+02
DAV:   3    -0.384429594677E+02   -0.29128E+02   -0.28740E+02  7372   0.120E+02    0.738E+00
RMM:   4    -0.377013597568E+02    0.74160E+00   -0.90151E+00  5928   0.260E+01    0.425E+00
RMM:   5    -0.369302225354E+02    0.77114E+00   -0.28419E+00  5931   0.116E+01    0.727E-01
RMM:   6    -0.369310726520E+02   -0.85012E-03   -0.38330E-02  6350   0.203E+00    0.525E-01
RMM:   7    -0.369216930909E+02    0.93796E-02   -0.34244E-02  5947   0.161E+00    0.351E-01
RMM:   8    -0.369154041233E+02    0.62890E-02   -0.87910E-03  5933   0.618E-01    0.130E-01
RMM:   9    -0.369150495738E+02    0.35455E-03   -0.19871E-02  5930   0.831E-01    0.157E-01
RMM:  10    -0.369149676584E+02    0.81915E-04   -0.25293E-03  5933   0.366E-01    0.308E-02
RMM:  11    -0.369175820405E+02   -0.26144E-02   -0.77079E-04  5936   0.181E-01    0.480E-02
RMM:  12    -0.369179960131E+02   -0.41397E-03   -0.26175E-04  5940   0.110E-01    0.426E-03
RMM:  13    -0.369182922412E+02   -0.29623E-03   -0.82364E-05  6019   0.399E-02    0.485E-03
RMM:  14    -0.369183800309E+02   -0.87790E-04   -0.22259E-05  5944   0.202E-02    0.226E-03
RMM:  15    -0.369203889012E+02   -0.20089E-02   -0.78492E-05  6018   0.703E-03    0.661E-03
RMM:  16    -0.369253867952E+02   -0.49979E-02   -0.41805E-02  6055   0.113E-02    0.777E-03
RMM:  17    -0.369253949300E+02   -0.81349E-05   -0.19535E-04  5928   0.606E-03    0.894E-03
RMM:  18    -0.369254091491E+02   -0.14219E-04   -0.23147E-05  5931   0.728E-03    0.541E-03
RMM:  19    -0.369254143264E+02   -0.51773E-05   -0.23592E-06  5928   0.921E-03    0.175E-03
RMM:  20    -0.369254158466E+02   -0.15202E-05   -0.33289E-07  5964   0.343E-03    0.414E-04
RMM:  21    -0.369254158662E+02   -0.19587E-07   -0.18804E-08  5980   0.997E-04    0.595E-04
RMM:  22    -0.369254159128E+02   -0.46615E-07   -0.95280E-09  5928   0.611E-04    0.294E-04
RMM:  23    -0.369254159545E+02   -0.41709E-07   -0.66569E-09  5928   0.518E-04    0.121E-04
RMM:  24    -0.369254159540E+02    0.51057E-09   -0.76037E-10  5600   0.199E-04    0.126E-04
RMM:  25    -0.369254159252E+02    0.28770E-07   -0.61569E-10  4975   0.137E-04    0.989E-05
RMM:  26    -0.369254158931E+02    0.32116E-07   -0.12986E-09  5653   0.186E-04    0.674E-05
RMM:  27    -0.369254158738E+02    0.19291E-07   -0.31307E-10  4450   0.876E-05    0.552E-05
RMM:  28    -0.369254158326E+02    0.41252E-07   -0.12611E-09  4937   0.162E-04    0.285E-05
RMM:  29    -0.369254158098E+02    0.22729E-07   -0.40507E-10  4450   0.912E-05    0.156E-05
RMM:  30    -0.369254157923E+02    0.17521E-07   -0.32489E-10  4492   0.807E-05    0.582E-06
RMM:  31    -0.369254157856E+02    0.67384E-08   -0.86791E-11  3961   0.480E-05    0.394E-06
RMM:  32    -0.369254157848E+02    0.81479E-09   -0.10187E-11  3286   0.297E-05    0.250E-06
RMM:  33    -0.369254157863E+02   -0.15471E-08   -0.50151E-12  2717   0.238E-05    0.139E-06
RMM:  34    -0.369254157861E+02    0.22180E-09   -0.31609E-12  2352   0.205E-05    0.144E-06
RMM:  35    -0.369254157865E+02   -0.45338E-09   -0.22069E-12  2103   0.186E-05    0.130E-06
RMM:  36    -0.369254157861E+02    0.44861E-09   -0.20241E-12  1957   0.177E-05    0.135E-06
RMM:  37    -0.369254157862E+02   -0.62755E-10   -0.49413E-13  1887   0.167E-05
   1 F= -.36925416E+02 E0= -.36925353E+02  d E =-.369254E+02
 BRION: g(F)=  0.678E-03 g(S)=  0.000E+00
 bond charge predicted
       N       E                     dE             d eps       ncg     rms          rms(c)
DAV:   1    -0.369244060371E+02    0.10097E-02   -0.91500E-02  6672   0.285E+00    0.615E-02
RMM:   2    -0.369244502056E+02   -0.44168E-04   -0.14672E-03  5930   0.342E-01    0.437E-02
RMM:   3    -0.369244025056E+02    0.47700E-04   -0.26113E-04  5977   0.130E-01    0.108E-02
RMM:   4    -0.369243980694E+02    0.44362E-05   -0.15165E-05  6088   0.307E-02    0.309E-03
RMM:   5    -0.369243982159E+02   -0.14650E-06   -0.11570E-06  6205   0.778E-03    0.149E-03
RMM:   6    -0.369243981328E+02    0.83123E-07   -0.18838E-07  6093   0.335E-03    0.114E-04
WARNING in EDDRMM: call to ZHEGV failed, returncode =   6  3  1
RMM:   7    -0.369243981337E+02   -0.89335E-09   -0.11449E-08  6087   0.772E-04    0.878E-05
RMM:   8    -0.369243981338E+02   -0.79581E-10   -0.83562E-10  5518   0.227E-04
   2 F= -.36924398E+02 E0= -.36924351E+02  d E =0.101765E-02
 BRION: g(F)=  0.109E-01 g(S)=  0.000E+00 retain N=  1 mean eig= 0.20
 eig:   0.200
 bond charge predicted
       N       E                     dE             d eps       ncg     rms          rms(c)
DAV:   1    -0.369254916928E+02   -0.10936E-02   -0.58468E-02  6320   0.228E+00    0.494E-02
RMM:   2    -0.369255161722E+02   -0.24479E-04   -0.90878E-04  5928   0.272E-01    0.348E-02
RMM:   3    -0.369254860674E+02    0.30105E-04   -0.16594E-04  5952   0.104E-01    0.846E-03
RMM:   4    -0.369254833400E+02    0.27274E-05   -0.96701E-06  6101   0.249E-02    0.250E-03
RMM:   5    -0.369254834325E+02   -0.92518E-07   -0.74564E-07  6165   0.620E-03    0.121E-03
RMM:   6    -0.369254833784E+02    0.54118E-07   -0.13054E-07  6100   0.279E-03    0.874E-05
RMM:   7    -0.369254833779E+02    0.56343E-09   -0.71196E-09  6094   0.603E-04    0.686E-05
WARNING in EDDRMM: call to ZHEGV failed, returncode =   6  3  1
RMM:   8    -0.369254833769E+02    0.92882E-09   -0.50484E-10  4822   0.180E-04    0.115E-05
RMM:   9    -0.369254833766E+02    0.32139E-09   -0.33755E-11  3836   0.669E-05    0.232E-06
RMM:  10    -0.369254833768E+02   -0.17201E-09   -0.28406E-11  3816   0.536E-05    0.290E-06
RMM:  11    -0.369254833773E+02   -0.50454E-09   -0.11746E-11  3526   0.404E-05    0.478E-07
RMM:  12    -0.369254833776E+02   -0.33822E-09   -0.12422E-11  3227   0.344E-05    0.428E-07
RMM:  13    -0.369254833778E+02   -0.15700E-09   -0.53621E-12  3023   0.300E-05    0.317E-07
RMM:  14    -0.369254833779E+02   -0.14063E-09   -0.26590E-12  2945   0.280E-05    0.206E-07
RMM:  15    -0.369254833778E+02    0.12983E-09   -0.71712E-12  2668   0.256E-05    0.130E-07
RMM:  16    -0.369254833779E+02   -0.13404E-09   -0.18833E-12  2461   0.227E-05    0.884E-08
RMM:  17    -0.369254833779E+02   -0.47748E-11   -0.22774E-12  2286   0.212E-05
   3 F= -.36925483E+02 E0= -.36925418E+02  d E =-.108524E-02
 BRION: g(F)=  0.403E-08 g(S)=  0.000E+00 retain N=  1 mean eig= 0.20
 eig:   0.200
 bond charge predicted
       N       E                     dE             d eps       ncg     rms          rms(c)
DAV:   1    -0.369254833774E+02    0.51705E-09   -0.16058E-08  6740   0.139E-03    0.305E-05
RMM:   2    -0.369254833782E+02   -0.78603E-09   -0.32438E-10  4422   0.169E-04    0.215E-05
RMM:   3    -0.369254833783E+02   -0.13699E-09   -0.68213E-11  3714   0.830E-05    0.506E-06
RMM:   4    -0.369254833783E+02    0.55024E-10   -0.17662E-11  3446   0.417E-05    0.156E-06
RMM:   5    -0.369254833781E+02    0.13642E-09   -0.59180E-12  2968   0.338E-05    0.215E-06
RMM:   6    -0.369254833783E+02   -0.14131E-09   -0.54663E-12  2864   0.294E-05    0.494E-07
RMM:   7    -0.369254833783E+02    0.10004E-10   -0.24618E-12  2407   0.259E-05
   4 F= -.36925483E+02 E0= -.36925418E+02  d E =-.341061E-09
 BRION: g(F)=  0.124E-12 g(S)=  0.000E+00 retain N=  1 mean eig= 0.20
 eig:   0.199
 reached required accuracy - stopping structural energy minimisation
