    4    4  400    1
  0.5270948E+02  0.4272614E-09  0.2467548E-09  0.1999813E-08  0.5000000E-15
  1.000000000000000E-004
  CAR 
 gr                                      
     16    247     12
 
  0.0000000E+00  0.0000000E+00  0.0000000E+00  0.1157407E-02
    1      -22.253614
    2      -17.017378
    3      -15.973075
    4      -10.358911
    5       -9.162127
    6       -5.787457
    7       -5.784239
    8       -5.108184
    9       -1.074820
   10        0.523876
   11        1.324948
   12        1.707895
 
  0.4166667E-01  0.0000000E+00  0.0000000E+00  0.2314815E-02
    1      -22.243362
    2      -17.182889
    3      -15.792300
    4      -10.346662
    5       -9.151934
    6       -5.826971
    7       -5.810054
    8       -5.174752
    9       -0.992272
   10        0.537782
   11        1.339038
   12        1.722155
 
  0.8333333E-01  0.0000000E+00  0.0000000E+00  0.2314815E-02
    1      -22.212610
    2      -17.520460
    3      -15.409020
    4      -10.309935
    5       -9.121408
    6       -5.953410
    7       -5.876596
    8       -5.359454
    9       -0.759802
   10        0.579503
   11        1.381303
   12        1.764935
 
  0.1250000E+00  0.0000000E+00  0.0000000E+00  0.2314815E-02
    1      -22.161377
    2      -17.897218
    3      -14.956369
    4      -10.248787
    5       -9.070701
    6       -6.158577
    7       -5.983538
    8       -5.628920
    9       -0.411297
   10        0.649045
   11        1.451732
   12        1.836236
 
  0.1666667E+00  0.0000000E+00  0.0000000E+00  0.2314815E-02
    1      -22.089698
    2      -18.276545
    3      -14.471408
    4      -10.163315
    5       -9.000076
    6       -6.435045
    7       -6.125606
    8       -5.950091
    9        0.019313
   10        0.746413
   11        1.550302
   12        1.936059
 
  0.2083333E+00  0.0000000E+00  0.0000000E+00  0.2314815E-02
    1      -21.997622
    2      -18.647146
    3      -13.966070
    4      -10.053661
    5       -8.909911
    6       -6.773939
    7       -6.298371
    8       -6.296509
    9        0.506180
   10        0.871605
   11        1.676979
   12        2.064406
 
  0.2500000E+00  0.0000000E+00  0.0000000E+00  0.2314815E-02
    1      -21.885211
    2      -19.004477
    3      -13.445745
    4       -9.920014
    5       -8.800712
    6       -7.165866
    7       -6.657374
    8       -6.489619
    9        1.024611
   10        1.031250
   11        1.831713
   12        2.221275
 
  0.2916667E+00  0.0000000E+00  0.0000000E+00  0.2314815E-02
    1      -21.752546
    2      -19.346289
    3      -12.913759
    4       -9.762618
    5       -8.673133
    6       -7.601632
    7       -7.016472
    8       -6.698488
    9        1.205405
   10        1.581715
   11        2.014425
   12        2.406665
 
  0.3333333E+00  0.0000000E+00  0.0000000E+00  0.2314815E-02
    1      -21.599725
    2      -19.671286
    3      -12.372749
    4       -9.581783
    5       -8.527991
    6       -8.072697
    7       -7.368689
    8       -6.917187
    9        1.413952
   10        2.147681
   11        2.224993
   12        2.620570
 
  0.3750000E+00  0.0000000E+00  0.0000000E+00  0.2314815E-02
    1      -21.426860
    2      -19.978629
    3      -11.825196
    4       -9.377901
    5       -8.571395
    6       -8.366298
    7       -7.709330
    8       -7.140463
    9        1.650198
   10        2.463198
   11        2.719815
   12        2.862981
 
  0.4166667E+00  0.0000000E+00  0.0000000E+00  0.2314815E-02
    1      -21.234089
    2      -20.267727
    3      -11.273679
    4       -9.151459
    5       -9.091003
    6       -8.189297
    7       -8.035133
    8       -7.363778
    9        1.914072
   10        2.728596
   11        3.133884
   12        3.243039
 
  0.4583333E+00  0.0000000E+00  0.0000000E+00  0.2314815E-02
    1      -21.021575
    2      -20.538137
    3      -10.721034
    4       -9.625698
    5       -8.903069
    6       -8.343764
    7       -7.998503
    8       -7.583286
    9        2.205475
   10        2.870246
   11        3.020031
   12        3.433433
 
  0.5000000E+00  0.0000000E+00  0.0000000E+00  0.1157407E-02
    1      -20.789514
    2      -20.789514
    3      -10.170474
    4      -10.170474
    5       -8.633506
    6       -8.633506
    7       -7.795757
    8       -7.795757
    9        2.524270
   10        2.524270
   11        3.332862
   12        3.332862
 
  0.0000000E+00  0.2777778E-01  0.0000000E+00  0.2314815E-02
    1      -22.239953
    2      -17.005658
    3      -15.961493
    4      -10.342590
    5       -9.223685
    6       -5.844238
    7       -5.814458
    8       -5.091558
    9       -1.078783
   10        0.542405
   11        1.343723
   12        1.726896
 
  0.4166667E-01  0.2777778E-01  0.0000000E+00  0.4629630E-02
    1      -22.229702
    2      -17.170999
    3      -15.780939
    4      -10.330346
    5       -9.213476
    6       -5.885376
    7       -5.837974
    8       -5.158273
    9       -0.996207
   10        0.556312
   11        1.357812
   12        1.741156
 
  0.8333333E-01  0.2777778E-01  0.0000000E+00  0.4629630E-02
    1      -22.198954
    2      -17.508309
    3      -15.398076
    4      -10.293632
    5       -9.182898
    6       -6.007851
    7       -5.906572
    8       -5.343309
    9       -0.763760
   10        0.598035
   11        1.400075
   12        1.783936
 
  0.1250000E+00  0.2777778E-01  0.0000000E+00  0.4629630E-02
    1      -22.147729
    2      -17.884839
    3      -14.945919
    4      -10.232505
    5       -9.132100
    6       -6.207378
    7       -6.016336
    8       -5.613120
    9       -0.415508
   10        0.667581
   11        1.470499
   12        1.855238
 
  0.1666667E+00  0.2777778E-01  0.0000000E+00  0.4629630E-02
    1      -22.076060
    2      -18.263972
    3      -14.461537
    4      -10.147062
    5       -9.061340
    6       -6.477188
    7       -6.161725
    8       -5.934544
    9        0.014517
   10        0.764955
   11        1.569063
   12        1.955063
 
  0.2083333E+00  0.2777778E-01  0.0000000E+00  0.4629630E-02
    1      -21.983999
    2      -18.634408
    3      -13.956883
    4      -10.037446
    5       -8.970985
    6       -6.809081
    7       -6.336138
    8       -6.282970
    9        0.500451
   10        0.890155
   11        1.695733
   12        2.083411
 
  0.2500000E+00  0.2777778E-01  0.0000000E+00  0.4629630E-02
    1      -21.871606
    2      -18.991598
    3      -13.437368
    4       -9.903845
    5       -8.861531
    6       -7.194198
    7       -6.642032
    8       -6.532682
    9        1.024264
   10        1.043171
   11        1.850459
   12        2.240283
 
  0.2916667E+00  0.2777778E-01  0.0000000E+00  0.4629630E-02
    1      -21.738963
    2      -19.333288
    3      -12.906348
    4       -9.746503
    5       -8.733614
    6       -7.623687
    7       -7.001125
    8       -6.744736
    9        1.223978
   10        1.573196
   11        2.033163
   12        2.425676
 
  0.3333333E+00  0.2777778E-01  0.0000000E+00  0.4629630E-02
    1      -21.586167
    2      -19.658181
    3      -12.366493
    4       -9.565732
    5       -8.588032
    6       -8.089176
    7       -7.353297
    8       -6.966269
    9        1.432538
   10        2.137429
   11        2.243725
   12        2.639584
 
  0.3750000E+00  0.2777778E-01  0.0000000E+00  0.4629630E-02
    1      -21.413334
    2      -19.965434
    3      -11.820325
    4       -9.361920
    5       -8.583046
    6       -8.425775
    7       -7.693867
    8       -7.191994
    9        1.668799
   10        2.481929
   11        2.707853
   12        2.882000
 
  0.4166667E+00  0.2777778E-01  0.0000000E+00  0.4629630E-02
    1      -21.220599
    2      -20.254455
    3      -11.270471
    4       -9.135556
    5       -9.098547
    6       -8.248055
    7       -8.019586
    8       -7.417377
    9        1.932690
   10        2.747337
   11        3.152911
   12        3.261879
 
  0.4583333E+00  0.2777778E-01  0.0000000E+00  0.4629630E-02
    1      -21.008128
    2      -20.524798
    3      -10.719826
    4       -9.629785
    5       -8.887250
    6       -8.328126
    7       -8.056354
    8       -7.638600
    9        2.224116
   10        2.888969
   11        3.038803
   12        3.452367
 
  0.5000000E+00  0.2777778E-01  0.0000000E+00  0.2314815E-02
    1      -20.776116
    2      -20.776116
    3      -10.171672
    4      -10.171672
    5       -8.617776
    6       -8.617776
    7       -7.852474
    8       -7.852474
    9        2.542942
   10        2.542942
   11        3.351612
   12        3.351612
 
  0.0000000E+00  0.5555556E-01  0.0000000E+00  0.2314815E-02
    1      -22.198980
    2      -16.970502
    3      -15.926899
    4      -10.293663
    5       -9.403436
    6       -6.010061
    7       -5.904380
    8       -5.041703
    9       -1.091504
   10        0.597998
   11        1.400040
   12        1.783901
 
  0.4166667E-01  0.5555556E-01  0.0000000E+00  0.4629630E-02
    1      -22.188733
    2      -17.135342
    3      -15.747004
    4      -10.281431
    5       -9.393170
    6       -6.052523
    7       -5.924594
    8       -5.108869
    9       -1.008840
   10        0.611906
   11        1.414126
   12        1.798161
 
  0.8333333E-01  0.5555556E-01  0.0000000E+00  0.4629630E-02
    1      -22.157998
    2      -17.471879
    3      -15.365394
    4      -10.244755
    5       -9.362420
    6       -6.172671
    7       -5.989927
    8       -5.294936
    9       -0.776452
   10        0.653633
   11        1.456380
   12        1.840942
 
  0.1250000E+00  0.5555556E-01  0.0000000E+00  0.4629630E-02
    1      -22.106795
    2      -17.847725
    3      -14.914741
    4      -10.183692
    5       -9.311324
    6       -6.361552
    7       -6.102022
    8       -5.565800
    9       -0.428968
   10        0.723187
   11        1.526791
   12        1.912246
 
  0.1666667E+00  0.5555556E-01  0.0000000E+00  0.4629630E-02
    1      -22.035160
    2      -18.226276
    3      -14.432131
    4      -10.098339
    5       -9.240117
    6       -6.613829
    7       -6.255053
    8       -5.887996
    9       -0.000728
   10        0.820575
   11        1.625337
   12        2.012073
 
  0.2083333E+00  0.5555556E-01  0.0000000E+00  0.4629630E-02
    1      -21.943140
    2      -18.596216
    3      -13.929576
    4       -9.988838
    5       -9.149138
    6       -6.924596
    7       -6.440198
    8       -6.236866
    9        0.482356
   10        0.945795
   11        1.751984
   12        2.140426
 
  0.2500000E+00  0.5555556E-01  0.0000000E+00  0.4629630E-02
    1      -21.830801
    2      -18.952980
    3      -13.412561
    4       -9.855377
    5       -9.038842
    6       -7.287932
    7       -6.648439
    8       -6.596102
    9        1.002330
   10        1.098836
   11        1.906684
   12        2.297304
 
  0.2916667E+00  0.5555556E-01  0.0000000E+00  0.4629630E-02
    1      -21.698224
    2      -19.294305
    3      -12.884531
    4       -9.698202
    5       -8.909812
    6       -7.696895
    7       -6.955178
    8       -6.871740
    9        1.279673
   10        1.546566
   11        2.089363
   12        2.482705
 
  0.3333333E+00  0.5555556E-01  0.0000000E+00  0.4629630E-02
    1      -21.545507
    2      -19.618882
    3      -12.348266
    4       -9.517622
    5       -8.762780
    6       -8.144063
    7       -7.307208
    8       -7.103350
    9        1.488267
   10        2.105471
   11        2.299904
   12        2.696623
 
  0.3750000E+00  0.5555556E-01  0.0000000E+00  0.4629630E-02
    1      -21.372767
    2      -19.925865
    3      -11.806422
    4       -9.314025
    5       -8.622123
    6       -8.598653
    7       -7.647559
    8       -7.337718
    9        1.724567
   10        2.538104
   11        2.670509
   12        2.939053
 
  0.4166667E+00  0.5555556E-01  0.0000000E+00  0.4629630E-02
    1      -21.180142
    2      -20.214652
    3      -11.261791
    4       -9.124256
    5       -9.087899
    6       -8.418542
    7       -7.973017
    8       -7.570315
    9        1.988502
   10        2.803545
   11        3.209994
   12        3.231484
 
  0.4583333E+00  0.5555556E-01  0.0000000E+00  0.4629630E-02
    1      -20.967799
    2      -20.484793
    3      -10.717465
    4       -9.644333
    5       -8.839850
    6       -8.281279
    7       -8.223805
    8       -7.797448
    9        2.279980
   10        2.945021
   11        3.095107
   12        3.509547
 
  0.5000000E+00  0.5555556E-01  0.0000000E+00  0.2314815E-02
    1      -20.735937
    2      -20.735937
    3      -10.176963
    4      -10.176963
    5       -8.570649
    6       -8.570649
    7       -8.016101
    8       -8.016101
    9        2.598879
   10        2.598879
   11        3.407840
   12        3.407840
 
  0.0000000E+00  0.8333333E-01  0.0000000E+00  0.2314815E-02
    1      -22.130730
    2      -16.911921
    3      -15.869778
    4      -10.212230
    5       -9.687961
    6       -6.272734
    7       -6.051841
    8       -4.958678
    9       -1.115481
   10        0.690668
   11        1.493877
   12        1.878912
 
  0.4166667E-01  0.8333333E-01  0.0000000E+00  0.4629630E-02
    1      -22.120490
    2      -17.075964
    3      -15.690960
    4      -10.200020
    5       -9.677585
    6       -6.316579
    7       -6.067525
    8       -5.026643
    9       -1.032642
   10        0.704576
   11        1.507958
   12        1.893172
 
  0.8333333E-01  0.8333333E-01  0.0000000E+00  0.4629630E-02
    1      -22.089777
    2      -17.411238
    3      -15.311459
    4      -10.163409
    5       -9.646494
    6       -6.437875
    7       -6.122777
    8       -5.214523
    9       -0.800319
   10        0.746303
   11        1.550198
   12        1.935954
 
  0.1250000E+00  0.8333333E-01  0.0000000E+00  0.4629630E-02
    1      -22.038613
    2      -17.785949
    3      -14.863389
    4      -10.102456
    5       -9.594805
    6       -6.621233
    7       -6.227023
    8       -5.487221
    9       -0.454136
   10        0.815862
   11        1.620583
   12        2.007259
 
  0.1666667E+00  0.8333333E-01  0.0000000E+00  0.4629630E-02
    1      -21.967032
    2      -18.163526
    3      -14.383857
    4      -10.017256
    5       -9.522711
    6       -6.857288
    7       -6.380220
    8       -5.810746
    9       -0.028968
   10        0.913259
   11        1.719094
   12        2.107089
 
  0.2083333E+00  0.8333333E-01  0.0000000E+00  0.4629630E-02
    1      -21.875083
    2      -18.532632
    3      -13.884982
    4       -9.907952
    5       -9.430492
    6       -7.141286
    7       -6.575101
    8       -6.160367
    9        0.449202
   10        1.038498
   11        1.845699
   12        2.235447
 
  0.2500000E+00  0.8333333E-01  0.0000000E+00  0.4629630E-02
    1      -21.762834
    2      -18.888681
    3      -13.372388
    4       -9.774733
    5       -9.318521
    6       -7.470745
    7       -6.800546
    8       -6.519886
    9        0.962556
   10        1.191565
   11        2.000350
   12        2.392332
 
  0.2916667E+00  0.8333333E-01  0.0000000E+00  0.4629630E-02
    1      -21.630368
    2      -19.229392
    3      -12.849691
    4       -9.617843
    5       -9.187270
    6       -7.843445
    7       -7.044658
    8       -6.878917
    9        1.372437
   10        1.498684
   11        2.182979
   12        2.577743
 
  0.3333333E+00  0.8333333E-01  0.0000000E+00  0.4629630E-02
    1      -21.477782
    2      -19.553441
    3      -12.319891
    4       -9.437592
    5       -9.037328
    6       -8.255938
    7       -7.297141
    8       -7.230689
    9        1.581071
   10        2.048320
   11        2.393478
   12        2.791674
 
  0.3750000E+00  0.8333333E-01  0.0000000E+00  0.4629630E-02
    1      -21.305198
    2      -19.859968
    3      -11.785916
    4       -9.234366
    5       -8.869418
    6       -8.703187
    7       -7.570653
    8       -7.550282
    9        1.817414
   10        2.603653
   11        2.631662
   12        3.034120
 
  0.4166667E+00  0.8333333E-01  0.0000000E+00  0.4629630E-02
    1      -21.112756
    2      -20.148363
    3      -11.250903
    4       -9.179133
    5       -9.008650
    6       -8.684415
    7       -7.895656
    8       -7.798714
    9        2.081395
   10        2.897155
   11        3.155741
   12        3.305071
 
  0.4583333E+00  0.8333333E-01  0.0000000E+00  0.4629630E-02
    1      -20.900628
    2      -20.418165
    3      -10.718370
    4       -9.677499
    5       -8.761046
    6       -8.483383
    7       -8.203433
    8       -8.038719
    9        2.372927
   10        3.038145
   11        3.188902
   12        3.604638
 
  0.5000000E+00  0.8333333E-01  0.0000000E+00  0.2314815E-02
    1      -20.669018
    2      -20.669018
    3      -10.192351
    4      -10.192351
    5       -8.492316
    6       -8.492316
    7       -8.267618
    8       -8.267618
    9        2.691895
   10        2.691895
   11        3.501452
   12        3.501452
 
  0.0000000E+00  0.1111111E+00  0.0000000E+00  0.2314815E-02
    1      -22.035266
    2      -16.829936
    3      -15.791048
    4      -10.098464
    5      -10.058550
    6       -6.615582
    7       -6.253369
    8       -4.842586
    9       -1.154836
   10        0.820428
   11        1.625198
   12        2.011933
 
  0.4166667E-01  0.1111111E+00  0.0000000E+00  0.4629630E-02
    1      -22.025036
    2      -16.992943
    3      -15.613691
    4      -10.086286
    5      -10.047978
    6       -6.661107
    7       -6.263271
    8       -4.911779
    9       -1.071685
   10        0.834333
   11        1.639271
   12        2.026193
 
  0.8333333E-01  0.1111111E+00  0.0000000E+00  0.4629630E-02
    1      -21.994355
    2      -17.326507
    3      -15.237198
    4      -10.049771
    5      -10.016287
    6       -6.785549
    7       -6.303661
    8       -5.102414
    9       -0.839355
   10        0.876052
   11        1.681485
   12        2.068973
 
  0.1250000E+00  0.1111111E+00  0.0000000E+00  0.4629630E-02
    1      -21.943243
    2      -17.699638
    3      -14.792933
    4       -9.988977
    5       -9.963548
    6       -6.968823
    7       -6.390263
    8       -5.377855
    9       -0.495014
   10        0.945600
   11        1.751830
   12        2.140277
 
  0.1666667E+00  0.1111111E+00  0.0000000E+00  0.4629630E-02
    1      -21.871738
    2      -18.075843
    3      -14.318029
    4       -9.904001
    5       -9.889881
    6       -7.197038
    7       -6.529734
    8       -5.703332
    9       -0.074325
   10        1.042991
   11        1.850284
   12        2.240108
 
  0.2083333E+00  0.1111111E+00  0.0000000E+00  0.4629630E-02
    1      -21.779890
    2      -18.443769
    3      -13.824768
    4       -9.795451
    5       -9.794986
    6       -7.462301
    7       -6.720150
    8       -6.054026
    9        0.396655
   10        1.168231
   11        1.976817
   12        2.368469
 
  0.2500000E+00  0.1111111E+00  0.0000000E+00  0.4629630E-02
    1      -21.667768
    2      -18.798804
    3      -13.319013
    4       -9.680470
    5       -9.662120
    6       -7.760886
    7       -6.953467
    8       -6.413925
    9        0.900327
   10        1.321310
   11        2.131384
   12        2.525360
 
  0.2916667E+00  0.1111111E+00  0.0000000E+00  0.4629630E-02
    1      -21.535456
    2      -19.138644
    3      -12.804697
    4       -9.545189
    5       -9.505649
    6       -8.092081
    7       -7.217538
    8       -6.772853
    9        1.424593
   10        1.502201
   11        2.313922
   12        2.710779
 
  0.3333333E+00  0.1111111E+00  0.0000000E+00  0.4629630E-02
    1      -21.383055
    2      -19.461944
    3      -12.285226
    4       -9.389897
    5       -9.325881
    6       -8.456812
    7       -7.498378
    8       -7.124213
    9        1.710863
   10        1.960585
   11        2.524337
   12        2.924723
 
  0.3750000E+00  0.1111111E+00  0.0000000E+00  0.4629630E-02
    1      -21.210690
    2      -19.767825
    3      -11.764062
    4       -9.214916
    5       -9.123200
    6       -8.855707
    7       -7.782850
    8       -7.463585
    9        1.947234
   10        2.501193
   11        2.762474
   12        3.167185
 
  0.4166667E+00  0.1111111E+00  0.0000000E+00  0.4629630E-02
    1      -21.018508
    2      -20.055664
    3      -11.245027
    4       -9.287342
    5       -9.020593
    6       -8.898087
    7       -8.060908
    8       -7.787898
    9        2.211244
   10        3.028025
   11        3.039763
   12        3.438155
 
  0.4583333E+00  0.1111111E+00  0.0000000E+00  0.4629630E-02
    1      -20.806684
    2      -20.324988
    3      -10.732497
    4       -9.747799
    5       -8.807324
    6       -8.651139
    7       -8.326269
    8       -8.094949
    9        2.502802
   10        3.168088
   11        3.320086
   12        3.563373
 
  0.5000000E+00  0.1111111E+00  0.0000000E+00  0.2314815E-02
    1      -20.575427
    2      -20.575427
    3      -10.231523
    4      -10.231523
    5       -8.575611
    6       -8.575611
    7       -8.383108
    8       -8.383108
    9        2.821797
   10        2.821797
   11        3.632064
   12        3.632064
 
  0.0000000E+00  0.1388889E+00  0.0000000E+00  0.2314815E-02
    1      -21.912674
    2      -16.724575
    3      -15.692265
    4      -10.494521
    5       -9.952613
    6       -7.020818
    7       -6.504396
    8       -4.693575
    9       -1.215208
   10        0.987288
   11        1.793945
   12        2.182967
 
  0.4166667E-01  0.1388889E+00  0.0000000E+00  0.4629630E-02
    1      -21.902458
    2      -16.886404
    3      -15.516712
    4      -10.483616
    5       -9.940479
    6       -7.068325
    7       -6.507512
    8       -4.764562
    9       -1.131501
   10        1.001185
   11        1.808005
   12        2.197225
 
  0.8333333E-01  0.1388889E+00  0.0000000E+00  0.4629630E-02
    1      -21.871817
    2      -17.217878
    3      -15.144222
    4      -10.450896
    5       -9.904094
    6       -7.197132
    7       -6.529721
    8       -4.959165
    9       -0.898919
   10        1.042882
   11        1.850180
   12        2.240002
 
  0.1250000E+00  0.1388889E+00  0.0000000E+00  0.4629630E-02
    1      -21.820775
    2      -17.588993
    3      -14.705275
    4      -10.396353
    5       -9.843517
    6       -7.383551
    7       -6.592013
    8       -5.238466
    9       -0.556911
   10        1.112398
   11        1.920460
   12        2.311302
 
  0.1666667E+00  0.1388889E+00  0.0000000E+00  0.4629630E-02
    1      -21.749368
    2      -17.963416
    3      -14.237024
    4      -10.319958
    5       -9.758847
    6       -7.610308
    7       -6.706772
    8       -5.566609
    9       -0.142218
   10        1.209753
   11        2.018821
   12        2.411129
 
  0.2083333E+00  0.1388889E+00  0.0000000E+00  0.4629630E-02
    1      -21.657651
    2      -18.329797
    3      -13.752025
    4      -10.221651
    5       -9.650225
    6       -7.866830
    7       -6.877282
    8       -5.918714
    9        0.319073
   10        1.334962
   11        2.145235
   12        2.539487
 
  0.2500000E+00  0.1388889E+00  0.0000000E+00  0.4629630E-02
    1      -21.545692
    2      -18.683504
    3      -13.256569
    4      -10.101313
    5       -9.517842
    6       -8.146993
    7       -7.100145
    8       -6.279055
    9        0.809718
   10        1.488019
   11        2.299656
   12        2.696379
 
  0.2916667E+00  0.1388889E+00  0.0000000E+00  0.4629630E-02
    1      -21.413579
    2      -19.022201
    3      -12.755179
    4       -9.958726
    5       -9.361943
    6       -8.448000
    7       -7.366958
    8       -6.637768
    9        1.318066
   10        1.668901
   11        2.482028
   12        2.881803
 
  0.3333333E+00  0.1388889E+00  0.0000000E+00  0.4629630E-02
    1      -21.261418
    2      -19.344520
    3      -12.252066
    4       -9.793524
    5       -9.182836
    6       -8.769951
    7       -7.665578
    8       -6.988504
    9        1.835734
   10        1.877560
   11        2.692270
   12        3.095755
 
  0.3750000E+00  0.1388889E+00  0.0000000E+00  0.4629630E-02
    1      -21.089338
    2      -19.649556
    3      -11.751756
    4       -9.605141
    5       -9.115364
    6       -8.980904
    7       -7.981425
    8       -7.327013
    9        2.113931
   10        2.356235
   11        2.930264
   12        3.338229
 
  0.4166667E+00  0.1388889E+00  0.0000000E+00  0.4629630E-02
    1      -20.897492
    2      -19.936669
    3      -11.259417
    4       -9.487955
    5       -9.392791
    6       -8.756622
    7       -8.299355
    8       -7.650346
    9        2.377934
   10        2.874155
   11        3.195811
   12        3.609216
 
  0.4583333E+00  0.1388889E+00  0.0000000E+00  0.4629630E-02
    1      -20.686064
    2      -20.205368
    3      -10.780956
    4       -9.890487
    5       -9.155595
    6       -8.606212
    7       -8.510581
    8       -7.956374
    9        2.669474
   10        3.334676
   11        3.384290
   12        3.488352
 
  0.5000000E+00  0.1388889E+00  0.0000000E+00  0.2314815E-02
    1      -20.455270
    2      -20.455270
    3      -10.322711
    4      -10.322711
    5       -8.893058
    6       -8.893058
    7       -8.243521
    8       -8.243521
    9        2.988436
   10        2.988436
   11        3.793103
   12        3.793115
 
  0.0000000E+00  0.1666667E+00  0.0000000E+00  0.2314815E-02
    1      -21.763072
    2      -16.595877
    3      -15.576048
    4      -10.975335
    5       -9.775012
    6       -7.471888
    7       -6.799518
    8       -4.511838
    9       -1.303451
   10        1.191239
   11        2.000038
   12        2.392016
 
  0.4166667E-01  0.1666667E+00  0.0000000E+00  0.4629630E-02
    1      -21.752874
    2      -16.756536
    3      -15.402596
    4      -10.963854
    5       -9.762934
    6       -7.521639
    7       -6.795146
    8       -4.585429
    9       -1.218733
   10        1.205123
   11        2.014078
   12        2.406273
 
  0.8333333E-01  0.1666667E+00  0.0000000E+00  0.4629630E-02
    1      -21.722284
    2      -17.085643
    3      -15.035329
    4      -10.929356
    5       -9.726720
    6       -7.655648
    7       -6.796973
    8       -4.785659
    9       -0.985295
   10        1.246783
   11        2.056191
   12        2.449044
 
  0.1250000E+00  0.1666667E+00  0.0000000E+00  0.4629630E-02
    1      -21.671327
    2      -17.454313
    3      -14.603805
    4      -10.871661
    5       -9.666428
    6       -7.847088
    7       -6.830667
    8       -5.070246
    9       -0.645934
   10        1.316240
   11        2.126363
   12        2.520334
 
  0.1666667E+00  0.1666667E+00  0.0000000E+00  0.4629630E-02
    1      -21.600042
    2      -17.826522
    3      -14.145221
    4      -10.790435
    5       -9.582159
    6       -8.076080
    7       -6.913513
    8       -5.401892
    9       -0.238782
   10        1.413524
   11        2.224571
   12        2.620149
 
  0.2083333E+00  0.1666667E+00  0.0000000E+00  0.4629630E-02
    1      -21.508484
    2      -18.190968
    3      -13.672641
    4      -10.685131
    5       -9.474056
    6       -8.330269
    7       -7.053216
    8       -5.755741
    9        0.210175
   10        1.538656
   11        2.350779
   12        2.748496
 
  0.2500000E+00  0.1666667E+00  0.0000000E+00  0.4629630E-02
    1      -21.396726
    2      -18.543004
    3      -13.193191
    4      -10.554901
    5       -9.342310
    6       -8.601985
    7       -7.250450
    8       -6.116520
    9        0.684289
   10        1.691644
   11        2.504938
   12        2.905380
 
  0.2916667E+00  0.1666667E+00  0.0000000E+00  0.4629630E-02
    1      -21.264859
    2      -18.880266
    3      -12.712598
    4      -10.398478
    5       -9.187167
    6       -8.886643
    7       -7.500651
    8       -6.474814
    9        1.172568
   10        1.872468
   11        2.686981
   12        3.090801
 
  0.3333333E+00  0.1666667E+00  0.0000000E+00  0.4629630E-02
    1      -21.112994
    2      -19.201350
    3      -12.236699
    4      -10.214064
    5       -9.182134
    6       -9.008936
    7       -7.795264
    8       -6.824609
    9        1.667278
   10        2.081080
   11        2.896823
   12        3.304757
 
  0.3750000E+00  0.1666667E+00  0.0000000E+00  0.4629630E-02
    1      -20.941267
    2      -19.505329
    3      -11.772007
    4       -9.999331
    5       -9.488718
    6       -8.807998
    7       -8.122694
    8       -7.161888
    9        2.162589
   10        2.317409
   11        3.134350
   12        3.547238
 
  0.4166667E+00  0.1666667E+00  0.0000000E+00  0.4629630E-02
    1      -20.749840
    2      -19.791532
    3      -11.325621
    4       -9.809096
    5       -9.751839
    6       -8.584826
    7       -8.469029
    8       -7.483852
    9        2.581363
   10        2.653836
   11        3.399402
   12        3.818236
 
  0.4583333E+00  0.1666667E+00  0.0000000E+00  0.4629630E-02
    1      -20.538903
    2      -20.059452
    3      -10.904168
    4      -10.148161
    5       -9.470302
    6       -8.818852
    7       -8.340001
    8       -7.788477
    9        2.872834
   10        3.137072
   11        3.537792
   12        3.691654
 
  0.5000000E+00  0.1666667E+00  0.0000000E+00  0.2314815E-02
    1      -20.308684
    2      -20.308684
    3      -10.511761
    4      -10.511761
    5       -9.156819
    6       -9.156819
    7       -8.074248
    8       -8.074248
    9        3.191695
   10        3.191695
   11        3.608674
   12        3.608675
 