gr                                      
           1
     4.272614    0.000000    0.000000
     0.000000    2.467548    0.000000
     0.000000    0.000000   19.998132
   C 
   4
Direct configuration=     1
   0.99987391  0.00000000  0.00000000
   0.16679275  0.50000000  0.00000000
   0.49987391  0.50000000  0.00000000
   0.66679275  0.00000000  0.00000000
Direct configuration=     2
   1.00054326  0.00000000  0.00000000
   0.16612341  0.50000000 -0.00000000
   0.50054326  0.50000000  0.00000000
   0.66612341  0.00000000 -0.00000000
Direct configuration=     3
   1.00000778  0.00000000 -0.00000000
   0.16665889  0.50000000  0.00000000
   0.50000778  0.50000000 -0.00000000
   0.66665889  0.00000000  0.00000000
Direct configuration=     4
   1.00000745  0.00000000 -0.00000000
   0.16665922  0.50000000  0.00000000
   0.50000745  0.50000000 -0.00000000
   0.66665922  0.00000000  0.00000000
