    4    4  400    1
  0.5270948E+02  0.4401465E-09  0.2455441E-09  0.1950841E-08  0.5000000E-15
  1.000000000000000E-004
  CAR 
 gr                                      
     16    247     12
 
  0.0000000E+00  0.0000000E+00  0.0000000E+00  0.1157407E-02
    1      -22.045996
    2      -17.301673
    3      -15.801489
    4      -10.198646
    5       -8.737961
    6       -6.046051
    7       -5.717891
    8       -5.378788
    9       -1.204851
   10        0.549118
   11        1.346540
   12        1.738932
 
  0.4166667E-01  0.0000000E+00  0.0000000E+00  0.2314815E-02
    1      -22.036334
    2      -17.412768
    3      -15.675470
    4      -10.187197
    5       -8.728661
    6       -6.090642
    7       -5.737476
    8       -5.436019
    9       -1.131974
   10        0.562179
   11        1.359797
   12        1.752358
 
  0.8333333E-01  0.0000000E+00  0.0000000E+00  0.2314815E-02
    1      -22.007351
    2      -17.674706
    3      -15.368837
    4      -10.152869
    5       -8.700812
    6       -6.222228
    7       -5.795225
    8       -5.596422
    9       -0.924787
   10        0.601371
   11        1.399562
   12        1.792636
 
  0.1250000E+00  0.0000000E+00  0.0000000E+00  0.2314815E-02
    1      -21.959070
    2      -17.995818
    3      -14.973481
    4      -10.095720
    5       -8.654566
    6       -6.434687
    7       -5.888279
    8       -5.833882
    9       -0.609870
   10        0.666718
   11        1.465821
   12        1.859771
 
  0.1666667E+00  0.0000000E+00  0.0000000E+00  0.2314815E-02
    1      -21.891525
    2      -18.333568
    3      -14.532318
    4      -10.015849
    5       -8.590181
    6       -6.719101
    7       -6.120879
    8       -6.012330
    9       -0.215535
   10        0.758251
   11        1.558545
   12        1.953770
 
  0.2083333E+00  0.0000000E+00  0.0000000E+00  0.2314815E-02
    1      -21.804768
    2      -18.670812
    3      -14.063039
    4       -9.913399
    5       -8.508033
    6       -7.065122
    7       -6.435608
    8       -6.162171
    9        0.235268
   10        0.875989
   11        1.677689
   12        2.074636
 
  0.2500000E+00  0.0000000E+00  0.0000000E+00  0.2314815E-02
    1      -21.698864
    2      -18.999906
    3      -13.574014
    4       -9.788561
    5       -8.408619
    6       -7.462163
    7       -6.762765
    8       -6.332217
    9        0.725692
   10        1.019938
   11        1.823182
   12        2.222370
 
  0.2916667E+00  0.0000000E+00  0.0000000E+00  0.2314815E-02
    1      -21.573901
    2      -19.316981
    3      -13.070048
    4       -9.641586
    5       -8.292581
    6       -7.900225
    7       -7.092032
    8       -6.516941
    9        1.190083
   10        1.243376
   11        1.994908
   12        2.396972
 
  0.3333333E+00  0.0000000E+00  0.0000000E+00  0.2314815E-02
    1      -21.429983
    2      -19.619844
    3      -12.554493
    4       -9.472790
    5       -8.370333
    6       -8.160718
    7       -7.416459
    8       -6.711165
    9        1.386396
   10        1.778582
   11        2.192671
   12        2.598438
 
  0.3750000E+00  0.0000000E+00  0.0000000E+00  0.2314815E-02
    1      -21.267237
    2      -19.907140
    3      -12.030140
    4       -9.282571
    5       -8.864687
    6       -8.014017
    7       -7.731283
    8       -6.910221
    9        1.608830
   10        2.322192
   11        2.416095
   12        2.826761
 
  0.4166667E+00  0.0000000E+00  0.0000000E+00  0.2314815E-02
    1      -21.085819
    2      -20.177958
    3      -11.499645
    4       -9.376622
    5       -9.071430
    6       -8.033159
    7       -7.853684
    8       -7.110017
    9        1.857319
   10        2.664319
   11        2.860495
   12        3.081928
 
  0.4583333E+00  0.0000000E+00  0.0000000E+00  0.2314815E-02
    1      -20.885918
    2      -20.431658
    3      -10.965771
    4       -9.900502
    5       -8.839997
    6       -8.319681
    7       -7.681176
    8       -7.307025
    9        2.131780
   10        2.758123
   11        2.934773
   12        3.314097
 
  0.5000000E+00  0.0000000E+00  0.0000000E+00  0.1157407E-02
    1      -20.667767
    2      -20.667767
    3      -10.431566
    4      -10.431566
    5       -8.589072
    6       -8.589072
    7       -7.498252
    8       -7.498252
    9        2.432100
   10        2.432100
   11        3.214377
   12        3.214378
 
  0.0000000E+00  0.2777778E-01  0.0000000E+00  0.2314815E-02
    1      -22.032138
    2      -17.289617
    3      -15.789658
    4      -10.182218
    5       -8.801603
    6       -6.071376
    7       -5.777356
    8       -5.362093
    9       -1.207019
   10        0.567887
   11        1.365489
   12        1.758123
 
  0.4166667E-01  0.2777778E-01  0.0000000E+00  0.4629630E-02
    1      -22.022476
    2      -17.400601
    3      -15.663793
    4      -10.170773
    5       -8.792292
    6       -6.116407
    7       -5.795906
    8       -5.419432
    9       -1.134133
   10        0.580948
   11        1.378746
   12        1.771548
 
  0.8333333E-01  0.2777778E-01  0.0000000E+00  0.4629630E-02
    1      -21.993498
    2      -17.662327
    3      -15.357504
    4      -10.136456
    5       -8.764410
    6       -6.248396
    7       -5.851583
    8       -5.580091
    9       -0.926987
   10        0.620139
   11        1.418509
   12        1.811826
 
  0.1250000E+00  0.2777778E-01  0.0000000E+00  0.4629630E-02
    1      -21.945225
    2      -17.983230
    3      -14.962579
    4      -10.079326
    5       -8.718107
    6       -6.460010
    7       -5.943013
    8       -5.817831
    9       -0.612288
   10        0.685488
   11        1.484765
   12        1.878962
 
  0.1666667E+00  0.2777778E-01  0.0000000E+00  0.4629630E-02
    1      -21.877691
    2      -18.320796
    3      -14.521920
    4       -9.999482
    5       -8.653638
    6       -6.742161
    7       -6.105048
    8       -6.066412
    9       -0.218430
   10        0.777022
   11        1.577485
   12        1.972961
 
  0.2083333E+00  0.2777778E-01  0.0000000E+00  0.4629630E-02
    1      -21.790949
    2      -18.657881
    3      -14.053226
    4       -9.897066
    5       -8.571371
    6       -7.084947
    7       -6.419916
    8       -6.216433
    9        0.231616
   10        0.894763
   11        1.696625
   12        2.093828
 
  0.2500000E+00  0.2777778E-01  0.0000000E+00  0.4629630E-02
    1      -21.685064
    2      -18.986837
    3      -13.564886
    4       -9.772269
    5       -8.471798
    6       -7.478314
    7       -6.747139
    8       -6.387199
    9        0.721014
   10        1.038715
   11        1.842113
   12        2.241564
 
  0.2916667E+00  0.2777778E-01  0.0000000E+00  0.4629630E-02
    1      -21.560124
    2      -19.303793
    3      -13.061719
    4       -9.625343
    5       -8.355551
    6       -7.912660
    7       -7.076418
    8       -6.572921
    9        1.208866
   10        1.237439
   11        2.013836
   12        2.416173
 
  0.3333333E+00  0.2777778E-01  0.0000000E+00  0.4629630E-02
    1      -21.416233
    2      -19.606553
    3      -12.547104
    4       -9.456602
    5       -8.379252
    6       -8.223420
    7       -7.400819
    8       -6.768240
    9        1.405185
   10        1.771218
   11        2.211600
   12        2.617638
 
  0.3750000E+00  0.2777778E-01  0.0000000E+00  0.4629630E-02
    1      -21.253520
    2      -19.893759
    3      -12.023857
    4       -9.266445
    5       -8.870415
    6       -8.076380
    7       -7.715591
    8       -6.968373
    9        1.627626
   10        2.313401
   11        2.435030
   12        2.845964
 
  0.4166667E+00  0.2777778E-01  0.0000000E+00  0.4629630E-02
    1      -21.072139
    2      -20.164500
    3      -11.494664
    4       -9.379530
    5       -9.055373
    6       -8.017401
    7       -7.915622
    8       -7.169162
    9        1.876125
   10        2.683270
   11        2.851021
   12        3.101156
 
  0.4583333E+00  0.2777778E-01  0.0000000E+00  0.4629630E-02
    1      -20.872282
    2      -20.418132
    3      -10.962322
    4       -9.900960
    5       -8.824012
    6       -8.303849
    7       -7.742591
    8       -7.367050
    9        2.150597
   10        2.776977
   11        2.953724
   12        3.313958
 
  0.5000000E+00  0.2777778E-01  0.0000000E+00  0.2314815E-02
    1      -20.654182
    2      -20.654182
    3      -10.429917
    4      -10.429917
    5       -8.573164
    6       -8.573164
    7       -7.559033
    8       -7.559033
    9        2.450932
   10        2.450932
   11        3.232756
   12        3.232756
 
  0.0000000E+00  0.5555556E-01  0.0000000E+00  0.2314815E-02
    1      -21.990572
    2      -17.253453
    3      -15.754305
    4      -10.132969
    5       -8.987354
    6       -6.147018
    7       -5.950826
    8       -5.312028
    9       -1.214325
   10        0.624193
   11        1.422331
   12        1.815694
 
  0.4166667E-01  0.5555556E-01  0.0000000E+00  0.4629630E-02
    1      -21.980914
    2      -17.364110
    3      -15.628900
    4      -10.121535
    5       -8.978007
    6       -6.195288
    7       -5.964393
    8       -5.369701
    9       -1.141407
   10        0.637253
   11        1.435585
   12        1.829119
 
  0.8333333E-01  0.5555556E-01  0.0000000E+00  0.4629630E-02
    1      -21.951950
    2      -17.625201
    3      -15.323645
    4      -10.087254
    5       -8.950015
    6       -6.330872
    7       -6.011541
    8       -5.531151
    9       -0.934379
   10        0.676443
   11        1.475343
   12        1.869398
 
  0.1250000E+00  0.5555556E-01  0.0000000E+00  0.4629630E-02
    1      -21.903700
    2      -17.945480
    3      -14.930025
    4      -10.030181
    5       -8.903520
    6       -6.540826
    7       -6.097311
    8       -5.769745
    9       -0.620341
   10        0.741791
   11        1.541589
   12        1.936534
 
  0.1666667E+00  0.5555556E-01  0.0000000E+00  0.4629630E-02
    1      -21.836201
    2      -18.282495
    3      -14.490899
    4       -9.950418
    5       -8.838765
    6       -6.816136
    7       -6.218857
    8       -6.057636
    9       -0.227941
   10        0.833326
   11        1.634296
   12        2.030534
 
  0.2083333E+00  0.5555556E-01  0.0000000E+00  0.4629630E-02
    1      -21.749504
    2      -18.619103
    3      -14.023995
    4       -9.848105
    5       -8.756101
    6       -7.148779
    7       -6.372926
    8       -6.369895
    9        0.219786
   10        0.951071
   11        1.753421
   12        2.151403
 
  0.2500000E+00  0.5555556E-01  0.0000000E+00  0.4629630E-02
    1      -21.643675
    2      -18.947646
    3      -13.537749
    4       -9.723435
    5       -8.655997
    6       -7.530527
    7       -6.700350
    8       -6.543418
    9        0.706045
   10        1.095030
   11        1.898894
   12        2.299142
 
  0.2916667E+00  0.5555556E-01  0.0000000E+00  0.4629630E-02
    1      -21.518805
    2      -19.264244
    3      -13.037041
    4       -9.576656
    5       -8.539057
    6       -7.953096
    7       -7.029661
    8       -6.732743
    9        1.218611
   10        1.265192
   11        2.070607
   12        2.473753
 
  0.3333333E+00  0.5555556E-01  0.0000000E+00  0.4629630E-02
    1      -21.374996
    2      -19.566694
    3      -12.525321
    4       -9.408085
    5       -8.408557
    6       -8.406036
    7       -7.353978
    8       -6.931902
    9        1.461526
   10        1.747997
   11        2.268371
   12        2.675229
 
  0.3750000E+00  0.5555556E-01  0.0000000E+00  0.4629630E-02
    1      -21.212379
    2      -19.853631
    3      -12.005490
    4       -9.218118
    5       -8.889637
    6       -8.257869
    7       -7.668591
    8       -7.135742
    9        1.683983
   10        2.285698
   11        2.491822
   12        2.903566
 
  0.4166667E+00  0.5555556E-01  0.0000000E+00  0.4629630E-02
    1      -21.031112
    2      -20.124138
    3      -11.480330
    4       -9.389866
    5       -9.007253
    6       -8.095704
    7       -7.970197
    8       -7.339908
    9        1.932500
   10        2.740113
   11        2.820635
   12        3.158752
 
  0.4583333E+00  0.5555556E-01  0.0000000E+00  0.4629630E-02
    1      -20.831386
    2      -20.377567
    3      -10.952750
    4       -9.903598
    5       -8.776115
    6       -8.256418
    7       -7.920937
    8       -7.540757
    9        2.206994
   10        2.833452
   11        3.010572
   12        3.304223
 
  0.5000000E+00  0.5555556E-01  0.0000000E+00  0.2314815E-02
    1      -20.613440
    2      -20.613440
    3      -10.425959
    4      -10.425959
    5       -8.525498
    6       -8.525498
    7       -7.735267
    8       -7.735267
    9        2.507359
   10        2.507359
   11        3.287519
   12        3.287524
 
  0.0000000E+00  0.8333333E-01  0.0000000E+00  0.2314815E-02
    1      -21.921332
    2      -17.193193
    3      -15.695867
    4      -10.051007
    5       -9.281165
    6       -6.271967
    7       -6.225094
    8       -5.228661
    9       -1.229171
   10        0.718032
   11        1.517041
   12        1.911647
 
  0.4166667E-01  0.8333333E-01  0.0000000E+00  0.4629630E-02
    1      -21.911682
    2      -17.303320
    3      -15.571223
    4      -10.039593
    5       -9.271745
    6       -6.343311
    7       -6.212770
    8       -5.286922
    9       -1.156186
   10        0.731090
   11        1.530291
   12        1.925072
 
  0.8333333E-01  0.8333333E-01  0.0000000E+00  0.4629630E-02
    1      -21.882742
    2      -17.563375
    3      -15.267704
    4      -10.005370
    5       -9.243526
    6       -6.490826
    7       -6.240009
    8       -5.449758
    9       -0.949338
   10        0.770275
   11        1.570038
   12        1.965349
 
  0.1250000E+00  0.8333333E-01  0.0000000E+00  0.4629630E-02
    1      -21.834533
    2      -17.882622
    3      -14.876307
    4       -9.948397
    5       -9.196639
    6       -6.697475
    7       -6.317176
    8       -5.689844
    9       -0.636427
   10        0.835615
   11        1.636266
   12        2.032486
 
  0.1666667E+00  0.8333333E-01  0.0000000E+00  0.4629630E-02
    1      -21.767091
    2      -18.218720
    3      -14.439816
    4       -9.868771
    5       -9.131304
    6       -6.959522
    7       -6.437729
    8       -5.978895
    9       -0.246539
   10        0.927143
   11        1.728949
   12        2.126485
 
  0.2083333E+00  0.8333333E-01  0.0000000E+00  0.4629630E-02
    1      -21.680468
    2      -18.554530
    3      -13.976012
    4       -9.766636
    5       -9.047837
    6       -7.272929
    7       -6.592917
    8       -6.294907
    9        0.197178
   10        1.044882
   11        1.848046
   12        2.247355
 
  0.2500000E+00  0.8333333E-01  0.0000000E+00  0.4629630E-02
    1      -21.574735
    2      -18.882384
    3      -13.493418
    4       -9.642183
    5       -8.946663
    6       -7.632718
    7       -6.773648
    8       -6.622666
    9        0.678007
   10        1.188841
   11        1.993491
   12        2.395098
 
  0.2916667E+00  0.8333333E-01  0.0000000E+00  0.4629630E-02
    1      -21.449979
    2      -19.198382
    3      -12.997024
    4       -9.495659
    5       -8.828328
    6       -8.033039
    7       -6.971541
    8       -6.952021
    9        1.183885
   10        1.359007
   11        2.165183
   12        2.569718
 
  0.3333333E+00  0.8333333E-01  0.0000000E+00  0.4629630E-02
    1      -21.306307
    2      -19.500313
    3      -12.490416
    4       -9.327380
    5       -8.693519
    6       -8.467513
    7       -7.276183
    8       -7.179433
    9        1.555348
   10        1.705595
   11        2.362944
   12        2.771200
 
  0.3750000E+00  0.8333333E-01  0.0000000E+00  0.4629630E-02
    1      -21.143852
    2      -19.786798
    3      -11.976652
    4       -9.137740
    5       -8.929678
    6       -8.543086
    7       -7.590514
    8       -7.391458
    9        1.777815
   10        2.235233
   11        2.586430
   12        2.999548
 
  0.4166667E+00  0.8333333E-01  0.0000000E+00  0.4629630E-02
    1      -20.962775
    2      -20.056914
    3      -11.458707
    4       -9.413350
    5       -8.927232
    6       -8.378077
    7       -7.891763
    8       -7.602903
    9        2.026342
   10        2.763930
   11        2.834819
   12        3.255101
 
  0.4583333E+00  0.8333333E-01  0.0000000E+00  0.4629630E-02
    1      -20.763270
    2      -20.310002
    3      -10.939713
    4       -9.912854
    5       -8.696478
    6       -8.199780
    7       -8.177589
    8       -7.810010
    9        2.300846
   10        2.927339
   11        3.105290
   12        3.266106
 
  0.5000000E+00  0.8333333E-01  0.0000000E+00  0.2314815E-02
    1      -20.545580
    2      -20.545580
    3      -10.423126
    4      -10.423126
    5       -8.446263
    6       -8.446263
    7       -8.009774
    8       -8.009774
    9        2.601223
   10        2.601223
   11        3.376735
   12        3.376763
 
  0.0000000E+00  0.1111111E+00  0.0000000E+00  0.2314815E-02
    1      -21.824479
    2      -17.108858
    3      -15.615167
    4       -9.936512
    5       -9.663585
    6       -6.582250
    7       -6.444474
    8       -5.112103
    9       -1.255568
   10        0.849397
   11        1.649580
   12        2.045982
 
  0.4166667E-01  0.1111111E+00  0.0000000E+00  0.4629630E-02
    1      -21.814841
    2      -17.218278
    3      -15.491579
    4       -9.925127
    5       -9.654031
    6       -6.638387
    7       -6.443623
    8       -5.171263
    9       -1.182451
   10        0.862451
   11        1.662824
   12        2.059406
 
  0.8333333E-01  0.1111111E+00  0.0000000E+00  0.4629630E-02
    1      -21.785934
    2      -17.476925
    3      -15.190525
    4       -9.890991
    5       -9.625406
    6       -6.774949
    7       -6.471173
    8       -5.336201
    9       -0.975802
   10        0.901623
   11        1.702552
   12        2.099681
 
  0.1250000E+00  0.1111111E+00  0.0000000E+00  0.4629630E-02
    1      -21.737781
    2      -17.794747
    3      -14.802355
    4       -9.834163
    5       -9.577815
    6       -6.967086
    7       -6.546815
    8       -5.578519
    9       -0.664502
   10        0.966942
   11        1.768750
   12        2.166814
 
  0.1666667E+00  0.1111111E+00  0.0000000E+00  0.4629630E-02
    1      -21.670419
    2      -18.129565
    3      -14.369755
    4       -9.754740
    5       -9.511434
    6       -7.206756
    7       -6.670325
    8       -5.869283
    9       -0.278291
   10        1.058444
   11        1.861392
   12        2.260809
 
  0.2083333E+00  0.1111111E+00  0.0000000E+00  0.4629630E-02
    1      -21.583902
    2      -18.464256
    3      -13.910585
    4       -9.652865
    5       -9.426522
    6       -7.490194
    7       -6.834685
    8       -6.186340
    9        0.159535
   10        1.176158
   11        1.980441
   12        2.381677
 
  0.2500000E+00  0.1111111E+00  0.0000000E+00  0.4629630E-02
    1      -21.478302
    2      -18.791136
    3      -13.433509
    4       -9.528729
    5       -9.323419
    6       -7.814956
    7       -7.029885
    8       -6.514565
    9        0.632378
   10        1.320094
   11        2.125836
   12        2.529420
 
  0.2916667E+00  0.1111111E+00  0.0000000E+00  0.4629630E-02
    1      -21.353707
    2      -19.106290
    3      -12.943705
    4       -9.382579
    5       -9.202562
    6       -8.178560
    7       -7.245266
    8       -6.843960
    9        1.128404
   10        1.490241
   11        2.297486
   12        2.704039
 
  0.3333333E+00  0.1111111E+00  0.0000000E+00  0.4629630E-02
    1      -21.210228
    2      -19.407487
    3      -12.444991
    4       -9.214728
    5       -9.064498
    6       -8.577612
    7       -7.471252
    8       -7.167872
    9        1.638730
   10        1.686568
   11        2.495233
   12        2.905531
 
  0.3750000E+00  0.1111111E+00  0.0000000E+00  0.4629630E-02
    1      -21.048001
    2      -19.693335
    3      -11.940715
    4       -9.025568
    5       -9.007593
    6       -8.909903
    7       -7.700226
    8       -7.481769
    9        1.909021
   10        2.156062
   11        2.718769
   12        3.133893
 
  0.4166667E+00  0.1111111E+00  0.0000000E+00  0.4629630E-02
    1      -20.867189
    2      -19.962898
    3      -11.434201
    4       -9.463182
    5       -8.815588
    6       -8.739609
    7       -7.926562
    8       -7.782478
    9        2.157530
   10        2.673367
   11        2.967323
   12        3.389145
 
  0.4583333E+00  0.1111111E+00  0.0000000E+00  0.4629630E-02
    1      -20.667996
    2      -20.215507
    3      -10.929001
    4       -9.938800
    5       -8.585401
    6       -8.554646
    7       -8.146225
    8       -8.067713
    9        2.432009
   10        3.058425
   11        3.179084
   12        3.237830
 
  0.5000000E+00  0.1111111E+00  0.0000000E+00  0.2314815E-02
    1      -20.450667
    2      -20.450667
    3      -10.429057
    4      -10.429057
    5       -8.356304
    6       -8.356304
    7       -8.335780
    8       -8.335780
    9        2.732351
   10        2.732351
   11        3.488795
   12        3.488797
 
  0.0000000E+00  0.1388889E+00  0.0000000E+00  0.2314815E-02
    1      -21.700098
    2      -17.000479
    3      -15.513589
    4      -10.113332
    5       -9.789748
    6       -7.003417
    7       -6.662012
    8       -4.962512
    9       -1.299086
   10        1.018276
   11        1.819888
   12        2.218699
 
  0.4166667E-01  0.1388889E+00  0.0000000E+00  0.4629630E-02
    1      -21.690474
    2      -17.109053
    3      -15.391348
    4      -10.103550
    5       -9.778403
    6       -7.049101
    7       -6.667151
    8       -5.022977
    9       -1.225706
   10        1.031321
   11        1.833122
   12        2.232122
 
  0.8333333E-01  0.1388889E+00  0.0000000E+00  0.4629630E-02
    1      -21.661611
    2      -17.365971
    3      -15.093548
    4      -10.074225
    5       -9.744385
    6       -7.171932
    7       -6.695635
    8       -5.190931
    9       -1.019172
   10        1.070470
   11        1.872820
   12        2.272392
 
  0.1250000E+00  0.1388889E+00  0.0000000E+00  0.4629630E-02
    1      -21.613531
    2      -17.681995
    3      -14.709786
    4      -10.025417
    5       -9.687754
    6       -7.350215
    7       -6.765623
    8       -5.436393
    9       -0.709947
   10        1.135749
   11        1.938968
   12        2.339516
 
  0.1666667E+00  0.1388889E+00  0.0000000E+00  0.4629630E-02
    1      -21.546273
    2      -18.015174
    3      -14.282631
    4       -9.957226
    5       -9.608607
    6       -7.570445
    7       -6.884607
    8       -5.729519
    9       -0.328688
   10        1.227200
   11        2.031543
   12        2.433503
 
  0.2083333E+00  0.1388889E+00  0.0000000E+00  0.4629630E-02
    1      -21.459893
    2      -18.348417
    3      -13.830067
    4       -9.869793
    5       -9.507087
    6       -7.825480
    7       -7.051301
    8       -6.047975
    9        0.101149
   10        1.344854
   11        2.150509
   12        2.554361
 
  0.2500000E+00  0.1388889E+00  0.0000000E+00  0.4629630E-02
    1      -21.354463
    2      -18.674034
    3      -13.360998
    4       -9.763296
    5       -9.383385
    6       -8.112048
    7       -7.258557
    8       -6.376789
    9        0.563158
   10        1.488732
   11        2.295815
   12        2.702097
 
  0.2916667E+00  0.1388889E+00  0.0000000E+00  0.4629630E-02
    1      -21.230077
    2      -18.988090
    3      -12.880926
    4       -9.637948
    5       -9.237747
    6       -8.429387
    7       -7.495449
    8       -6.706187
    9        1.045828
   10        1.658825
   11        2.467380
   12        2.876713
 
  0.3333333E+00  0.1388889E+00  0.0000000E+00  0.4629630E-02
    1      -21.086847
    2      -19.288333
    3      -12.394092
    4       -9.494000
    5       -9.070484
    6       -8.777944
    7       -7.749421
    8       -7.029709
    9        1.540666
   10        1.855100
   11        2.665077
   12        3.078205
 
  0.3750000E+00  0.1388889E+00  0.0000000E+00  0.4629630E-02
    1      -20.924915
    2      -19.573351
    3      -11.904387
    4       -9.331737
    5       -9.157804
    6       -8.881984
    7       -8.008604
    8       -7.342973
    9        2.040947
   10        2.077500
   11        2.888662
   12        3.306569
 
  0.4166667E+00  0.1388889E+00  0.0000000E+00  0.4629630E-02
    1      -20.744449
    2      -19.842195
    3      -11.415817
    4       -9.567395
    5       -9.151495
    6       -8.672731
    7       -8.263636
    8       -7.642912
    9        2.325949
   10        2.540835
   11        3.137488
   12        3.561961
 
  0.4583333E+00  0.1388889E+00  0.0000000E+00  0.4629630E-02
    1      -20.545660
    2      -20.094181
    3      -10.932761
    4      -10.003148
    5       -8.953697
    6       -8.508289
    7       -8.443328
    8       -7.927312
    9        2.600353
   10        3.034196
   11        3.226541
   12        3.408063
 
  0.5000000E+00  0.1388889E+00  0.0000000E+00  0.2314815E-02
    1      -20.328800
    2      -20.328800
    3      -10.460096
    4      -10.460096
    5       -8.738951
    6       -8.738951
    7       -8.194534
    8       -8.194534
    9        2.900597
   10        2.900597
   11        3.498801
   12        3.498978
 
  0.0000000E+00  0.1666667E+00  0.0000000E+00  0.2314815E-02
    1      -21.548304
    2      -16.868097
    3      -15.393435
    4      -10.609591
    5       -9.611067
    6       -7.471220
    7       -6.921267
    8       -4.780099
    9       -1.366655
   10        1.224641
   11        2.027879
   12        2.429799
 
  0.4166667E-01  0.1666667E+00  0.0000000E+00  0.4629630E-02
    1      -21.538698
    2      -16.975748
    3      -15.272842
    4      -10.599418
    5       -9.599773
    6       -7.514822
    7       -6.923516
    8       -4.842436
    9       -1.292755
   10        1.237675
   11        2.041097
   12        2.443220
 
  0.8333333E-01  0.1666667E+00  0.0000000E+00  0.4629630E-02
    1      -21.509889
    2      -17.230690
    3      -14.979226
    4      -10.568889
    5       -9.565911
    6       -7.633880
    7       -6.941419
    8       -5.014643
    9       -1.086019
   10        1.276788
   11        2.080745
   12        2.483482
 
  0.1250000E+00  0.1666667E+00  0.0000000E+00  0.4629630E-02
    1      -21.461898
    2      -17.544573
    3      -14.601410
    4      -10.517977
    5       -9.509539
    6       -7.807214
    7       -6.994198
    8       -5.264425
    9       -0.779219
   10        1.342007
   11        2.146810
   12        2.550621
 
  0.1666667E+00  0.1666667E+00  0.0000000E+00  0.4629630E-02
    1      -21.394768
    2      -17.875753
    3      -14.181853
    4      -10.446624
    5       -9.430756
    6       -8.018677
    7       -7.094266
    8       -5.560693
    9       -0.404234
   10        1.433373
   11        2.239270
   12        2.644561
 
  0.2083333E+00  0.1666667E+00  0.0000000E+00  0.4629630E-02
    1      -21.308555
    2      -18.207213
    3      -13.738776
    4      -10.354726
    5       -9.329705
    6       -8.258237
    7       -7.245766
    8       -5.880935
    9        0.015345
   10        1.550926
   11        2.358089
   12        2.765397
 
  0.2500000E+00  0.1666667E+00  0.0000000E+00  0.4629630E-02
    1      -21.203336
    2      -18.531265
    3      -13.281512
    4      -10.242109
    5       -9.206576
    6       -8.520101
    7       -7.446421
    8       -6.210432
    9        0.463452
   10        1.694695
   11        2.503220
   12        2.913112
 
  0.2916667E+00  0.1666667E+00  0.0000000E+00  0.4629630E-02
    1      -21.079205
    2      -18.843955
    3      -12.816189
    4      -10.108490
    5       -9.061615
    6       -8.801608
    7       -7.689039
    8       -6.539734
    9        0.929045
   10        1.864680
   11        2.674597
   12        3.087726
 
  0.3333333E+00  0.1666667E+00  0.0000000E+00  0.4629630E-02
    1      -20.936283
    2      -19.143011
    3      -12.347891
    4       -9.953437
    5       -9.102719
    6       -8.895131
    7       -7.962734
    8       -6.862653
    9        1.404134
   10        2.060852
   11        2.872129
   12        3.289197
 
  0.3750000E+00  0.1666667E+00  0.0000000E+00  0.4629630E-02
    1      -20.774714
    2      -19.427000
    3      -11.881610
    4       -9.776336
    5       -9.425517
    6       -8.707510
    7       -8.254231
    8       -7.175008
    9        1.882560
   10        2.283149
   11        3.095670
   12        3.517562
 
  0.4166667E+00  0.1666667E+00  0.0000000E+00  0.4629630E-02
    1      -20.594678
    2      -19.694949
    3      -11.422697
    4       -9.773162
    5       -9.576415
    6       -8.549580
    7       -8.499227
    8       -7.473872
    9        2.359265
   10        2.531487
   11        3.344880
   12        3.773351
 
  0.4583333E+00  0.1666667E+00  0.0000000E+00  0.4629630E-02
    1      -20.396388
    2      -19.946161
    3      -10.976973
    4      -10.148119
    5       -9.352933
    6       -8.836373
    7       -8.270876
    8       -7.757127
    9        2.805758
   10        2.829834
   11        3.431558
   12        3.614572
 
  0.5000000E+00  0.1666667E+00  0.0000000E+00  0.2314815E-02
    1      -20.180109
    2      -20.180109
    3      -10.550395
    4      -10.550395
    5       -9.105736
    6       -9.105736
    7       -8.023197
    8       -8.023197
    9        3.105832
   10        3.105832
   11        3.289932
   12        3.289970
 