 running on    8 total cores
 distrk:  each k-point on    8 cores,    1 groups
 distr:  one band on    2 cores,    4 groups
 using from now: INCAR     
 vasp.5.3.5 31Mar14 (build Mar 02 2015 18:14:16) complex                        
  
 POSCAR found type information on POSCAR  C 
 POSCAR found :  1 types and       4 ions
 LDA part: xc-table for Pade appr. of Perdew
 POSCAR, INCAR and KPOINTS ok, starting setup
 WARNING: small aliasing (wrap around) errors must be expected
 FFT: planning ...
 WAVECAR not read
 entering main loop
       N       E                     dE             d eps       ncg     rms          rms(c)
DAV:   1     0.185398274510E+03    0.18540E+03   -0.10650E+04  5928   0.275E+03
DAV:   2    -0.913286155949E+01   -0.19453E+03   -0.17231E+03 10376   0.259E+02
DAV:   3    -0.380107782584E+02   -0.28878E+02   -0.28107E+02  7388   0.118E+02    0.702E+00
RMM:   4    -0.375331647195E+02    0.47761E+00   -0.95856E+00  5928   0.263E+01    0.408E+00
RMM:   5    -0.368384319600E+02    0.69473E+00   -0.26178E+00  5931   0.111E+01    0.701E-01
RMM:   6    -0.368399489035E+02   -0.15169E-02   -0.79604E-02  6368   0.200E+00    0.497E-01
RMM:   7    -0.368314050429E+02    0.85439E-02   -0.31697E-02  5954   0.154E+00    0.323E-01
RMM:   8    -0.368268280751E+02    0.45770E-02   -0.56270E-03  5934   0.500E-01    0.141E-01
RMM:   9    -0.368265259481E+02    0.30213E-03   -0.20084E-02  5928   0.840E-01    0.149E-01
RMM:  10    -0.368264082227E+02    0.11773E-03   -0.17917E-03  5928   0.308E-01    0.262E-02
RMM:  11    -0.368286174933E+02   -0.22093E-02   -0.76359E-04  5929   0.188E-01    0.419E-02
RMM:  12    -0.368291200155E+02   -0.50252E-03   -0.18575E-04  5953   0.911E-02    0.595E-03
RMM:  13    -0.368293989215E+02   -0.27891E-03   -0.50493E-05  6050   0.359E-02    0.242E-03
RMM:  14    -0.368294822789E+02   -0.83357E-04   -0.10723E-05  6014   0.135E-02    0.909E-04
RMM:  15    -0.368294972616E+02   -0.14983E-04   -0.21197E-06  5942   0.785E-03    0.269E-03
RMM:  16    -0.368295112357E+02   -0.13974E-04   -0.27640E-06  5928   0.110E-02    0.164E-03
RMM:  17    -0.368295173126E+02   -0.60769E-05   -0.33543E-07  5928   0.357E-03    0.391E-04
RMM:  18    -0.368295184668E+02   -0.11542E-05   -0.21221E-08  6004   0.120E-03    0.807E-05
WARNING in EDDRMM: call to ZHEGV failed, returncode =   6  3  1
WARNING in EDDRMM: call to ZHEGV failed, returncode =   6  3  1
WARNING in EDDRMM: call to ZHEGV failed, returncode =   6  3  1
WARNING in EDDRMM: call to ZHEGV failed, returncode =   6  3  1
WARNING in EDDRMM: call to ZHEGV failed, returncode =   6  3  1
WARNING in EDDRMM: call to ZHEGV failed, returncode =   6  3  1
WARNING in EDDRMM: call to ZHEGV failed, returncode =   6  3  1
WARNING in EDDRMM: call to ZHEGV failed, returncode =   6  3  1
WARNING in EDDRMM: call to ZHEGV failed, returncode =   6  3  1
RMM:  19    -0.368295191831E+02   -0.71623E-06   -0.95156E-09  5101   0.402E-04    0.130E-05
RMM:  20    -0.368295192200E+02   -0.36975E-07   -0.55075E-10  4552   0.125E-04    0.198E-05
RMM:  21    -0.368295192304E+02   -0.10354E-07   -0.17257E-10  4303   0.797E-05    0.773E-06
RMM:  22    -0.368295192307E+02   -0.27035E-09   -0.23461E-11  3876   0.508E-05    0.509E-07
RMM:  23    -0.368295192310E+02   -0.35106E-09   -0.14180E-11  3623   0.386E-05    0.122E-06
RMM:  24    -0.368295192311E+02   -0.11778E-09   -0.59347E-12  3198   0.299E-05    0.471E-07
RMM:  25    -0.368295192311E+02    0.58662E-10   -0.28083E-12  2856   0.254E-05
   1 F= -.36829519E+02 E0= -.36829519E+02  d E =-.368295E+02
 BRION: g(F)=  0.553E-07 g(S)=  0.000E+00
 bond charge predicted
       N       E                     dE             d eps       ncg     rms          rms(c)
DAV:   1    -0.368295191570E+02    0.74118E-07   -0.73204E-06  6336   0.253E-02    0.500E-04
RMM:   2    -0.368295191661E+02   -0.91087E-08   -0.11734E-07  5967   0.301E-03    0.364E-04
RMM:   3    -0.368295191671E+02   -0.10308E-08   -0.19584E-08  5974   0.112E-03    0.984E-05
RMM:   4    -0.368295191658E+02    0.13557E-08   -0.13686E-09  5957   0.293E-04    0.284E-05
RMM:   5    -0.368295191662E+02   -0.40609E-09   -0.72763E-11  3843   0.738E-05    0.108E-05
RMM:   6    -0.368295191661E+02    0.12562E-09   -0.18167E-11  3526   0.492E-05    0.230E-06
RMM:   7    -0.368295191664E+02   -0.28865E-09   -0.11435E-11  3463   0.396E-05    0.702E-07
RMM:   8    -0.368295191663E+02    0.36380E-10   -0.91635E-12  3205   0.333E-05
   2 F= -.36829519E+02 E0= -.36829519E+02  d E =0.647433E-07
 BRION: g(F)=  0.711E-06 g(S)=  0.000E+00 retain N=  1 mean eig= 0.22
 eig:   0.218
 bond charge predicted
       N       E                     dE             d eps       ncg     rms          rms(c)
DAV:   1    -0.368295192427E+02   -0.76360E-07   -0.44693E-06  6720   0.198E-02    0.394E-04
RMM:   2    -0.368295192434E+02   -0.71407E-09   -0.69253E-08  5960   0.235E-03    0.285E-04
RMM:   3    -0.368295192385E+02    0.49406E-08   -0.11832E-08  5965   0.874E-04    0.747E-05
RMM:   4    -0.368295192389E+02   -0.44520E-09   -0.79014E-10  5571   0.226E-04    0.220E-05
RMM:   5    -0.368295192383E+02    0.63380E-09   -0.41071E-11  3752   0.632E-05    0.854E-06
RMM:   6    -0.368295192383E+02   -0.33424E-10   -0.17411E-11  3326   0.447E-05
   3 F= -.36829519E+02 E0= -.36829519E+02  d E =-.720150E-07
 BRION: g(F)=  0.170E-12 g(S)=  0.000E+00 retain N=  1 mean eig= 0.22
 eig:   0.218
 reached required accuracy - stopping structural energy minimisation
