gr                                      
           1
     4.401465    0.000000    0.000000
     0.000000    2.455441    0.000000
     0.000000    0.000000   19.508414
   C 
   4
Direct configuration=     1
   0.99938979  0.00000000  0.00000000
   0.16727688  0.50000000  0.00000000
   0.49938979  0.50000000  0.00000000
   0.66727688  0.00000000  0.00000000
Direct configuration=     2
   0.99939565 -0.00000000  0.00000000
   0.16727101  0.50000000 -0.00000000
   0.49939565  0.50000000  0.00000000
   0.66727101 -0.00000000 -0.00000000
Direct configuration=     3
   0.99939107 -0.00000000  0.00000000
   0.16727560  0.50000000 -0.00000000
   0.49939107  0.50000000  0.00000000
   0.66727560 -0.00000000 -0.00000000
