 running on    8 total cores
 distrk:  each k-point on    8 cores,    1 groups
 distr:  one band on    2 cores,    4 groups
 using from now: INCAR     
 vasp.5.3.5 31Mar14 (build Mar 02 2015 18:14:16) complex                        
  
 POSCAR found type information on POSCAR  C 
 POSCAR found :  1 types and       4 ions
 LDA part: xc-table for Pade appr. of Perdew
 POSCAR, INCAR and KPOINTS ok, starting setup
 WARNING: small aliasing (wrap around) errors must be expected
 FFT: planning ...
 WAVECAR not read
 entering main loop
       N       E                     dE             d eps       ncg     rms          rms(c)
DAV:   1     0.187914285356E+03    0.18791E+03   -0.10597E+04  5928   0.274E+03
DAV:   2    -0.870246805894E+01   -0.19662E+03   -0.17428E+03 10296   0.260E+02
DAV:   3    -0.382012498739E+02   -0.29499E+02   -0.28814E+02  7444   0.119E+02    0.719E+00
RMM:   4    -0.376441221215E+02    0.55713E+00   -0.97042E+00  5928   0.266E+01    0.417E+00
RMM:   5    -0.369107553020E+02    0.73337E+00   -0.27462E+00  5935   0.113E+01    0.712E-01
RMM:   6    -0.369123002323E+02   -0.15449E-02   -0.81501E-02  6365   0.202E+00    0.507E-01
RMM:   7    -0.369030465040E+02    0.92537E-02   -0.31767E-02  5943   0.155E+00    0.333E-01
RMM:   8    -0.368978200012E+02    0.52265E-02   -0.69787E-03  5928   0.553E-01    0.133E-01
RMM:   9    -0.368975811414E+02    0.23886E-03   -0.19769E-02  5928   0.831E-01    0.155E-01
RMM:  10    -0.368975044823E+02    0.76659E-04   -0.23842E-03  5928   0.353E-01    0.289E-02
RMM:  11    -0.368999138853E+02   -0.24094E-02   -0.67721E-04  5928   0.170E-01    0.428E-02
RMM:  12    -0.369003986532E+02   -0.48477E-03   -0.21741E-04  5945   0.969E-02    0.429E-03
RMM:  13    -0.369006343717E+02   -0.23572E-03   -0.42989E-05  6025   0.350E-02    0.340E-03
RMM:  14    -0.369007168292E+02   -0.82457E-04   -0.98726E-06  5954   0.155E-02    0.121E-03
RMM:  15    -0.369007273736E+02   -0.10544E-04   -0.15485E-06  5978   0.703E-03    0.165E-03
RMM:  16    -0.369007393669E+02   -0.11993E-04   -0.11910E-06  5928   0.714E-03    0.111E-03
RMM:  17    -0.369007447171E+02   -0.53501E-05   -0.10140E-07  6020   0.196E-03    0.593E-04
RMM:  18    -0.369007457786E+02   -0.10615E-05   -0.41010E-08  5947   0.159E-03    0.105E-04
WARNING in EDDRMM: call to ZHEGV failed, returncode =   6  3  1
WARNING in EDDRMM: call to ZHEGV failed, returncode =   6  3  1
WARNING in EDDRMM: call to ZHEGV failed, returncode =   6  3  1
WARNING in EDDRMM: call to ZHEGV failed, returncode =   6  3  1
WARNING in EDDRMM: call to ZHEGV failed, returncode =   6  3  1
WARNING in EDDRMM: call to ZHEGV failed, returncode =   6  3  1
RMM:  19    -0.369007465540E+02   -0.77537E-06   -0.10253E-08  6012   0.474E-04    0.184E-05
RMM:  20    -0.369007465982E+02   -0.44207E-07   -0.82176E-10  4545   0.148E-04    0.251E-05
RMM:  21    -0.369007466144E+02   -0.16186E-07   -0.22968E-10  4360   0.881E-05    0.747E-06
RMM:  22    -0.369007466145E+02   -0.13131E-09   -0.13545E-11  3895   0.493E-05    0.151E-06
RMM:  23    -0.369007466151E+02   -0.61027E-09   -0.19199E-11  3538   0.391E-05    0.187E-06
RMM:  24    -0.369007466151E+02    0.95497E-11   -0.50259E-12  3071   0.287E-05
   1 F= -.36900747E+02 E0= -.36900744E+02  d E =-.369007E+02
 BRION: g(F)=  0.602E-09 g(S)=  0.000E+00
 bond charge predicted
       N       E                     dE             d eps       ncg     rms          rms(c)
DAV:   1    -0.369007466140E+02    0.11798E-08   -0.75043E-08  6344   0.266E-03    0.544E-05
WARNING in EDDRMM: call to ZHEGV failed, returncode =   6  3  1
WARNING in EDDRMM: call to ZHEGV failed, returncode =   6  3  1
WARNING in EDDRMM: call to ZHEGV failed, returncode =   6  3  1
RMM:   2    -0.369007466142E+02   -0.24011E-09   -0.13024E-09  5486   0.320E-04    0.394E-05
RMM:   3    -0.369007466138E+02    0.40859E-09   -0.21298E-10  4006   0.126E-04    0.989E-06
 num prob RMM:   4    -0.369007466140E+02   -0.17894E-09   -0.65704E-12  3732   0.490E-05    0.253E-06
RMM:   5    -0.369007466142E+02   -0.20714E-09   -0.20196E-11  3621   0.450E-05    0.519E-06
RMM:   6    -0.369007466140E+02    0.21782E-09   -0.75227E-12  3000   0.311E-05    0.988E-07
RMM:   7    -0.369007466137E+02    0.22192E-09   -0.39952E-12  2648   0.260E-05    0.131E-06
RMM:   8    -0.369007466140E+02   -0.27694E-09   -0.38459E-13  2422   0.231E-05    0.106E-06
RMM:   9    -0.369007466139E+02    0.12585E-09   -0.38811E-13  2299   0.214E-05    0.522E-07
RMM:  10    -0.369007466140E+02   -0.15621E-09   -0.10418E-12  2207   0.205E-05    0.134E-07
RMM:  11    -0.369007466139E+02    0.11516E-09   -0.70372E-13  2031   0.194E-05    0.130E-07
RMM:  12    -0.369007466141E+02   -0.15950E-09   -0.15403E-12  1914   0.188E-05    0.100E-07
RMM:  13    -0.369007466137E+02    0.37892E-09    0.20048E-13  1831   0.181E-05    0.605E-08
RMM:  14    -0.369007466140E+02   -0.27887E-09   -0.11329E-12  1797   0.175E-05    0.274E-08
RMM:  15    -0.369007466141E+02   -0.11653E-09   -0.11458E-12  1697   0.172E-05    0.317E-08
 num prob RMM:  16    -0.369007466141E+02    0.25011E-10   -0.85621E-13  1686   0.168E-05
   2 F= -.36900747E+02 E0= -.36900744E+02  d E =0.104933E-08
 BRION: g(F)=  0.905E-08 g(S)=  0.000E+00 retain N=  1 mean eig= 0.21
 eig:   0.205
 bond charge predicted
       N       E                     dE             d eps       ncg     rms          rms(c)
DAV:   1    -0.369007466141E+02   -0.23874E-10   -0.45384E-08  6668   0.212E-03    0.436E-05
RMM:   2    -0.369007466152E+02   -0.10384E-08   -0.77434E-10  5093   0.251E-04    0.314E-05
RMM:   3    -0.369007466154E+02   -0.26387E-09   -0.13774E-10  3674   0.103E-04    0.780E-06
RMM:   4    -0.369007466151E+02    0.35209E-09   -0.56459E-12  3606   0.429E-05    0.201E-06
RMM:   5    -0.369007466152E+02   -0.11437E-09   -0.15659E-11  3483   0.414E-05    0.540E-06
RMM:   6    -0.369007466153E+02   -0.14347E-09   -0.65114E-12  2883   0.306E-05    0.778E-07
RMM:   7    -0.369007466150E+02    0.36152E-09   -0.18968E-12  2240   0.258E-05    0.855E-07
RMM:   8    -0.369007466150E+02   -0.27853E-10   -0.20626E-12  1968   0.232E-05
   3 F= -.36900747E+02 E0= -.36900744E+02  d E =-.923251E-09
 BRION: g(F)=  0.764E-14 g(S)=  0.000E+00 retain N=  1 mean eig= 0.21
 eig:   0.205
 reached required accuracy - stopping structural energy minimisation
