    4    4  400    1
  0.5270948E+02  0.4337788E-09  0.2460830E-09  0.1975144E-08  0.5000000E-15
  1.000000000000000E-004
  CAR 
 gr                                      
     16    247     12
 
  0.0000000E+00  0.0000000E+00  0.0000000E+00  0.1157407E-02
    1      -22.149268
    2      -17.167410
    3      -15.890760
    4      -10.278331
    5       -8.940949
    6       -5.922914
    7       -5.748721
    8       -5.248513
    9       -1.144699
   10        0.536368
   11        1.335692
   12        1.724856
 
  0.4166667E-01  0.0000000E+00  0.0000000E+00  0.2314815E-02
    1      -22.139319
    2      -17.301515
    3      -15.741562
    4      -10.266493
    5       -8.931214
    6       -5.966612
    7       -5.769756
    8       -5.310214
    9       -1.067156
   10        0.549840
   11        1.349352
   12        1.738685
 
  0.8333333E-01  0.0000000E+00  0.0000000E+00  0.2314815E-02
    1      -22.109476
    2      -17.598909
    3      -15.398967
    4      -10.230998
    5       -8.902061
    6       -6.095733
    7       -5.831739
    8       -5.482308
    9       -0.847696
   10        0.590261
   11        1.390328
   12        1.780173
 
  0.1250000E+00  0.0000000E+00  0.0000000E+00  0.2314815E-02
    1      -22.059760
    2      -17.947581
    3      -14.975226
    4      -10.171905
    5       -8.853641
    6       -6.304727
    7       -5.931487
    8       -5.735273
    9       -0.516334
   10        0.657647
   11        1.458606
   12        1.849324
 
  0.1666667E+00  0.0000000E+00  0.0000000E+00  0.2314815E-02
    1      -21.990205
    2      -18.306213
    3      -14.512067
    4      -10.089309
    5       -8.786217
    6       -6.585415
    7       -6.064233
    8       -6.038913
    9       -0.104090
   10        0.752010
   11        1.554162
   12        1.946139
 
  0.2083333E+00  0.0000000E+00  0.0000000E+00  0.2314815E-02
    1      -21.900860
    2      -18.660209
    3      -14.024677
    4       -9.983354
    5       -8.700163
    6       -6.928170
    7       -6.370035
    8       -6.224254
    9        0.364644
   10        0.873362
   11        1.676956
   12        2.070621
 
  0.2500000E+00  0.0000000E+00  0.0000000E+00  0.2314815E-02
    1      -21.791790
    2      -19.003425
    3      -13.519981
    4       -9.854229
    5       -8.595982
    6       -7.322976
    7       -6.712774
    8       -6.405463
    9        0.872402
   10        1.021696
   11        1.826929
   12        2.222770
 
  0.2916667E+00  0.0000000E+00  0.0000000E+00  0.2314815E-02
    1      -21.663077
    2      -19.332813
    3      -13.002029
    4       -9.702182
    5       -8.474322
    6       -7.760209
    7       -7.056643
    8       -6.601890
    9        1.196994
   10        1.406584
   11        2.003987
   12        2.402585
 
  0.3333333E+00  0.0000000E+00  0.0000000E+00  0.2314815E-02
    1      -21.514820
    2      -19.646647
    3      -12.473793
    4       -9.527524
    5       -8.335991
    6       -8.231087
    7       -7.394670
    8       -6.807990
    9        1.399224
   10        1.957358
   11        2.207975
   12        2.610062
 
  0.3750000E+00  0.0000000E+00  0.0000000E+00  0.2314815E-02
    1      -21.347141
    2      -19.943843
    3      -11.937890
    4       -9.330649
    5       -8.727861
    6       -8.181988
    7       -7.722120
    8       -7.018809
    9        1.628336
   10        2.438605
   11        2.515472
   12        2.845191
 
  0.4166667E+00  0.0000000E+00  0.0000000E+00  0.2314815E-02
    1      -21.160181
    2      -20.223661
    3      -11.396920
    4       -9.243827
    5       -9.112052
    6       -8.035691
    7       -8.013538
    8       -7.230037
    9        1.884263
   10        2.695259
   11        3.065857
   12        3.107961
 
  0.4583333E+00  0.0000000E+00  0.0000000E+00  0.2314815E-02
    1      -20.954117
    2      -20.485568
    3      -10.853668
    4       -9.773252
    5       -8.872352
    6       -8.333011
    7       -7.832126
    8       -7.437988
    9        2.166916
   10        2.811855
   11        2.976209
   12        3.398396
 
  0.5000000E+00  0.0000000E+00  0.0000000E+00  0.1157407E-02
    1      -20.729160
    2      -20.729160
    3      -10.311253
    4      -10.311253
    5       -8.612336
    6       -8.612336
    7       -7.639553
    8       -7.639553
    9        2.476172
   10        2.476172
   11        3.273674
   12        3.273713
 
  0.0000000E+00  0.2777778E-01  0.0000000E+00  0.2314815E-02
    1      -22.135501
    2      -17.155512
    3      -15.879047
    4      -10.261950
    5       -9.003607
    6       -5.950578
    7       -5.806930
    8       -5.231844
    9       -1.147702
   10        0.555031
   11        1.354564
   12        1.743962
 
  0.4166667E-01  0.2777778E-01  0.0000000E+00  0.4629630E-02
    1      -22.125552
    2      -17.289480
    3      -15.730031
    4      -10.250116
    5       -8.993859
    6       -5.996158
    7       -5.825451
    8       -5.293670
    9       -1.070141
   10        0.568503
   11        1.368223
   12        1.757791
 
  0.8333333E-01  0.2777778E-01  0.0000000E+00  0.4629630E-02
    1      -22.095714
    2      -17.586637
    3      -15.387816
    4      -10.214633
    5       -8.964664
    6       -6.127601
    7       -5.883332
    8       -5.466058
    9       -0.850714
   10        0.608925
   11        1.409197
   12        1.799280
 
  0.1250000E+00  0.2777778E-01  0.0000000E+00  0.4629630E-02
    1      -22.046005
    2      -17.935090
    3      -14.964536
    4      -10.155559
    5       -8.916174
    6       -6.336397
    7       -5.980645
    8       -5.719332
    9       -0.519583
   10        0.676312
   11        1.477471
   12        1.868430
 
  0.1666667E+00  0.2777778E-01  0.0000000E+00  0.4629630E-02
    1      -21.976461
    2      -18.293533
    3      -14.501916
    4      -10.072992
    5       -8.848643
    6       -6.614531
    7       -6.112834
    8       -6.023210
    9       -0.107864
   10        0.770679
   11        1.573022
   12        1.965247
 
  0.2083333E+00  0.2777778E-01  0.0000000E+00  0.4629630E-02
    1      -21.887131
    2      -18.647367
    3      -14.015156
    4       -9.967072
    5       -8.762440
    6       -6.953346
    7       -6.354475
    8       -6.273534
    9        0.360033
   10        0.892035
   11        1.695811
   12        2.089730
 
  0.2500000E+00  0.2777778E-01  0.0000000E+00  0.4629630E-02
    1      -21.778079
    2      -18.990444
    3      -13.511200
    4       -9.837991
    5       -8.658060
    6       -7.343657
    7       -6.697278
    8       -6.456083
    9        0.866661
   10        1.040376
   11        1.845778
   12        2.241881
 
  0.2916667E+00  0.2777778E-01  0.0000000E+00  0.4629630E-02
    1      -21.649388
    2      -19.319712
    3      -12.994121
    4       -9.685995
    5       -8.536137
    6       -7.776382
    7       -7.041152
    8       -6.654120
    9        1.215682
   10        1.399458
   11        2.022830
   12        2.421699
 
  0.3333333E+00  0.2777778E-01  0.0000000E+00  0.4629630E-02
    1      -21.501159
    2      -19.633442
    3      -12.466919
    4       -9.511396
    5       -8.397466
    6       -8.243043
    7       -7.379143
    8       -6.861863
    9        1.417922
   10        1.948666
   11        2.226815
   12        2.629179
 
  0.3750000E+00  0.2777778E-01  0.0000000E+00  0.4629630E-02
    1      -21.333511
    2      -19.930548
    3      -11.932243
    4       -9.314588
    5       -8.736030
    6       -8.243031
    7       -7.706533
    8       -7.074226
    9        1.647045
   10        2.457449
   11        2.505225
   12        2.864313
 
  0.4166667E+00  0.2777778E-01  0.0000000E+00  0.4629630E-02
    1      -21.146589
    2      -20.210288
    3      -11.392729
    4       -9.248686
    5       -9.096064
    6       -8.074037
    7       -8.020029
    8       -7.286833
    9        1.902985
   10        2.714118
   11        3.055038
   12        3.127089
 
  0.4583333E+00  0.2777778E-01  0.0000000E+00  0.4629630E-02
    1      -20.940568
    2      -20.472128
    3      -10.851206
    4       -9.775264
    5       -8.856442
    6       -8.317267
    7       -7.891948
    8       -7.495976
    9        2.185654
   10        2.830649
   11        2.995092
   12        3.417795
 
  0.5000000E+00  0.2777778E-01  0.0000000E+00  0.2314815E-02
    1      -20.715661
    2      -20.715661
    3      -10.310842
    4      -10.310842
    5       -8.596508
    6       -8.596508
    7       -7.698545
    8       -7.698545
    9        2.494932
   10        2.494932
   11        3.292363
   12        3.292363
 
  0.0000000E+00  0.5555556E-01  0.0000000E+00  0.2314815E-02
    1      -22.094207
    2      -17.119821
    3      -15.844051
    4      -10.212840
    5       -9.186527
    6       -6.033055
    7       -5.976827
    8       -5.181858
    9       -1.157528
   10        0.611021
   11        1.411172
   12        1.801280
 
  0.4166667E-01  0.5555556E-01  0.0000000E+00  0.4629630E-02
    1      -22.084263
    2      -17.253389
    3      -15.695581
    4      -10.201018
    5       -9.176735
    6       -6.092382
    7       -5.979748
    8       -5.244072
    9       -1.079909
   10        0.624493
   11        1.424829
   12        1.815110
 
  0.8333333E-01  0.5555556E-01  0.0000000E+00  0.4629630E-02
    1      -22.054438
    2      -17.549841
    3      -15.354506
    4      -10.165572
    5       -9.147404
    6       -6.233206
    7       -6.023007
    8       -5.417362
    9       -0.860570
   10        0.664916
   11        1.465796
   12        1.856599
 
  0.1250000E+00  0.5555556E-01  0.0000000E+00  0.4629630E-02
    1      -22.004752
    2      -17.897639
    3      -14.932626
    4      -10.106558
    5       -9.098676
    6       -6.440542
    7       -6.113995
    8       -5.671588
    9       -0.530145
   10        0.732305
   11        1.534058
   12        1.925750
 
  0.1666667E+00  0.5555556E-01  0.0000000E+00  0.4629630E-02
    1      -21.935242
    2      -18.255514
    3      -14.471648
    4      -10.024076
    5       -9.030791
    6       -6.709837
    7       -6.245765
    8       -5.976188
    9       -0.120029
   10        0.826678
   11        1.629594
   12        2.022568
 
  0.2083333E+00  0.5555556E-01  0.0000000E+00  0.4629630E-02
    1      -21.845955
    2      -18.608860
    3      -13.986818
    4       -9.918266
    5       -8.944095
    6       -7.035666
    7       -6.409725
    8       -6.307889
    9        0.345310
   10        0.948044
   11        1.752364
   12        2.147055
 
  0.2500000E+00  0.5555556E-01  0.0000000E+00  0.4629630E-02
    1      -21.736958
    2      -18.951518
    3      -13.485137
    4       -9.789318
    5       -8.839053
    6       -7.411341
    7       -6.650882
    8       -6.597466
    9        0.848479
   10        1.096400
   11        1.902311
   12        2.299211
 
  0.2916667E+00  0.5555556E-01  0.0000000E+00  0.4629630E-02
    1      -21.608336
    2      -19.280424
    3      -12.970751
    4       -9.637479
    5       -8.716262
    6       -7.829458
    7       -6.994766
    8       -6.801407
    9        1.271726
   10        1.377036
   11        2.079346
   12        2.479036
 
  0.3333333E+00  0.5555556E-01  0.0000000E+00  0.4629630E-02
    1      -21.460187
    2      -19.593842
    3      -12.446747
    4       -9.463060
    5       -8.576469
    6       -8.282508
    7       -7.332646
    8       -7.015008
    9        1.473988
   10        1.921424
   11        2.283321
   12        2.686524
 
  0.3750000E+00  0.5555556E-01  0.0000000E+00  0.4629630E-02
    1      -21.292634
    2      -19.890677
    3      -11.915877
    4       -9.266454
    5       -8.763340
    6       -8.420603
    7       -7.659850
    8       -7.232768
    9        1.703138
   10        2.473094
   11        2.513965
   12        2.921670
 
  0.4166667E+00  0.5555556E-01  0.0000000E+00  0.4629630E-02
    1      -21.105824
    2      -20.170184
    3      -11.380900
    4       -9.265421
    5       -9.048152
    6       -8.249802
    7       -7.973115
    8       -7.450124
    9        1.959108
   10        2.770682
   11        3.020366
   12        3.184462
 
  0.4583333E+00  0.5555556E-01  0.0000000E+00  0.4629630E-02
    1      -20.899933
    2      -20.431820
    3      -10.844788
    4       -9.782953
    5       -8.808770
    6       -8.270102
    7       -8.065460
    8       -7.663321
    9        2.241812
   10        2.886931
   11        3.051734
   12        3.486223
 
  0.5000000E+00  0.5555556E-01  0.0000000E+00  0.2314815E-02
    1      -20.675178
    2      -20.675178
    3      -10.310871
    4      -10.310871
    5       -8.549087
    6       -8.549087
    7       -7.869275
    8       -7.869275
    9        2.551138
   10        2.551138
   11        3.348320
   12        3.348321
 
  0.0000000E+00  0.8333333E-01  0.0000000E+00  0.2314815E-02
    1      -22.025421
    2      -17.060351
    3      -15.786231
    4      -10.131106
    5       -9.475966
    6       -6.245684
    7       -6.168810
    8       -5.098619
    9       -1.176624
   10        0.704341
   11        1.505495
   12        1.896813
 
  0.4166667E-01  0.8333333E-01  0.0000000E+00  0.4629630E-02
    1      -22.015485
    2      -17.193272
    3      -15.638660
    4      -10.119305
    5       -9.466084
    6       -6.306200
    7       -6.167571
    8       -5.161519
    9       -1.098889
   10        0.717812
   11        1.519147
   12        1.910642
 
  0.8333333E-01  0.8333333E-01  0.0000000E+00  0.4629630E-02
    1      -21.985683
    2      -17.488575
    3      -15.299501
    4      -10.083921
    5       -9.436478
    6       -6.445881
    7       -6.203547
    8       -5.336394
    9       -0.879674
   10        0.758231
   11        1.560101
   12        1.952131
 
  0.1250000E+00  0.8333333E-01  0.0000000E+00  0.4629630E-02
    1      -21.936037
    2      -17.835287
    3      -14.880012
    4      -10.025012
    5       -9.387272
    6       -6.644106
    7       -6.291050
    8       -5.592275
    9       -0.550448
   10        0.825617
   11        1.628342
   12        2.021283
 
  0.1666667E+00  0.8333333E-01  0.0000000E+00  0.4629630E-02
    1      -21.866582
    2      -18.192216
    3      -14.421872
    4       -9.942675
    5       -9.318677
    6       -6.895727
    7       -6.425385
    8       -5.898121
    9       -0.143094
   10        0.919989
   11        1.723848
   12        2.118102
 
  0.2083333E+00  0.8333333E-01  0.0000000E+00  0.4629630E-02
    1      -21.777369
    2      -18.544746
    3      -13.940401
    4       -9.837052
    5       -9.230994
    6       -7.197354
    7       -6.597533
    8       -6.230562
    9        0.317827
   10        1.041360
   11        1.846583
   12        2.242591
 
  0.2500000E+00  0.8333333E-01  0.0000000E+00  0.4629630E-02
    1      -21.668465
    2      -18.886702
    3      -13.442711
    4       -9.708333
    5       -9.124628
    6       -7.545453
    7       -6.797181
    8       -6.573870
    9        0.815023
   10        1.189726
   11        1.996492
   12        2.394753
 
  0.2916667E+00  0.8333333E-01  0.0000000E+00  0.4629630E-02
    1      -21.539955
    2      -19.215001
    3      -12.933083
    4       -9.556764
    5       -9.000098
    6       -7.935615
    7       -7.014545
    8       -6.917758
    9        1.336241
   10        1.365070
   11        2.173492
   12        2.574586
 
  0.3333333E+00  0.8333333E-01  0.0000000E+00  0.4629630E-02
    1      -21.391941
    2      -19.527894
    3      -12.414773
    4       -9.382655
    5       -8.858055
    6       -8.362438
    7       -7.255436
    8       -7.241371
    9        1.567355
   10        1.872222
   11        2.377446
   12        2.782085
 
  0.3750000E+00  0.8333333E-01  0.0000000E+00  0.4629630E-02
    1      -21.224547
    2      -19.824276
    3      -11.890735
    4       -9.186397
    5       -8.819876
    6       -8.699306
    7       -7.582309
    8       -7.471156
    9        1.796529
   10        2.415083
   11        2.608103
   12        3.017244
 
  0.4166667E+00  0.8333333E-01  0.0000000E+00  0.4629630E-02
    1      -21.037923
    2      -20.103391
    3      -11.363976
    4       -9.301753
    5       -8.968478
    6       -8.524841
    7       -7.895171
    8       -7.698913
    9        2.052525
   10        2.864905
   11        2.955849
   12        3.280071
 
  0.4583333E+00  0.8333333E-01  0.0000000E+00  0.4629630E-02
    1      -20.832251
    2      -20.364687
    3      -10.837763
    4       -9.802175
    5       -8.729508
    6       -8.335880
    7       -8.191721
    8       -7.920821
    9        2.335259
   10        2.980474
   11        3.146116
   12        3.461639
 
  0.5000000E+00  0.8333333E-01  0.0000000E+00  0.2314815E-02
    1      -20.607750
    2      -20.607750
    3      -10.315769
    4      -10.315769
    5       -8.470260
    6       -8.470260
    7       -8.133920
    8       -8.133920
    9        2.644622
   10        2.644622
   11        3.441013
   12        3.441013
 
  0.0000000E+00  0.1111111E+00  0.0000000E+00  0.2314815E-02
    1      -21.929205
    2      -16.977121
    3      -15.706453
    4      -10.016926
    5       -9.852831
    6       -6.596176
    7       -6.355301
    8       -4.982234
    9       -1.209062
   10        0.834993
   11        1.637493
   12        2.030562
 
  0.4166667E-01  0.1111111E+00  0.0000000E+00  0.4629630E-02
    1      -21.919280
    2      -17.109190
    3      -15.560117
    4      -10.005156
    5       -9.842789
    6       -6.644876
    7       -6.361971
    8       -5.046183
    9       -1.131113
   10        0.848460
   11        1.651138
   12        2.044390
 
  0.8333333E-01  0.1111111E+00  0.0000000E+00  0.4629630E-02
    1      -21.889511
    2      -17.402934
    3      -15.223681
    4       -9.969863
    5       -9.812693
    6       -6.773653
    7       -6.397701
    8       -5.223464
    9       -0.911997
   10        0.888867
   11        1.692070
   12        2.085877
 
  0.1250000E+00  0.1111111E+00  0.0000000E+00  0.4629630E-02
    1      -21.839920
    2      -17.748142
    3      -14.807687
    4       -9.911106
    5       -9.762636
    6       -6.960191
    7       -6.480049
    8       -5.481823
    9       -0.584477
   10        0.956235
   11        1.760276
   12        2.155026
 
  0.1666667E+00  0.1111111E+00  0.0000000E+00  0.4629630E-02
    1      -21.770543
    2      -18.103745
    3      -14.353768
    4       -9.828982
    5       -9.692772
    6       -7.192894
    7       -6.612859
    8       -5.789504
    9       -0.181157
   10        1.050589
   11        1.855733
   12        2.251844
 
  0.2083333E+00  0.1111111E+00  0.0000000E+00  0.4629630E-02
    1      -21.681434
    2      -18.455126
    3      -13.877363
    4       -9.723633
    5       -9.603321
    6       -7.466179
    7       -6.791401
    8       -6.123011
    9        0.273281
   10        1.171945
   11        1.978408
   12        2.376334
 
  0.2500000E+00  0.1111111E+00  0.0000000E+00  0.4629630E-02
    1      -21.572661
    2      -18.796088
    3      -13.385767
    4       -9.595249
    5       -9.494574
    6       -7.777584
    7       -7.006009
    8       -6.466750
    9        0.761713
   10        1.320304
   11        2.128251
   12        2.528498
 
  0.2916667E+00  0.1111111E+00  0.0000000E+00  0.4629630E-02
    1      -21.444308
    2      -19.123530
    3      -12.883498
    4       -9.444075
    5       -9.366899
    6       -8.126088
    7       -7.244683
    8       -6.810614
    9        1.272152
   10        1.495647
   11        2.305185
   12        2.708337
 
  0.3333333E+00  0.1111111E+00  0.0000000E+00  0.4629630E-02
    1      -21.296483
    2      -19.435682
    3      -12.374111
    4       -9.270421
    5       -9.220747
    6       -8.510522
    7       -7.495564
    8       -7.147968
    9        1.697936
   10        1.795706
   11        2.509092
   12        2.915845
 
  0.3750000E+00  0.1111111E+00  0.0000000E+00  0.4629630E-02
    1      -21.129313
    2      -19.731422
    3      -11.860942
    4       -9.074675
    5       -9.056665
    6       -8.928351
    7       -7.748852
    8       -7.474333
    9        1.927116
   10        2.325148
   11        2.739756
   12        3.151018
 
  0.4166667E+00  0.1111111E+00  0.0000000E+00  0.4629630E-02
    1      -20.942953
    2      -20.009982
    3      -11.347473
    4       -9.375391
    5       -8.875317
    6       -8.857320
    7       -7.997522
    8       -7.786584
    9        2.183116
   10        2.853582
   11        2.996687
   12        3.413851
 
  0.4583333E+00  0.1111111E+00  0.0000000E+00  0.4629630E-02
    1      -20.737589
    2      -20.270799
    3      -10.837551
    4       -9.846335
    5       -8.677514
    6       -8.618960
    7       -8.236975
    8       -8.082479
    9        2.465848
   10        3.111050
   11        3.278198
   12        3.368596
 
  0.5000000E+00  0.1111111E+00  0.0000000E+00  0.2314815E-02
    1      -20.513447
    2      -20.513447
    3      -10.335531
    4      -10.335531
    5       -8.464282
    6       -8.464282
    7       -8.360356
    8       -8.360356
    9        2.775204
   10        2.775204
   11        3.567661
   12        3.567661
 
  0.0000000E+00  0.1388889E+00  0.0000000E+00  0.2314815E-02
    1      -21.805646
    2      -16.870161
    3      -15.606177
    4      -10.296132
    5       -9.870556
    6       -7.009934
    7       -6.589050
    8       -4.832856
    9       -1.260449
   10        1.002972
   11        1.807108
   12        2.202528
 
  0.4166667E-01  0.1388889E+00  0.0000000E+00  0.4629630E-02
    1      -21.795735
    2      -17.001231
    3      -15.461397
    4      -10.285816
    5       -9.858827
    6       -7.056418
    7       -6.593308
    8       -4.898333
    9       -1.182104
   10        1.016430
   11        1.820742
   12        2.216355
 
  0.8333333E-01  0.1388889E+00  0.0000000E+00  0.4629630E-02
    1      -21.766008
    2      -17.293067
    3      -15.128565
    4      -10.254881
    5       -9.823658
    6       -7.181918
    7       -6.619030
    8       -5.079073
    9       -0.962931
   10        1.056813
   11        1.861639
   12        2.257838
 
  0.1250000E+00  0.1388889E+00  0.0000000E+00  0.4629630E-02
    1      -21.716488
    2      -17.636370
    3      -14.717389
    4      -10.203357
    5       -9.765108
    6       -7.363660
    7       -6.685873
    8       -5.340921
    9       -0.637592
   10        1.124144
   11        1.929787
   12        2.326981
 
  0.1666667E+00  0.1388889E+00  0.0000000E+00  0.4629630E-02
    1      -21.647214
    2      -17.990265
    3      -14.269447
    4      -10.131295
    5       -9.683274
    6       -7.586184
    7       -6.803834
    8       -5.651119
    9       -0.239690
   10        1.218453
   11        2.025165
   12        2.423792
 
  0.2083333E+00  0.1388889E+00  0.0000000E+00  0.4629630E-02
    1      -21.558238
    2      -18.340153
    3      -13.800368
    4      -10.038755
    5       -9.578299
    6       -7.840631
    7       -6.973901
    8       -5.986043
    9        0.205982
   10        1.339762
   11        2.147740
   12        2.548275
 
  0.2500000E+00  0.1388889E+00  0.0000000E+00  0.4629630E-02
    1      -21.449632
    2      -18.679821
    3      -13.317758
    4       -9.925802
    5       -9.450373
    6       -8.122404
    7       -7.190677
    8       -6.330309
    9        0.682567
   10        1.488079
   11        2.297465
   12        2.700437
 
  0.2916667E+00  0.1388889E+00  0.0000000E+00  0.4629630E-02
    1      -21.321484
    2      -19.006143
    3      -12.826565
    4       -9.792485
    5       -9.299740
    6       -8.430051
    7       -7.444148
    8       -6.674078
    9        1.178457
   10        1.663389
   11        2.474275
   12        2.880276
 
  0.3333333E+00  0.1388889E+00  0.0000000E+00  0.4629630E-02
    1      -21.173904
    2      -19.317327
    3      -12.330913
    4       -9.638824
    5       -9.126710
    6       -8.764468
    7       -7.721325
    8       -7.010934
    9        1.685196
   10        1.865649
   11        2.678073
   12        3.087790
 
  0.3750000E+00  0.1388889E+00  0.0000000E+00  0.4629630E-02
    1      -21.007024
    2      -19.612230
    3      -11.834879
    4       -9.464789
    5       -9.127664
    6       -8.931666
    7       -8.008263
    8       -7.336559
    9        2.094801
   10        2.196157
   11        2.908697
   12        3.322971
 
  0.4166667E+00  0.1388889E+00  0.0000000E+00  0.4629630E-02
    1      -20.821006
    2      -19.890066
    3      -11.342884
    4       -9.520962
    5       -9.270301
    6       -8.715089
    7       -8.292458
    8       -7.647941
    9        2.350766
   10        2.705691
   11        3.165792
   12        3.585811
 
  0.4583333E+00  0.1388889E+00  0.0000000E+00  0.4629630E-02
    1      -20.616042
    2      -20.150259
    3      -10.859907
    4       -9.943417
    5       -9.055281
    6       -8.564758
    7       -8.477572
    8       -7.942912
    9        2.633449
   10        3.208037
   11        3.278490
   12        3.447904
 
  0.5000000E+00  0.1388889E+00  0.0000000E+00  0.2314815E-02
    1      -20.392366
    2      -20.392366
    3      -10.391485
    4      -10.391485
    5       -8.819837
    6       -8.819837
    7       -8.219864
    8       -8.219864
    9        2.942737
   10        2.942737
   11        3.667611
   12        3.667680
 
  0.0000000E+00  0.1666667E+00  0.0000000E+00  0.2314815E-02
    1      -21.654861
    2      -16.739510
    3      -15.487846
    4      -10.785192
    5       -9.692338
    6       -7.469964
    7       -6.865747
    8       -4.650686
    9       -1.337695
   10        1.208259
   11        2.014257
   12        2.412713
 
  0.4166667E-01  0.1666667E+00  0.0000000E+00  0.4629630E-02
    1      -21.644967
    2      -16.869528
    3      -15.344933
    4      -10.774407
    5       -9.680664
    6       -7.516666
    7       -6.864684
    8       -4.718367
    9       -1.258610
   10        1.221704
   11        2.027872
   12        2.426538
 
  0.8333333E-01  0.1666667E+00  0.0000000E+00  0.4629630E-02
    1      -21.615292
    2      -17.159199
    3      -15.016757
    4      -10.742023
    5       -9.645658
    6       -7.643156
    7       -6.874661
    8       -4.903998
    9       -1.038931
   10        1.262050
   11        2.068713
   12        2.468013
 
  0.1250000E+00  0.1666667E+00  0.0000000E+00  0.4629630E-02
    1      -21.565860
    2      -17.500219
    3      -14.612177
    4      -10.687953
    5       -9.587380
    6       -7.825304
    7       -6.918251
    8       -5.170632
    9       -0.716103
   10        1.329320
   11        2.136767
   12        2.537145
 
  0.1666667E+00  0.1666667E+00  0.0000000E+00  0.4629630E-02
    1      -21.496710
    2      -17.852016
    3      -14.172728
    4      -10.612029
    5       -9.505928
    6       -8.045073
    7       -7.010313
    8       -5.484163
    9       -0.325045
   10        1.423550
   11        2.232010
   12        2.633941
 
  0.2083333E+00  0.1666667E+00  0.0000000E+00  0.4629630E-02
    1      -21.407898
    2      -18.200049
    3      -13.714382
    4      -10.513975
    5       -9.401446
    6       -8.291261
    7       -7.156766
    8       -5.820868
    9        0.109414
   10        1.544770
   11        2.354409
   12        2.758409
 
  0.2500000E+00  0.1666667E+00  0.0000000E+00  0.4629630E-02
    1      -21.299498
    2      -18.538101
    3      -13.245338
    4      -10.393356
    5       -9.274124
    6       -8.557110
    7       -7.356811
    8       -6.165713
    9        0.570872
   10        1.692997
   11        2.503916
   12        2.910557
 
  0.2916667E+00  0.1666667E+00  0.0000000E+00  0.4629630E-02
    1      -21.171601
    2      -18.863025
    3      -12.771392
    4      -10.249513
    5       -9.124207
    6       -8.838975
    7       -7.604564
    8       -6.509240
    9        1.048276
   10        1.868223
   11        2.680469
   12        3.090388
 
  0.3333333E+00  0.1666667E+00  0.0000000E+00  0.4629630E-02
    1      -21.024323
    2      -19.173000
    3      -12.297821
    4      -10.081489
    5       -9.135828
    6       -8.952003
    7       -7.890242
    8       -6.845338
    9        1.533740
   10        2.070407
   11        2.883987
   12        3.297899
 
  0.3750000E+00  0.1666667E+00  0.0000000E+00  0.4629630E-02
    1      -20.857804
    2      -19.466858
    3      -11.830182
    4       -9.887989
    5       -9.449077
    6       -8.757894
    7       -8.201156
    8       -7.169903
    9        2.021248
   10        2.299485
   11        3.114363
   12        3.533085
 
  0.4166667E+00  0.1666667E+00  0.0000000E+00  0.4629630E-02
    1      -20.672210
    2      -19.743793
    3      -11.374596
    4       -9.782209
    5       -9.667489
    6       -8.542354
    7       -8.522817
    8       -7.480072
    9        2.505925
   10        2.555369
   11        3.371442
   12        3.795932
 
  0.4583333E+00  0.1666667E+00  0.0000000E+00  0.4629630E-02
    1      -20.467743
    2      -20.003208
    3      -10.937512
    4      -10.139654
    5       -9.418733
    6       -8.840567
    7       -8.305969
    8       -7.773775
    9        2.837950
   10        2.983595
   11        3.482669
   12        3.654809
 
  0.5000000E+00  0.1666667E+00  0.0000000E+00  0.2314815E-02
    1      -20.244645
    2      -20.244645
    3      -10.524709
    4      -10.524709
    5       -9.141929
    6       -9.141929
    7       -8.049468
    8       -8.049468
    9        3.147101
   10        3.147101
   11        3.450467
   12        3.450470
 