gr                                      
           1
     4.337788    0.000000    0.000000
     0.000000    2.460830    0.000000
     0.000000    0.000000   19.751443
   C 
   4
Direct configuration=     1
   0.99964215  0.00000000  0.00000000
   0.16702452  0.50000000  0.00000000
   0.49964215  0.50000000  0.00000000
   0.66702452  0.00000000  0.00000000
Direct configuration=     2
   0.99964153 -0.00000000 -0.00000000
   0.16702514  0.50000000  0.00000000
   0.49964153  0.50000000 -0.00000000
   0.66702514  0.00000000  0.00000000
Direct configuration=     3
   0.99964202  0.00000000 -0.00000000
   0.16702464  0.50000000  0.00000000
   0.49964202  0.50000000 -0.00000000
   0.66702464  0.00000000  0.00000000
