    4    4  400    1
  0.5270948E+02  0.4255257E-09  0.2528738E-09  0.1959382E-08  0.5000000E-15
  1.000000000000000E-004
  CAR 
 gr                                      
     16    247     12
 
  0.0000000E+00  0.0000000E+00  0.0000000E+00  0.1157407E-02
    1      -22.082256
    2      -16.705992
    3      -15.865069
    4      -10.226613
    5       -9.472679
    6       -5.990293
    7       -5.742358
    8       -4.905781
    9       -1.142638
   10        0.544594
   11        1.342714
   12        1.736037
 
  0.4166667E-01  0.0000000E+00  0.0000000E+00  0.2314815E-02
    1      -22.071883
    2      -16.902107
    3      -15.653944
    4      -10.214304
    5       -9.462267
    6       -6.014024
    7       -5.782554
    8       -4.975924
    9       -1.057689
   10        0.558648
   11        1.356910
   12        1.750414
 
  0.8333333E-01  0.0000000E+00  0.0000000E+00  0.2314815E-02
    1      -22.040770
    2      -17.268549
    3      -15.242559
    4      -10.177394
    5       -9.431082
    6       -6.083846
    7       -5.901687
    8       -5.169182
    9       -0.820188
   10        0.600808
   11        1.399496
   12        1.793544
 
  0.1250000E+00  0.0000000E+00  0.0000000E+00  0.2314815E-02
    1      -21.988937
    2      -17.661396
    3      -14.775120
    4      -10.115940
    5       -9.379275
    6       -6.195893
    7       -6.095603
    8       -5.448413
    9       -0.467811
   10        0.671068
   11        1.470461
   12        1.865427
 
  0.1666667E+00  0.0000000E+00  0.0000000E+00  0.2314815E-02
    1      -21.916418
    2      -18.051015
    3      -14.281741
    4      -10.030040
    5       -9.307101
    6       -6.358017
    7       -6.344445
    8       -5.778332
    9       -0.036739
   10        0.769419
   11        1.569784
   12        1.966062
 
  0.2083333E+00  0.0000000E+00  0.0000000E+00  0.2314815E-02
    1      -21.823264
    2      -18.429130
    3      -13.771385
    4       -9.919833
    5       -9.214931
    6       -6.681269
    7       -6.522737
    8       -6.133748
    9        0.446577
   10        0.895847
   11        1.697436
   12        2.095447
 
  0.2500000E+00  0.0000000E+00  0.0000000E+00  0.2314815E-02
    1      -21.709538
    2      -18.792461
    3      -13.248248
    4       -9.785508
    5       -9.103263
    6       -7.057072
    7       -6.723706
    8       -6.498403
    9        0.964243
   10        1.050327
   11        1.853373
   12        2.253580
 
  0.2916667E+00  0.0000000E+00  0.0000000E+00  0.2314815E-02
    1      -21.575321
    2      -19.139346
    3      -12.715147
    4       -9.627307
    5       -8.972736
    6       -7.477118
    7       -6.940559
    8       -6.861981
    9        1.232826
   10        1.503896
   11        2.037533
   12        2.440454
 
  0.3333333E+00  0.0000000E+00  0.0000000E+00  0.2314815E-02
    1      -21.420708
    2      -19.468789
    3      -12.174514
    4       -9.445535
    5       -8.824156
    6       -7.933496
    7       -7.217802
    8       -7.167105
    9        1.443298
   10        2.056313
   11        2.249820
   12        2.656059
 
  0.3750000E+00  0.0000000E+00  0.0000000E+00  0.2314815E-02
    1      -21.245816
    2      -19.780117
    3      -11.628773
    4       -9.240576
    5       -8.658521
    6       -8.418948
    7       -7.561397
    8       -7.397912
    9        1.681681
   10        2.490075
   11        2.613644
   12        2.900379
 
  0.4166667E+00  0.0000000E+00  0.0000000E+00  0.2314815E-02
    1      -21.050778
    2      -20.072829
    3      -11.080526
    4       -9.012906
    5       -8.926972
    6       -8.477059
    7       -7.889671
    8       -7.628331
    9        1.947885
   10        2.757986
   11        3.166220
   12        3.173375
 
  0.4583333E+00  0.0000000E+00  0.0000000E+00  0.2314815E-02
    1      -20.835754
    2      -20.346539
    3      -10.532675
    4       -9.451830
    5       -8.763121
    6       -8.281273
    7       -8.200408
    8       -7.854445
    9        2.241773
   10        2.911435
   11        3.052738
   12        3.474953
 
  0.5000000E+00  0.0000000E+00  0.0000000E+00  0.1157407E-02
    1      -20.600934
    2      -20.600934
    3       -9.988516
    4       -9.988516
    5       -8.491970
    6       -8.491970
    7       -8.072992
    8       -8.072992
    9        2.563116
   10        2.563116
   11        3.370665
   12        3.370665
 
  0.0000000E+00  0.2777778E-01  0.0000000E+00  0.2314815E-02
    1      -22.069240
    2      -16.694757
    3      -15.854687
    4      -10.211167
    5       -9.530880
    6       -6.043905
    7       -5.774521
    8       -4.890026
    9       -1.148787
   10        0.562196
   11        1.360572
   12        1.754118
 
  0.4166667E-01  0.2777778E-01  0.0000000E+00  0.4629630E-02
    1      -22.058869
    2      -16.890772
    3      -15.643723
    4      -10.198862
    5       -9.520438
    6       -6.070623
    7       -5.810997
    8       -4.960346
    9       -1.063792
   10        0.576251
   11        1.374767
   12        1.768495
 
  0.8333333E-01  0.2777778E-01  0.0000000E+00  0.4629630E-02
    1      -22.027760
    2      -17.257012
    3      -15.232727
    4      -10.161965
    5       -9.489159
    6       -6.150573
    7       -5.917938
    8       -5.154001
    9       -0.826289
   10        0.618415
   11        1.417350
   12        1.811626
 
  0.1250000E+00  0.2777778E-01  0.0000000E+00  0.4629630E-02
    1      -21.975934
    2      -17.649655
    3      -14.765814
    4      -10.100534
    5       -9.437188
    6       -6.285291
    7       -6.086136
    8       -5.433623
    9       -0.474183
   10        0.688682
   11        1.488309
   12        1.883510
 
  0.1666667E+00  0.2777778E-01  0.0000000E+00  0.4629630E-02
    1      -21.903426
    2      -18.039087
    3      -14.273087
    4      -10.014666
    5       -9.364771
    6       -6.484897
    7       -6.293901
    8       -5.763816
    9       -0.043764
   10        0.787043
   11        1.587624
   12        1.984147
 
  0.2083333E+00  0.2777778E-01  0.0000000E+00  0.4629630E-02
    1      -21.810286
    2      -18.417040
    3      -13.763526
    4       -9.904500
    5       -9.272266
    6       -6.763748
    7       -6.512854
    8       -6.119379
    9        0.438508
   10        0.913483
   11        1.715266
   12        2.113535
 
  0.2500000E+00  0.2777778E-01  0.0000000E+00  0.4629630E-02
    1      -21.696577
    2      -18.780229
    3      -13.241354
    4       -9.770225
    5       -9.160149
    6       -7.114032
    7       -6.735756
    8       -6.484083
    9        0.954772
   10        1.067976
   11        1.871192
   12        2.271671
 
  0.2916667E+00  0.2777778E-01  0.0000000E+00  0.4629630E-02
    1      -21.562382
    2      -19.126991
    3      -12.709425
    4       -9.612083
    5       -9.029034
    6       -7.518102
    7       -6.965326
    8       -6.847642
    9        1.250490
   10        1.492709
   11        2.055339
   12        2.458549
 
  0.3333333E+00  0.2777778E-01  0.0000000E+00  0.4629630E-02
    1      -21.407795
    2      -19.456329
    3      -12.170223
    4       -9.430381
    5       -8.879691
    6       -7.963256
    7       -7.203400
    8       -7.200243
    9        1.460978
   10        2.043165
   11        2.267614
   12        2.674161
 
  0.3750000E+00  0.2777778E-01  0.0000000E+00  0.4629630E-02
    1      -21.232933
    2      -19.767566
    3      -11.626232
    4       -9.225499
    5       -8.713076
    6       -8.440286
    7       -7.546909
    8       -7.437027
    9        1.699380
   10        2.507862
   11        2.598422
   12        2.918488
 
  0.4166667E+00  0.2777778E-01  0.0000000E+00  0.4629630E-02
    1      -21.037931
    2      -20.060200
    3      -11.080135
    4       -8.997915
    5       -8.941779
    6       -8.530357
    7       -7.875083
    8       -7.671908
    9        1.965606
   10        2.775777
   11        3.149404
   12        3.191499
 
  0.4583333E+00  0.2777778E-01  0.0000000E+00  0.4629630E-02
    1      -20.822950
    2      -20.333843
    3      -10.534938
    4       -9.461487
    5       -8.748224
    6       -8.332962
    7       -8.185715
    8       -7.901434
    9        2.259529
   10        2.929390
   11        3.070564
   12        3.493110
 
  0.5000000E+00  0.2777778E-01  0.0000000E+00  0.2314815E-02
    1      -20.588180
    2      -20.588180
    3       -9.994070
    4       -9.994070
    5       -8.477172
    6       -8.477172
    7       -8.122623
    8       -8.122623
    9        2.580934
   10        2.580934
   11        3.388530
   12        3.388530
 
  0.0000000E+00  0.5555556E-01  0.0000000E+00  0.2314815E-02
    1      -22.030205
    2      -16.661057
    3      -15.823748
    4      -10.164860
    5       -9.700688
    6       -6.200567
    7       -5.869980
    8       -4.842778
    9       -1.168018
   10        0.615010
   11        1.414139
   12        1.808363
 
  0.4166667E-01  0.5555556E-01  0.0000000E+00  0.4629630E-02
    1      -22.019838
    2      -16.856791
    3      -15.613256
    4      -10.152569
    5       -9.690146
    6       -6.233570
    7       -5.898041
    8       -4.913649
    9       -1.082873
   10        0.629068
   11        1.428331
   12        1.822740
 
  0.8333333E-01  0.5555556E-01  0.0000000E+00  0.4629630E-02
    1      -21.988742
    2      -17.222437
    3      -15.203436
    4      -10.115714
    5       -9.658564
    6       -6.330578
    7       -5.981904
    8       -5.108527
    9       -0.845350
   10        0.671242
   11        1.470903
   12        1.865873
 
  0.1250000E+00  0.5555556E-01  0.0000000E+00  0.4629630E-02
    1      -21.936938
    2      -17.614462
    3      -14.738135
    4      -10.054351
    5       -9.606066
    6       -6.487028
    7       -6.119435
    8       -5.389347
    9       -0.494054
   10        0.741527
   11        1.541844
   12        1.937761
 
  0.1666667E+00  0.5555556E-01  0.0000000E+00  0.4629630E-02
    1      -21.864462
    2      -18.003335
    3      -14.247420
    4       -9.968580
    5       -9.532868
    6       -6.698686
    7       -6.304547
    8       -5.720374
    9       -0.065618
   10        0.839913
   11        1.641134
   12        2.038403
 
  0.2083333E+00  0.5555556E-01  0.0000000E+00  0.4629630E-02
    1      -21.771364
    2      -18.380795
    3      -13.740322
    4       -9.858538
    5       -9.439277
    6       -6.963507
    7       -6.526437
    8       -6.076382
    9        0.413478
   10        0.966383
   11        1.768745
   12        2.167798
 
  0.2500000E+00  0.5555556E-01  0.0000000E+00  0.4629630E-02
    1      -21.657707
    2      -18.743557
    3      -13.221154
    4       -9.724416
    5       -9.325704
    6       -7.280840
    7       -6.771594
    8       -6.441228
    9        0.925475
   10        1.120910
   11        1.924633
   12        2.325942
 
  0.2916667E+00  0.5555556E-01  0.0000000E+00  0.4629630E-02
    1      -21.523577
    2      -19.089950
    3      -12.692898
    4       -9.566455
    5       -9.192672
    6       -7.648537
    7       -7.027776
    8       -6.804723
    9        1.303462
   10        1.458199
   11        2.108740
   12        2.512832
 
  0.3333333E+00  0.5555556E-01  0.0000000E+00  0.4629630E-02
    1      -21.369068
    2      -19.418970
    3      -12.158198
    4       -9.384961
    5       -9.040835
    6       -8.061276
    7       -7.286522
    8       -7.160288
    9        1.513992
   10        2.002678
   11        2.320976
   12        2.728457
 
  0.3750000E+00  0.5555556E-01  0.0000000E+00  0.4629630E-02
    1      -21.194298
    2      -19.729932
    3      -11.619754
    4       -9.180316
    5       -8.870988
    6       -8.511619
    7       -7.542621
    8       -7.503526
    9        1.752440
   10        2.551548
   11        2.561196
   12        2.972806
 
  0.4166667E+00  0.5555556E-01  0.0000000E+00  0.4629630E-02
    1      -20.999405
    2      -20.022331
    3      -11.080525
    4       -8.991764
    5       -8.952994
    6       -8.684095
    7       -7.831393
    8       -7.792606
    9        2.018724
   10        2.829122
   11        3.097106
   12        3.245853
 
  0.4583333E+00  0.5555556E-01  0.0000000E+00  0.4629630E-02
    1      -20.784552
    2      -20.295770
    3      -10.543873
    4       -9.494540
    5       -8.703588
    6       -8.481312
    7       -8.141704
    8       -8.033809
    9        2.312730
   10        2.983040
   11        3.124018
   12        3.547541
 
  0.5000000E+00  0.5555556E-01  0.0000000E+00  0.2314815E-02
    1      -20.549932
    2      -20.549932
    3      -10.013692
    4      -10.013692
    5       -8.432843
    6       -8.432843
    7       -8.264010
    8       -8.264010
    9        2.634277
   10        2.634277
   11        3.442112
   12        3.442112
 
  0.0000000E+00  0.8333333E-01  0.0000000E+00  0.2314815E-02
    1      -21.965187
    2      -16.604904
    3      -15.772921
    4      -10.087790
    5       -9.968999
    6       -6.448987
    7       -6.025754
    8       -4.764096
    9       -1.202662
   10        0.703060
   11        1.503394
   12        1.898776
 
  0.4166667E-01  0.8333333E-01  0.0000000E+00  0.4629630E-02
    1      -21.954827
    2      -16.800239
    3      -15.563169
    4      -10.075522
    5       -9.958268
    6       -6.488257
    7       -6.044204
    8       -4.835944
    9       -1.117225
   10        0.717122
   11        1.517579
   12        1.913154
 
  0.8333333E-01  0.8333333E-01  0.0000000E+00  0.4629630E-02
    1      -21.923752
    2      -17.164926
    3      -15.155346
    4      -10.038737
    5       -9.926106
    6       -6.599841
    7       -6.103993
    8       -5.032977
    9       -0.879605
   10        0.759306
   11        1.560131
   12        1.956289
 
  0.1250000E+00  0.8333333E-01  0.0000000E+00  0.4629630E-02
    1      -21.871986
    2      -17.555923
    3      -14.692857
    4       -9.977493
    5       -9.872600
    6       -6.770950
    7       -6.212644
    8       -5.315882
    9       -0.529657
   10        0.829608
   11        1.631040
   12        2.028180
 
  0.1666667E+00  0.8333333E-01  0.0000000E+00  0.4629630E-02
    1      -21.799564
    2      -17.943852
    3      -14.205699
    4       -9.891886
    5       -9.797900
    6       -6.990095
    7       -6.373209
    8       -5.648340
    9       -0.104597
   10        0.928021
   11        1.730284
   12        2.128828
 
  0.2083333E+00  0.8333333E-01  0.0000000E+00  0.4629630E-02
    1      -21.706535
    2      -18.320481
    3      -13.703000
    4       -9.782058
    5       -9.702212
    6       -7.249650
    7       -6.582307
    8       -6.005095
    9        0.369072
   10        1.054525
   11        1.857836
   12        2.258231
 
  0.2500000E+00  0.8333333E-01  0.0000000E+00  0.4629630E-02
    1      -21.592968
    2      -18.682521
    3      -13.189255
    4       -9.648197
    5       -9.585807
    6       -7.545883
    7       -6.830962
    8       -6.370165
    9        0.873788
   10        1.209095
   11        2.013653
   12        2.416387
 
  0.2916667E+00  0.8333333E-01  0.0000000E+00  0.4629630E-02
    1      -21.458946
    2      -19.028291
    3      -12.667701
    4       -9.490546
    5       -9.449015
    6       -7.878230
    7       -7.106284
    8       -6.733530
    9        1.391694
   10        1.397617
   11        2.197680
   12        2.603291
 
  0.3333333E+00  0.8333333E-01  0.0000000E+00  0.4629630E-02
    1      -21.304567
    2      -19.356773
    3      -12.141323
    4       -9.309411
    5       -9.292222
    6       -8.247631
    7       -7.394011
    8       -7.088745
    9        1.602276
   10        1.931881
   11        2.409834
   12        2.818935
 
  0.3750000E+00  0.8333333E-01  0.0000000E+00  0.4629630E-02
    1      -21.129952
    2      -19.667272
    3      -11.613273
    4       -9.115872
    5       -9.105173
    6       -8.654086
    7       -7.681603
    8       -7.431508
    9        1.840779
   10        2.469672
   11        2.649990
   12        3.063309
 
  0.4166667E+00  0.8333333E-01  0.0000000E+00  0.4629630E-02
    1      -20.935243
    2      -19.959273
    3      -11.087103
    4       -9.094902
    5       -8.920454
    6       -8.878303
    7       -7.960379
    8       -7.758836
    9        2.107128
   10        2.917917
   11        3.004668
   12        3.336396
 
  0.4583333E+00  0.8333333E-01  0.0000000E+00  0.4629630E-02
    1      -20.720605
    2      -20.232370
    3      -10.566947
    4       -9.564878
    5       -8.706500
    6       -8.629391
    7       -8.225499
    8       -8.068587
    9        2.401221
   10        3.071962
   11        3.213001
   12        3.524769
 
  0.5000000E+00  0.8333333E-01  0.0000000E+00  0.2314815E-02
    1      -20.486238
    2      -20.486238
    3      -10.057657
    4      -10.057657
    5       -8.474601
    6       -8.474601
    7       -8.359174
    8       -8.359174
    9        2.722910
   10        2.722910
   11        3.531367
   12        3.531367
 
  0.0000000E+00  0.1111111E+00  0.0000000E+00  0.2314815E-02
    1      -21.874250
    2      -16.526319
    3      -15.703473
    4      -10.317451
    5       -9.980120
    6       -6.773656
    7       -6.237222
    8       -4.654078
    9       -1.256511
   10        0.826379
   11        1.628299
   12        2.025364
 
  0.4166667E-01  0.1111111E+00  0.0000000E+00  0.4629630E-02
    1      -21.863900
    2      -16.721254
    3      -15.494654
    4      -10.306398
    5       -9.967886
    6       -6.818237
    7       -6.246064
    8       -4.727435
    9       -1.170558
   10        0.840441
   11        1.642474
   12        2.039742
 
  0.8333333E-01  0.1111111E+00  0.0000000E+00  0.4629630E-02
    1      -21.832857
    2      -17.084673
    3      -15.089727
    4      -10.273246
    5       -9.931204
    6       -6.941586
    7       -6.281812
    8       -4.927752
    9       -0.932634
   10        0.882625
   11        1.684994
   12        2.082877
 
  0.1250000E+00  0.1111111E+00  0.0000000E+00  0.4629630E-02
    1      -21.781144
    2      -17.474227
    3      -14.631494
    4      -10.218011
    5       -9.870131
    6       -7.124083
    7       -6.360479
    8       -5.213774
    9       -0.584533
   10        0.952932
   11        1.755849
   12        2.154770
 
  0.1666667E+00  0.1111111E+00  0.0000000E+00  0.4629630E-02
    1      -21.708796
    2      -17.860812
    3      -14.149828
    4      -10.140715
    5       -9.784766
    6       -7.349732
    7       -6.491891
    8       -5.548321
    9       -0.164323
   10        1.051356
   11        1.855017
   12        2.255422
 
  0.2083333E+00  0.1111111E+00  0.0000000E+00  0.4629630E-02
    1      -21.615867
    2      -18.236251
    3      -13.654039
    4      -10.041370
    5       -9.675249
    6       -7.608022
    7       -6.677894
    8       -5.906130
    9        0.301515
   10        1.177883
   11        1.982469
   12        2.384831
 
  0.2500000E+00  0.1111111E+00  0.0000000E+00  0.4629630E-02
    1      -21.502425
    2      -18.597256
    3      -13.148958
    4       -9.919963
    5       -9.541771
    6       -7.892710
    7       -6.913981
    8       -6.271478
    9        0.795736
   10        1.332486
   11        2.138164
   12        2.542997
 
  0.2916667E+00  0.1111111E+00  0.0000000E+00  0.4629630E-02
    1      -21.368555
    2      -18.942133
    3      -12.638308
    4       -9.776424
    5       -9.384575
    6       -8.201019
    7       -7.190841
    8       -6.634607
    9        1.306781
   10        1.515126
   11        2.322046
   12        2.729915
 
  0.3333333E+00  0.1111111E+00  0.0000000E+00  0.4629630E-02
    1      -21.214361
    2      -19.269846
    3      -12.125743
    4       -9.610591
    5       -9.203966
    6       -8.533187
    7       -7.495658
    8       -6.989271
    9        1.725752
   10        1.826364
   11        2.534043
   12        2.945577
 
  0.3750000E+00  0.1111111E+00  0.0000000E+00  0.4629630E-02
    1      -21.039965
    2      -19.579684
    3      -11.615301
    4       -9.422160
    5       -9.000324
    6       -8.891742
    7       -7.813620
    8       -7.331306
    9        1.964301
   10        2.348074
   11        2.774049
   12        3.189975
 
  0.4166667E+00  0.1111111E+00  0.0000000E+00  0.4629630E-02
    1      -20.845515
    2      -19.871117
    3      -11.111675
    4       -9.279860
    5       -9.210652
    6       -8.774119
    7       -8.130114
    8       -7.657821
    9        2.230697
   10        2.866542
   11        3.041902
   12        3.463096
 
  0.4583333E+00  0.1111111E+00  0.0000000E+00  0.4629630E-02
    1      -20.631185
    2      -20.143727
    3      -10.620342
    4       -9.699018
    5       -8.975471
    6       -8.525936
    7       -8.433381
    8       -7.966736
    9        2.524846
   10        3.195837
   11        3.337225
   12        3.376489
 
  0.5000000E+00  0.1111111E+00  0.0000000E+00  0.2314815E-02
    1      -20.397176
    2      -20.397176
    3      -10.147421
    4      -10.147421
    5       -8.716190
    6       -8.716190
    7       -8.256501
    8       -8.256501
    9        2.846619
   10        2.846619
   11        3.656015
   12        3.656018
 
  0.0000000E+00  0.1388889E+00  0.0000000E+00  0.2314815E-02
    1      -21.757486
    2      -16.425333
    3      -15.617559
    4      -10.725543
    5       -9.842087
    6       -7.157930
    7       -6.498543
    8       -4.512864
    9       -1.334613
   10        0.984988
   11        1.788798
   12        2.188133
 
  0.4166667E-01  0.1388889E+00  0.0000000E+00  0.4629630E-02
    1      -21.747149
    2      -16.620066
    3      -15.409750
    4      -10.713953
    5       -9.829899
    6       -7.207015
    7       -6.497935
    8       -4.588445
    9       -1.247762
   10        0.999044
   11        1.802956
   12        2.202510
 
  0.8333333E-01  0.1388889E+00  0.0000000E+00  0.4629630E-02
    1      -21.716147
    2      -16.981992
    3      -15.008797
    4      -10.679145
    5       -9.793357
    6       -7.340318
    7       -6.509487
    8       -4.793511
    9       -1.009062
   10        1.041214
   11        1.845426
   12        2.245643
 
  0.1250000E+00  0.1388889E+00  0.0000000E+00  0.4629630E-02
    1      -21.664501
    2      -17.369678
    3      -14.556743
    4      -10.620994
    5       -9.732517
    6       -7.532670
    7       -6.556429
    8       -5.083908
    9       -0.663189
   10        1.111502
   11        1.916195
   12        2.317532
 
  0.1666667E+00  0.1388889E+00  0.0000000E+00  0.4629630E-02
    1      -21.592252
    2      -17.754486
    3      -14.083285
    4      -10.539272
    5       -9.647480
    6       -7.764761
    7       -6.654286
    8       -5.421287
    9       -0.249345
   10        1.209911
   11        2.015239
   12        2.418182
 
  0.2083333E+00  0.1388889E+00  0.0000000E+00  0.4629630E-02
    1      -21.499452
    2      -18.128342
    3      -13.598078
    4      -10.433597
    5       -9.538387
    6       -8.024286
    7       -6.809313
    8       -5.780450
    9        0.206121
   10        1.336432
   11        2.142526
   12        2.547594
 
  0.2500000E+00  0.1388889E+00  0.0000000E+00  0.4629630E-02
    1      -21.386172
    2      -18.487971
    3      -13.106598
    4      -10.303377
    5       -9.405431
    6       -8.303555
    7       -7.020818
    8       -6.146078
    9        0.686483
   10        1.491040
   11        2.298008
   12        2.705765
 
  0.2916667E+00  0.1388889E+00  0.0000000E+00  0.4629630E-02
    1      -21.252502
    2      -18.831661
    3      -12.613511
    4      -10.147720
    5       -9.248854
    6       -8.598083
    7       -7.282982
    8       -6.508792
    9        1.180740
   10        1.673696
   11        2.481626
   12        2.892692
 
  0.3333333E+00  0.1388889E+00  0.0000000E+00  0.4629630E-02
    1      -21.098549
    2      -19.158354
    3      -12.123741
    4       -9.965344
    5       -9.068965
    6       -8.906038
    7       -7.586158
    8       -6.862627
    9        1.681146
   10        1.884344
   11        2.693300
   12        3.108370
 
  0.3750000E+00  0.1388889E+00  0.0000000E+00  0.4629630E-02
    1      -20.924440
    2      -19.467317
    3      -11.642914
    4       -9.754551
    5       -9.228119
    6       -8.866141
    7       -7.917856
    8       -7.203607
    9        2.122915
   10        2.181839
   11        2.932928
   12        3.352788
 
  0.4166667E+00  0.1388889E+00  0.0000000E+00  0.4629630E-02
    1      -20.730331
    2      -19.757999
    3      -11.177383
    4       -9.567425
    5       -9.513436
    6       -8.640851
    7       -8.263581
    8       -7.528967
    9        2.389328
   10        2.678097
   11        3.200374
   12        3.625935
 
  0.4583333E+00  0.1388889E+00  0.0000000E+00  0.4629630E-02
    1      -20.516402
    2      -20.029967
    3      -10.733633
    4       -9.928755
    5       -9.240674
    6       -8.608034
    7       -8.393673
    8       -7.836705
    9        2.683485
   10        3.165900
   11        3.354512
   12        3.495448
 
  0.5000000E+00  0.1388889E+00  0.0000000E+00  0.2314815E-02
    1      -20.282865
    2      -20.282865
    3      -10.316792
    4      -10.316792
    5       -8.937158
    6       -8.937158
    7       -8.125324
    8       -8.125324
    9        3.005266
   10        3.005266
   11        3.641502
   12        3.641503
 
  0.0000000E+00  0.1666667E+00  0.0000000E+00  0.2314815E-02
    1      -21.615015
    2      -16.301987
    3      -15.518805
    4      -11.172484
    5       -9.674005
    6       -7.586218
    7       -6.803126
    8       -4.340638
    9       -1.442885
   10        1.178892
   11        1.984813
   12        2.387087
 
  0.4166667E-01  0.1666667E+00  0.0000000E+00  0.4629630E-02
    1      -21.604695
    2      -16.497053
    3      -15.311912
    4      -11.159981
    5       -9.661879
    6       -7.639298
    7       -6.793220
    8       -4.419485
    9       -1.354444
   10        1.192936
   11        1.998944
   12        2.401462
 
  0.8333333E-01  0.1666667E+00  0.0000000E+00  0.4629630E-02
    1      -21.573744
    2      -16.857386
    3      -14.916398
    4      -11.122341
    5       -9.625519
    6       -7.781517
    7       -6.780465
    8       -4.631320
    9       -1.113985
   10        1.235074
   11        2.041333
   12        2.444589
 
  0.1250000E+00  0.1666667E+00  0.0000000E+00  0.4629630E-02
    1      -21.522184
    2      -17.242750
    3      -14.473424
    4      -11.059155
    5       -9.564985
    6       -7.982987
    7       -6.794306
    8       -4.927689
    9       -0.770442
   10        1.305315
   11        2.111962
   12        2.516469
 
  0.1666667E+00  0.1666667E+00  0.0000000E+00  0.4629630E-02
    1      -21.450055
    2      -17.625289
    3      -14.012480
    4      -10.969669
    5       -9.480378
    6       -8.221714
    7       -6.855217
    8       -5.268739
    9       -0.364428
   10        1.403669
   11        2.210799
   12        2.617109
 
  0.2083333E+00  0.1666667E+00  0.0000000E+00  0.4629630E-02
    1      -21.357415
    2      -17.997113
    3      -13.543926
    4      -10.852684
    5       -9.371842
    6       -8.484140
    7       -6.973359
    8       -5.629514
    9        0.078093
   10        1.530140
   11        2.337799
   12        2.746512
 
  0.2500000E+00  0.1666667E+00  0.0000000E+00  0.4629630E-02
    1      -21.244339
    2      -18.354973
    3      -13.074508
    4      -10.706412
    5       -9.239572
    6       -8.761781
    7       -7.151447
    8       -5.995320
    9        0.541232
   10        1.684710
   11        2.492892
   12        2.904680
 
  0.2916667E+00  0.1666667E+00  0.0000000E+00  0.4629630E-02
    1      -21.110917
    2      -18.697141
    3      -12.610641
    4      -10.528362
    5       -9.083814
    6       -9.049254
    7       -7.386721
    8       -6.357317
    9        1.014823
   10        1.867342
   11        2.675980
   12        3.091611
 
  0.3333333E+00  0.1666667E+00  0.0000000E+00  0.4629630E-02
    1      -20.957264
    2      -19.022531
    3      -12.159284
    4      -10.315419
    5       -9.343416
    6       -8.904875
    7       -7.672345
    8       -6.709918
    9        1.491882
   10        2.077977
   11        2.886908
   12        3.307297
 
  0.3750000E+00  0.1666667E+00  0.0000000E+00  0.4629630E-02
    1      -20.783515
    2      -19.330379
    3      -11.727685
    4      -10.064507
    5       -9.643081
    6       -8.703137
    7       -7.998508
    8       -7.049399
    9        1.967256
   10        2.316537
   11        3.125384
   12        3.551730
 
  0.4166667E+00  0.1666667E+00  0.0000000E+00  0.4629630E-02
    1      -20.589834
    2      -19.620108
    3      -11.321947
    4       -9.949065
    5       -9.774274
    6       -8.479065
    7       -8.353249
    8       -7.373153
    9        2.436870
   10        2.582928
   11        3.390491
   12        3.824896
 
  0.4583333E+00  0.1666667E+00  0.0000000E+00  0.4629630E-02
    1      -20.376410
    2      -19.891262
    3      -10.944767
    4      -10.264360
    5       -9.447524
    6       -8.722938
    7       -8.233232
    8       -7.679279
    9        2.877045
   10        2.897189
   11        3.547913
   12        3.663829
 
  0.5000000E+00  0.1666667E+00  0.0000000E+00  0.2314815E-02
    1      -20.143466
    2      -20.143466
    3      -10.594109
    4      -10.594109
    5       -9.092717
    6       -9.092717
    7       -7.966343
    8       -7.966343
    9        3.198759
   10        3.198759
   11        3.343998
   12        3.343998
 