<?xml version="1.0" encoding="ISO-8859-1"?>
<modeling>
 <generator>
  <i name="program" type="string">vasp </i>
  <i name="version" type="string">5.3.5  </i>
  <i name="subversion" type="string">31Mar14 (build Mar 02 2015 18:14:16) complex                          parallel </i>
  <i name="platform" type="string">LinuxIFC </i>
  <i name="date" type="string">2018 08 09 </i>
  <i name="time" type="string">21:06:57 </i>
 </generator>
 <incar>
  <i type="string" name="SYSTEM">  gr</i>
  <i type="string" name="PREC">accurate : accuracy</i>
  <i type="string" name="ALGO"> FAST.</i>
  <i type="int" name="NELM">   100</i>
  <i type="int" name="NELMDL">    -3</i>
  <i type="int" name="NELMIN">     5</i>
  <i type="int" name="IBRION">     1</i>
  <i name="EDIFF">      0.00000000</i>
  <i name="EDIFFG">     -0.00000100</i>
  <i type="int" name="NSW">   400</i>
  <i type="int" name="ISIF">     2</i>
  <i name="ENCUT">   2000.00000000</i>
  <i type="int" name="ISMEAR">     0</i>
  <i name="SIGMA">      0.05000000</i>
  <i type="int" name="NWRITE">     2</i>
  <i type="logical" name="LWAVE"> F  </i>
  <i type="logical" name="LCHARG"> F  </i>
  <i type="int" name="NELM">   100</i>
 </incar>
 <kpoints>
  <generation param="Gamma">
   <v type="int" name="divisions">      24       36        1 </v>
   <v name="usershift">      0.00000000       0.00000000       0.00000000 </v>
   <v name="genvec1">      0.04166667       0.00000000       0.00000000 </v>
   <v name="genvec2">      0.00000000       0.02777778       0.00000000 </v>
   <v name="genvec3">      0.00000000       0.00000000       1.00000000 </v>
   <v name="shift">      0.00000000       0.00000000       0.00000000 </v>
  </generation>
  <varray name="kpointlist" >
   <v>       0.00000000       0.00000000       0.00000000 </v>
   <v>       0.04166667       0.00000000       0.00000000 </v>
   <v>       0.08333333       0.00000000       0.00000000 </v>
   <v>       0.12500000       0.00000000       0.00000000 </v>
   <v>       0.16666667       0.00000000       0.00000000 </v>
   <v>       0.20833333       0.00000000       0.00000000 </v>
   <v>       0.25000000       0.00000000       0.00000000 </v>
   <v>       0.29166667       0.00000000       0.00000000 </v>
   <v>       0.33333333       0.00000000       0.00000000 </v>
   <v>       0.37500000       0.00000000       0.00000000 </v>
   <v>       0.41666667       0.00000000       0.00000000 </v>
   <v>       0.45833333       0.00000000       0.00000000 </v>
   <v>       0.50000000       0.00000000       0.00000000 </v>
   <v>       0.00000000       0.02777778       0.00000000 </v>
   <v>       0.04166667       0.02777778       0.00000000 </v>
   <v>       0.08333333       0.02777778       0.00000000 </v>
   <v>       0.12500000       0.02777778       0.00000000 </v>
   <v>       0.16666667       0.02777778       0.00000000 </v>
   <v>       0.20833333       0.02777778       0.00000000 </v>
   <v>       0.25000000       0.02777778       0.00000000 </v>
   <v>       0.29166667       0.02777778       0.00000000 </v>
   <v>       0.33333333       0.02777778       0.00000000 </v>
   <v>       0.37500000       0.02777778       0.00000000 </v>
   <v>       0.41666667       0.02777778       0.00000000 </v>
   <v>       0.45833333       0.02777778       0.00000000 </v>
   <v>       0.50000000       0.02777778       0.00000000 </v>
   <v>       0.00000000       0.05555556       0.00000000 </v>
   <v>       0.04166667       0.05555556       0.00000000 </v>
   <v>       0.08333333       0.05555556       0.00000000 </v>
   <v>       0.12500000       0.05555556       0.00000000 </v>
   <v>       0.16666667       0.05555556       0.00000000 </v>
   <v>       0.20833333       0.05555556       0.00000000 </v>
   <v>       0.25000000       0.05555556       0.00000000 </v>
   <v>       0.29166667       0.05555556       0.00000000 </v>
   <v>       0.33333333       0.05555556       0.00000000 </v>
   <v>       0.37500000       0.05555556       0.00000000 </v>
   <v>       0.41666667       0.05555556       0.00000000 </v>
   <v>       0.45833333       0.05555556       0.00000000 </v>
   <v>       0.50000000       0.05555556       0.00000000 </v>
   <v>       0.00000000       0.08333333       0.00000000 </v>
   <v>       0.04166667       0.08333333       0.00000000 </v>
   <v>       0.08333333       0.08333333       0.00000000 </v>
   <v>       0.12500000       0.08333333       0.00000000 </v>
   <v>       0.16666667       0.08333333       0.00000000 </v>
   <v>       0.20833333       0.08333333       0.00000000 </v>
   <v>       0.25000000       0.08333333       0.00000000 </v>
   <v>       0.29166667       0.08333333       0.00000000 </v>
   <v>       0.33333333       0.08333333       0.00000000 </v>
   <v>       0.37500000       0.08333333       0.00000000 </v>
   <v>       0.41666667       0.08333333       0.00000000 </v>
   <v>       0.45833333       0.08333333       0.00000000 </v>
   <v>       0.50000000       0.08333333       0.00000000 </v>
   <v>       0.00000000       0.11111111       0.00000000 </v>
   <v>       0.04166667       0.11111111       0.00000000 </v>
   <v>       0.08333333       0.11111111       0.00000000 </v>
   <v>       0.12500000       0.11111111       0.00000000 </v>
   <v>       0.16666667       0.11111111       0.00000000 </v>
   <v>       0.20833333       0.11111111       0.00000000 </v>
   <v>       0.25000000       0.11111111       0.00000000 </v>
   <v>       0.29166667       0.11111111       0.00000000 </v>
   <v>       0.33333333       0.11111111       0.00000000 </v>
   <v>       0.37500000       0.11111111       0.00000000 </v>
   <v>       0.41666667       0.11111111       0.00000000 </v>
   <v>       0.45833333       0.11111111       0.00000000 </v>
   <v>       0.50000000       0.11111111       0.00000000 </v>
   <v>       0.00000000       0.13888889       0.00000000 </v>
   <v>       0.04166667       0.13888889       0.00000000 </v>
   <v>       0.08333333       0.13888889       0.00000000 </v>
   <v>       0.12500000       0.13888889       0.00000000 </v>
   <v>       0.16666667       0.13888889       0.00000000 </v>
   <v>       0.20833333       0.13888889       0.00000000 </v>
   <v>       0.25000000       0.13888889       0.00000000 </v>
   <v>       0.29166667       0.13888889       0.00000000 </v>
   <v>       0.33333333       0.13888889       0.00000000 </v>
   <v>       0.37500000       0.13888889       0.00000000 </v>
   <v>       0.41666667       0.13888889       0.00000000 </v>
   <v>       0.45833333       0.13888889       0.00000000 </v>
   <v>       0.50000000       0.13888889       0.00000000 </v>
   <v>       0.00000000       0.16666667       0.00000000 </v>
   <v>       0.04166667       0.16666667       0.00000000 </v>
   <v>       0.08333333       0.16666667       0.00000000 </v>
   <v>       0.12500000       0.16666667       0.00000000 </v>
   <v>       0.16666667       0.16666667       0.00000000 </v>
   <v>       0.20833333       0.16666667       0.00000000 </v>
   <v>       0.25000000       0.16666667       0.00000000 </v>
   <v>       0.29166667       0.16666667       0.00000000 </v>
   <v>       0.33333333       0.16666667       0.00000000 </v>
   <v>       0.37500000       0.16666667       0.00000000 </v>
   <v>       0.41666667       0.16666667       0.00000000 </v>
   <v>       0.45833333       0.16666667       0.00000000 </v>
   <v>       0.50000000       0.16666667       0.00000000 </v>
   <v>       0.00000000       0.19444444       0.00000000 </v>
   <v>       0.04166667       0.19444444       0.00000000 </v>
   <v>       0.08333333       0.19444444       0.00000000 </v>
   <v>       0.12500000       0.19444444       0.00000000 </v>
   <v>       0.16666667       0.19444444       0.00000000 </v>
   <v>       0.20833333       0.19444444       0.00000000 </v>
   <v>       0.25000000       0.19444444       0.00000000 </v>
   <v>       0.29166667       0.19444444       0.00000000 </v>
   <v>       0.33333333       0.19444444       0.00000000 </v>
   <v>       0.37500000       0.19444444       0.00000000 </v>
   <v>       0.41666667       0.19444444       0.00000000 </v>
   <v>       0.45833333       0.19444444       0.00000000 </v>
   <v>       0.50000000       0.19444444       0.00000000 </v>
   <v>       0.00000000       0.22222222       0.00000000 </v>
   <v>       0.04166667       0.22222222       0.00000000 </v>
   <v>       0.08333333       0.22222222       0.00000000 </v>
   <v>       0.12500000       0.22222222       0.00000000 </v>
   <v>       0.16666667       0.22222222       0.00000000 </v>
   <v>       0.20833333       0.22222222       0.00000000 </v>
   <v>       0.25000000       0.22222222       0.00000000 </v>
   <v>       0.29166667       0.22222222       0.00000000 </v>
   <v>       0.33333333       0.22222222       0.00000000 </v>
   <v>       0.37500000       0.22222222       0.00000000 </v>
   <v>       0.41666667       0.22222222       0.00000000 </v>
   <v>       0.45833333       0.22222222       0.00000000 </v>
   <v>       0.50000000       0.22222222       0.00000000 </v>
   <v>       0.00000000       0.25000000       0.00000000 </v>
   <v>       0.04166667       0.25000000       0.00000000 </v>
   <v>       0.08333333       0.25000000       0.00000000 </v>
   <v>       0.12500000       0.25000000       0.00000000 </v>
   <v>       0.16666667       0.25000000       0.00000000 </v>
   <v>       0.20833333       0.25000000       0.00000000 </v>
   <v>       0.25000000       0.25000000       0.00000000 </v>
   <v>       0.29166667       0.25000000       0.00000000 </v>
   <v>       0.33333333       0.25000000       0.00000000 </v>
   <v>       0.37500000       0.25000000       0.00000000 </v>
   <v>       0.41666667       0.25000000       0.00000000 </v>
   <v>       0.45833333       0.25000000       0.00000000 </v>
   <v>       0.50000000       0.25000000       0.00000000 </v>
   <v>       0.00000000       0.27777778       0.00000000 </v>
   <v>       0.04166667       0.27777778       0.00000000 </v>
   <v>       0.08333333       0.27777778       0.00000000 </v>
   <v>       0.12500000       0.27777778       0.00000000 </v>
   <v>       0.16666667       0.27777778       0.00000000 </v>
   <v>       0.20833333       0.27777778       0.00000000 </v>
   <v>       0.25000000       0.27777778       0.00000000 </v>
   <v>       0.29166667       0.27777778       0.00000000 </v>
   <v>       0.33333333       0.27777778       0.00000000 </v>
   <v>       0.37500000       0.27777778       0.00000000 </v>
   <v>       0.41666667       0.27777778       0.00000000 </v>
   <v>       0.45833333       0.27777778       0.00000000 </v>
   <v>       0.50000000       0.27777778       0.00000000 </v>
   <v>       0.00000000       0.30555556       0.00000000 </v>
   <v>       0.04166667       0.30555556       0.00000000 </v>
   <v>       0.08333333       0.30555556       0.00000000 </v>
   <v>       0.12500000       0.30555556       0.00000000 </v>
   <v>       0.16666667       0.30555556       0.00000000 </v>
   <v>       0.20833333       0.30555556       0.00000000 </v>
   <v>       0.25000000       0.30555556       0.00000000 </v>
   <v>       0.29166667       0.30555556       0.00000000 </v>
   <v>       0.33333333       0.30555556       0.00000000 </v>
   <v>       0.37500000       0.30555556       0.00000000 </v>
   <v>       0.41666667       0.30555556       0.00000000 </v>
   <v>       0.45833333       0.30555556       0.00000000 </v>
   <v>       0.50000000       0.30555556       0.00000000 </v>
   <v>       0.00000000       0.33333333       0.00000000 </v>
   <v>       0.04166667       0.33333333       0.00000000 </v>
   <v>       0.08333333       0.33333333       0.00000000 </v>
   <v>       0.12500000       0.33333333       0.00000000 </v>
   <v>       0.16666667       0.33333333       0.00000000 </v>
   <v>       0.20833333       0.33333333       0.00000000 </v>
   <v>       0.25000000       0.33333333       0.00000000 </v>
   <v>       0.29166667       0.33333333       0.00000000 </v>
   <v>       0.33333333       0.33333333       0.00000000 </v>
   <v>       0.37500000       0.33333333       0.00000000 </v>
   <v>       0.41666667       0.33333333       0.00000000 </v>
   <v>       0.45833333       0.33333333       0.00000000 </v>
   <v>       0.50000000       0.33333333       0.00000000 </v>
   <v>       0.00000000       0.36111111       0.00000000 </v>
   <v>       0.04166667       0.36111111       0.00000000 </v>
   <v>       0.08333333       0.36111111       0.00000000 </v>
   <v>       0.12500000       0.36111111       0.00000000 </v>
   <v>       0.16666667       0.36111111       0.00000000 </v>
   <v>       0.20833333       0.36111111       0.00000000 </v>
   <v>       0.25000000       0.36111111       0.00000000 </v>
   <v>       0.29166667       0.36111111       0.00000000 </v>
   <v>       0.33333333       0.36111111       0.00000000 </v>
   <v>       0.37500000       0.36111111       0.00000000 </v>
   <v>       0.41666667       0.36111111       0.00000000 </v>
   <v>       0.45833333       0.36111111       0.00000000 </v>
   <v>       0.50000000       0.36111111       0.00000000 </v>
   <v>       0.00000000       0.38888889       0.00000000 </v>
   <v>       0.04166667       0.38888889       0.00000000 </v>
   <v>       0.08333333       0.38888889       0.00000000 </v>
   <v>       0.12500000       0.38888889       0.00000000 </v>
   <v>       0.16666667       0.38888889       0.00000000 </v>
   <v>       0.20833333       0.38888889       0.00000000 </v>
   <v>       0.25000000       0.38888889       0.00000000 </v>
   <v>       0.29166667       0.38888889       0.00000000 </v>
   <v>       0.33333333       0.38888889       0.00000000 </v>
   <v>       0.37500000       0.38888889       0.00000000 </v>
   <v>       0.41666667       0.38888889       0.00000000 </v>
   <v>       0.45833333       0.38888889       0.00000000 </v>
   <v>       0.50000000       0.38888889       0.00000000 </v>
   <v>       0.00000000       0.41666667       0.00000000 </v>
   <v>       0.04166667       0.41666667       0.00000000 </v>
   <v>       0.08333333       0.41666667       0.00000000 </v>
   <v>       0.12500000       0.41666667       0.00000000 </v>
   <v>       0.16666667       0.41666667       0.00000000 </v>
   <v>       0.20833333       0.41666667       0.00000000 </v>
   <v>       0.25000000       0.41666667       0.00000000 </v>
   <v>       0.29166667       0.41666667       0.00000000 </v>
   <v>       0.33333333       0.41666667       0.00000000 </v>
   <v>       0.37500000       0.41666667       0.00000000 </v>
   <v>       0.41666667       0.41666667       0.00000000 </v>
   <v>       0.45833333       0.41666667       0.00000000 </v>
   <v>       0.50000000       0.41666667       0.00000000 </v>
   <v>       0.00000000       0.44444444       0.00000000 </v>
   <v>       0.04166667       0.44444444       0.00000000 </v>
   <v>       0.08333333       0.44444444       0.00000000 </v>
   <v>       0.12500000       0.44444444       0.00000000 </v>
   <v>       0.16666667       0.44444444       0.00000000 </v>
   <v>       0.20833333       0.44444444       0.00000000 </v>
   <v>       0.25000000       0.44444444       0.00000000 </v>
   <v>       0.29166667       0.44444444       0.00000000 </v>
   <v>       0.33333333       0.44444444       0.00000000 </v>
   <v>       0.37500000       0.44444444       0.00000000 </v>
   <v>       0.41666667       0.44444444       0.00000000 </v>
   <v>       0.45833333       0.44444444       0.00000000 </v>
   <v>       0.50000000       0.44444444       0.00000000 </v>
   <v>       0.00000000       0.47222222       0.00000000 </v>
   <v>       0.04166667       0.47222222       0.00000000 </v>
   <v>       0.08333333       0.47222222       0.00000000 </v>
   <v>       0.12500000       0.47222222       0.00000000 </v>
   <v>       0.16666667       0.47222222       0.00000000 </v>
   <v>       0.20833333       0.47222222       0.00000000 </v>
   <v>       0.25000000       0.47222222       0.00000000 </v>
   <v>       0.29166667       0.47222222       0.00000000 </v>
   <v>       0.33333333       0.47222222       0.00000000 </v>
   <v>       0.37500000       0.47222222       0.00000000 </v>
   <v>       0.41666667       0.47222222       0.00000000 </v>
   <v>       0.45833333       0.47222222       0.00000000 </v>
   <v>       0.50000000       0.47222222       0.00000000 </v>
   <v>       0.00000000       0.50000000       0.00000000 </v>
   <v>       0.04166667       0.50000000       0.00000000 </v>
   <v>       0.08333333       0.50000000       0.00000000 </v>
   <v>       0.12500000       0.50000000       0.00000000 </v>
   <v>       0.16666667       0.50000000       0.00000000 </v>
   <v>       0.20833333       0.50000000       0.00000000 </v>
   <v>       0.25000000       0.50000000       0.00000000 </v>
   <v>       0.29166667       0.50000000       0.00000000 </v>
   <v>       0.33333333       0.50000000       0.00000000 </v>
   <v>       0.37500000       0.50000000       0.00000000 </v>
   <v>       0.41666667       0.50000000       0.00000000 </v>
   <v>       0.45833333       0.50000000       0.00000000 </v>
   <v>       0.50000000       0.50000000       0.00000000 </v>
  </varray>
  <varray name="weights" >
   <v>       0.00115741 </v>
   <v>       0.00231481 </v>
   <v>       0.00231481 </v>
   <v>       0.00231481 </v>
   <v>       0.00231481 </v>
   <v>       0.00231481 </v>
   <v>       0.00231481 </v>
   <v>       0.00231481 </v>
   <v>       0.00231481 </v>
   <v>       0.00231481 </v>
   <v>       0.00231481 </v>
   <v>       0.00231481 </v>
   <v>       0.00115741 </v>
   <v>       0.00231481 </v>
   <v>       0.00462963 </v>
   <v>       0.00462963 </v>
   <v>       0.00462963 </v>
   <v>       0.00462963 </v>
   <v>       0.00462963 </v>
   <v>       0.00462963 </v>
   <v>       0.00462963 </v>
   <v>       0.00462963 </v>
   <v>       0.00462963 </v>
   <v>       0.00462963 </v>
   <v>       0.00462963 </v>
   <v>       0.00231481 </v>
   <v>       0.00231481 </v>
   <v>       0.00462963 </v>
   <v>       0.00462963 </v>
   <v>       0.00462963 </v>
   <v>       0.00462963 </v>
   <v>       0.00462963 </v>
   <v>       0.00462963 </v>
   <v>       0.00462963 </v>
   <v>       0.00462963 </v>
   <v>       0.00462963 </v>
   <v>       0.00462963 </v>
   <v>       0.00462963 </v>
   <v>       0.00231481 </v>
   <v>       0.00231481 </v>
   <v>       0.00462963 </v>
   <v>       0.00462963 </v>
   <v>       0.00462963 </v>
   <v>       0.00462963 </v>
   <v>       0.00462963 </v>
   <v>       0.00462963 </v>
   <v>       0.00462963 </v>
   <v>       0.00462963 </v>
   <v>       0.00462963 </v>
   <v>       0.00462963 </v>
   <v>       0.00462963 </v>
   <v>       0.00231481 </v>
   <v>       0.00231481 </v>
   <v>       0.00462963 </v>
   <v>       0.00462963 </v>
   <v>       0.00462963 </v>
   <v>       0.00462963 </v>
   <v>       0.00462963 </v>
   <v>       0.00462963 </v>
   <v>       0.00462963 </v>
   <v>       0.00462963 </v>
   <v>       0.00462963 </v>
   <v>       0.00462963 </v>
   <v>       0.00462963 </v>
   <v>       0.00231481 </v>
   <v>       0.00231481 </v>
   <v>       0.00462963 </v>
   <v>       0.00462963 </v>
   <v>       0.00462963 </v>
   <v>       0.00462963 </v>
   <v>       0.00462963 </v>
   <v>       0.00462963 </v>
   <v>       0.00462963 </v>
   <v>       0.00462963 </v>
   <v>       0.00462963 </v>
   <v>       0.00462963 </v>
   <v>       0.00462963 </v>
   <v>       0.00231481 </v>
   <v>       0.00231481 </v>
   <v>       0.00462963 </v>
   <v>       0.00462963 </v>
   <v>       0.00462963 </v>
   <v>       0.00462963 </v>
   <v>       0.00462963 </v>
   <v>       0.00462963 </v>
   <v>       0.00462963 </v>
   <v>       0.00462963 </v>
   <v>       0.00462963 </v>
   <v>       0.00462963 </v>
   <v>       0.00462963 </v>
   <v>       0.00231481 </v>
   <v>       0.00231481 </v>
   <v>       0.00462963 </v>
   <v>       0.00462963 </v>
   <v>       0.00462963 </v>
   <v>       0.00462963 </v>
   <v>       0.00462963 </v>
   <v>       0.00462963 </v>
   <v>       0.00462963 </v>
   <v>       0.00462963 </v>
   <v>       0.00462963 </v>
   <v>       0.00462963 </v>
   <v>       0.00462963 </v>
   <v>       0.00231481 </v>
   <v>       0.00231481 </v>
   <v>       0.00462963 </v>
   <v>       0.00462963 </v>
   <v>       0.00462963 </v>
   <v>       0.00462963 </v>
   <v>       0.00462963 </v>
   <v>       0.00462963 </v>
   <v>       0.00462963 </v>
   <v>       0.00462963 </v>
   <v>       0.00462963 </v>
   <v>       0.00462963 </v>
   <v>       0.00462963 </v>
   <v>       0.00231481 </v>
   <v>       0.00231481 </v>
   <v>       0.00462963 </v>
   <v>       0.00462963 </v>
   <v>       0.00462963 </v>
   <v>       0.00462963 </v>
   <v>       0.00462963 </v>
   <v>       0.00462963 </v>
   <v>       0.00462963 </v>
   <v>       0.00462963 </v>
   <v>       0.00462963 </v>
   <v>       0.00462963 </v>
   <v>       0.00462963 </v>
   <v>       0.00231481 </v>
   <v>       0.00231481 </v>
   <v>       0.00462963 </v>
   <v>       0.00462963 </v>
   <v>       0.00462963 </v>
   <v>       0.00462963 </v>
   <v>       0.00462963 </v>
   <v>       0.00462963 </v>
   <v>       0.00462963 </v>
   <v>       0.00462963 </v>
   <v>       0.00462963 </v>
   <v>       0.00462963 </v>
   <v>       0.00462963 </v>
   <v>       0.00231481 </v>
   <v>       0.00231481 </v>
   <v>       0.00462963 </v>
   <v>       0.00462963 </v>
   <v>       0.00462963 </v>
   <v>       0.00462963 </v>
   <v>       0.00462963 </v>
   <v>       0.00462963 </v>
   <v>       0.00462963 </v>
   <v>       0.00462963 </v>
   <v>       0.00462963 </v>
   <v>       0.00462963 </v>
   <v>       0.00462963 </v>
   <v>       0.00231481 </v>
   <v>       0.00231481 </v>
   <v>       0.00462963 </v>
   <v>       0.00462963 </v>
   <v>       0.00462963 </v>
   <v>       0.00462963 </v>
   <v>       0.00462963 </v>
   <v>       0.00462963 </v>
   <v>       0.00462963 </v>
   <v>       0.00462963 </v>
   <v>       0.00462963 </v>
   <v>       0.00462963 </v>
   <v>       0.00462963 </v>
   <v>       0.00231481 </v>
   <v>       0.00231481 </v>
   <v>       0.00462963 </v>
   <v>       0.00462963 </v>
   <v>       0.00462963 </v>
   <v>       0.00462963 </v>
   <v>       0.00462963 </v>
   <v>       0.00462963 </v>
   <v>       0.00462963 </v>
   <v>       0.00462963 </v>
   <v>       0.00462963 </v>
   <v>       0.00462963 </v>
   <v>       0.00462963 </v>
   <v>       0.00231481 </v>
   <v>       0.00231481 </v>
   <v>       0.00462963 </v>
   <v>       0.00462963 </v>
   <v>       0.00462963 </v>
   <v>       0.00462963 </v>
   <v>       0.00462963 </v>
   <v>       0.00462963 </v>
   <v>       0.00462963 </v>
   <v>       0.00462963 </v>
   <v>       0.00462963 </v>
   <v>       0.00462963 </v>
   <v>       0.00462963 </v>
   <v>       0.00231481 </v>
   <v>       0.00231481 </v>
   <v>       0.00462963 </v>
   <v>       0.00462963 </v>
   <v>       0.00462963 </v>
   <v>       0.00462963 </v>
   <v>       0.00462963 </v>
   <v>       0.00462963 </v>
   <v>       0.00462963 </v>
   <v>       0.00462963 </v>
   <v>       0.00462963 </v>
   <v>       0.00462963 </v>
   <v>       0.00462963 </v>
   <v>       0.00231481 </v>
   <v>       0.00231481 </v>
   <v>       0.00462963 </v>
   <v>       0.00462963 </v>
   <v>       0.00462963 </v>
   <v>       0.00462963 </v>
   <v>       0.00462963 </v>
   <v>       0.00462963 </v>
   <v>       0.00462963 </v>
   <v>       0.00462963 </v>
   <v>       0.00462963 </v>
   <v>       0.00462963 </v>
   <v>       0.00462963 </v>
   <v>       0.00231481 </v>
   <v>       0.00231481 </v>
   <v>       0.00462963 </v>
   <v>       0.00462963 </v>
   <v>       0.00462963 </v>
   <v>       0.00462963 </v>
   <v>       0.00462963 </v>
   <v>       0.00462963 </v>
   <v>       0.00462963 </v>
   <v>       0.00462963 </v>
   <v>       0.00462963 </v>
   <v>       0.00462963 </v>
   <v>       0.00462963 </v>
   <v>       0.00231481 </v>
   <v>       0.00115741 </v>
   <v>       0.00231481 </v>
   <v>       0.00231481 </v>
   <v>       0.00231481 </v>
   <v>       0.00231481 </v>
   <v>       0.00231481 </v>
   <v>       0.00231481 </v>
   <v>       0.00231481 </v>
   <v>       0.00231481 </v>
   <v>       0.00231481 </v>
   <v>       0.00231481 </v>
   <v>       0.00231481 </v>
   <v>       0.00115741 </v>
  </varray>
 </kpoints>
 <parameters>
  <separator name="general" >
   <i type="string" name="SYSTEM">gr</i>
   <i type="logical" name="LCOMPAT"> F  </i>
  </separator>
  <separator name="electronic" >
   <i type="string" name="PREC">accura</i>
   <i name="ENMAX">   2000.00000000</i>
   <i name="ENAUG">    644.87300000</i>
   <i name="EDIFF">      0.00000000</i>
   <i type="int" name="IALGO">    68</i>
   <i type="int" name="IWAVPR">    11</i>
   <i type="int" name="NBANDS">    12</i>
   <i name="NELECT">     16.00000000</i>
   <i type="int" name="TURBO">     0</i>
   <i type="int" name="IRESTART">     0</i>
   <i type="int" name="NREBOOT">     0</i>
   <i type="int" name="NMIN">     0</i>
   <i name="EREF">      0.00000000</i>
   <separator name="electronic smearing" >
    <i type="int" name="ISMEAR">     0</i>
    <i name="SIGMA">      0.05000000</i>
    <i name="KSPACING">      0.50000000</i>
    <i type="logical" name="KGAMMA"> T  </i>
   </separator>
   <separator name="electronic projectors" >
    <i type="logical" name="LREAL"> F  </i>
    <v name="ROPT">      0.00000000</v>
    <i type="int" name="LMAXPAW">  -100</i>
    <i type="int" name="LMAXMIX">     2</i>
    <i type="logical" name="NLSPLINE"> F  </i>
   </separator>
   <separator name="electronic startup" >
    <i type="int" name="ISTART">     0</i>
    <i type="int" name="ICHARG">     2</i>
    <i type="int" name="INIWAV">     1</i>
   </separator>
   <separator name="electronic spin" >
    <i type="int" name="ISPIN">     1</i>
    <i type="logical" name="LNONCOLLINEAR"> F  </i>
    <v name="MAGMOM">      1.00000000      1.00000000      1.00000000      1.00000000</v>
    <i name="NUPDOWN">     -1.00000000</i>
    <i type="logical" name="LSORBIT"> F  </i>
    <v name="SAXIS">      0.00000000      0.00000000      1.00000000</v>
    <i type="logical" name="LSPIRAL"> F  </i>
    <v name="QSPIRAL">      0.00000000      0.00000000      0.00000000</v>
    <i type="logical" name="LZEROZ"> F  </i>
   </separator>
   <separator name="electronic exchange-correlation" >
    <i type="logical" name="LASPH"> F  </i>
    <i type="logical" name="LMETAGGA"> F  </i>
   </separator>
   <separator name="electronic convergence" >
    <i type="int" name="NELM">   100</i>
    <i type="int" name="NELMDL">    -3</i>
    <i type="int" name="NELMIN">     5</i>
    <i name="ENINI">   2000.00000000</i>
    <separator name="electronic convergence detail" >
     <i type="logical" name="LDIAG"> T  </i>
     <i type="logical" name="LSUBROT"> F  </i>
     <i name="WEIMIN">      0.00100000</i>
     <i name="EBREAK">      0.00000000</i>
     <i name="DEPER">      0.30000000</i>
     <i type="int" name="NRMM">     4</i>
     <i name="TIME">      0.40000000</i>
    </separator>
   </separator>
   <separator name="electronic mixer" >
    <i name="AMIX">      0.40000000</i>
    <i name="BMIX">      1.00000000</i>
    <i name="AMIN">      0.10000000</i>
    <i name="AMIX_MAG">      1.60000000</i>
    <i name="BMIX_MAG">      1.00000000</i>
    <separator name="electronic mixer details" >
     <i type="int" name="IMIX">     4</i>
     <i type="int" name="MAXMIX">   -45</i>
     <i name="WC">    100.00000000</i>
     <i type="int" name="INIMIX">     1</i>
     <i type="int" name="MIXPRE">     1</i>
     <i type="int" name="MREMOVE">     5</i>
    </separator>
   </separator>
   <separator name="electronic dipolcorrection" >
    <i type="logical" name="LDIPOL"> F  </i>
    <i type="logical" name="LMONO"> F  </i>
    <i type="int" name="IDIPOL">     0</i>
    <i name="EPSILON">      1.00000000</i>
    <v name="DIPOL">   -100.00000000   -100.00000000   -100.00000000</v>
    <i name="EFIELD">      0.00000000</i>
   </separator>
  </separator>
  <separator name="grids" >
   <i type="int" name="NGX">    64</i>
   <i type="int" name="NGY">    40</i>
   <i type="int" name="NGZ">   288</i>
   <i type="int" name="NGXF">   128</i>
   <i type="int" name="NGYF">    80</i>
   <i type="int" name="NGZF">   576</i>
   <i type="logical" name="ADDGRID"> F  </i>
  </separator>
  <separator name="ionic" >
   <i type="int" name="NSW">   400</i>
   <i type="int" name="IBRION">     1</i>
   <i type="int" name="ISIF">     2</i>
   <i name="PSTRESS">      0.00000000</i>
   <i name="EDIFFG">     -0.00000100</i>
   <i type="int" name="NFREE">     0</i>
   <i name="POTIM">      0.50000000</i>
   <i name="SMASS">     -3.00000000</i>
   <i name="SCALEE">      1.00000000</i>
  </separator>
  <separator name="ionic md" >
   <i name="TEBEG">      0.00010000</i>
   <i name="TEEND">      0.00010000</i>
   <i type="int" name="NBLOCK">     1</i>
   <i type="int" name="KBLOCK">   400</i>
   <i type="int" name="NPACO">   256</i>
   <i name="APACO">     16.00000000</i>
  </separator>
  <separator name="symmetry" >
   <i type="int" name="ISYM">     2</i>
   <i name="SYMPREC">      0.00001000</i>
  </separator>
  <separator name="dos" >
   <i type="logical" name="LORBIT"> F  </i>
   <v name="RWIGS">     -1.00000000</v>
   <i type="int" name="NEDOS">   301</i>
   <i name="EMIN">     10.00000000</i>
   <i name="EMAX">    -10.00000000</i>
   <i name="EFERMI">      0.00000000</i>
  </separator>
  <separator name="writing" >
   <i type="int" name="NWRITE">     2</i>
   <i type="logical" name="LWAVE"> F  </i>
   <i type="logical" name="LCHARG"> F  </i>
   <i type="logical" name="LPARD"> F  </i>
   <i type="logical" name="LVTOT"> F  </i>
   <i type="logical" name="LVHAR"> F  </i>
   <i type="logical" name="LELF"> F  </i>
   <i type="logical" name="LOPTICS"> F  </i>
   <v name="STM">      0.00000000      0.00000000      0.00000000      0.00000000      0.00000000      0.00000000      0.00000000</v>
  </separator>
  <separator name="performance" >
   <i type="int" name="NPAR">     4</i>
   <i type="int" name="NSIM">     4</i>
   <i type="int" name="NBLK">    -1</i>
   <i type="logical" name="LPLANE"> T  </i>
   <i type="logical" name="LSCALAPACK"> F  </i>
   <i type="logical" name="LSCAAWARE"> F  </i>
   <i type="logical" name="LSCALU"> F  </i>
   <i type="logical" name="LASYNC"> F  </i>
   <i type="logical" name="LORBITALREAL"> F  </i>
  </separator>
  <separator name="miscellaneous" >
   <i type="int" name="IDIOT">     3</i>
   <i type="logical" name="LMUSIC"> F  </i>
   <v name="POMASS">     12.01100000</v>
   <v name="DARWINR">      0.00000000</v>
   <v name="DARWINV">      1.00000000</v>
   <i type="logical" name="LCORR"> T  </i>
  </separator>
  <i type="logical" name="GGA_COMPAT"> T  </i>
  <i type="logical" name="LBERRY"> F  </i>
  <i type="int" name="ICORELEVEL">     0</i>
  <i type="logical" name="LDAU"> F  </i>
  <i type="int" name="I_CONSTRAINED_M">     0</i>
  <separator name="electronic exchange-correlation" >
   <i type="string" name="GGA">--</i>
   <i type="int" name="VOSKOWN">     0</i>
   <i type="logical" name="LHFCALC"> F  </i>
   <i type="string" name="PRECFOCK"></i>
   <i type="logical" name="LSYMGRAD"> F  </i>
   <i type="logical" name="LHFONE"> F  </i>
   <i type="logical" name="LRHFCALC"> F  </i>
   <i type="logical" name="LTHOMAS"> F  </i>
   <i type="logical" name="LMODELHF"> F  </i>
   <i name="ENCUT4O">     -1.00000000</i>
   <i type="int" name="EXXOEP">     0</i>
   <i type="int" name="FOURORBIT">     0</i>
   <i name="AEXX">      0.00000000</i>
   <i name="HFALPHA">      0.00000000</i>
   <i name="MCALPHA">      0.00000000</i>
   <i name="ALDAX">      1.00000000</i>
   <i name="AGGAX">      1.00000000</i>
   <i name="ALDAC">      1.00000000</i>
   <i name="AGGAC">      1.00000000</i>
   <i type="int" name="NKREDX">     1</i>
   <i type="int" name="NKREDY">     1</i>
   <i type="int" name="NKREDZ">     1</i>
   <i type="logical" name="SHIFTRED"> F  </i>
   <i type="logical" name="ODDONLY"> F  </i>
   <i type="logical" name="EVENONLY"> F  </i>
   <i type="int" name="LMAXFOCK">     0</i>
   <i type="int" name="NMAXFOCKAE">     0</i>
   <i type="logical" name="LFOCKAEDFT"> F  </i>
   <i name="HFSCREEN">      0.00000000</i>
   <i name="HFSCREENC">      0.00000000</i>
   <i type="int" name="NBANDSGWLOW">     0</i>
  </separator>
  <separator name="vdW DFT" >
   <i type="logical" name="LUSE_VDW"> F  </i>
   <i name="Zab_VDW">     -0.84910000</i>
   <i name="PARAM1">      0.12340000</i>
   <i name="PARAM2">      1.00000000</i>
   <i name="PARAM3">      0.00000000</i>
  </separator>
  <separator name="model GW" >
   <i type="int" name="MODEL_GW">     0</i>
   <i name="MODEL_EPS0">     31.62568521</i>
   <i name="MODEL_ALPHA">      1.00000000</i>
  </separator>
  <separator name="linear response parameters" >
   <i type="logical" name="LEPSILON"> F  </i>
   <i type="logical" name="LRPA"> F  </i>
   <i type="logical" name="LNABLA"> F  </i>
   <i type="logical" name="LVEL"> F  </i>
   <i type="int" name="KINTER">     0</i>
   <i name="CSHIFT">      0.10000000</i>
   <i name="OMEGAMAX">     -1.00000000</i>
   <i name="DEG_THRESHOLD">      0.00200000</i>
  </separator>
  <separator name="orbital magnetization" >
   <i type="logical" name="NUCIND"> F  </i>
   <v name="MAGPOS">      0.00000000      0.00000000      0.00000000</v>
   <i type="logical" name="LNICSALL"> T  </i>
   <i type="logical" name="ORBITALMAG"> F  </i>
   <i type="logical" name="LMAGBLOCH"> F  </i>
   <i type="logical" name="LCHIMAG"> F  </i>
   <i type="logical" name="LGAUGE"> T  </i>
   <i type="int" name="MAGATOM">     0</i>
   <v name="MAGDIPOL">      0.00000000      0.00000000      0.00000000</v>
   <v name="AVECCONST">      0.00000000      0.00000000      0.00000000</v>
  </separator>
  <separator name="response functions" >
   <i type="logical" name="LADDER"> F  </i>
   <i type="logical" name="LFXC"> F  </i>
   <i type="logical" name="LHARTREE"> T  </i>
   <i type="int" name="IBSE">     0</i>
   <i type="logical" name="LTCTE"> F  </i>
   <i type="logical" name="LTETE"> F  </i>
   <i type="logical" name="LTRIPLET"> F  </i>
   <i type="logical" name="LFXCEPS"> F  </i>
   <i type="logical" name="LFXHEG"> F  </i>
   <i type="logical" name="L2ORDER"> F  </i>
   <i type="logical" name="LUSEW"> F  </i>
   <i name="ENCUTGW">     -2.00000000</i>
   <i name="ENCUTGWSOFT">     -2.00000000</i>
   <i name="ENCUTLF">     -1.00000000</i>
   <i type="int" name="LMAXMP2">    -1</i>
   <i name="SCISSOR">      0.00000000</i>
   <i type="int" name="NOMEGA">     0</i>
   <i type="int" name="NOMEGAR">     0</i>
   <i type="int" name="NBANDSGW">    -1</i>
   <i type="int" name="NBANDSO">    -1</i>
   <i type="int" name="NBANDSV">    -1</i>
   <i type="int" name="NELM">   100</i>
   <i type="int" name="DIM">     3</i>
   <i type="int" name="ANTIRES">     0</i>
   <i name="OMEGAMAX">    -30.00000000</i>
   <i name="OMEGAMIN">    -30.00000000</i>
   <i name="OMEGATL">   -200.00000000</i>
   <i type="int" name="OMEGAGRID">     0</i>
   <i name="CSHIFT">     -0.10000000</i>
   <i type="logical" name="SELFENERGY"> F  </i>
   <i type="logical" name="LSPECTRAL"> F  </i>
   <i type="logical" name="ODDONLYGW"> F  </i>
   <i type="logical" name="EVENONLYGW"> F  </i>
   <i type="int" name="NKREDLFX">     1</i>
   <i type="int" name="NKREDLFY">     1</i>
   <i type="int" name="NKREDLFZ">     1</i>
   <i type="int" name="MAXMEM">  1800</i>
   <i type="int" name="TELESCOPE">     0</i>
   <i type="int" name="TAUPAR">     1</i>
  </separator>
  <separator name="External order field" >
   <i name="OFIELD_KAPPA">      0.00000000</i>
   <v name="OFIELD_K">      0.00000000      0.00000000      0.00000000</v>
   <i name="OFIELD_Q6_NEAR">      0.00000000</i>
   <i name="OFIELD_Q6_FAR">      0.00000000</i>
   <i name="OFIELD_A">      0.00000000</i>
  </separator>
 </parameters>
 <atominfo>
  <atoms>       4 </atoms>
  <types>       1 </types>
  <array name="atoms" >
   <dimension dim="1">ion</dimension>
   <field type="string">element</field>
   <field type="int">atomtype</field>
   <set>
    <rc><c>C </c><c>   1</c></rc>
    <rc><c>C </c><c>   1</c></rc>
    <rc><c>C </c><c>   1</c></rc>
    <rc><c>C </c><c>   1</c></rc>
   </set>
  </array>
  <array name="atomtypes" >
   <dimension dim="1">type</dimension>
   <field type="int">atomspertype</field>
   <field type="string">element</field>
   <field>mass</field>
   <field>valence</field>
   <field type="string">pseudopotential</field>
   <set>
    <rc><c>   4</c><c>C </c><c>     12.01100000</c><c>      4.00000000</c><c> PAW_PBE C 08Apr2002                    </c></rc>
   </set>
  </array>
 </atominfo>
 <structure name="initialpos" >
  <crystal>
   <varray name="basis" >
    <v>       4.25525659       0.00000000       0.00000000 </v>
    <v>       0.00000000       2.52873809       0.00000000 </v>
    <v>       0.00000000       0.00000000      19.59381856 </v>
   </varray>
   <i name="volume">    210.83790140 </i>
   <varray name="rec_basis" >
    <v>       0.23500346       0.00000000       0.00000000 </v>
    <v>       0.00000000       0.39545416       0.00000000 </v>
    <v>       0.00000000       0.00000000       0.05103650 </v>
   </varray>
  </crystal>
  <varray name="positions" >
   <v>       0.00063729       0.00000000       0.00000000 </v>
   <v>       0.16602938       0.50000000       0.00000000 </v>
   <v>       0.50063729       0.50000000       0.00000000 </v>
   <v>       0.66602938       0.00000000       0.00000000 </v>
  </varray>
 </structure>
 <calculation>
  <scstep>
   <time name="dav">  321.53  323.87</time>
   <time name="total">  324.28  326.82</time>
   <energy>
    <i name="alphaZ">      6.18334092 </i>
    <i name="ewald">   2450.60220234 </i>
    <i name="hartreedc">  -2880.06486941 </i>
    <i name="XCdc">     54.81934126 </i>
    <i name="pawpsdc">    151.32577238 </i>
    <i name="pawaedc">   -155.92769107 </i>
    <i name="eentropy">     -0.00188567 </i>
    <i name="bandstr">    -30.03105496 </i>
    <i name="atom">    588.62352690 </i>
    <i name="e_fr_energy">    185.52868271 </i>
    <i name="e_wo_entrp">    185.53056838 </i>
    <i name="e_0_energy">    185.52962555 </i>
   </energy>
  </scstep>
  <scstep>
   <time name="dav">  486.31  488.17</time>
   <time name="total">  486.31  488.18</time>
   <energy>
    <i name="e_fr_energy">     -9.45279403 </i>
    <i name="e_wo_entrp">     -9.45248008 </i>
    <i name="e_0_energy">     -9.45263706 </i>
   </energy>
  </scstep>
  <scstep>
   <time name="dav">  372.60  374.94</time>
   <time name="total">  407.51  410.35</time>
   <energy>
    <i name="e_fr_energy">    -38.07618250 </i>
    <i name="e_wo_entrp">    -38.07618210 </i>
    <i name="e_0_energy">    -38.07618230 </i>
   </energy>
  </scstep>
  <scstep>
   <time name="diag">   89.45   90.46</time>
   <time name="diis">  376.20  379.42</time>
   <time name="orth">    3.10    3.10</time>
   <time name="total">  506.56  511.11</time>
   <energy>
    <i name="e_fr_energy">    -37.57114572 </i>
    <i name="e_wo_entrp">    -37.57114571 </i>
    <i name="e_0_energy">    -37.57114572 </i>
   </energy>
  </scstep>
  <scstep>
   <time name="diag">   89.94   90.49</time>
   <time name="diis">  376.24  379.17</time>
   <time name="orth">    3.07    3.07</time>
   <time name="total">  506.99  510.86</time>
   <energy>
    <i name="e_fr_energy">    -36.86748079 </i>
    <i name="e_wo_entrp">    -36.86748077 </i>
    <i name="e_0_energy">    -36.86748078 </i>
   </energy>
  </scstep>
  <scstep>
   <time name="diag">   90.28   90.45</time>
   <time name="diis">  411.24  412.88</time>
   <time name="orth">    3.07    3.07</time>
   <time name="total">  542.53  544.54</time>
   <energy>
    <i name="e_fr_energy">    -36.86978126 </i>
    <i name="e_wo_entrp">    -36.86978124 </i>
    <i name="e_0_energy">    -36.86978125 </i>
   </energy>
  </scstep>
  <scstep>
   <time name="diag">   89.75   90.44</time>
   <time name="diis">  374.20  377.81</time>
   <time name="orth">    3.06    3.09</time>
   <time name="total">  504.21  509.06</time>
   <energy>
    <i name="e_fr_energy">    -36.86095268 </i>
    <i name="e_wo_entrp">    -36.86095267 </i>
    <i name="e_0_energy">    -36.86095268 </i>
   </energy>
  </scstep>
  <scstep>
   <time name="diag">   90.43   90.47</time>
   <time name="diis">  377.18  378.64</time>
   <time name="orth">    3.07    3.09</time>
   <time name="total">  508.65  510.40</time>
   <energy>
    <i name="e_fr_energy">    -36.85609250 </i>
    <i name="e_wo_entrp">    -36.85609248 </i>
    <i name="e_0_energy">    -36.85609249 </i>
   </energy>
  </scstep>
  <scstep>
   <time name="diag">   90.34   90.43</time>
   <time name="diis">  365.93  366.87</time>
   <time name="orth">    3.08    3.10</time>
   <time name="total">  497.32  498.69</time>
   <energy>
    <i name="e_fr_energy">    -36.85592703 </i>
    <i name="e_wo_entrp">    -36.85592701 </i>
    <i name="e_0_energy">    -36.85592702 </i>
   </energy>
  </scstep>
  <scstep>
   <time name="diag">   90.42   90.45</time>
   <time name="diis">  367.70  367.82</time>
   <time name="orth">    3.10    3.10</time>
   <time name="total">  499.41  499.65</time>
   <energy>
    <i name="e_fr_energy">    -36.85583345 </i>
    <i name="e_wo_entrp">    -36.85583343 </i>
    <i name="e_0_energy">    -36.85583344 </i>
   </energy>
  </scstep>
  <scstep>
   <time name="diag">   90.37   90.39</time>
   <time name="diis">  369.16  369.28</time>
   <time name="orth">    3.10    3.10</time>
   <time name="total">  500.77  500.98</time>
   <energy>
    <i name="e_fr_energy">    -36.85812462 </i>
    <i name="e_wo_entrp">    -36.85812460 </i>
    <i name="e_0_energy">    -36.85812461 </i>
   </energy>
  </scstep>
  <scstep>
   <time name="diag">   90.39   90.41</time>
   <time name="diis">  368.57  368.90</time>
   <time name="orth">    3.10    3.10</time>
   <time name="total">  500.23  500.64</time>
   <energy>
    <i name="e_fr_energy">    -36.85859880 </i>
    <i name="e_wo_entrp">    -36.85859878 </i>
    <i name="e_0_energy">    -36.85859879 </i>
   </energy>
  </scstep>
  <scstep>
   <time name="diag">   90.42   90.44</time>
   <time name="diis">  373.71  374.67</time>
   <time name="orth">    3.08    3.08</time>
   <time name="total">  505.46  506.47</time>
   <energy>
    <i name="e_fr_energy">    -36.85886927 </i>
    <i name="e_wo_entrp">    -36.85886926 </i>
    <i name="e_0_energy">    -36.85886926 </i>
   </energy>
  </scstep>
  <scstep>
   <time name="diag">   90.38   90.42</time>
   <time name="diis">  371.52  371.88</time>
   <time name="orth">    3.09    3.09</time>
   <time name="total">  502.81  503.26</time>
   <energy>
    <i name="e_fr_energy">    -36.85895026 </i>
    <i name="e_wo_entrp">    -36.85895025 </i>
    <i name="e_0_energy">    -36.85895025 </i>
   </energy>
  </scstep>
  <scstep>
   <time name="diag">   90.14   90.49</time>
   <time name="diis">  367.80  369.76</time>
   <time name="orth">    3.07    3.07</time>
   <time name="total">  498.42  501.66</time>
   <energy>
    <i name="e_fr_energy">    -36.85896277 </i>
    <i name="e_wo_entrp">    -36.85896275 </i>
    <i name="e_0_energy">    -36.85896276 </i>
   </energy>
  </scstep>
  <scstep>
   <time name="diag">   89.45   90.46</time>
   <time name="diis">  363.39  367.26</time>
   <time name="orth">    3.07    3.09</time>
   <time name="total">  493.04  498.53</time>
   <energy>
    <i name="e_fr_energy">    -36.85897619 </i>
    <i name="e_wo_entrp">    -36.85897617 </i>
    <i name="e_0_energy">    -36.85897618 </i>
   </energy>
  </scstep>
  <scstep>
   <time name="diag">   89.50   90.45</time>
   <time name="diis">  372.00  375.92</time>
   <time name="orth">    3.09    3.09</time>
   <time name="total">  501.82  507.17</time>
   <energy>
    <i name="e_fr_energy">    -36.85898234 </i>
    <i name="e_wo_entrp">    -36.85898233 </i>
    <i name="e_0_energy">    -36.85898234 </i>
   </energy>
  </scstep>
  <scstep>
   <time name="diag">   89.91   90.56</time>
   <time name="diis">  365.09  365.70</time>
   <time name="orth">    3.08    3.09</time>
   <time name="total">  495.57  497.12</time>
   <energy>
    <i name="e_fr_energy">    -36.85898342 </i>
    <i name="e_wo_entrp">    -36.85898340 </i>
    <i name="e_0_energy">    -36.85898341 </i>
   </energy>
  </scstep>
  <scstep>
   <time name="diag">   89.73   90.48</time>
   <time name="diis">  356.43  358.90</time>
   <time name="orth">    3.09    3.09</time>
   <time name="total">  486.89  490.26</time>
   <energy>
    <i name="e_fr_energy">    -36.85898416 </i>
    <i name="e_wo_entrp">    -36.85898414 </i>
    <i name="e_0_energy">    -36.85898415 </i>
   </energy>
  </scstep>
  <scstep>
   <time name="diag">   90.15   90.46</time>
   <time name="diis">  285.62  288.69</time>
   <time name="orth">    3.06    3.09</time>
   <time name="total">  416.19  420.06</time>
   <energy>
    <i name="e_fr_energy">    -36.85898421 </i>
    <i name="e_wo_entrp">    -36.85898419 </i>
    <i name="e_0_energy">    -36.85898420 </i>
   </energy>
  </scstep>
  <scstep>
   <time name="diag">   89.70   90.48</time>
   <time name="diis">  275.86  277.05</time>
   <time name="orth">    3.07    3.09</time>
   <time name="total">  406.05  408.23</time>
   <energy>
    <i name="e_fr_energy">    -36.85898422 </i>
    <i name="e_wo_entrp">    -36.85898420 </i>
    <i name="e_0_energy">    -36.85898421 </i>
   </energy>
  </scstep>
  <scstep>
   <time name="diag">   90.22   90.52</time>
   <time name="diis">  250.40  251.27</time>
   <time name="orth">    3.07    3.07</time>
   <time name="total">  381.32  382.66</time>
   <energy>
    <i name="e_fr_energy">    -36.85898422 </i>
    <i name="e_wo_entrp">    -36.85898420 </i>
    <i name="e_0_energy">    -36.85898421 </i>
   </energy>
  </scstep>
  <scstep>
   <time name="diag">   90.18   90.43</time>
   <time name="diis">  239.96  241.22</time>
   <time name="orth">    3.07    3.09</time>
   <time name="total">  370.55  372.35</time>
   <energy>
    <i name="e_fr_energy">    -36.85898422 </i>
    <i name="e_wo_entrp">    -36.85898420 </i>
    <i name="e_0_energy">    -36.85898421 </i>
   </energy>
  </scstep>
  <scstep>
   <time name="diag">   89.85   90.42</time>
   <time name="diis">  229.61  229.99</time>
   <time name="orth">    3.09    3.09</time>
   <time name="total">  325.22  326.21</time>
   <energy>
    <i name="alphaZ">      6.18334092 </i>
    <i name="ewald">   2450.60220234 </i>
    <i name="hartreedc">  -2944.88498461 </i>
    <i name="XCdc">     57.14466520 </i>
    <i name="pawpsdc">    268.88367671 </i>
    <i name="pawaedc">   -273.99545683 </i>
    <i name="eentropy">     -0.00000002 </i>
    <i name="bandstr">   -189.41595483 </i>
    <i name="atom">    588.62352690 </i>
    <i name="e_fr_energy">    -36.85898422 </i>
    <i name="e_wo_entrp">    -36.85898420 </i>
    <i name="e_0_energy">    -36.85898421 </i>
   </energy>
  </scstep>
  <structure>
   <crystal>
    <varray name="basis" >
     <v>       4.25525659       0.00000000       0.00000000 </v>
     <v>       0.00000000       2.52873809       0.00000000 </v>
     <v>       0.00000000       0.00000000      19.59381856 </v>
    </varray>
    <i name="volume">    210.83790140 </i>
    <varray name="rec_basis" >
     <v>       0.23500346       0.00000000       0.00000000 </v>
     <v>       0.00000000       0.39545416       0.00000000 </v>
     <v>       0.00000000       0.00000000       0.05103650 </v>
    </varray>
   </crystal>
   <varray name="positions" >
    <v>       0.00063729       0.00000000       0.00000000 </v>
    <v>       0.16602938       0.50000000       0.00000000 </v>
    <v>       0.50063729       0.50000000       0.00000000 </v>
    <v>       0.66602938       0.00000000       0.00000000 </v>
   </varray>
  </structure>
  <varray name="forces" >
   <v>      -0.00154585      -0.00000000       0.00000000 </v>
   <v>       0.00154585       0.00000000       0.00000000 </v>
   <v>      -0.00154585      -0.00000000       0.00000000 </v>
   <v>       0.00154585       0.00000000       0.00000000 </v>
  </varray>
  <varray name="stress" >
   <v>      -0.01077615       0.00000000       0.00000000 </v>
   <v>       0.00000000     -40.74463566       0.00000000 </v>
   <v>       0.00000000       0.00000000      -0.01017971 </v>
  </varray>
  <energy>
   <i name="e_fr_energy">    -36.85898422 </i>
   <i name="e_wo_entrp">    -36.85898421 </i>
   <i name="e_0_energy">     -0.00000002 </i>
  </energy>
  <time name="totalsc">11274.6911332.08</time>
 </calculation>
 <calculation>
  <scstep>
   <time name="dav">  334.63  335.68</time>
   <time name="total">  372.21  373.47</time>
   <energy>
    <i name="alphaZ">      6.18334092 </i>
    <i name="ewald">   2450.60377931 </i>
    <i name="hartreedc">  -2944.88568116 </i>
    <i name="XCdc">     57.14471074 </i>
    <i name="pawpsdc">    268.88368673 </i>
    <i name="pawaedc">   -273.99546698 </i>
    <i name="eentropy">     -0.00000001 </i>
    <i name="bandstr">   -189.41687996 </i>
    <i name="atom">    588.62352690 </i>
    <i name="e_fr_energy">    -36.85898351 </i>
    <i name="e_wo_entrp">    -36.85898350 </i>
    <i name="e_0_energy">    -36.85898350 </i>
   </energy>
  </scstep>
  <scstep>
   <time name="diag">   90.01   90.50</time>
   <time name="diis">  367.23  369.13</time>
   <time name="orth">    3.09    3.09</time>
   <time name="total">  498.02  500.48</time>
   <energy>
    <i name="e_fr_energy">    -36.85898356 </i>
    <i name="e_wo_entrp">    -36.85898355 </i>
    <i name="e_0_energy">    -36.85898356 </i>
   </energy>
  </scstep>
  <scstep>
   <time name="diag">   90.49   90.51</time>
   <time name="diis">  373.26  373.38</time>
   <time name="orth">    3.09    3.09</time>
   <time name="total">  504.67  504.85</time>
   <energy>
    <i name="e_fr_energy">    -36.85898355 </i>
    <i name="e_wo_entrp">    -36.85898353 </i>
    <i name="e_0_energy">    -36.85898354 </i>
   </energy>
  </scstep>
  <scstep>
   <time name="diag">   90.49   90.51</time>
   <time name="diis">  377.20  377.33</time>
   <time name="orth">    3.09    3.09</time>
   <time name="total">  508.44  508.65</time>
   <energy>
    <i name="e_fr_energy">    -36.85898354 </i>
    <i name="e_wo_entrp">    -36.85898353 </i>
    <i name="e_0_energy">    -36.85898354 </i>
   </energy>
  </scstep>
  <scstep>
   <time name="diag">   89.99   90.60</time>
   <time name="diis">  323.34  324.03</time>
   <time name="orth">    3.07    3.09</time>
   <time name="total">  454.23  455.86</time>
   <energy>
    <i name="e_fr_energy">    -36.85898354 </i>
    <i name="e_wo_entrp">    -36.85898353 </i>
    <i name="e_0_energy">    -36.85898354 </i>
   </energy>
  </scstep>
  <scstep>
   <time name="diag">   90.02   90.65</time>
   <time name="diis">  248.88  250.54</time>
   <time name="orth">    3.07    3.07</time>
   <time name="total">  379.61  382.74</time>
   <energy>
    <i name="e_fr_energy">    -36.85898354 </i>
    <i name="e_wo_entrp">    -36.85898353 </i>
    <i name="e_0_energy">    -36.85898354 </i>
   </energy>
  </scstep>
  <scstep>
   <time name="diag">   89.94   90.62</time>
   <time name="diis">  244.80  247.52</time>
   <time name="orth">    3.07    3.07</time>
   <time name="total">  340.47  343.99</time>
   <energy>
    <i name="alphaZ">      6.18334092 </i>
    <i name="ewald">   2450.60377931 </i>
    <i name="hartreedc">  -2944.88631042 </i>
    <i name="XCdc">     57.14473758 </i>
    <i name="pawpsdc">    268.88641473 </i>
    <i name="pawaedc">   -273.99820697 </i>
    <i name="eentropy">     -0.00000001 </i>
    <i name="bandstr">   -189.41626559 </i>
    <i name="atom">    588.62352690 </i>
    <i name="e_fr_energy">    -36.85898354 </i>
    <i name="e_wo_entrp">    -36.85898353 </i>
    <i name="e_0_energy">    -36.85898354 </i>
   </energy>
  </scstep>
  <structure>
   <crystal>
    <varray name="basis" >
     <v>       4.25525659       0.00000000       0.00000000 </v>
     <v>       0.00000000       2.52873809       0.00000000 </v>
     <v>       0.00000000       0.00000000      19.59381856 </v>
    </varray>
    <i name="volume">    210.83790140 </i>
    <varray name="rec_basis" >
     <v>       0.23500346       0.00000000       0.00000000 </v>
     <v>       0.00000000       0.39545416       0.00000000 </v>
     <v>       0.00000000       0.00000000       0.05103650 </v>
    </varray>
   </crystal>
   <varray name="positions" >
    <v>       0.00061976      -0.00000000       0.00000000 </v>
    <v>       0.16604690       0.50000000       0.00000000 </v>
    <v>       0.50061976       0.50000000       0.00000000 </v>
    <v>       0.66604690       0.00000000       0.00000000 </v>
   </varray>
  </structure>
  <varray name="forces" >
   <v>       0.00617153       0.00000000       0.00000000 </v>
   <v>      -0.00617153      -0.00000000      -0.00000000 </v>
   <v>       0.00617153       0.00000000       0.00000000 </v>
   <v>      -0.00617153       0.00000000      -0.00000000 </v>
  </varray>
  <varray name="stress" >
   <v>       0.01997608       0.00000000       0.00000000 </v>
   <v>       0.00000000     -40.76304109       0.00000000 </v>
   <v>       0.00000000       0.00000000      -0.01012800 </v>
  </varray>
  <energy>
   <i name="e_fr_energy">    -36.85898354 </i>
   <i name="e_wo_entrp">    -36.85898354 </i>
   <i name="e_0_energy">     -0.00000001 </i>
  </energy>
  <time name="totalsc"> 3164.55 3177.97</time>
 </calculation>
 <calculation>
  <scstep>
   <time name="dav">  351.81  353.35</time>
   <time name="total">  389.63  391.21</time>
   <energy>
    <i name="alphaZ">      6.18334092 </i>
    <i name="ewald">   2450.60251760 </i>
    <i name="hartreedc">  -2944.88577015 </i>
    <i name="XCdc">     57.14470152 </i>
    <i name="pawpsdc">    268.88640497 </i>
    <i name="pawaedc">   -273.99819719 </i>
    <i name="eentropy">     -0.00000002 </i>
    <i name="bandstr">   -189.41550884 </i>
    <i name="atom">    588.62352690 </i>
    <i name="e_fr_energy">    -36.85898427 </i>
    <i name="e_wo_entrp">    -36.85898426 </i>
    <i name="e_0_energy">    -36.85898427 </i>
   </energy>
  </scstep>
  <scstep>
   <time name="diag">   90.48   90.51</time>
   <time name="diis">  364.90  365.30</time>
   <time name="orth">    3.08    3.08</time>
   <time name="total">  495.33  496.10</time>
   <energy>
    <i name="e_fr_energy">    -36.85898430 </i>
    <i name="e_wo_entrp">    -36.85898428 </i>
    <i name="e_0_energy">    -36.85898429 </i>
   </energy>
  </scstep>
  <scstep>
   <time name="diag">   90.48   90.50</time>
   <time name="diis">  368.73  368.84</time>
   <time name="orth">    3.13    3.13</time>
   <time name="total">  499.39  499.54</time>
   <energy>
    <i name="e_fr_energy">    -36.85898427 </i>
    <i name="e_wo_entrp">    -36.85898425 </i>
    <i name="e_0_energy">    -36.85898426 </i>
   </energy>
  </scstep>
  <scstep>
   <time name="diag">   90.25   90.50</time>
   <time name="diis">  372.47  374.06</time>
   <time name="orth">    3.07    3.07</time>
   <time name="total">  502.90  504.81</time>
   <energy>
    <i name="e_fr_energy">    -36.85898427 </i>
    <i name="e_wo_entrp">    -36.85898425 </i>
    <i name="e_0_energy">    -36.85898426 </i>
   </energy>
  </scstep>
  <scstep>
   <time name="diag">   90.51   90.53</time>
   <time name="diis">  288.50  288.55</time>
   <time name="orth">    3.07    3.07</time>
   <time name="total">  418.44  418.63</time>
   <energy>
    <i name="e_fr_energy">    -36.85898427 </i>
    <i name="e_wo_entrp">    -36.85898425 </i>
    <i name="e_0_energy">    -36.85898426 </i>
   </energy>
  </scstep>
  <scstep>
   <time name="diag">   90.39   90.41</time>
   <time name="diis">  241.62  241.68</time>
   <time name="orth">    3.09    3.09</time>
   <time name="total">  372.07  372.20</time>
   <energy>
    <i name="e_fr_energy">    -36.85898427 </i>
    <i name="e_wo_entrp">    -36.85898425 </i>
    <i name="e_0_energy">    -36.85898426 </i>
   </energy>
  </scstep>
  <scstep>
   <time name="diag">   90.37   90.40</time>
   <time name="diis">  241.15  241.22</time>
   <time name="orth">    3.11    3.11</time>
   <time name="total">  337.38  337.48</time>
   <energy>
    <i name="alphaZ">      6.18334092 </i>
    <i name="ewald">   2450.60251760 </i>
    <i name="hartreedc">  -2944.88528791 </i>
    <i name="XCdc">     57.14468008 </i>
    <i name="pawpsdc">    268.88421488 </i>
    <i name="pawaedc">   -273.99599744 </i>
    <i name="eentropy">     -0.00000002 </i>
    <i name="bandstr">   -189.41597929 </i>
    <i name="atom">    588.62352690 </i>
    <i name="e_fr_energy">    -36.85898427 </i>
    <i name="e_wo_entrp">    -36.85898425 </i>
    <i name="e_0_energy">    -36.85898426 </i>
   </energy>
  </scstep>
  <structure>
   <crystal>
    <varray name="basis" >
     <v>       4.25525659       0.00000000       0.00000000 </v>
     <v>       0.00000000       2.52873809       0.00000000 </v>
     <v>       0.00000000       0.00000000      19.59381856 </v>
    </varray>
    <i name="volume">    210.83790140 </i>
    <varray name="rec_basis" >
     <v>       0.23500346       0.00000000       0.00000000 </v>
     <v>       0.00000000       0.39545416       0.00000000 </v>
     <v>       0.00000000       0.00000000       0.05103650 </v>
    </varray>
   </crystal>
   <varray name="positions" >
    <v>       0.00063378      -0.00000000       0.00000000 </v>
    <v>       0.16603289       0.50000000      -0.00000000 </v>
    <v>       0.50063378       0.50000000       0.00000000 </v>
    <v>       0.66603289       0.00000000      -0.00000000 </v>
   </varray>
  </structure>
  <varray name="forces" >
   <v>       0.00000893       0.00000000       0.00000000 </v>
   <v>      -0.00000893       0.00000000       0.00000000 </v>
   <v>       0.00000893      -0.00000000       0.00000000 </v>
   <v>      -0.00000893       0.00000000       0.00000000 </v>
  </varray>
  <varray name="stress" >
   <v>      -0.00455726       0.00000000       0.00000000 </v>
   <v>       0.00000000     -40.74837072       0.00000000 </v>
   <v>       0.00000000       0.00000000      -0.01020941 </v>
  </varray>
  <energy>
   <i name="e_fr_energy">    -36.85898427 </i>
   <i name="e_wo_entrp">    -36.85898426 </i>
   <i name="e_0_energy">     -0.00000002 </i>
  </energy>
  <time name="totalsc"> 3123.84 3129.04</time>
 </calculation>
 <calculation>
  <scstep>
   <time name="dav">  282.06  282.27</time>
   <time name="total">  319.16  319.38</time>
   <energy>
    <i name="alphaZ">      6.18334092 </i>
    <i name="ewald">   2450.60251578 </i>
    <i name="hartreedc">  -2944.88528080 </i>
    <i name="XCdc">     57.14467997 </i>
    <i name="pawpsdc">    268.88422380 </i>
    <i name="pawaedc">   -273.99600636 </i>
    <i name="eentropy">     -0.00000002 </i>
    <i name="bandstr">   -189.41598446 </i>
    <i name="atom">    588.62352690 </i>
    <i name="e_fr_energy">    -36.85898427 </i>
    <i name="e_wo_entrp">    -36.85898425 </i>
    <i name="e_0_energy">    -36.85898426 </i>
   </energy>
  </scstep>
  <scstep>
   <time name="diag">   90.26   90.41</time>
   <time name="diis">  220.68  220.76</time>
   <time name="orth">    3.09    3.09</time>
   <time name="total">  351.36  351.64</time>
   <energy>
    <i name="e_fr_energy">    -36.85898427 </i>
    <i name="e_wo_entrp">    -36.85898425 </i>
    <i name="e_0_energy">    -36.85898426 </i>
   </energy>
  </scstep>
  <scstep>
   <time name="diag">   90.42   90.45</time>
   <time name="diis">  209.70  209.73</time>
   <time name="orth">    3.09    3.09</time>
   <time name="total">  339.81  339.97</time>
   <energy>
    <i name="e_fr_energy">    -36.85898427 </i>
    <i name="e_wo_entrp">    -36.85898425 </i>
    <i name="e_0_energy">    -36.85898426 </i>
   </energy>
  </scstep>
  <scstep>
   <time name="diag">   90.41   90.43</time>
   <time name="diis">  202.74  202.78</time>
   <time name="orth">    3.09    3.09</time>
   <time name="total">  333.11  333.18</time>
   <energy>
    <i name="e_fr_energy">    -36.85898427 </i>
    <i name="e_wo_entrp">    -36.85898425 </i>
    <i name="e_0_energy">    -36.85898426 </i>
   </energy>
  </scstep>
  <scstep>
   <time name="diag">   90.39   90.41</time>
   <time name="diis">  197.20  197.27</time>
   <time name="orth">    3.07    3.07</time>
   <time name="total">  327.64  327.77</time>
   <energy>
    <i name="e_fr_energy">    -36.85898427 </i>
    <i name="e_wo_entrp">    -36.85898425 </i>
    <i name="e_0_energy">    -36.85898426 </i>
   </energy>
  </scstep>
  <scstep>
   <time name="diag">   90.41   90.46</time>
   <time name="diis">  191.99  192.04</time>
   <time name="orth">    3.09    3.09</time>
   <time name="total">  322.41  322.51</time>
   <energy>
    <i name="e_fr_energy">    -36.85898427 </i>
    <i name="e_wo_entrp">    -36.85898425 </i>
    <i name="e_0_energy">    -36.85898426 </i>
   </energy>
  </scstep>
  <scstep>
   <time name="diag">   90.49   90.51</time>
   <time name="diis">  185.50  185.53</time>
   <time name="orth">    3.09    3.09</time>
   <time name="total">  315.90  316.05</time>
   <energy>
    <i name="e_fr_energy">    -36.85898427 </i>
    <i name="e_wo_entrp">    -36.85898425 </i>
    <i name="e_0_energy">    -36.85898426 </i>
   </energy>
  </scstep>
  <scstep>
   <time name="diag">   90.48   90.51</time>
   <time name="diis">  179.16  179.20</time>
   <time name="orth">    3.09    3.09</time>
   <time name="total">  275.48  275.56</time>
   <energy>
    <i name="alphaZ">      6.18334092 </i>
    <i name="ewald">   2450.60251578 </i>
    <i name="hartreedc">  -2944.88526121 </i>
    <i name="XCdc">     57.14467985 </i>
    <i name="pawpsdc">    268.88422348 </i>
    <i name="pawaedc">   -273.99600608 </i>
    <i name="eentropy">     -0.00000002 </i>
    <i name="bandstr">   -189.41600390 </i>
    <i name="atom">    588.62352690 </i>
    <i name="e_fr_energy">    -36.85898427 </i>
    <i name="e_wo_entrp">    -36.85898425 </i>
    <i name="e_0_energy">    -36.85898426 </i>
   </energy>
  </scstep>
  <structure>
   <crystal>
    <varray name="basis" >
     <v>       4.25525659       0.00000000       0.00000000 </v>
     <v>       0.00000000       2.52873809       0.00000000 </v>
     <v>       0.00000000       0.00000000      19.59381856 </v>
    </varray>
    <i name="volume">    210.83790140 </i>
    <varray name="rec_basis" >
     <v>       0.23500346       0.00000000       0.00000000 </v>
     <v>       0.00000000       0.39545416       0.00000000 </v>
     <v>       0.00000000       0.00000000       0.05103650 </v>
    </varray>
   </crystal>
   <varray name="positions" >
    <v>       0.00063380      -0.00000000       0.00000000 </v>
    <v>       0.16603287       0.50000000      -0.00000000 </v>
    <v>       0.50063380       0.50000000       0.00000000 </v>
    <v>       0.66603287       0.00000000      -0.00000000 </v>
   </varray>
  </structure>
  <varray name="forces" >
   <v>      -0.00001042       0.00000000       0.00000000 </v>
   <v>       0.00001042      -0.00000000      -0.00000000 </v>
   <v>      -0.00001042      -0.00000000       0.00000000 </v>
   <v>       0.00001042       0.00000000      -0.00000000 </v>
  </varray>
  <varray name="stress" >
   <v>      -0.00464343       0.00000000       0.00000000 </v>
   <v>       0.00000000     -40.74829454       0.00000000 </v>
   <v>       0.00000000       0.00000000      -0.01018330 </v>
  </varray>
  <energy>
   <i name="e_fr_energy">    -36.85898427 </i>
   <i name="e_wo_entrp">    -36.85898426 </i>
   <i name="e_0_energy">     -0.00000002 </i>
  </energy>
  <time name="totalsc"> 2692.03 2693.32</time>
 </calculation>
 <calculation>
  <scstep>
   <time name="dav">  284.82  285.01</time>
   <time name="total">  321.17  321.37</time>
   <energy>
    <i name="alphaZ">      6.18334092 </i>
    <i name="ewald">   2450.60251676 </i>
    <i name="hartreedc">  -2944.88526162 </i>
    <i name="XCdc">     57.14467987 </i>
    <i name="pawpsdc">    268.88422348 </i>
    <i name="pawaedc">   -273.99600608 </i>
    <i name="eentropy">     -0.00000002 </i>
    <i name="bandstr">   -189.41600450 </i>
    <i name="atom">    588.62352690 </i>
    <i name="e_fr_energy">    -36.85898427 </i>
    <i name="e_wo_entrp">    -36.85898425 </i>
    <i name="e_0_energy">    -36.85898426 </i>
   </energy>
  </scstep>
  <scstep>
   <time name="diag">   90.45   90.46</time>
   <time name="diis">  168.79  168.82</time>
   <time name="orth">    3.09    3.09</time>
   <time name="total">  300.47  300.53</time>
   <energy>
    <i name="e_fr_energy">    -36.85898427 </i>
    <i name="e_wo_entrp">    -36.85898425 </i>
    <i name="e_0_energy">    -36.85898426 </i>
   </energy>
  </scstep>
  <scstep>
   <time name="diag">   90.50   90.52</time>
   <time name="diis">  168.14  168.17</time>
   <time name="orth">    3.09    3.09</time>
   <time name="total">  299.87  299.95</time>
   <energy>
    <i name="e_fr_energy">    -36.85898427 </i>
    <i name="e_wo_entrp">    -36.85898425 </i>
    <i name="e_0_energy">    -36.85898426 </i>
   </energy>
  </scstep>
  <scstep>
   <time name="diag">   90.54   90.55</time>
   <time name="diis">  166.79  167.55</time>
   <time name="orth">    3.07    3.09</time>
   <time name="total">  298.43  299.41</time>
   <energy>
    <i name="e_fr_energy">    -36.85898427 </i>
    <i name="e_wo_entrp">    -36.85898425 </i>
    <i name="e_0_energy">    -36.85898426 </i>
   </energy>
  </scstep>
  <scstep>
   <time name="diag">   90.31   90.58</time>
   <time name="diis">  167.26  167.29</time>
   <time name="orth">    3.07    3.07</time>
   <time name="total">  298.82  299.14</time>
   <energy>
    <i name="e_fr_energy">    -36.85898427 </i>
    <i name="e_wo_entrp">    -36.85898425 </i>
    <i name="e_0_energy">    -36.85898426 </i>
   </energy>
  </scstep>
  <scstep>
   <time name="diag">   90.60   90.62</time>
   <time name="diis">  163.60  163.64</time>
   <time name="orth">    3.07    3.07</time>
   <time name="total">  260.02  260.10</time>
   <energy>
    <i name="alphaZ">      6.18334092 </i>
    <i name="ewald">   2450.60251676 </i>
    <i name="hartreedc">  -2944.88526428 </i>
    <i name="XCdc">     57.14467997 </i>
    <i name="pawpsdc">    268.88422704 </i>
    <i name="pawaedc">   -273.99600966 </i>
    <i name="eentropy">     -0.00000002 </i>
    <i name="bandstr">   -189.41600191 </i>
    <i name="atom">    588.62352690 </i>
    <i name="e_fr_energy">    -36.85898427 </i>
    <i name="e_wo_entrp">    -36.85898425 </i>
    <i name="e_0_energy">    -36.85898426 </i>
   </energy>
  </scstep>
  <structure>
   <crystal>
    <varray name="basis" >
     <v>       4.25525659       0.00000000       0.00000000 </v>
     <v>       0.00000000       2.52873809       0.00000000 </v>
     <v>       0.00000000       0.00000000      19.59381856 </v>
    </varray>
    <i name="volume">    210.83790140 </i>
    <varray name="rec_basis" >
     <v>       0.23500346       0.00000000       0.00000000 </v>
     <v>       0.00000000       0.39545416       0.00000000 </v>
     <v>       0.00000000       0.00000000       0.05103650 </v>
    </varray>
   </crystal>
   <varray name="positions" >
    <v>       0.00063379      -0.00000000       0.00000000 </v>
    <v>       0.16603288       0.50000000      -0.00000000 </v>
    <v>       0.50063379       0.50000000       0.00000000 </v>
    <v>       0.66603288       0.00000000      -0.00000000 </v>
   </varray>
  </structure>
  <varray name="forces" >
   <v>      -0.00000154      -0.00000000       0.00000000 </v>
   <v>       0.00000154       0.00000000      -0.00000000 </v>
   <v>      -0.00000154      -0.00000000       0.00000000 </v>
   <v>       0.00000154       0.00000000      -0.00000000 </v>
  </varray>
  <varray name="stress" >
   <v>      -0.00461073       0.00000000       0.00000000 </v>
   <v>       0.00000000     -40.74832398       0.00000000 </v>
   <v>       0.00000000       0.00000000      -0.01017036 </v>
  </varray>
  <energy>
   <i name="e_fr_energy">    -36.85898427 </i>
   <i name="e_wo_entrp">    -36.85898426 </i>
   <i name="e_0_energy">     -0.00000002 </i>
  </energy>
  <time name="totalsc"> 1887.30 1889.11</time>
 </calculation>
 <calculation>
  <scstep>
   <time name="dav">  275.54  275.64</time>
   <time name="total">  313.69  313.80</time>
   <energy>
    <i name="alphaZ">      6.18334092 </i>
    <i name="ewald">   2450.60251693 </i>
    <i name="hartreedc">  -2944.88526446 </i>
    <i name="XCdc">     57.14467997 </i>
    <i name="pawpsdc">    268.88422706 </i>
    <i name="pawaedc">   -273.99600968 </i>
    <i name="eentropy">     -0.00000002 </i>
    <i name="bandstr">   -189.41600191 </i>
    <i name="atom">    588.62352690 </i>
    <i name="e_fr_energy">    -36.85898427 </i>
    <i name="e_wo_entrp">    -36.85898425 </i>
    <i name="e_0_energy">    -36.85898426 </i>
   </energy>
  </scstep>
  <scstep>
   <time name="diag">   90.43   90.55</time>
   <time name="diis">  142.56  142.66</time>
   <time name="orth">    3.08    3.09</time>
   <time name="total">  274.24  274.47</time>
   <energy>
    <i name="e_fr_energy">    -36.85898427 </i>
    <i name="e_wo_entrp">    -36.85898425 </i>
    <i name="e_0_energy">    -36.85898426 </i>
   </energy>
  </scstep>
  <scstep>
   <time name="diag">   90.45   90.50</time>
   <time name="diis">  147.37  147.48</time>
   <time name="orth">    3.09    3.09</time>
   <time name="total">  279.03  279.23</time>
   <energy>
    <i name="e_fr_energy">    -36.85898427 </i>
    <i name="e_wo_entrp">    -36.85898425 </i>
    <i name="e_0_energy">    -36.85898426 </i>
   </energy>
  </scstep>
  <scstep>
   <time name="diag">   89.80   90.53</time>
   <time name="diis">  142.42  143.45</time>
   <time name="orth">    3.07    3.09</time>
   <time name="total">  273.04  275.25</time>
   <energy>
    <i name="e_fr_energy">    -36.85898427 </i>
    <i name="e_wo_entrp">    -36.85898425 </i>
    <i name="e_0_energy">    -36.85898426 </i>
   </energy>
  </scstep>
  <scstep>
   <time name="diag">   90.21   90.58</time>
   <time name="diis">  146.28  147.25</time>
   <time name="orth">    3.07    3.08</time>
   <time name="total">  242.32  243.68</time>
   <energy>
    <i name="alphaZ">      6.18334092 </i>
    <i name="ewald">   2450.60251693 </i>
    <i name="hartreedc">  -2944.88526405 </i>
    <i name="XCdc">     57.14467996 </i>
    <i name="pawpsdc">    268.88422697 </i>
    <i name="pawaedc">   -273.99600959 </i>
    <i name="eentropy">     -0.00000002 </i>
    <i name="bandstr">   -189.41600230 </i>
    <i name="atom">    588.62352690 </i>
    <i name="e_fr_energy">    -36.85898427 </i>
    <i name="e_wo_entrp">    -36.85898425 </i>
    <i name="e_0_energy">    -36.85898426 </i>
   </energy>
  </scstep>
  <structure>
   <crystal>
    <varray name="basis" >
     <v>       4.25525659       0.00000000       0.00000000 </v>
     <v>       0.00000000       2.52873809       0.00000000 </v>
     <v>       0.00000000       0.00000000      19.59381856 </v>
    </varray>
    <i name="volume">    210.83790140 </i>
    <varray name="rec_basis" >
     <v>       0.23500346       0.00000000       0.00000000 </v>
     <v>       0.00000000       0.39545416       0.00000000 </v>
     <v>       0.00000000       0.00000000       0.05103650 </v>
    </varray>
   </crystal>
   <varray name="positions" >
    <v>       0.00063379      -0.00000000       0.00000000 </v>
    <v>       0.16603288       0.50000000      -0.00000000 </v>
    <v>       0.50063379       0.50000000       0.00000000 </v>
    <v>       0.66603288       0.00000000      -0.00000000 </v>
   </varray>
  </structure>
  <varray name="forces" >
   <v>      -0.00000112      -0.00000000      -0.00000000 </v>
   <v>       0.00000112       0.00000000       0.00000000 </v>
   <v>      -0.00000112       0.00000000      -0.00000000 </v>
   <v>       0.00000112      -0.00000000       0.00000000 </v>
  </varray>
  <varray name="stress" >
   <v>      -0.00460926       0.00000000       0.00000000 </v>
   <v>       0.00000000     -40.74832167       0.00000000 </v>
   <v>       0.00000000       0.00000000      -0.01017609 </v>
  </varray>
  <energy>
   <i name="e_fr_energy">    -36.85898427 </i>
   <i name="e_wo_entrp">    -36.85898426 </i>
   <i name="e_0_energy">     -0.00000002 </i>
  </energy>
  <time name="totalsc"> 1490.80 1495.64</time>
 </calculation>
 <calculation>
  <scstep>
   <time name="dav">  286.41  288.07</time>
   <time name="total">  323.92  325.96</time>
   <energy>
    <i name="alphaZ">      6.18334092 </i>
    <i name="ewald">   2450.60251739 </i>
    <i name="hartreedc">  -2944.88526423 </i>
    <i name="XCdc">     57.14467997 </i>
    <i name="pawpsdc">    268.88422698 </i>
    <i name="pawaedc">   -273.99600960 </i>
    <i name="eentropy">     -0.00000002 </i>
    <i name="bandstr">   -189.41600259 </i>
    <i name="atom">    588.62352690 </i>
    <i name="e_fr_energy">    -36.85898427 </i>
    <i name="e_wo_entrp">    -36.85898425 </i>
    <i name="e_0_energy">    -36.85898426 </i>
   </energy>
  </scstep>
  <scstep>
   <time name="diag">   90.01   90.57</time>
   <time name="diis">  125.31  126.13</time>
   <time name="orth">    3.07    3.09</time>
   <time name="total">  255.77  257.39</time>
   <energy>
    <i name="e_fr_energy">    -36.85898427 </i>
    <i name="e_wo_entrp">    -36.85898425 </i>
    <i name="e_0_energy">    -36.85898426 </i>
   </energy>
  </scstep>
  <scstep>
   <time name="diag">   89.96   90.58</time>
   <time name="diis">  123.86  124.69</time>
   <time name="orth">    3.07    3.07</time>
   <time name="total">  254.16  255.96</time>
   <energy>
    <i name="e_fr_energy">    -36.85898427 </i>
    <i name="e_wo_entrp">    -36.85898425 </i>
    <i name="e_0_energy">    -36.85898426 </i>
   </energy>
  </scstep>
  <scstep>
   <time name="diag">   90.08   90.60</time>
   <time name="diis">  116.83  116.91</time>
   <time name="orth">    3.08    3.09</time>
   <time name="total">  247.47  248.34</time>
   <energy>
    <i name="e_fr_energy">    -36.85898427 </i>
    <i name="e_wo_entrp">    -36.85898425 </i>
    <i name="e_0_energy">    -36.85898426 </i>
   </energy>
  </scstep>
  <scstep>
   <time name="diag">   90.29   91.14</time>
   <time name="diis">  119.93  120.86</time>
   <time name="orth">    3.07    3.07</time>
   <time name="total">  216.03  217.85</time>
   <energy>
    <i name="alphaZ">      6.18334092 </i>
    <i name="ewald">   2450.60251739 </i>
    <i name="hartreedc">  -2944.88526487 </i>
    <i name="XCdc">     57.14467999 </i>
    <i name="pawpsdc">    268.88422818 </i>
    <i name="pawaedc">   -273.99601080 </i>
    <i name="eentropy">     -0.00000002 </i>
    <i name="bandstr">   -189.41600198 </i>
    <i name="atom">    588.62352690 </i>
    <i name="e_fr_energy">    -36.85898427 </i>
    <i name="e_wo_entrp">    -36.85898425 </i>
    <i name="e_0_energy">    -36.85898426 </i>
   </energy>
  </scstep>
  <structure>
   <crystal>
    <varray name="basis" >
     <v>       4.25525659       0.00000000       0.00000000 </v>
     <v>       0.00000000       2.52873809       0.00000000 </v>
     <v>       0.00000000       0.00000000      19.59381856 </v>
    </varray>
    <i name="volume">    210.83790140 </i>
    <varray name="rec_basis" >
     <v>       0.23500346       0.00000000       0.00000000 </v>
     <v>       0.00000000       0.39545416       0.00000000 </v>
     <v>       0.00000000       0.00000000       0.05103650 </v>
    </varray>
   </crystal>
   <varray name="positions" >
    <v>       0.00063378      -0.00000000      -0.00000000 </v>
    <v>       0.16603289       0.50000000       0.00000000 </v>
    <v>       0.50063378       0.50000000      -0.00000000 </v>
    <v>       0.66603289       0.00000000       0.00000000 </v>
   </varray>
  </structure>
  <varray name="forces" >
   <v>       0.00000081       0.00000000      -0.00000000 </v>
   <v>      -0.00000081       0.00000000       0.00000000 </v>
   <v>       0.00000081      -0.00000000      -0.00000000 </v>
   <v>      -0.00000081       0.00000000       0.00000000 </v>
  </varray>
  <varray name="stress" >
   <v>      -0.00460360       0.00000000       0.00000000 </v>
   <v>       0.00000000     -40.74832547       0.00000000 </v>
   <v>       0.00000000       0.00000000      -0.01017172 </v>
  </varray>
  <energy>
   <i name="e_fr_energy">    -36.85898427 </i>
   <i name="e_wo_entrp">    -36.85898426 </i>
   <i name="e_0_energy">     -0.00000002 </i>
  </energy>
  <time name="totalsc"> 1400.00 1408.93</time>
  <eigenvalues>
   <array>
    <dimension dim="1">band</dimension>
    <dimension dim="2">kpoint</dimension>
    <dimension dim="3">spin</dimension>
    <field>eigene</field>
    <field>occ</field>
    <set>
     <set comment="spin 1">
      <set comment="kpoint 1">
       <r>  -22.0823    1.0000 </r>
       <r>  -16.7060    1.0000 </r>
       <r>  -15.8651    1.0000 </r>
       <r>  -10.2266    1.0000 </r>
       <r>   -9.4727    1.0000 </r>
       <r>   -5.9903    1.0000 </r>
       <r>   -5.7424    1.0000 </r>
       <r>   -4.9058    1.0000 </r>
       <r>   -1.1426    0.0000 </r>
       <r>    0.5446    0.0000 </r>
       <r>    1.3427    0.0000 </r>
       <r>    1.7360    0.0000 </r>
      </set>
      <set comment="kpoint 2">
       <r>  -22.0719    1.0000 </r>
       <r>  -16.9021    1.0000 </r>
       <r>  -15.6539    1.0000 </r>
       <r>  -10.2143    1.0000 </r>
       <r>   -9.4623    1.0000 </r>
       <r>   -6.0140    1.0000 </r>
       <r>   -5.7826    1.0000 </r>
       <r>   -4.9759    1.0000 </r>
       <r>   -1.0577    0.0000 </r>
       <r>    0.5586    0.0000 </r>
       <r>    1.3569    0.0000 </r>
       <r>    1.7504    0.0000 </r>
      </set>
      <set comment="kpoint 3">
       <r>  -22.0408    1.0000 </r>
       <r>  -17.2685    1.0000 </r>
       <r>  -15.2426    1.0000 </r>
       <r>  -10.1774    1.0000 </r>
       <r>   -9.4311    1.0000 </r>
       <r>   -6.0838    1.0000 </r>
       <r>   -5.9017    1.0000 </r>
       <r>   -5.1692    1.0000 </r>
       <r>   -0.8202    0.0000 </r>
       <r>    0.6008    0.0000 </r>
       <r>    1.3995    0.0000 </r>
       <r>    1.7935    0.0000 </r>
      </set>
      <set comment="kpoint 4">
       <r>  -21.9889    1.0000 </r>
       <r>  -17.6614    1.0000 </r>
       <r>  -14.7751    1.0000 </r>
       <r>  -10.1159    1.0000 </r>
       <r>   -9.3793    1.0000 </r>
       <r>   -6.1959    1.0000 </r>
       <r>   -6.0956    1.0000 </r>
       <r>   -5.4484    1.0000 </r>
       <r>   -0.4678    0.0000 </r>
       <r>    0.6711    0.0000 </r>
       <r>    1.4705    0.0000 </r>
       <r>    1.8654    0.0000 </r>
      </set>
      <set comment="kpoint 5">
       <r>  -21.9164    1.0000 </r>
       <r>  -18.0510    1.0000 </r>
       <r>  -14.2817    1.0000 </r>
       <r>  -10.0300    1.0000 </r>
       <r>   -9.3071    1.0000 </r>
       <r>   -6.3580    1.0000 </r>
       <r>   -6.3444    1.0000 </r>
       <r>   -5.7783    1.0000 </r>
       <r>   -0.0367    0.0000 </r>
       <r>    0.7694    0.0000 </r>
       <r>    1.5698    0.0000 </r>
       <r>    1.9661    0.0000 </r>
      </set>
      <set comment="kpoint 6">
       <r>  -21.8233    1.0000 </r>
       <r>  -18.4291    1.0000 </r>
       <r>  -13.7714    1.0000 </r>
       <r>   -9.9198    1.0000 </r>
       <r>   -9.2149    1.0000 </r>
       <r>   -6.6813    1.0000 </r>
       <r>   -6.5227    1.0000 </r>
       <r>   -6.1337    1.0000 </r>
       <r>    0.4466    0.0000 </r>
       <r>    0.8958    0.0000 </r>
       <r>    1.6974    0.0000 </r>
       <r>    2.0954    0.0000 </r>
      </set>
      <set comment="kpoint 7">
       <r>  -21.7095    1.0000 </r>
[...]
       <r>   -9.0094    1.0000 </r>
       <r>   -5.6632    1.0000 </r>
       <r>   -5.6632    1.0000 </r>
       <r>   -0.5713    0.0000 </r>
       <r>   -0.5713    0.0000 </r>
       <r>    4.8101    0.0000 </r>
       <r>    4.8101    0.0000 </r>
      </set>
      <set comment="kpoint 209">
       <r>  -18.8385    1.0000 </r>
       <r>  -17.1504    1.0000 </r>
       <r>  -13.8609    1.0000 </r>
       <r>  -12.3125    1.0000 </r>
       <r>  -12.3045    1.0000 </r>
       <r>  -10.8492    1.0000 </r>
       <r>   -6.4975    1.0000 </r>
       <r>   -4.6972    1.0000 </r>
       <r>   -0.9965    0.0000 </r>
       <r>    1.0583    0.0000 </r>
       <r>    5.0341    0.0000 </r>
       <r>    5.8233    0.0000 </r>
      </set>
      <set comment="kpoint 210">
       <r>  -18.8288    1.0000 </r>
       <r>  -17.1429    1.0000 </r>
       <r>  -13.9534    1.0000 </r>
       <r>  -12.3919    1.0000 </r>
       <r>  -12.2115    1.0000 </r>
       <r>  -10.7632    1.0000 </r>
       <r>   -6.4887    1.0000 </r>
       <r>   -4.6992    1.0000 </r>
       <r>   -1.0077    0.0000 </r>
       <r>    1.0323    0.0000 </r>
       <r>    5.0479    0.0000 </r>
       <r>    5.8395    0.0000 </r>
      </set>
      <set comment="kpoint 211">
       <r>  -18.7995    1.0000 </r>
       <r>  -17.1210    1.0000 </r>
       <r>  -14.1790    1.0000 </r>
       <r>  -12.6090    1.0000 </r>
       <r>  -11.9604    1.0000 </r>
       <r>  -10.5515    1.0000 </r>
       <r>   -6.4623    1.0000 </r>
       <r>   -4.7059    1.0000 </r>
       <r>   -1.0393    0.0000 </r>
       <r>    0.9563    0.0000 </r>
       <r>    5.0890    0.0000 </r>
       <r>    5.8878    0.0000 </r>
      </set>
      <set comment="kpoint 212">
       <r>  -18.7509    1.0000 </r>
       <r>  -17.0859    1.0000 </r>
       <r>  -14.4622    1.0000 </r>
       <r>  -12.8884    1.0000 </r>
       <r>  -11.6350    1.0000 </r>
       <r>  -10.2831    1.0000 </r>
       <r>   -6.4187    1.0000 </r>
       <r>   -4.7186    1.0000 </r>
       <r>   -1.0861    0.0000 </r>
       <r>    0.8358    0.0000 </r>
       <r>    5.1572    0.0000 </r>
       <r>    5.9671    0.0000 </r>
      </set>
      <set comment="kpoint 213">
       <r>  -18.6831    1.0000 </r>
       <r>  -17.0404    1.0000 </r>
       <r>  -14.7598    1.0000 </r>
       <r>  -13.1925    1.0000 </r>
       <r>  -11.2778    1.0000 </r>
       <r>   -9.9994    1.0000 </r>
       <r>   -6.3585    1.0000 </r>
       <r>   -4.7399    1.0000 </r>
       <r>   -1.1400    0.0000 </r>
       <r>    0.6787    0.0000 </r>
       <r>    5.2517    0.0000 </r>
       <r>    6.0759    0.0000 </r>
      </set>
      <set comment="kpoint 214">
       <r>  -18.5964    1.0000 </r>
       <r>  -16.9895    1.0000 </r>
       <r>  -15.0485    1.0000 </r>
       <r>  -13.5030    1.0000 </r>
       <r>  -10.9108    1.0000 </r>
       <r>   -9.7232    1.0000 </r>
       <r>   -6.2823    1.0000 </r>
       <r>   -4.7726    1.0000 </r>
       <r>   -1.1914    0.0000 </r>
       <r>    0.4941    0.0000 </r>
       <r>    5.3692    0.0000 </r>
       <r>    6.1828    0.0000 </r>
      </set>
      <set comment="kpoint 215">
       <r>  -18.4911    1.0000 </r>
       <r>  -16.9426    1.0000 </r>
       <r>  -15.3100    1.0000 </r>
       <r>  -13.8108    1.0000 </r>
       <r>  -10.5472    1.0000 </r>
       <r>   -9.4696    1.0000 </r>
       <r>   -6.1912    1.0000 </r>
       <r>   -4.8196    1.0000 </r>
       <r>   -1.2308    0.0000 </r>
       <r>    0.2911    0.0000 </r>
       <r>    5.4801    0.0000 </r>
       <r>    5.7772    0.0000 </r>
      </set>
      <set comment="kpoint 216">
       <r>  -18.3678    1.0000 </r>
       <r>  -16.9165    1.0000 </r>
       <r>  -15.5228    1.0000 </r>
       <r>  -14.1101    1.0000 </r>
       <r>  -10.1976    1.0000 </r>
       <r>   -9.2508    1.0000 </r>
       <r>   -6.0866    1.0000 </r>
       <r>   -4.8833    1.0000 </r>
       <r>   -1.2495    0.0000 </r>
       <r>    0.0783    0.0000 </r>
       <r>    5.2988    0.0000 </r>
       <r>    5.7541    0.0000 </r>
      </set>
      <set comment="kpoint 217">
       <r>  -18.2272    1.0000 </r>
       <r>  -16.9353    1.0000 </r>
       <r>  -15.6597    1.0000 </r>
       <r>  -14.3972    1.0000 </r>
       <r>   -9.8715    1.0000 </r>
       <r>   -9.0776    1.0000 </r>
       <r>   -5.9703    1.0000 </r>
       <r>   -4.9647    1.0000 </r>
       <r>   -1.2409    0.0000 </r>
       <r>   -0.1366    0.0000 </r>
       <r>    5.0075    0.0000 </r>
       <r>    5.8260    0.0000 </r>
      </set>
      <set comment="kpoint 218">
       <r>  -18.0706    1.0000 </r>
       <r>  -17.0183    1.0000 </r>
       <r>  -15.7000    1.0000 </r>
       <r>  -14.6689    1.0000 </r>
       <r>   -9.5784    1.0000 </r>
       <r>   -8.9590    1.0000 </r>
       <r>   -5.8443    1.0000 </r>
       <r>   -5.0634    1.0000 </r>
       <r>   -1.2008    0.0000 </r>
       <r>   -0.3465    0.0000 </r>
       <r>    4.7881    0.0000 </r>
       <r>    5.4262    0.0000 </r>
      </set>
      <set comment="kpoint 219">
       <r>  -17.8995    1.0000 </r>
       <r>  -17.1597    1.0000 </r>
       <r>  -15.6481    1.0000 </r>
       <r>  -14.9220    1.0000 </r>
       <r>   -9.3276    1.0000 </r>
       <r>   -8.9021    1.0000 </r>
       <r>   -5.7112    1.0000 </r>
       <r>   -5.1774    1.0000 </r>
       <r>   -1.1279    0.0000 </r>
       <r>   -0.5453    0.0000 </r>
       <r>    4.6584    0.0000 </r>
       <r>    5.0970    0.0000 </r>
      </set>
      <set comment="kpoint 220">
       <r>  -17.7166    1.0000 </r>
       <r>  -17.3362    1.0000 </r>
       <r>  -15.5269    1.0000 </r>
       <r>  -15.1532    1.0000 </r>
       <r>   -9.1281    1.0000 </r>
       <r>   -8.9113    1.0000 </r>
       <r>   -5.5742    1.0000 </r>
       <r>   -5.3032    1.0000 </r>
       <r>   -1.0228    0.0000 </r>
       <r>   -0.7276    0.0000 </r>
       <r>    4.6250    0.0000 </r>
       <r>    4.8485    0.0000 </r>
      </set>
      <set comment="kpoint 221">
       <r>  -17.5263    1.0000 </r>
       <r>  -17.5263    1.0000 </r>
       <r>  -15.3575    1.0000 </r>
       <r>  -15.3575    1.0000 </r>
       <r>   -8.9875    1.0000 </r>
       <r>   -8.9875    1.0000 </r>
       <r>   -5.4369    1.0000 </r>
       <r>   -5.4369    1.0000 </r>
       <r>   -0.8882    0.0000 </r>
       <r>   -0.8882    0.0000 </r>
       <r>    4.6892    0.0000 </r>
       <r>    4.6892    0.0000 </r>
      </set>
      <set comment="kpoint 222">
       <r>  -18.4387    1.0000 </r>
       <r>  -17.5909    1.0000 </r>
       <r>  -13.5005    1.0000 </r>
       <r>  -12.7215    1.0000 </r>
       <r>  -11.9812    1.0000 </r>
       <r>  -11.2449    1.0000 </r>
       <r>   -6.0605    1.0000 </r>
       <r>   -5.1556    1.0000 </r>
       <r>   -0.5145    0.0000 </r>
       <r>    0.5148    0.0000 </r>
       <r>    5.6031    0.0000 </r>
       <r>    6.3610    0.0000 </r>
      </set>
      <set comment="kpoint 223">
       <r>  -18.4292    1.0000 </r>
       <r>  -17.5823    1.0000 </r>
       <r>  -13.5937    1.0000 </r>
       <r>  -12.8116    1.0000 </r>
       <r>  -11.8822    1.0000 </r>
       <r>  -11.1538    1.0000 </r>
       <r>   -6.0530    1.0000 </r>
       <r>   -5.1529    1.0000 </r>
       <r>   -0.5318    0.0000 </r>
       <r>    0.4908    0.0000 </r>
       <r>    5.6168    0.0000 </r>
       <r>    6.3780    0.0000 </r>
      </set>
      <set comment="kpoint 224">
       <r>  -18.4006    1.0000 </r>
       <r>  -17.5566    1.0000 </r>
       <r>  -13.8216    1.0000 </r>
       <r>  -13.0340    1.0000 </r>
       <r>  -11.6374    1.0000 </r>
       <r>  -10.9292    1.0000 </r>
       <r>   -6.0305    1.0000 </r>
       <r>   -5.1451    1.0000 </r>
       <r>   -0.5816    0.0000 </r>
       <r>    0.4207    0.0000 </r>
       <r>    5.6577    0.0000 </r>
       <r>    6.4286    0.0000 </r>
      </set>
      <set comment="kpoint 225">
       <r>  -18.3531    1.0000 </r>
       <r>  -17.5145    1.0000 </r>
       <r>  -14.1099    1.0000 </r>
       <r>  -13.3184    1.0000 </r>
       <r>  -11.3222    1.0000 </r>
       <r>  -10.6429    1.0000 </r>
       <r>   -5.9936    1.0000 </r>
       <r>   -5.1334    1.0000 </r>
       <r>   -0.6586    0.0000 </r>
       <r>    0.3100    0.0000 </r>
       <r>    5.7254    0.0000 </r>
       <r>    6.5114    0.0000 </r>
      </set>
      <set comment="kpoint 226">
       <r>  -18.2870    1.0000 </r>
       <r>  -17.4569    1.0000 </r>
       <r>  -14.4174    1.0000 </r>
       <r>  -13.6261    1.0000 </r>
       <r>  -10.9791    1.0000 </r>
       <r>  -10.3368    1.0000 </r>
       <r>   -5.9430    1.0000 </r>
       <r>   -5.1195    1.0000 </r>
       <r>   -0.7548    0.0000 </r>
       <r>    0.1666    0.0000 </r>
       <r>    5.8183    0.0000 </r>
       <r>    6.6243    0.0000 </r>
      </set>
      <set comment="kpoint 227">
       <r>  -18.2028    1.0000 </r>
       <r>  -17.3858    1.0000 </r>
       <r>  -14.7242    1.0000 </r>
       <r>  -13.9388    1.0000 </r>
       <r>  -10.6303    1.0000 </r>
       <r>  -10.0334    1.0000 </r>
       <r>   -5.8800    1.0000 </r>
       <r>   -5.1061    1.0000 </r>
       <r>   -0.8603    0.0000 </r>
       <r>   -0.0005    0.0000 </r>
       <r>    5.9276    0.0000 </r>
       <r>    6.4523    0.0000 </r>
      </set>
      <set comment="kpoint 228">
       <r>  -18.1010    1.0000 </r>
       <r>  -17.3043    1.0000 </r>
       <r>  -15.0183    1.0000 </r>
       <r>  -14.2469    1.0000 </r>
       <r>  -10.2893    1.0000 </r>
       <r>   -9.7475    1.0000 </r>
       <r>   -5.8061    1.0000 </r>
       <r>   -5.0964    1.0000 </r>
       <r>   -0.9649    0.0000 </r>
       <r>   -0.1817    0.0000 </r>
       <r>    5.8814    0.0000 </r>
       <r>    6.1700    0.0000 </r>
      </set>
      <set comment="kpoint 229">
       <r>  -17.9827    1.0000 </r>
       <r>  -17.2183    1.0000 </r>
       <r>  -15.2891    1.0000 </r>
       <r>  -14.5446    1.0000 </r>
       <r>   -9.9671    1.0000 </r>
       <r>   -9.4908    1.0000 </r>
       <r>   -5.7233    1.0000 </r>
       <r>   -5.0937    1.0000 </r>
       <r>   -1.0582    0.0000 </r>
       <r>   -0.3679    0.0000 </r>
       <r>    5.5017    0.0000 </r>
       <r>    5.9927    0.0000 </r>
      </set>
      <set comment="kpoint 230">
       <r>  -17.8494    1.0000 </r>
       <r>  -17.1381    1.0000 </r>
       <r>  -15.5234    1.0000 </r>
       <r>  -14.8272    1.0000 </r>
       <r>   -9.6738    1.0000 </r>
       <r>   -9.2741    1.0000 </r>
       <r>   -5.6342    1.0000 </r>
       <r>   -5.1018    1.0000 </r>
       <r>   -1.1310    0.0000 </r>
       <r>   -0.5504    0.0000 </r>
       <r>    5.1548    0.0000 </r>
       <r>    5.5654    0.0000 </r>
      </set>
      <set comment="kpoint 231">
       <r>  -17.7034    1.0000 </r>
       <r>  -17.0819    1.0000 </r>
       <r>  -15.7012    1.0000 </r>
       <r>  -15.0906    1.0000 </r>
       <r>   -9.4191    1.0000 </r>
       <r>   -9.1070    1.0000 </r>
       <r>   -5.5418    1.0000 </r>
       <r>   -5.1236    1.0000 </r>
       <r>   -1.1756    0.0000 </r>
       <r>   -0.7215    0.0000 </r>
       <r>    4.8830    0.0000 </r>
       <r>    5.2038    0.0000 </r>
      </set>
      <set comment="kpoint 232">
       <r>  -17.5488    1.0000 </r>
       <r>  -17.0746    1.0000 </r>
       <r>  -15.7965    1.0000 </r>
       <r>  -15.3293    1.0000 </r>
       <r>   -9.2123    1.0000 </r>
       <r>   -8.9977    1.0000 </r>
       <r>   -5.4497    1.0000 </r>
       <r>   -5.1609    1.0000 </r>
       <r>   -1.1865    0.0000 </r>
       <r>   -0.8740    0.0000 </r>
       <r>    4.6984    0.0000 </r>
       <r>    4.9191    0.0000 </r>
      </set>
      <set comment="kpoint 233">
       <r>  -17.3925    1.0000 </r>
       <r>  -17.1328    1.0000 </r>
       <r>  -15.7920    1.0000 </r>
       <r>  -15.5357    1.0000 </r>
       <r>   -9.0617    1.0000 </r>
       <r>   -8.9523    1.0000 </r>
       <r>   -5.3618    1.0000 </r>
       <r>   -5.2142    1.0000 </r>
       <r>   -1.1608    0.0000 </r>
       <r>   -1.0014    0.0000 </r>
       <r>    4.6082    0.0000 </r>
       <r>    4.7207    0.0000 </r>
      </set>
      <set comment="kpoint 234">
       <r>  -17.2470    1.0000 </r>
       <r>  -17.2470    1.0000 </r>
       <r>  -15.6969    1.0000 </r>
       <r>  -15.6969    1.0000 </r>
       <r>   -8.9738    1.0000 </r>
       <r>   -8.9738    1.0000 </r>
       <r>   -5.2821    1.0000 </r>
       <r>   -5.2821    1.0000 </r>
       <r>   -1.0984    0.0000 </r>
       <r>   -1.0984    0.0000 </r>
       <r>    4.6157    0.0000 </r>
       <r>    4.6157    0.0000 </r>
      </set>
      <set comment="kpoint 235">
       <r>  -18.0218    1.0000 </r>
       <r>  -18.0218    1.0000 </r>
       <r>  -13.1204    1.0000 </r>
       <r>  -13.1204    1.0000 </r>
       <r>  -11.6236    1.0000 </r>
       <r>  -11.6236    1.0000 </r>
       <r>   -5.6118    1.0000 </r>
       <r>   -5.6118    1.0000 </r>
       <r>   -0.0102    0.0000 </r>
       <r>   -0.0102    0.0000 </r>
       <r>    6.2009    0.0000 </r>
       <r>    6.2009    0.0000 </r>
      </set>
      <set comment="kpoint 236">
       <r>  -18.0126    1.0000 </r>
       <r>  -18.0126    1.0000 </r>
       <r>  -13.2126    1.0000 </r>
       <r>  -13.2126    1.0000 </r>
       <r>  -11.5281    1.0000 </r>
       <r>  -11.5281    1.0000 </r>
       <r>   -5.6061    1.0000 </r>
       <r>   -5.6061    1.0000 </r>
       <r>   -0.0314    0.0000 </r>
       <r>   -0.0314    0.0000 </r>
       <r>    6.2145    0.0000 </r>
       <r>    6.2145    0.0000 </r>
      </set>
      <set comment="kpoint 237">
       <r>  -17.9851    1.0000 </r>
       <r>  -17.9851    1.0000 </r>
       <r>  -13.4389    1.0000 </r>
       <r>  -13.4389    1.0000 </r>
       <r>  -11.2923    1.0000 </r>
       <r>  -11.2923    1.0000 </r>
       <r>   -5.5895    1.0000 </r>
       <r>   -5.5895    1.0000 </r>
       <r>   -0.0932    0.0000 </r>
       <r>   -0.0932    0.0000 </r>
       <r>    6.2551    0.0000 </r>
       <r>    6.2551    0.0000 </r>
      </set>
      <set comment="kpoint 238">
       <r>  -17.9395    1.0000 </r>
       <r>  -17.9395    1.0000 </r>
       <r>  -13.7267    1.0000 </r>
       <r>  -13.7267    1.0000 </r>
       <r>  -10.9903    1.0000 </r>
       <r>  -10.9903    1.0000 </r>
       <r>   -5.5624    1.0000 </r>
       <r>   -5.5624    1.0000 </r>
       <r>   -0.1902    0.0000 </r>
       <r>   -0.1902    0.0000 </r>
       <r>    6.3219    0.0000 </r>
       <r>    6.3219    0.0000 </r>
      </set>
      <set comment="kpoint 239">
       <r>  -17.8764    1.0000 </r>
       <r>  -17.8764    1.0000 </r>
       <r>  -14.0361    1.0000 </r>
       <r>  -14.0361    1.0000 </r>
       <r>  -10.6644    1.0000 </r>
       <r>  -10.6644    1.0000 </r>
       <r>   -5.5264    1.0000 </r>
       <r>   -5.5264    1.0000 </r>
       <r>   -0.3144    0.0000 </r>
       <r>   -0.3144    0.0000 </r>
       <r>    6.4119    0.0000 </r>
       <r>    6.4119    0.0000 </r>
      </set>
      <set comment="kpoint 240">
       <r>  -17.7965    1.0000 </r>
       <r>  -17.7965    1.0000 </r>
       <r>  -14.3485    1.0000 </r>
       <r>  -14.3485    1.0000 </r>
       <r>  -10.3368    1.0000 </r>
       <r>  -10.3368    1.0000 </r>
       <r>   -5.4830    1.0000 </r>
       <r>   -5.4830    1.0000 </r>
       <r>   -0.4565    0.0000 </r>
       <r>   -0.4565    0.0000 </r>
       <r>    6.4897    0.0000 </r>
       <r>    6.4897    0.0000 </r>
      </set>
      <set comment="kpoint 241">
       <r>  -17.7012    1.0000 </r>
       <r>  -17.7012    1.0000 </r>
       <r>  -14.6535    1.0000 </r>
       <r>  -14.6535    1.0000 </r>
       <r>  -10.0217    1.0000 </r>
       <r>  -10.0217    1.0000 </r>
       <r>   -5.4346    1.0000 </r>
       <r>   -5.4346    1.0000 </r>
       <r>   -0.6065    0.0000 </r>
       <r>   -0.6065    0.0000 </r>
       <r>    6.1745    0.0000 </r>
       <r>    6.1745    0.0000 </r>
      </set>
      <set comment="kpoint 242">
       <r>  -17.5927    1.0000 </r>
       <r>  -17.5927    1.0000 </r>
       <r>  -14.9443    1.0000 </r>
       <r>  -14.9443    1.0000 </r>
       <r>   -9.7306    1.0000 </r>
       <r>   -9.7306    1.0000 </r>
       <r>   -5.3842    1.0000 </r>
       <r>   -5.3842    1.0000 </r>
       <r>   -0.7545    0.0000 </r>
       <r>   -0.7545    0.0000 </r>
       <r>    5.7314    0.0000 </r>
       <r>    5.7314    0.0000 </r>
      </set>
      <set comment="kpoint 243">
       <r>  -17.4745    1.0000 </r>
       <r>  -17.4745    1.0000 </r>
       <r>  -15.2143    1.0000 </r>
       <r>  -15.2143    1.0000 </r>
       <r>   -9.4738    1.0000 </r>
       <r>   -9.4738    1.0000 </r>
       <r>   -5.3352    1.0000 </r>
       <r>   -5.3352    1.0000 </r>
       <r>   -0.8911    0.0000 </r>
       <r>   -0.8911    0.0000 </r>
       <r>    5.3410    0.0000 </r>
       <r>    5.3410    0.0000 </r>
      </set>
      <set comment="kpoint 244">
       <r>  -17.3531    1.0000 </r>
       <r>  -17.3531    1.0000 </r>
       <r>  -15.4554    1.0000 </r>
       <r>  -15.4554    1.0000 </r>
       <r>   -9.2612    1.0000 </r>
       <r>   -9.2612    1.0000 </r>
       <r>   -5.2914    1.0000 </r>
       <r>   -5.2914    1.0000 </r>
       <r>   -1.0078    0.0000 </r>
       <r>   -1.0078    0.0000 </r>
       <r>    5.0221    0.0000 </r>
       <r>    5.0221    0.0000 </r>
      </set>
      <set comment="kpoint 245">
       <r>  -17.2398    1.0000 </r>
       <r>  -17.2398    1.0000 </r>
       <r>  -15.6548    1.0000 </r>
       <r>  -15.6548    1.0000 </r>
       <r>   -9.1017    1.0000 </r>
       <r>   -9.1017    1.0000 </r>
       <r>   -5.2567    1.0000 </r>
       <r>   -5.2567    1.0000 </r>
       <r>   -1.0972    0.0000 </r>
       <r>   -1.0972    0.0000 </r>
       <r>    4.7857    0.0000 </r>
       <r>    4.7857    0.0000 </r>
      </set>
      <set comment="kpoint 246">
       <r>  -17.1541    1.0000 </r>
       <r>  -17.1541    1.0000 </r>
       <r>  -15.7926    1.0000 </r>
       <r>  -15.7926    1.0000 </r>
       <r>   -9.0027    1.0000 </r>
       <r>   -9.0027    1.0000 </r>
       <r>   -5.2342    1.0000 </r>
       <r>   -5.2342    1.0000 </r>
       <r>   -1.1534    0.0000 </r>
       <r>   -1.1534    0.0000 </r>
       <r>    4.6402    0.0000 </r>
       <r>    4.6402    0.0000 </r>
      </set>
      <set comment="kpoint 247">
       <r>  -17.1211    1.0000 </r>
       <r>  -17.1211    1.0000 </r>
       <r>  -15.8430    1.0000 </r>
       <r>  -15.8430    1.0000 </r>
       <r>   -8.9691    1.0000 </r>
       <r>   -8.9691    1.0000 </r>
       <r>   -5.2265    1.0000 </r>
       <r>   -5.2265    1.0000 </r>
       <r>   -1.1726    0.0000 </r>
       <r>   -1.1726    0.0000 </r>
       <r>    4.5911    0.0000 </r>
       <r>    4.5911    0.0000 </r>
      </set>
     </set>
    </set>
   </array>
  </eigenvalues>
  <separator name="orbital magnetization" >
   <v name="MAGDIPOLOUT">      0.00000000      0.00000000      0.00000000</v>
  </separator>
 </calculation>
 <structure name="finalpos" >
  <crystal>
   <varray name="basis" >
    <v>       4.25525659       0.00000000       0.00000000 </v>
    <v>       0.00000000       2.52873809       0.00000000 </v>
    <v>       0.00000000       0.00000000      19.59381856 </v>
   </varray>
   <i name="volume">    210.83790140 </i>
   <varray name="rec_basis" >
    <v>       0.23500346       0.00000000       0.00000000 </v>
    <v>       0.00000000       0.39545416       0.00000000 </v>
    <v>       0.00000000       0.00000000       0.05103650 </v>
   </varray>
  </crystal>
  <varray name="positions" >
   <v>       0.00063378      -0.00000000      -0.00000000 </v>
   <v>       0.16603289       0.50000000       0.00000000 </v>
   <v>       0.50063378       0.50000000      -0.00000000 </v>
   <v>       0.66603289       0.00000000       0.00000000 </v>
  </varray>
 </structure>
</modeling>
