gr                                      
           1
     4.255257    0.000000    0.000000
     0.000000    2.528738    0.000000
     0.000000    0.000000   19.593819
   C 
   4
Direct configuration=     1
   0.00063729  0.00000000  0.00000000
   0.16602938  0.50000000  0.00000000
   0.50063729  0.50000000  0.00000000
   0.66602938  0.00000000  0.00000000
Direct configuration=     2
   0.00061976 -0.00000000  0.00000000
   0.16604690  0.50000000  0.00000000
   0.50061976  0.50000000  0.00000000
   0.66604690  0.00000000  0.00000000
Direct configuration=     3
   0.00063378 -0.00000000  0.00000000
   0.16603289  0.50000000 -0.00000000
   0.50063378  0.50000000  0.00000000
   0.66603289  0.00000000 -0.00000000
Direct configuration=     4
   0.00063380 -0.00000000  0.00000000
   0.16603287  0.50000000 -0.00000000
   0.50063380  0.50000000  0.00000000
   0.66603287  0.00000000 -0.00000000
Direct configuration=     5
   0.00063379 -0.00000000  0.00000000
   0.16603288  0.50000000 -0.00000000
   0.50063379  0.50000000  0.00000000
   0.66603288  0.00000000 -0.00000000
Direct configuration=     6
   0.00063379 -0.00000000  0.00000000
   0.16603288  0.50000000 -0.00000000
   0.50063379  0.50000000  0.00000000
   0.66603288  0.00000000 -0.00000000
Direct configuration=     7
   0.00063378 -0.00000000 -0.00000000
   0.16603289  0.50000000  0.00000000
   0.50063378  0.50000000 -0.00000000
   0.66603289  0.00000000  0.00000000
