    4    4  400    1
  0.5270948E+02  0.4295905E-09  0.2464815E-09  0.1991176E-08  0.5000000E-15
  1.000000000000000E-004
  CAR 
 gr                                      
     16    247     12
 
  0.0000000E+00  0.0000000E+00  0.0000000E+00  0.1157407E-02
    1      -22.217137
    2      -17.073545
    3      -15.944789
    4      -10.330739
    5       -9.081021
    6       -5.834494
    7       -5.772915
    8       -5.160085
    9       -1.099892
   10        0.528200
   11        1.328685
   12        1.713769
 
  0.4166667E-01  0.0000000E+00  0.0000000E+00  0.2314815E-02
    1      -22.206994
    2      -17.226623
    3      -15.776507
    4      -10.318639
    5       -9.070995
    6       -5.877593
    7       -5.794937
    8       -5.224856
    9       -1.019180
   10        0.541950
   11        1.342619
   12        1.727873
 
  0.8333333E-01  0.0000000E+00  0.0000000E+00  0.2314815E-02
    1      -22.176571
    2      -17.549334
    3      -15.408261
    4      -10.282357
    5       -9.040967
    6       -6.005054
    7       -5.859803
    8       -5.404920
    9       -0.791458
   10        0.583201
   11        1.384417
   12        1.770185
 
  0.1250000E+00  0.0000000E+00  0.0000000E+00  0.2314815E-02
    1      -22.125886
    2      -17.916071
    3      -14.965915
    4      -10.221951
    5       -8.991091
    6       -6.211691
    7       -5.964101
    8       -5.668350
    9       -0.449160
   10        0.651962
   11        1.454067
   12        1.840707
 
  0.1666667E+00  0.0000000E+00  0.0000000E+00  0.2314815E-02
    1      -22.054975
    2      -18.288072
    3      -14.488657
    4      -10.137519
    5       -8.921628
    6       -6.489802
    7       -6.102748
    8       -5.983139
    9       -0.025148
   10        0.748242
   11        1.551546
   12        1.939440
 
  0.2083333E+00  0.0000000E+00  0.0000000E+00  0.2314815E-02
    1      -21.963886
    2      -18.652792
    3      -13.989657
    4      -10.029201
    5       -8.832956
    6       -6.830233
    7       -6.325194
    8       -6.269662
    9        0.455252
   10        0.872044
   11        1.676818
   12        2.066386
 
  0.2500000E+00  0.0000000E+00  0.0000000E+00  0.2314815E-02
    1      -21.852682
    2      -19.005109
    3      -13.474856
    4       -9.897187
    5       -8.725580
    6       -7.223360
    7       -6.678311
    8       -6.458415
    9        0.974191
   10        1.023356
   11        1.829829
   12        2.221545
 
  0.2916667E+00  0.0000000E+00  0.0000000E+00  0.2314815E-02
    1      -21.721445
    2      -19.342494
    3      -12.947833
    4       -9.741723
    5       -8.600151
    6       -7.659824
    7       -7.031904
    8       -6.662735
    9        1.202159
   10        1.518929
   11        2.010496
   12        2.404914
 
  0.3333333E+00  0.0000000E+00  0.0000000E+00  0.2314815E-02
    1      -21.570271
    2      -19.663502
    3      -12.411338
    4       -9.563120
    5       -8.457484
    6       -8.130989
    7       -7.378996
    8       -6.876831
    9        1.408416
   10        2.079583
   11        2.218685
   12        2.616488
 
  0.3750000E+00  0.0000000E+00  0.0000000E+00  0.2314815E-02
    1      -21.399278
    2      -19.967211
    3      -11.867895
    4       -9.361768
    5       -8.629154
    6       -8.298586
    7       -7.714874
    8       -7.095562
    9        1.642076
   10        2.454156
   11        2.646835
   12        2.856260
 
  0.4166667E+00  0.0000000E+00  0.0000000E+00  0.2314815E-02
    1      -21.208603
    2      -20.252980
    3      -11.320086
    4       -9.147599
    5       -9.138159
    6       -8.124694
    7       -8.036261
    8       -7.314470
    9        1.903070
   10        2.716408
   11        3.124216
   12        3.216825
 
  0.4583333E+00  0.0000000E+00  0.0000000E+00  0.2314815E-02
    1      -20.998413
    2      -20.520335
    3      -10.770726
    4       -9.680531
    5       -8.892907
    6       -8.340809
    7       -7.937313
    8       -7.529768
    9        2.191302
   10        2.848892
   11        3.004106
   12        3.420341
 
  0.5000000E+00  0.0000000E+00  0.0000000E+00  0.1157407E-02
    1      -20.768911
    2      -20.768911
    3      -10.222990
    4      -10.222990
    5       -8.626791
    6       -8.626791
    7       -7.738268
    8       -7.738268
    9        2.506641
   10        2.506641
   11        3.311671
   12        3.311671
 
  0.0000000E+00  0.2777778E-01  0.0000000E+00  0.2314815E-02
    1      -22.203434
    2      -17.061759
    3      -15.933155
    4      -10.314392
    5       -9.142991
    6       -5.863780
    7       -5.830227
    8       -5.143440
    9       -1.103494
   10        0.546783
   11        1.347499
   12        1.732813
 
  0.4166667E-01  0.2777778E-01  0.0000000E+00  0.4629630E-02
    1      -22.193292
    2      -17.214679
    3      -15.765079
    4      -10.302296
    5       -9.132949
    6       -5.914166
    7       -5.844303
    8       -5.208348
    9       -1.022758
   10        0.560533
   11        1.361433
   12        1.746917
 
  0.8333333E-01  0.2777778E-01  0.0000000E+00  0.4629630E-02
    1      -22.162873
    2      -17.537138
    3      -15.397237
    4      -10.266027
    5       -9.102874
    6       -6.046041
    7       -5.902894
    8       -5.388732
    9       -0.795062
   10        0.601786
   11        1.403229
   12        1.789229
 
  0.1250000E+00  0.2777778E-01  0.0000000E+00  0.4629630E-02
    1      -22.112196
    2      -17.903649
    3      -14.955372
    4      -10.205641
    5       -9.052915
    6       -6.251660
    7       -6.005462
    8       -5.652493
    9       -0.453009
   10        0.670550
   11        1.472874
   12        1.859751
 
  0.1666667E+00  0.2777778E-01  0.0000000E+00  0.4629630E-02
    1      -22.041296
    2      -18.275458
    3      -14.478678
    4      -10.121238
    5       -8.983328
    6       -6.525788
    7       -6.144838
    8       -5.967529
    9       -0.029559
   10        0.766835
   11        1.570348
   12        1.958486
 
  0.2083333E+00  0.2777778E-01  0.0000000E+00  0.4629630E-02
    1      -21.950221
    2      -18.640014
    3      -13.980341
    4      -10.012957
    5       -8.894483
    6       -6.860916
    7       -6.313649
    8       -6.309730
    9        0.449945
   10        0.890643
   11        1.695613
   12        2.085434
 
  0.2500000E+00  0.2777778E-01  0.0000000E+00  0.4629630E-02
    1      -21.839035
    2      -18.992190
    3      -13.466324
    4       -9.880989
    5       -8.786874
    6       -7.248391
    7       -6.662908
    8       -6.504759
    9        0.967675
   10        1.041965
   11        1.848616
   12        2.240595
 
  0.2916667E+00  0.2777778E-01  0.0000000E+00  0.4629630E-02
    1      -21.707820
    2      -19.329454
    3      -12.940231
    4       -9.725578
    5       -8.661137
    6       -7.679405
    7       -7.016500
    8       -6.711506
    9        1.220778
   10        1.510936
   11        2.029276
   12        2.423967
 
  0.3333333E+00  0.2777778E-01  0.0000000E+00  0.4629630E-02
    1      -21.556673
    2      -19.650358
    3      -12.404844
    4       -9.547036
    5       -8.518070
    6       -8.145602
    7       -7.363550
    8       -6.927892
    9        1.427047
   10        2.069921
   11        2.237461
   12        2.635545
 
  0.3750000E+00  0.2777778E-01  0.0000000E+00  0.4629630E-02
    1      -21.385711
    2      -19.953977
    3      -11.862723
    4       -9.345754
    5       -8.639390
    6       -8.358662
    7       -7.699361
    8       -7.148669
    9        1.660721
   10        2.472932
   11        2.635523
   12        2.875321
 
  0.4166667E+00  0.2777778E-01  0.0000000E+00  0.4629630E-02
    1      -21.195073
    2      -20.239668
    3      -11.316495
    4       -9.154064
    5       -9.122220
    6       -8.184122
    7       -8.020667
    8       -7.369348
    9        1.921730
   10        2.735197
   11        3.143283
   12        3.192968
 
  0.4583333E+00  0.2777778E-01  0.0000000E+00  0.4629630E-02
    1      -20.984926
    2      -20.506956
    3      -10.769026
    4       -9.683793
    5       -8.877050
    6       -8.325128
    7       -7.995928
    8       -7.586139
    9        2.209982
   10        2.867644
   11        3.022924
   12        3.439411
 
  0.5000000E+00  0.2777778E-01  0.0000000E+00  0.2314815E-02
    1      -20.755474
    2      -20.755474
    3      -10.223553
    4      -10.223553
    5       -8.611021
    6       -8.611021
    7       -7.795875
    8       -7.795875
    9        2.525349
   10        2.525349
   11        3.330422
   12        3.330422
 
  0.0000000E+00  0.5555556E-01  0.0000000E+00  0.2314815E-02
    1      -22.162336
    2      -17.026403
    3      -15.898400
    4      -10.265385
    5       -9.323928
    6       -5.997566
    7       -5.950987
    8       -5.093523
    9       -1.115126
   10        0.602536
   11        1.403936
   12        1.789945
 
  0.4166667E-01  0.5555556E-01  0.0000000E+00  0.4629630E-02
    1      -22.152198
    2      -17.178861
    3      -15.730940
    4      -10.253302
    5       -9.313835
    6       -6.052203
    7       -5.958881
    8       -5.158859
    9       -1.034313
   10        0.616286
   11        1.417866
   12        1.804049
 
  0.8333333E-01  0.5555556E-01  0.0000000E+00  0.4629630E-02
    1      -22.121792
    2      -17.500569
    3      -15.364312
    4      -10.217070
    5       -9.283602
    6       -6.185126
    7       -6.010963
    8       -5.340224
    9       -0.806687
   10        0.657541
   11        1.459654
   12        1.846362
 
  0.1250000E+00  0.5555556E-01  0.0000000E+00  0.4629630E-02
    1      -22.071138
    2      -17.866406
    3      -14.923913
    4      -10.156748
    5       -9.233368
    6       -6.383752
    7       -6.112405
    8       -5.605001
    9       -0.465378
   10        0.726311
   11        1.529287
   12        1.916886
 
  0.1666667E+00  0.5555556E-01  0.0000000E+00  0.4629630E-02
    1      -22.000270
    2      -18.237638
    3      -14.448942
    4      -10.072432
    5       -9.163372
    6       -6.644271
    7       -6.255732
    8       -5.920792
    9       -0.043644
   10        0.822607
   11        1.626743
   12        2.015623
 
  0.2083333E+00  0.5555556E-01  0.0000000E+00  0.4629630E-02
    1      -21.909239
    2      -18.601700
    3      -13.952638
    4       -9.964264
    5       -9.073955
    6       -6.962037
    7       -6.431758
    8       -6.263434
    9        0.433121
   10        0.946431
   11        1.751987
   12        2.142575
 
  0.2500000E+00  0.5555556E-01  0.0000000E+00  0.4629630E-02
    1      -21.798107
    2      -18.953452
    3      -13.441034
    4       -9.832433
    5       -8.965576
    6       -7.331006
    7       -6.631524
    8       -6.616792
    9        0.947156
   10        1.097774
   11        1.904967
   12        2.297741
 
  0.2916667E+00  0.5555556E-01  0.0000000E+00  0.4629630E-02
    1      -21.666959
    2      -19.290352
    3      -12.917815
    4       -9.677185
    5       -8.838824
    6       -7.744156
    7       -6.970377
    8       -6.847068
    9        1.276614
   10        1.485893
   11        2.085604
   12        2.481121
 
  0.3333333E+00  0.5555556E-01  0.0000000E+00  0.4629630E-02
    1      -21.515891
    2      -19.610942
    3      -12.385864
    4       -9.498831
    5       -8.694440
    6       -8.194106
    7       -7.317297
    8       -7.071634
    9        1.482913
   10        2.039743
   11        2.293772
   12        2.692709
 
  0.3750000E+00  0.5555556E-01  0.0000000E+00  0.4629630E-02
    1      -21.345023
    2      -19.914290
    3      -11.847863
    4       -9.297759
    5       -8.673660
    6       -8.533339
    7       -7.652902
    8       -7.299625
    9        1.716620
   10        2.529246
   11        2.600151
   12        2.932498
 
  0.4166667E+00  0.5555556E-01  0.0000000E+00  0.4629630E-02
    1      -21.154495
    2      -20.199748
    3      -11.306584
    4       -9.176151
    5       -9.074457
    6       -8.356647
    7       -7.973959
    8       -7.526452
    9        1.977667
   10        2.791549
   11        3.155038
   12        3.200477
 
  0.4583333E+00  0.5555556E-01  0.0000000E+00  0.4629630E-02
    1      -20.944478
    2      -20.466833
    3      -10.765070
    4       -9.695599
    5       -8.829538
    6       -8.278152
    7       -8.165738
    8       -7.748363
    9        2.265965
   10        2.923790
   11        3.079371
   12        3.496630
 
  0.5000000E+00  0.5555556E-01  0.0000000E+00  0.2314815E-02
    1      -20.715176
    2      -20.715176
    3      -10.226759
    4      -10.226759
    5       -8.563773
    6       -8.563773
    7       -7.962294
    8       -7.962294
    9        2.581395
   10        2.581395
   11        3.386635
   12        3.386635
 
  0.0000000E+00  0.8333333E-01  0.0000000E+00  0.2314815E-02
    1      -22.093877
    2      -16.967490
    3      -15.841000
    4      -10.183822
    5       -9.610297
    6       -6.262545
    7       -6.094187
    8       -5.010397
    9       -1.137268
   10        0.695467
   11        1.497972
   12        1.885169
 
  0.4166667E-01  0.8333333E-01  0.0000000E+00  0.4629630E-02
    1      -22.083747
    2      -17.119208
    3      -15.674549
    4      -10.171759
    5       -9.600102
    6       -6.309749
    7       -6.106433
    8       -5.076489
    9       -1.056303
   10        0.709217
   11        1.511898
   12        1.899273
 
  0.8333333E-01  0.8333333E-01  0.0000000E+00  0.4629630E-02
    1      -22.053363
    2      -17.439691
    3      -15.309961
    4      -10.135592
    5       -9.569554
    6       -6.436436
    7       -6.156005
    8       -5.259581
    9       -0.828764
   10        0.750471
   11        1.553671
   12        1.941586
 
  0.1250000E+00  0.8333333E-01  0.0000000E+00  0.4629630E-02
    1      -22.002748
    2      -17.804409
    3      -14.872073
    4      -10.075377
    5       -9.518774
    6       -6.624868
    7       -6.254555
    8       -5.526125
    9       -0.488717
   10        0.819242
   11        1.623280
   12        2.012110
 
  0.1666667E+00  0.8333333E-01  0.0000000E+00  0.4629630E-02
    1      -21.931935
    2      -18.174676
    3      -14.400089
    4       -9.991212
    5       -9.447961
    6       -6.866546
    7       -6.401015
    8       -5.843215
    9       -0.069937
   10        0.915543
   11        1.720704
   12        2.110849
 
  0.2083333E+00  0.8333333E-01  0.0000000E+00  0.4629630E-02
    1      -21.840975
    2      -18.537911
    3      -13.907342
    4       -9.883237
    5       -9.357405
    6       -7.157255
    7       -6.587439
    8       -6.186606
    9        0.402102
   10        1.039380
   11        1.845908
   12        2.237805
 
  0.2500000E+00  0.8333333E-01  0.0000000E+00  0.4629630E-02
    1      -21.729935
    2      -18.888953
    3      -13.399991
    4       -9.751644
    5       -9.247491
    6       -7.494175
    7       -6.802948
    8       -6.540260
    9        0.909761
   10        1.190743
   11        1.998843
   12        2.392979
 
  0.2916667E+00  0.8333333E-01  0.0000000E+00  0.4629630E-02
    1      -21.598898
    2      -19.225241
    3      -12.881880
    4       -9.596675
    5       -9.118713
    6       -7.874165
    7       -7.036535
    8       -6.893819
    9        1.369611
   10        1.440680
   11        2.179436
   12        2.576367
 
  0.3333333E+00  0.8333333E-01  0.0000000E+00  0.4629630E-02
    1      -21.447963
    2      -19.545303
    3      -12.356089
    4       -9.418643
    5       -8.971686
    6       -8.292855
    7       -7.278849
    8       -7.240502
    9        1.575943
   10        1.985586
   11        2.387569
   12        2.787967
 
  0.3750000E+00  0.8333333E-01  0.0000000E+00  0.4629630E-02
    1      -21.277252
    2      -19.848197
    3      -11.825544
    4       -9.217933
    5       -8.807168
    6       -8.744683
    7       -7.575741
    8       -7.522772
    9        1.809687
   10        2.536632
   11        2.623038
   12        3.027772
 
  0.4166667E+00  0.8333333E-01  0.0000000E+00  0.4629630E-02
    1      -21.086909
    2      -20.133262
    3      -11.293322
    4       -9.223490
    5       -8.995032
    6       -8.626087
    7       -7.896362
    8       -7.763127
    9        2.070773
   10        2.885407
   11        3.084824
   12        3.295772
 
  0.4583333E+00  0.8333333E-01  0.0000000E+00  0.4629630E-02
    1      -20.877108
    2      -20.400008
    3      -10.762832
    4       -9.723146
    5       -8.750544
    6       -8.429575
    7       -8.200087
    8       -7.996149
    9        2.359115
   10        3.017084
   11        3.173414
   12        3.587324
 
  0.5000000E+00  0.8333333E-01  0.0000000E+00  0.2314815E-02
    1      -20.648058
    2      -20.648058
    3      -10.237956
    4      -10.237956
    5       -8.485237
    6       -8.485237
    7       -8.219022
    8       -8.219022
    9        2.674602
   10        2.674602
   11        3.480120
   12        3.480120
 
  0.0000000E+00  0.1111111E+00  0.0000000E+00  0.2314815E-02
    1      -21.998119
    2      -16.885041
    3      -15.761851
    4      -10.069875
    5       -9.983251
    6       -6.608247
    7       -6.290259
    8       -4.894166
    9       -1.174028
   10        0.825586
   11        1.629570
   12        2.018485
 
  0.4166667E-01  0.1111111E+00  0.0000000E+00  0.4629630E-02
    1      -21.987999
    2      -17.035790
    3      -15.596777
    4      -10.057844
    5       -9.972874
    6       -6.654480
    7       -6.299445
    8       -4.961417
    9       -1.092788
   10        0.839332
   11        1.643488
   12        2.032589
 
  0.8333333E-01  0.1111111E+00  0.0000000E+00  0.4629630E-02
    1      -21.957648
    2      -17.354614
    3      -15.235094
    4      -10.021771
    5       -9.941770
    6       -6.779861
    7       -6.338815
    8       -5.147132
    9       -0.865283
   10        0.880576
   11        1.685238
   12        2.074900
 
  0.1250000E+00  0.1111111E+00  0.0000000E+00  0.4629630E-02
    1      -21.907086
    2      -17.717777
    3      -14.800895
    4       -9.961713
    5       -9.890019
    6       -6.963773
    7       -6.424483
    8       -5.416321
    9       -0.527026
   10        0.949334
   11        1.754808
   12        2.145424
 
  0.1666667E+00  0.1111111E+00  0.0000000E+00  0.4629630E-02
    1      -21.836350
    2      -18.086689
    3      -14.333381
    4       -9.877767
    5       -9.817754
    6       -7.193056
    7       -6.562182
    8       -5.735321
    9       -0.112556
   10        1.045624
   11        1.852178
   12        2.244162
 
  0.2083333E+00  0.1111111E+00  0.0000000E+00  0.4629630E-02
    1      -21.745492
    2      -18.448754
    3      -13.846036
    4       -9.770076
    5       -9.725164
    6       -7.460661
    7       -6.748967
    8       -6.079785
    9        0.352560
   10        1.169455
   11        1.977314
   12        2.371120
 
  0.2500000E+00  0.1111111E+00  0.0000000E+00  0.4629630E-02
    1      -21.634581
    2      -18.798790
    3      -13.345232
    4       -9.638829
    5       -9.612494
    6       -7.763448
    7       -6.976070
    8       -6.433838
    9        0.850882
   10        1.320823
   11        2.130171
   12        2.526298
 
  0.2916667E+00  0.1111111E+00  0.0000000E+00  0.4629630E-02
    1      -21.503698
    2      -19.134211
    3      -12.835097
    4       -9.484271
    5       -9.480043
    6       -8.100802
    7       -7.231181
    8       -6.787325
    9        1.370345
   10        1.499702
   11        2.310683
   12        2.709695
 
  0.3333333E+00  0.1111111E+00  0.0000000E+00  0.4629630E-02
    1      -21.352950
    2      -19.453527
    3      -12.319074
    4       -9.328170
    5       -9.306710
    6       -8.473036
    7       -7.500934
    8       -7.133630
    9        1.706053
   10        1.902063
   11        2.518746
   12        2.921306
 
  0.3750000E+00  0.1111111E+00  0.0000000E+00  0.4629630E-02
    1      -21.182460
    2      -19.755776
    3      -11.800560
    4       -9.157291
    5       -9.106534
    6       -8.879564
    7       -7.773464
    8       -7.468308
    9        1.939817
   10        2.438876
   11        2.754188
   12        3.161125
 
  0.4166667E+00  0.1111111E+00  0.0000000E+00  0.4629630E-02
    1      -20.992378
    2      -20.040286
    3      -11.283225
    4       -9.317726
    5       -8.967893
    6       -8.884221
    7       -8.040054
    8       -7.788270
    9        2.200922
   10        2.974022
   11        3.016644
   12        3.429144
 
  0.4583333E+00  0.1111111E+00  0.0000000E+00  0.4629630E-02
    1      -20.782883
    2      -20.306553
    3      -10.771222
    4       -9.782874
    5       -8.760549
    6       -8.640373
    7       -8.295253
    8       -8.091296
    9        2.489280
   10        3.147285
   11        3.304979
   12        3.494637
 
  0.5000000E+00  0.1111111E+00  0.0000000E+00  0.2314815E-02
    1      -20.554188
    2      -20.554188
    3      -10.269311
    4      -10.269311
    5       -8.535989
    6       -8.535989
    7       -8.375745
    8       -8.375745
    9        2.804781
   10        2.804781
   11        3.610017
   12        3.610017
 
  0.0000000E+00  0.1388889E+00  0.0000000E+00  0.2314815E-02
    1      -21.875149
    2      -16.779082
    3      -15.662471
    4      -10.421997
    5       -9.923797
    6       -7.016671
    7       -6.535038
    8       -4.744979
    9       -1.231036
   10        0.992895
   11        1.798673
   12        2.189898
 
  0.4166667E-01  0.1388889E+00  0.0000000E+00  0.4629630E-02
    1      -21.865043
    2      -16.928717
    3      -15.499111
    4      -10.411310
    5       -9.911809
    6       -7.063705
    7       -6.538683
    8       -4.813922
    9       -1.149303
   10        1.006633
   11        1.812578
   12        2.204000
 
  0.8333333E-01  0.1388889E+00  0.0000000E+00  0.4629630E-02
    1      -21.834733
    2      -17.245513
    3      -15.141284
    4      -10.379253
    5       -9.875863
    6       -7.191098
    7       -6.562418
    8       -5.003413
    9       -0.921621
   10        1.047854
   11        1.854291
   12        2.246309
 
  0.1250000E+00  0.1388889E+00  0.0000000E+00  0.4629630E-02
    1      -21.784241
    2      -17.606699
    3      -14.712213
    4      -10.325831
    5       -9.816019
    6       -7.375562
    7       -6.626682
    8       -5.276324
    9       -0.585639
   10        1.116577
   11        1.923799
   12        2.316827
 
  0.1666667E+00  0.1388889E+00  0.0000000E+00  0.4629630E-02
    1      -21.713606
    2      -17.973855
    3      -14.251089
    4      -10.251051
    5       -9.732373
    6       -7.600471
    7       -6.743001
    8       -5.597938
    9       -0.176946
   10        1.212828
   11        2.021080
   12        2.415560
 
  0.2083333E+00  0.1388889E+00  0.0000000E+00  0.4629630E-02
    1      -21.622880
    2      -18.334394
    3      -13.771638
    4      -10.154901
    5       -9.625068
    6       -7.855848
    7       -6.913851
    8       -5.943817
    9        0.278828
   10        1.336622
   11        2.146104
   12        2.542514
 
  0.2500000E+00  0.1388889E+00  0.0000000E+00  0.4629630E-02
    1      -21.512132
    2      -18.683113
    3      -13.280612
    4      -10.037338
    5       -9.494295
    6       -8.136111
    7       -7.135112
    8       -6.298347
    9        0.764564
   10        1.487961
   11        2.298827
   12        2.697692
 
  0.2916667E+00  0.1388889E+00  0.0000000E+00  0.4629630E-02
    1      -21.381451
    2      -19.017401
    3      -12.782664
    4       -9.898256
    5       -9.340297
    6       -8.438987
    7       -7.397757
    8       -6.651666
    9        1.268617
   10        1.666821
   11        2.479187
   12        2.881092
 
  0.3333333E+00  0.1388889E+00  0.0000000E+00  0.4629630E-02
    1      -21.230945
    2      -19.335740
    3      -12.281944
    4       -9.737451
    5       -9.163384
    6       -8.764984
    7       -7.689210
    8       -6.997394
    9        1.782571
   10        1.873159
   11        2.687101
   12        3.092710
 
  0.3750000E+00  0.1388889E+00  0.0000000E+00  0.4629630E-02
    1      -21.060742
    2      -19.637147
    3      -11.782775
    4       -9.554584
    5       -9.116647
    6       -8.963939
    7       -7.994904
    8       -7.331256
    9        2.106912
   10        2.299881
   11        2.922438
   12        3.332541
 
  0.4166667E+00  0.1388889E+00  0.0000000E+00  0.4629630E-02
    1      -20.870999
    2      -19.920931
    3      -11.290014
    4       -9.497013
    5       -9.349165
    6       -8.742438
    7       -8.300461
    8       -7.650278
    9        2.368001
   10        2.815039
   11        3.184955
   12        3.600574
 
  0.4583333E+00  0.1388889E+00  0.0000000E+00  0.4629630E-02
    1      -20.661901
    2      -20.186573
    3      -10.809192
    4       -9.907481
    5       -9.120635
    6       -8.594192
    7       -8.499473
    8       -7.952318
    9        2.656329
   10        3.314221
   11        3.322616
   12        3.473856
 
  0.5000000E+00  0.1388889E+00  0.0000000E+00  0.2314815E-02
    1      -20.433671
    2      -20.433671
    3      -10.346373
    4      -10.346373
    5       -8.868706
    6       -8.868706
    7       -8.235787
    8       -8.235787
    9        2.971783
   10        2.971783
   11        3.758100
   12        3.758100
 
  0.0000000E+00  0.1666667E+00  0.0000000E+00  0.2314815E-02
    1      -21.725086
    2      -16.649656
    3      -15.545410
    4      -10.905948
    5       -9.745924
    6       -7.471096
    7       -6.823523
    8       -4.563033
    9       -1.315175
   10        1.197384
   11        2.005199
   12        2.399410
 
  0.4166667E-01  0.1666667E+00  0.0000000E+00  0.4629630E-02
    1      -21.714997
    2      -16.798154
    3      -15.384071
    4      -10.894729
    5       -9.733992
    6       -7.519700
    7       -6.820405
    8       -4.634427
    9       -1.232537
   10        1.211108
   11        2.019085
   12        2.413510
 
  0.8333333E-01  0.1666667E+00  0.0000000E+00  0.4629630E-02
    1      -21.684738
    2      -17.112653
    3      -15.031254
    4      -10.861024
    5       -9.698214
    6       -7.650880
    7       -6.825325
    8       -4.829265
    9       -1.004135
   10        1.252291
   11        2.060737
   12        2.455812
 
  0.1250000E+00  0.1666667E+00  0.0000000E+00  0.4629630E-02
    1      -21.634333
    2      -17.471453
    3      -14.609284
    4      -10.804693
    5       -9.638650
    6       -7.838819
    7       -6.862799
    8       -5.107277
    9       -0.670747
   10        1.320955
   11        2.130143
   12        2.526320
 
  0.1666667E+00  0.1666667E+00  0.0000000E+00  0.4629630E-02
    1      -21.563820
    2      -17.836438
    3      -14.157366
    4      -10.725470
    5       -9.555399
    6       -8.064310
    7       -6.949228
    8       -5.432336
    9       -0.269333
   10        1.417131
   11        2.227278
   12        2.625041
 
  0.2083333E+00  0.1666667E+00  0.0000000E+00  0.4629630E-02
    1      -21.473254
    2      -18.195071
    3      -13.689664
    4      -10.622920
    5       -9.448603
    6       -8.315403
    7       -7.091678
    8       -5.779977
    9        0.174526
   10        1.540844
   11        2.352107
   12        2.751982
 
  0.2500000E+00  0.1666667E+00  0.0000000E+00  0.4629630E-02
    1      -21.362710
    2      -18.542140
    3      -13.213668
    4      -10.496366
    5       -9.318454
    6       -8.584741
    7       -7.290300
    8       -6.135001
    9        0.644251
   10        1.692106
   11        2.504583
   12        2.907150
 
  0.2916667E+00  0.1666667E+00  0.0000000E+00  0.4629630E-02
    1      -21.232277
    2      -18.875005
    3      -12.735087
    4      -10.344795
    5       -9.165198
    6       -8.868063
    7       -7.540065
    8       -6.487967
    9        1.128819
   10        1.870899
   11        2.684641
   12        3.090545
 
  0.3333333E+00  0.1666667E+00  0.0000000E+00  0.4629630E-02
    1      -21.082069
    2      -19.192120
    3      -12.259506
    4      -10.166754
    5       -9.163638
    6       -8.989143
    7       -7.831979
    8       -6.832824
    9        1.620430
   10        2.077179
   11        2.892200
   12        3.302164
 
  0.3750000E+00  0.1666667E+00  0.0000000E+00  0.4629630E-02
    1      -20.912222
    2      -19.492474
    3      -11.793046
    4       -9.960328
    5       -9.472166
    6       -8.790670
    7       -8.154021
    8       -7.165520
    9        2.113181
   10        2.310878
   11        3.127150
   12        3.542001
 
  0.4166667E+00  0.1666667E+00  0.0000000E+00  0.4629630E-02
    1      -20.722899
    2      -19.775350
    3      -11.342453
    4       -9.796735
    5       -9.723404
    6       -8.570252
    7       -8.491964
    8       -7.483233
    9        2.571906
   10        2.602326
   11        3.389351
   12        3.810043
 
  0.4583333E+00  0.1666667E+00  0.0000000E+00  0.4629630E-02
    1      -20.514295
    2      -20.040214
    3      -10.914415
    4      -10.142272
    5       -9.454580
    6       -8.830462
    7       -8.328472
    8       -7.783920
    9        2.860153
   10        3.083843
   11        3.517772
   12        3.678608
 
  0.5000000E+00  0.1666667E+00  0.0000000E+00  0.2314815E-02
    1      -20.286641
    2      -20.286641
    3      -10.513907
    4      -10.513907
    5       -9.155005
    6       -9.155005
    7       -8.066056
    8       -8.066056
    9        3.175493
   10        3.175493
   11        3.554144
   12        3.554144
 