       N       E                     dE             d eps       ncg     rms          rms(c)
DAV:   1     0.189854500203E+03    0.18985E+03   -0.10613E+04  5928   0.275E+03
DAV:   2    -0.918545785648E+01   -0.19904E+03   -0.17650E+03 10484   0.262E+02
DAV:   3    -0.383175478511E+02   -0.29132E+02   -0.28492E+02  7444   0.119E+02    0.729E+00
RMM:   4    -0.376946484729E+02    0.62290E+00   -0.97217E+00  5928   0.263E+01    0.423E+00
RMM:   5    -0.369340602436E+02    0.76059E+00   -0.28759E+00  5933   0.116E+01    0.745E-01
RMM:   6    -0.369347248639E+02   -0.66462E-03   -0.79461E-02  6351   0.202E+00    0.525E-01
RMM:   7    -0.369254031274E+02    0.93217E-02   -0.34417E-02  5941   0.162E+00    0.348E-01
RMM:   8    -0.369196410550E+02    0.57621E-02   -0.74136E-03  5931   0.572E-01    0.139E-01
RMM:   9    -0.369192266594E+02    0.41440E-03   -0.21715E-02  5928   0.873E-01    0.163E-01
RMM:  10    -0.369190506976E+02    0.17596E-03   -0.26489E-03  5928   0.371E-01    0.291E-02
RMM:  11    -0.369216169776E+02   -0.25663E-02   -0.79648E-04  5935   0.184E-01    0.472E-02
RMM:  12    -0.369220487378E+02   -0.43176E-03   -0.22707E-04  5934   0.997E-02    0.628E-03
RMM:  13    -0.369223155269E+02   -0.26679E-03   -0.59372E-05  5997   0.442E-02    0.451E-03
RMM:  14    -0.369224008640E+02   -0.85337E-04   -0.11695E-05  5944   0.195E-02    0.212E-03
RMM:  15    -0.369224098387E+02   -0.89747E-05   -0.16052E-06  6017   0.737E-03    0.909E-04
RMM:  16    -0.369224215610E+02   -0.11722E-04   -0.51238E-07  5962   0.438E-03    0.638E-04
RMM:  17    -0.369224253679E+02   -0.38069E-05   -0.24017E-08  6140   0.114E-03    0.718E-04
RMM:  18    -0.369224270840E+02   -0.17161E-05   -0.91546E-08  5928   0.213E-03    0.160E-04
RMM:  19    -0.369224275524E+02   -0.46840E-06   -0.68215E-09  5989   0.484E-04    0.271E-05
RMM:  20    -0.369224276083E+02   -0.55871E-07   -0.50670E-10  4463   0.108E-04    0.231E-05
RMM:  21    -0.369224276292E+02   -0.20949E-07   -0.27074E-10  4421   0.100E-04    0.233E-06
RMM:  22    -0.369224276287E+02    0.53615E-09   -0.97582E-12  3900   0.450E-05    0.275E-06
RMM:  23    -0.369224276295E+02   -0.85799E-09   -0.11192E-11  3440   0.351E-05    0.522E-07
RMM:  24    -0.369224276293E+02    0.18917E-09   -0.74056E-12  3033   0.288E-05    0.393E-07
RMM:  25    -0.369224276294E+02   -0.69349E-10   -0.26397E-12  2731   0.245E-05
   1 F= -.36922428E+02 E0= -.36922385E+02  d E =-.369224E+02
       N       E                     dE             d eps       ncg     rms          rms(c)
DAV:   1    -0.369224262206E+02    0.14087E-05   -0.12791E-04  6380   0.106E-01    0.226E-03
RMM:   2    -0.369224262864E+02   -0.65806E-07   -0.20738E-06  5935   0.128E-02    0.162E-03
RMM:   3    -0.369224262215E+02    0.64998E-07   -0.36638E-07  5952   0.487E-03    0.412E-04
RMM:   4    -0.369224262156E+02    0.58858E-08   -0.22548E-08  6094   0.120E-03    0.117E-04
RMM:   5    -0.369224262149E+02    0.65074E-09   -0.16742E-09  5884   0.295E-04    0.565E-05
RMM:   6    -0.369224262151E+02   -0.15996E-09   -0.26002E-10  4230   0.131E-04    0.495E-06
RMM:   7    -0.369224262150E+02    0.85038E-10   -0.14059E-11  3732   0.535E-05
   2 F= -.36922426E+02 E0= -.36922382E+02  d E =0.141443E-05
       N       E                     dE             d eps       ncg     rms          rms(c)
DAV:   1    -0.369224277251E+02   -0.15100E-05   -0.81511E-05  6596   0.849E-02    0.182E-03
RMM:   2    -0.369224277674E+02   -0.42295E-07   -0.12750E-06  5935   0.102E-02    0.129E-03
RMM:   3    -0.369224277278E+02    0.39587E-07   -0.22966E-07  5951   0.386E-03    0.315E-04
RMM:   4    -0.369224277235E+02    0.42663E-08   -0.13637E-08  6088   0.939E-04    0.927E-05
RMM:   5    -0.369224277238E+02   -0.22919E-09   -0.11010E-09  5394   0.235E-04    0.454E-05
RMM:   6    -0.369224277240E+02   -0.22749E-09   -0.16800E-10  3840   0.107E-04    0.408E-06
RMM:   7    -0.369224277239E+02    0.65143E-10   -0.76762E-12  3714   0.512E-05
   3 F= -.36922428E+02 E0= -.36922385E+02  d E =-.150894E-05
       N       E                     dE             d eps       ncg     rms          rms(c)
DAV:   1    -0.369224277233E+02    0.71577E-09    0.56688E-09  4820   0.969E-05    0.129E-06
RMM:   2    -0.369224277240E+02   -0.71282E-09    0.42794E-12  3213   0.304E-05    0.782E-07
RMM:   3    -0.369224277241E+02   -0.80718E-10   -0.14808E-12  2914   0.304E-05    0.162E-07
RMM:   4    -0.369224277241E+02   -0.20236E-10   -0.15182E-12  2553   0.276E-05    0.197E-07
RMM:   5    -0.369224277239E+02    0.19440E-09   -0.32864E-13  2361   0.258E-05    0.345E-07
RMM:   6    -0.369224277242E+02   -0.26500E-09   -0.37261E-12  2249   0.243E-05    0.105E-07
RMM:   7    -0.369224277241E+02    0.34447E-10   -0.10294E-12  2089   0.223E-05
   4 F= -.36922428E+02 E0= -.36922385E+02  d E =-.199293E-09
       N       E                     dE             d eps       ncg     rms          rms(c)
DAV:   1    -0.369224277233E+02    0.84583E-09    0.57410E-09  5108   0.509E-05    0.717E-07
RMM:   2    -0.369224277241E+02   -0.80013E-09    0.32270E-13  1485   0.143E-05    0.444E-07
RMM:   3    -0.369224277240E+02    0.13745E-09   -0.57033E-13  1417   0.140E-05    0.140E-08
RMM:   4    -0.369224277240E+02   -0.65938E-11   -0.69331E-13  1396   0.138E-05    0.865E-09
RMM:   5    -0.369224277241E+02   -0.12210E-09    0.50166E-14  1370   0.138E-05    0.390E-09
RMM:   6    -0.369224277239E+02    0.23010E-09   -0.38064E-13  1302   0.138E-05    0.934E-09
RMM:   7    -0.369224277240E+02   -0.10277E-09    0.36884E-14  1315   0.134E-05    0.101E-08
RMM:   8    -0.369224277241E+02   -0.15336E-09    0.10518E-13  1025   0.134E-05    0.836E-09
RMM:   9    -0.369224277240E+02    0.11380E-09   -0.39183E-13  1025   0.134E-05    0.110E-08
RMM:  10    -0.369224277241E+02   -0.35357E-10   -0.41531E-14  1169   0.133E-05
   5 F= -.36922428E+02 E0= -.36922385E+02  d E =0.724185E-10
       N       E                     dE             d eps       ncg     rms          rms(c)
DAV:   1    -0.369224277232E+02    0.78171E-09    0.57627E-09  4520   0.187E-05    0.421E-07
RMM:   2    -0.369224277239E+02   -0.62323E-09    0.10247E-13  1018   0.603E-06    0.258E-07
RMM:   3    -0.369224277239E+02   -0.53888E-10    0.88818E-15  1116   0.598E-06    0.489E-09
RMM:   4    -0.369224277240E+02   -0.52864E-10   -0.13652E-14  1107   0.598E-06    0.232E-09
RMM:   5    -0.369224277237E+02    0.22681E-09   -0.43258E-14  1103   0.600E-06    0.851E-10
RMM:   6    -0.369224277237E+02   -0.36380E-11   -0.12994E-14   898   0.596E-06
   6 F= -.36922428E+02 E0= -.36922385E+02  d E =0.310251E-09
