gr                                      
           1
     4.295905    0.000000    0.000000
     0.000000    2.464815    0.000000
     0.000000    0.000000   19.911757
   C 
   4
Direct configuration=     1
   0.99987391  0.00000000  0.00000000
   0.16679275  0.50000000  0.00000000
   0.49987391  0.50000000  0.00000000
   0.66679275  0.00000000  0.00000000
Direct configuration=     2
   0.99984899 -0.00000000 -0.00000000
   0.16681768  0.50000000  0.00000000
   0.49984899  0.50000000 -0.00000000
   0.66681768 -0.00000000  0.00000000
Direct configuration=     3
   0.99986889 -0.00000000 -0.00000000
   0.16679778  0.50000000  0.00000000
   0.49986889  0.50000000 -0.00000000
   0.66679778 -0.00000000  0.00000000
Direct configuration=     4
   0.99986891 -0.00000000  0.00000000
   0.16679776  0.50000000 -0.00000000
   0.49986891  0.50000000  0.00000000
   0.66679776 -0.00000000 -0.00000000
Direct configuration=     5
   0.99986890 -0.00000000  0.00000000
   0.16679777  0.50000000 -0.00000000
   0.49986890  0.50000000  0.00000000
   0.66679777 -0.00000000 -0.00000000
Direct configuration=     6
   0.99986889 -0.00000000  0.00000000
   0.16679777  0.50000000 -0.00000000
   0.49986889  0.50000000  0.00000000
   0.66679777 -0.00000000 -0.00000000
