    4    4  400    1
  0.5270948E+02  0.4261977E-09  0.2504557E-09  0.1975180E-08  0.5000000E-15
  1.000000000000000E-004
  CAR 
 gr                                      
     16    247     12
 
  0.0000000E+00  0.0000000E+00  0.0000000E+00  0.1157407E-02
    1      -22.149398
    2      -16.828363
    3      -15.906026
    4      -10.278431
    5       -9.356678
    6       -5.917263
    7       -5.754340
    8       -4.985364
    9       -1.112720
   10        0.536355
   11        1.335693
   12        1.724848
 
  0.4166667E-01  0.0000000E+00  0.0000000E+00  0.2314815E-02
    1      -22.139072
    2      -17.011317
    3      -15.707955
    4      -10.266145
    5       -9.346353
    6       -5.940536
    7       -5.795547
    8       -5.054024
    9       -1.028774
   10        0.550354
   11        1.349848
   12        1.739179
 
  0.8333333E-01  0.0000000E+00  0.0000000E+00  0.2314815E-02
    1      -22.108097
    2      -17.366267
    3      -15.307739
    4      -10.229304
    5       -9.315428
    6       -6.009031
    7       -5.917594
    8       -5.243761
    9       -0.793356
   10        0.592349
   11        1.392311
   12        1.782173
 
  0.1250000E+00  0.0000000E+00  0.0000000E+00  0.2314815E-02
    1      -22.056494
    2      -17.752955
    3      -14.845911
    4      -10.167966
    5       -9.264055
    6       -6.119017
    7       -6.116013
    8       -5.519018
    9       -0.442549
   10        0.662338
   11        1.463069
   12        1.853831
 
  0.1666667E+00  0.0000000E+00  0.0000000E+00  0.2314815E-02
    1      -21.984297
    2      -18.138684
    3      -14.355631
    4      -10.082227
    5       -9.192491
    6       -6.384073
    7       -6.264956
    8       -5.845419
    9       -0.011615
   10        0.760317
   11        1.562103
   12        1.954152
 
  0.2083333E+00  0.0000000E+00  0.0000000E+00  0.2314815E-02
    1      -21.891556
    2      -18.513972
    3      -13.847053
    4       -9.972230
    5       -9.101112
    6       -6.713639
    7       -6.440276
    8       -6.197996
    9        0.473218
   10        0.886275
   11        1.689380
   12        2.083135
 
  0.2500000E+00  0.0000000E+00  0.0000000E+00  0.2314815E-02
    1      -21.778333
    2      -18.875045
    3      -13.324833
    4       -9.838160
    5       -8.990419
    6       -7.095985
    7       -6.638091
    8       -6.560426
    9        0.993977
   10        1.040192
   11        1.844855
   12        2.240778
 
  0.2916667E+00  0.0000000E+00  0.0000000E+00  0.2314815E-02
    1      -21.644709
    2      -19.220020
    3      -12.791984
    4       -9.680263
    5       -8.861057
    6       -7.522446
    7       -6.922256
    8       -6.851746
    9        1.222037
   10        1.538112
   11        2.028460
   12        2.427077
 
  0.3333333E+00  0.0000000E+00  0.0000000E+00  0.2314815E-02
    1      -21.490781
    2      -19.547784
    3      -12.251011
    4       -9.498845
    5       -8.713836
    6       -7.984855
    7       -7.276682
    8       -7.075155
    9        1.431768
   10        2.096143
   11        2.240088
   12        2.642023
 
  0.3750000E+00  0.0000000E+00  0.0000000E+00  0.2314815E-02
    1      -21.316663
    2      -19.857606
    3      -11.704357
    4       -9.294293
    5       -8.549760
    6       -8.475781
    7       -7.619142
    8       -7.302958
    9        1.669327
   10        2.479558
   11        2.659698
   12        2.885605
 
  0.4166667E+00  0.0000000E+00  0.0000000E+00  0.2314815E-02
    1      -21.122491
    2      -20.148949
    3      -11.154611
    4       -9.067086
    5       -8.988627
    6       -8.370064
    7       -7.946472
    8       -7.530547
    9        1.934632
   10        2.746505
   11        3.157797
   12        3.216870
 
  0.4583333E+00  0.0000000E+00  0.0000000E+00  0.2314815E-02
    1      -20.908423
    2      -20.421406
    3      -10.604649
    4       -9.517615
    5       -8.817828
    6       -8.256407
    7       -8.176255
    8       -7.754034
    9        2.227566
   10        2.895456
   11        3.039977
   12        3.458553
 
  0.5000000E+00  0.0000000E+00  0.0000000E+00  0.1157407E-02
    1      -20.674654
    2      -20.674654
    3      -10.057734
    4      -10.057734
    5       -8.547278
    6       -8.547278
    7       -7.970169
    8       -7.970169
    9        2.547949
   10        2.547949
   11        3.355892
   12        3.355892
 
  0.0000000E+00  0.2777778E-01  0.0000000E+00  0.2314815E-02
    1      -22.136133
    2      -16.816941
    3      -15.895161
    4      -10.262647
    5       -9.416182
    6       -5.972037
    7       -5.785802
    8       -4.969271
    9       -1.118029
   10        0.554317
   11        1.353905
   12        1.743285
 
  0.4166667E-01  0.2777778E-01  0.0000000E+00  0.4629630E-02
    1      -22.125807
    2      -16.999760
    3      -15.697281
    4      -10.250365
    5       -9.405832
    6       -5.999205
    7       -5.822402
    8       -5.038096
    9       -1.034045
   10        0.568317
   11        1.368060
   12        1.757616
 
  0.8333333E-01  0.2777778E-01  0.0000000E+00  0.4629630E-02
    1      -22.094837
    2      -17.354484
    3      -15.297464
    4      -10.213537
    5       -9.374830
    6       -6.082364
    7       -5.927786
    8       -5.228203
    9       -0.798637
   10        0.610315
   11        1.410519
   12        1.800611
 
  0.1250000E+00  0.2777778E-01  0.0000000E+00  0.4629630E-02
    1      -22.043241
    2      -17.740959
    3      -14.836146
    4      -10.152221
    5       -9.323325
    6       -6.231029
    7       -6.084568
    8       -5.503832
    9       -0.448094
   10        0.680310
   11        1.481272
   12        1.872270
 
  0.1666667E+00  0.2777778E-01  0.0000000E+00  0.4629630E-02
    1      -21.971055
    2      -18.126501
    3      -14.346485
    4      -10.066514
    5       -9.251565
    6       -6.461713
    7       -6.264391
    8       -5.830499
    9       -0.017788
   10        0.778297
   11        1.580299
   12        1.972593
 
  0.2083333E+00  0.2777778E-01  0.0000000E+00  0.4629630E-02
    1      -21.878327
    2      -18.501626
    3      -13.838652
    4       -9.956556
    5       -9.159914
    6       -6.769650
    7       -6.457699
    8       -6.183224
    9        0.466044
   10        0.904265
   11        1.707568
   12        2.101578
 
  0.2500000E+00  0.2777778E-01  0.0000000E+00  0.4629630E-02
    1      -21.765122
    2      -18.862558
    3      -13.317329
    4       -9.822535
    5       -9.048856
    6       -7.137957
    7       -6.666048
    8       -6.545707
    9        0.985456
   10        1.058193
   11        1.863033
   12        2.259223
 
  0.2916667E+00  0.2777778E-01  0.0000000E+00  0.4629630E-02
    1      -21.631520
    2      -19.207411
    3      -12.785560
    4       -9.664695
    5       -8.919014
    6       -7.554028
    7       -6.907525
    8       -6.886901
    9        1.240051
   10        1.527944
   11        2.046627
   12        2.445526
 
  0.3333333E+00  0.2777778E-01  0.0000000E+00  0.4629630E-02
    1      -21.477618
    2      -19.535072
    3      -12.245895
    4       -9.483343
    5       -8.771171
    6       -8.008266
    7       -7.261896
    8       -7.115672
    9        1.449797
   10        2.084098
   11        2.258246
   12        2.660477
 
  0.3750000E+00  0.2777778E-01  0.0000000E+00  0.4629630E-02
    1      -21.303531
    2      -19.844803
    3      -11.700827
    4       -9.278866
    5       -8.606299
    6       -8.492617
    7       -7.604275
    8       -7.347630
    9        1.687373
   10        2.497711
   11        2.645711
   12        2.904066
 
  0.4166667E+00  0.2777778E-01  0.0000000E+00  0.4629630E-02
    1      -21.109394
    2      -20.136069
    3      -11.153011
    4       -9.051742
    5       -9.000131
    6       -8.425586
    7       -7.931511
    8       -7.578493
    9        1.952699
   10        2.764666
   11        3.176269
   12        3.201711
 
  0.4583333E+00  0.2777778E-01  0.0000000E+00  0.4629630E-02
    1      -20.895369
    2      -20.408459
    3      -10.605405
    4       -9.524784
    5       -8.802574
    6       -8.241347
    7       -8.230487
    8       -7.804576
    9        2.245662
   10        2.913686
   11        3.058172
   12        3.477044
 
  0.5000000E+00  0.2777778E-01  0.0000000E+00  0.2314815E-02
    1      -20.661649
    2      -20.661649
    3      -10.061370
    4      -10.061370
    5       -8.532120
    6       -8.532120
    7       -8.022770
    8       -8.022770
    9        2.566090
   10        2.566090
   11        3.374099
   12        3.374099
 
  0.0000000E+00  0.5555556E-01  0.0000000E+00  0.2314815E-02
    1      -22.096347
    2      -16.782680
    3      -15.862747
    4      -10.215327
    5       -9.589850
    6       -6.132068
    7       -5.879270
    8       -4.921014
    9       -1.134760
   10        0.608209
   11        1.408535
   12        1.798597
 
  0.4166667E-01  0.5555556E-01  0.0000000E+00  0.4629630E-02
    1      -22.086026
    2      -16.965108
    3      -15.665436
    4      -10.203059
    5       -9.579420
    6       -6.166100
    7       -5.906937
    8       -4.990347
    9       -1.050654
   10        0.622211
   11        1.422686
   12        1.812929
 
  0.8333333E-01  0.5555556E-01  0.0000000E+00  0.4629630E-02
    1      -22.055068
    2      -17.319164
    3      -15.266824
    4      -10.166271
    5       -9.548171
    6       -6.266601
    7       -5.989127
    8       -5.181597
    9       -0.815263
   10        0.664217
   11        1.465136
   12        1.855926
 
  0.1250000E+00  0.5555556E-01  0.0000000E+00  0.4629630E-02
    1      -22.003494
    2      -17.705000
    3      -14.807063
    4      -10.105021
    5       -9.496237
    6       -6.430161
    7       -6.122325
    8       -5.458364
    9       -0.465519
   10        0.734225
   11        1.535873
   12        1.927587
 
  0.1666667E+00  0.5555556E-01  0.0000000E+00  0.4629630E-02
    1      -21.931340
    2      -18.089977
    3      -14.319304
    4      -10.019408
    5       -9.423839
    6       -6.653828
    7       -6.298842
    8       -5.785842
    9       -0.037120
   10        0.832231
   11        1.634878
   12        2.027914
 
  0.2083333E+00  0.5555556E-01  0.0000000E+00  0.4629630E-02
    1      -21.838654
    2      -18.464611
    3      -13.813772
    4       -9.909570
    5       -9.331302
    6       -6.935463
    7       -6.507634
    8       -6.139013
    9        0.443660
   10        0.958224
   11        1.762119
   12        2.156904
 
  0.2500000E+00  0.5555556E-01  0.0000000E+00  0.4629630E-02
    1      -21.725501
    2      -18.825120
    3      -13.295229
    4       -9.775698
    5       -9.219054
    6       -7.271986
    7       -6.737312
    8       -6.501653
    9        0.958968
   10        1.112182
   11        1.917552
   12        2.314558
 
  0.2916667E+00  0.5555556E-01  0.0000000E+00  0.4629630E-02
    1      -21.591965
    2      -19.169608
    3      -12.766829
    4       -9.618032
    5       -9.087647
    6       -7.658007
    7       -6.978641
    8       -6.863426
    9        1.294075
   10        1.496437
   11        2.101112
   12        2.500870
 
  0.3333333E+00  0.5555556E-01  0.0000000E+00  0.4629630E-02
    1      -21.438140
    2      -19.496953
    3      -12.231259
    4       -9.436883
    5       -8.937769
    6       -8.086316
    7       -7.224887
    8       -7.217625
    9        1.503859
   10        2.046853
   11        2.312700
   12        2.715834
 
  0.3750000E+00  0.5555556E-01  0.0000000E+00  0.4629630E-02
    1      -21.264145
    2      -19.806412
    3      -11.691189
    4       -9.232633
    5       -8.770270
    6       -8.549155
    7       -7.559756
    8       -7.471063
    9        1.741478
   10        2.552149
   11        2.602438
   12        2.959439
 
  0.4166667E+00  0.5555556E-01  0.0000000E+00  0.4629630E-02
    1      -21.070117
    2      -20.097444
    3      -11.149497
    4       -9.039124
    5       -9.005762
    6       -8.586183
    7       -7.886704
    8       -7.713260
    9        2.006855
   10        2.819126
   11        3.154076
   12        3.231668
 
  0.4583333E+00  0.5555556E-01  0.0000000E+00  0.4629630E-02
    1      -20.856220
    2      -20.369633
    3      -10.609420
    4       -9.549569
    5       -8.756868
    6       -8.386764
    7       -8.196236
    8       -7.948293
    9        2.299886
   10        2.968219
   11        3.112740
   12        3.532710
 
  0.5000000E+00  0.5555556E-01  0.0000000E+00  0.2314815E-02
    1      -20.622649
    2      -20.622649
    3      -10.074674
    4      -10.074674
    5       -8.486706
    6       -8.486706
    7       -8.173526
    8       -8.173526
    9        2.620422
   10        2.620422
   11        3.428705
   12        3.428705
 
  0.0000000E+00  0.8333333E-01  0.0000000E+00  0.2314815E-02
    1      -22.030077
    2      -16.725593
    3      -15.809378
    4      -10.136571
    5       -9.864475
    6       -6.385747
    7       -6.032078
    8       -4.840652
    9       -1.165318
   10        0.698052
   11        1.499561
   12        1.890789
 
  0.4166667E-01  0.8333333E-01  0.0000000E+00  0.4629630E-02
    1      -22.019762
    2      -16.907422
    3      -15.612979
    4      -10.124325
    5       -9.853889
    6       -6.425570
    7       -6.050685
    8       -4.910886
    9       -1.080974
   10        0.712055
   11        1.513706
   12        1.905121
 
  0.8333333E-01  0.8333333E-01  0.0000000E+00  0.4629630E-02
    1      -21.988826
    2      -17.260395
    3      -15.216405
    4      -10.087606
    5       -9.822163
    6       -6.538507
    7       -6.111163
    8       -5.104146
    9       -0.845561
   10        0.754066
   11        1.556139
   12        1.948119
 
  0.1250000E+00  0.8333333E-01  0.0000000E+00  0.4629630E-02
    1      -21.937290
    2      -17.645169
    3      -14.759344
    4      -10.026471
    5       -9.769399
    6       -6.711810
    7       -6.220729
    8       -5.382896
    9       -0.497153
   10        0.824085
   11        1.626846
   12        2.019783
 
  0.1666667E+00  0.8333333E-01  0.0000000E+00  0.4629630E-02
    1      -21.865189
    2      -18.029198
    3      -14.274924
    4       -9.941018
    5       -9.695765
    6       -6.934866
    7       -6.381189
    8       -5.711765
    9       -0.072018
   10        0.922110
   11        1.725810
   12        2.120114
 
  0.2083333E+00  0.8333333E-01  0.0000000E+00  0.4629630E-02
    1      -21.772573
    2      -18.403005
    3      -13.773470
    4       -9.831387
    5       -9.601503
    6       -7.201231
    7       -6.587591
    8       -6.065688
    9        0.403531
   10        1.048130
   11        1.852999
   12        2.249111
 
  0.2500000E+00  0.8333333E-01  0.0000000E+00  0.4629630E-02
    1      -21.659510
    2      -18.762799
    3      -13.259904
    4       -9.697768
    5       -9.486927
    6       -7.508105
    7       -6.829677
    8       -6.428578
    9        0.911806
   10        1.202123
   11        2.008370
   12        2.406774
 
  0.2916667E+00  0.8333333E-01  0.0000000E+00  0.4629630E-02
    1      -21.526082
    2      -19.106670
    3      -12.737597
    4       -9.540403
    5       -9.352434
    6       -7.854943
    7       -7.094274
    8       -6.790258
    9        1.384058
   10        1.440671
   11        2.191864
   12        2.593098
 
  0.3333333E+00  0.8333333E-01  0.0000000E+00  0.4629630E-02
    1      -21.372388
    2      -19.433485
    3      -12.209520
    4       -9.359600
    5       -9.198505
    6       -8.241294
    7       -7.368334
    8       -7.144146
    9        1.593888
   10        1.981212
   11        2.403388
   12        2.808078
 
  0.3750000E+00  0.8333333E-01  0.0000000E+00  0.4629630E-02
    1      -21.198547
    2      -19.742486
    3      -11.678712
    4       -9.155742
    5       -9.025713
    6       -8.664841
    7       -7.641542
    8       -7.485838
    9        1.831557
   10        2.526198
   11        2.642796
   12        3.051705
 
  0.4166667E+00  0.8333333E-01  0.0000000E+00  0.4629630E-02
    1      -21.004701
    2      -20.033125
    3      -11.148529
    4       -9.120924
    5       -8.929306
    6       -8.834730
    7       -7.907155
    8       -7.812281
    9        2.096991
   10        2.909800
   11        3.068503
   12        3.323965
 
  0.4583333E+00  0.8333333E-01  0.0000000E+00  0.4629630E-02
    1      -20.791019
    2      -20.304974
    3      -10.622818
    4       -9.603453
    5       -8.680886
    6       -8.626341
    7       -8.161234
    8       -8.121285
    9        2.390094
   10        3.058725
   11        3.203612
   12        3.589193
 
  0.5000000E+00  0.8333333E-01  0.0000000E+00  0.2314815E-02
    1      -20.557698
    2      -20.557698
    3      -10.106058
    4      -10.106058
    5       -8.411229
    6       -8.411229
    7       -8.401466
    8       -8.401466
    9        2.710736
   10        2.710736
   11        3.519642
   12        3.519642
 
  0.0000000E+00  0.1111111E+00  0.0000000E+00  0.2314815E-02
    1      -21.937385
    2      -16.645698
    3      -15.736175
    4      -10.221575
    5      -10.026545
    6       -6.717153
    7       -6.240040
    8       -4.728283
    9       -1.213639
   10        0.823868
   11        1.626946
   12        2.019865
 
  0.4166667E-01  0.1111111E+00  0.0000000E+00  0.4629630E-02
    1      -21.927081
    2      -16.826810
    3      -15.540980
    4      -10.210722
    5      -10.014332
    6       -6.761501
    7       -6.249902
    8       -4.799905
    9       -1.128870
   10        0.837870
   11        1.641082
   12        2.034197
 
  0.8333333E-01  0.1111111E+00  0.0000000E+00  0.4629630E-02
    1      -21.896176
    2      -17.178336
    3      -15.147338
    4      -10.178174
    5       -9.977713
    6       -6.884081
    7       -6.288676
    8       -4.996227
    9       -0.893289
   10        0.879877
   11        1.683485
   12        2.077195
 
  0.1250000E+00  0.1111111E+00  0.0000000E+00  0.4629630E-02
    1      -21.844693
    2      -17.561626
    3      -14.694318
    4      -10.123975
    5       -9.916745
    6       -7.065629
    7       -6.371733
    8       -5.277941
    9       -0.546739
   10        0.949893
   11        1.754145
   12        2.148859
 
  0.1666667E+00  0.1111111E+00  0.0000000E+00  0.4629630E-02
    1      -21.772666
    2      -17.944311
    3      -14.214999
    4      -10.048188
    5       -9.831526
    6       -7.290949
    7       -6.507698
    8       -5.608847
    9       -0.126317
   10        1.047921
   11        1.853040
   12        2.249192
 
  0.2083333E+00  0.1111111E+00  0.0000000E+00  0.4629630E-02
    1      -21.680150
    2      -18.316941
    3      -13.719877
    4       -9.950898
    5       -9.722198
    6       -7.550392
    7       -6.697108
    8       -5.963837
    9        0.341641
   10        1.173954
   11        1.980141
   12        2.378194
 
  0.2500000E+00  0.1111111E+00  0.0000000E+00  0.4629630E-02
    1      -21.567213
    2      -18.675716
    3      -13.214167
    4       -9.832192
    5       -9.588949
    6       -7.838592
    7       -6.934182
    8       -6.327051
    9        0.839721
   10        1.327971
   11        2.135407
   12        2.535865
 
  0.2916667E+00  0.1111111E+00  0.0000000E+00  0.4629630E-02
    1      -21.433937
    2      -19.018708
    3      -12.701644
    4       -9.692147
    5       -9.432024
    6       -8.153650
    7       -7.208422
    8       -6.688551
    9        1.356134
   10        1.509937
   11        2.318780
   12        2.722201
 
  0.3333333E+00  0.1111111E+00  0.0000000E+00  0.4629630E-02
    1      -21.280426
    2      -19.344766
    3      -12.185831
    4       -9.530808
    5       -9.251730
    6       -8.496456
    7       -7.506166
    8       -7.041946
    9        1.719804
   10        1.882355
   11        2.530180
   12        2.937196
 
  0.3750000E+00  0.1111111E+00  0.0000000E+00  0.4629630E-02
    1      -21.106804
    2      -19.653116
    3      -11.670496
    4       -9.348156
    5       -9.048448
    6       -8.869415
    7       -7.812622
    8       -7.382967
    9        1.957512
   10        2.411709
   11        2.769487
   12        3.180843
 
  0.4166667E+00  0.1111111E+00  0.0000000E+00  0.4629630E-02
    1      -20.913216
    2      -19.943195
    3      -11.159943
    4       -9.274340
    5       -9.144081
    6       -8.822652
    7       -8.114521
    8       -7.708649
    9        2.222985
   10        2.938427
   11        3.036486
   12        3.453131
 
  0.4583333E+00  0.1111111E+00  0.0000000E+00  0.4629630E-02
    1      -20.699838
    2      -20.214563
    3      -10.659187
    4       -9.710456
    5       -8.918404
    6       -8.574932
    7       -8.402381
    8       -8.016861
    9        2.516130
   10        3.184922
   11        3.330600
   12        3.455522
 
  0.5000000E+00  0.1111111E+00  0.0000000E+00  0.2314815E-02
    1      -20.466873
    2      -20.466873
    3      -10.173970
    4      -10.173970
    5       -8.671021
    6       -8.671021
    7       -8.306024
    8       -8.306024
    9        2.836830
   10        2.836830
   11        3.646567
   12        3.646570
 
  0.0000000E+00  0.1388889E+00  0.0000000E+00  0.2314815E-02
    1      -21.818362
    2      -16.543027
    3      -15.645047
    4      -10.640605
    5       -9.885490
    6       -7.109233
    7       -6.497793
    8       -4.584051
    9       -1.285018
   10        0.985674
   11        1.790633
   12        2.185830
 
  0.4166667E-01  0.1388889E+00  0.0000000E+00  0.4629630E-02
    1      -21.808071
    2      -16.723450
    3      -15.451271
    4      -10.629302
    5       -9.873323
    6       -7.157365
    7       -6.498978
    8       -4.657713
    9       -1.199504
   10        0.999669
   11        1.804754
   12        2.200162
 
  0.8333333E-01  0.1388889E+00  0.0000000E+00  0.4629630E-02
    1      -21.777207
    2      -17.073245
    3      -15.061593
    4      -10.595370
    5       -9.836839
    6       -7.288243
    7       -6.515372
    8       -4.858453
    9       -0.963382
   10        1.041657
   11        1.847112
   12        2.243156
 
  0.1250000E+00  0.1388889E+00  0.0000000E+00  0.4629630E-02
    1      -21.725791
    2      -17.454628
    3      -14.614350
    4      -10.538736
    5       -9.776098
    6       -7.477614
    7       -6.569001
    8       -5.144333
    9       -0.619120
   10        1.111649
   11        1.917694
   12        2.314816
 
  0.1666667E+00  0.1388889E+00  0.0000000E+00  0.4629630E-02
    1      -21.653864
    2      -17.835552
    3      -14.142544
    4      -10.459262
    5       -9.691198
    6       -7.706981
    7       -6.674160
    8       -5.478011
    9       -0.204931
   10        1.209653
   11        2.016479
   12        2.415146
 
  0.2083333E+00  0.1388889E+00  0.0000000E+00  0.4629630E-02
    1      -21.561477
    2      -18.206628
    3      -13.656977
    4      -10.356711
    5       -9.582281
    6       -7.964617
    7       -6.836049
    8       -5.834385
    9        0.252906
   10        1.335668
   11        2.143435
   12        2.544148
 
  0.2500000E+00  0.1388889E+00  0.0000000E+00  0.4629630E-02
    1      -21.448700
    2      -18.564056
    3      -13.163410
    4      -10.230702
    5       -9.449539
    6       -8.243329
    7       -7.053035
    8       -6.197950
    9        0.737427
   10        1.489678
   11        2.298517
   12        2.701822
 
  0.2916667E+00  0.1388889E+00  0.0000000E+00  0.4629630E-02
    1      -21.315623
    2      -18.905887
    3      -12.666410
    4      -10.080644
    5       -9.293215
    6       -8.539171
    7       -7.318403
    8       -6.559121
    9        1.237352
   10        1.671649
   11        2.481669
   12        2.888166
 
  0.3333333E+00  0.1388889E+00  0.0000000E+00  0.4629630E-02
    1      -21.162352
    2      -19.230946
    3      -12.170575
    4       -9.905656
    5       -9.113617
    6       -8.850983
    7       -7.621608
    8       -6.911773
    9        1.744668
   10        1.881529
   11        2.692815
   12        3.103174
 
  0.3750000E+00  0.1388889E+00  0.0000000E+00  0.4629630E-02
    1      -20.989014
    2      -19.538438
    3      -11.681071
    4       -9.704506
    5       -9.180227
    6       -8.911126
    7       -7.949276
    8       -7.251819
    9        2.119249
   10        2.253266
   11        2.931856
   12        3.346837
 
  0.4166667E+00  0.1388889E+00  0.0000000E+00  0.4629630E-02
    1      -20.795764
    2      -19.827780
    3      -11.203834
    4       -9.530579
    5       -9.475678
    6       -8.686211
    7       -8.286317
    8       -7.576417
    9        2.384729
   10        2.758179
   11        3.198658
   12        3.619146
 
  0.4583333E+00  0.1388889E+00  0.0000000E+00  0.4629630E-02
    1      -20.582782
    2      -20.098516
    3      -10.745340
    4       -9.906641
    5       -9.217802
    6       -8.617661
    7       -8.439456
    8       -7.883516
    9        2.677873
   10        3.255122
   11        3.346645
   12        3.493005
 
  0.5000000E+00  0.1388889E+00  0.0000000E+00  0.2314815E-02
    1      -20.350283
    2      -20.350283
    3      -10.311639
    4      -10.311639
    5       -8.930778
    6       -8.930778
    7       -8.171586
    8       -8.171586
    9        2.998561
   10        2.998561
   11        3.738623
   12        3.738629
 
  0.0000000E+00  0.1666667E+00  0.0000000E+00  0.2314815E-02
    1      -21.673128
    2      -16.417621
    3      -15.539211
    4      -11.100894
    5       -9.713729
    6       -7.546044
    7       -6.799183
    8       -4.408144
    9       -1.385756
   10        1.183469
   11        1.990544
   12        2.388688
 
  0.4166667E-01  0.1666667E+00  0.0000000E+00  0.4629630E-02
    1      -21.662854
    2      -16.597626
    3      -15.346963
    4      -11.088824
    5       -9.701621
    6       -7.597600
    7       -6.791662
    8       -4.484785
    9       -1.298908
   10        1.197451
   11        2.004640
   12        2.403017
 
  0.8333333E-01  0.1666667E+00  0.0000000E+00  0.4629630E-02
    1      -21.632040
    2      -16.945526
    3      -14.962597
    4      -11.052515
    5       -9.665315
    6       -7.736178
    7       -6.785037
    8       -4.691812
    9       -1.061425
   10        1.239405
   11        2.046925
   12        2.446006
 
  0.1250000E+00  0.1666667E+00  0.0000000E+00  0.4629630E-02
    1      -21.580710
    2      -17.324573
    3      -14.523678
    4      -10.991661
    5       -9.604871
    6       -7.933338
    7       -6.807039
    8       -4.983386
    9       -0.719641
   10        1.309344
   11        2.117381
   12        2.517657
 
  0.1666667E+00  0.1666667E+00  0.0000000E+00  0.4629630E-02
    1      -21.508902
    2      -17.703276
    3      -14.063125
    4      -10.905693
    5       -9.520390
    6       -8.167938
    7       -6.876883
    8       -5.320678
    9       -0.313184
   10        1.407286
   11        2.215982
   12        2.617976
 
  0.2083333E+00  0.1666667E+00  0.0000000E+00  0.4629630E-02
    1      -21.416674
    2      -18.072378
    3      -13.592358
    4      -10.793699
    5       -9.412015
    6       -8.426836
    7       -7.003835
    8       -5.678728
    9        0.131927
   10        1.533240
   11        2.342686
   12        2.746969
 
  0.2500000E+00  0.1666667E+00  0.0000000E+00  0.4629630E-02
    1      -21.304099
    2      -18.428090
    3      -13.118229
    4      -10.654294
    5       -9.279939
    6       -8.701803
    7       -7.189878
    8       -6.042586
    9        0.599463
   10        1.687199
   11        2.497435
   12        2.904637
 
  0.2916667E+00  0.1666667E+00  0.0000000E+00  0.4629630E-02
    1      -21.171268
    2      -18.768444
    3      -12.646850
    4      -10.485490
    5       -9.124409
    6       -8.987694
    7       -7.431618
    8       -6.403166
    9        1.078907
   10        1.869132
   11        2.680148
   12        3.090981
 
  0.3333333E+00  0.1666667E+00  0.0000000E+00  0.4629630E-02
    1      -21.018293
    2      -19.092237
    3      -12.184775
    4      -10.284645
    5       -9.281682
    6       -8.945732
    7       -7.721625
    8       -6.754707
    9        1.562962
   10        2.078984
   11        2.890709
   12        3.305995
 
  0.3750000E+00  0.1666667E+00  0.0000000E+00  0.4629630E-02
    1      -20.845311
    2      -19.398644
    3      -11.739166
    4      -10.048773
    5       -9.583045
    6       -8.744289
    7       -8.049485
    8       -7.093364
    9        2.046197
   10        2.316680
   11        3.128933
   12        3.549670
 
  0.4166667E+00  0.1666667E+00  0.0000000E+00  0.4629630E-02
    1      -20.652483
    2      -19.687054
    3      -11.316938
    4       -9.893245
    5       -9.775667
    6       -8.520549
    7       -8.402551
    8       -7.416455
    9        2.524304
   10        2.582128
   11        3.394392
   12        3.821994
 
  0.4583333E+00  0.1666667E+00  0.0000000E+00  0.4629630E-02
    1      -20.439999
    2      -19.956996
    3      -10.922795
    4      -10.216046
    5       -9.466061
    6       -8.766463
    7       -8.275087
    8       -7.722027
    9        2.875220
   10        2.993593
   11        3.543797
   12        3.682878
 
  0.5000000E+00  0.1666667E+00  0.0000000E+00  0.2314815E-02
    1      -20.208082
    2      -20.208082
    3      -10.557164
    4      -10.557164
    5       -9.125867
    6       -9.125867
    7       -8.008615
    8       -8.008615
    9        3.195828
   10        3.195828
   11        3.450043
   12        3.450043
 