       N       E                     dE             d eps       ncg     rms          rms(c)
DAV:   1     0.187837815479E+03    0.18784E+03   -0.10602E+04  5928   0.275E+03
DAV:   2    -0.937798452667E+01   -0.19722E+03   -0.17520E+03 10364   0.261E+02
DAV:   3    -0.382335600576E+02   -0.28856E+02   -0.28309E+02  7360   0.119E+02    0.719E+00
RMM:   4    -0.376427053110E+02    0.59085E+00   -0.94218E+00  5928   0.264E+01    0.417E+00
RMM:   5    -0.369107016301E+02    0.73200E+00   -0.27287E+00  5932   0.113E+01    0.714E-01
RMM:   6    -0.369121786705E+02   -0.14770E-02   -0.80472E-02  6370   0.201E+00    0.510E-01
RMM:   7    -0.369030263238E+02    0.91523E-02   -0.32222E-02  5942   0.156E+00    0.334E-01
RMM:   8    -0.368977184117E+02    0.53079E-02   -0.71343E-03  5928   0.560E-01    0.132E-01
RMM:   9    -0.368974985584E+02    0.21985E-03   -0.19822E-02  5928   0.832E-01    0.156E-01
RMM:  10    -0.368973950046E+02    0.10355E-03   -0.24946E-03  5928   0.360E-01    0.292E-02
RMM:  11    -0.368998100852E+02   -0.24151E-02   -0.67919E-04  5928   0.172E-01    0.444E-02
RMM:  12    -0.369002740907E+02   -0.46401E-03   -0.21768E-04  5942   0.974E-02    0.523E-03
RMM:  13    -0.369005268668E+02   -0.25278E-03   -0.51621E-05  6013   0.399E-02    0.414E-03
RMM:  14    -0.369006088218E+02   -0.81955E-04   -0.10881E-05  5943   0.180E-02    0.171E-03
RMM:  15    -0.369006182694E+02   -0.94475E-05   -0.15926E-06  5995   0.742E-03    0.137E-03
RMM:  16    -0.369006306878E+02   -0.12418E-04   -0.81531E-07  5928   0.573E-03    0.787E-04
RMM:  17    -0.369006357973E+02   -0.51094E-05   -0.49677E-08  6107   0.151E-03    0.780E-04
RMM:  18    -0.369006369181E+02   -0.11208E-05   -0.63300E-08  5928   0.187E-03    0.805E-05
RMM:  19    -0.369006376782E+02   -0.76015E-06   -0.10569E-08  6012   0.492E-04    0.230E-05
RMM:  20    -0.369006377339E+02   -0.55732E-07   -0.77562E-10  4466   0.130E-04    0.238E-05
RMM:  21    -0.369006377512E+02   -0.17298E-07   -0.25864E-10  4401   0.963E-05    0.409E-06
RMM:  22    -0.369006377511E+02    0.18031E-09   -0.77956E-12  3891   0.419E-05    0.171E-06
RMM:  23    -0.369006377515E+02   -0.47396E-09   -0.13069E-11  3529   0.359E-05    0.954E-07
RMM:  24    -0.369006377518E+02   -0.24954E-09   -0.58476E-12  3113   0.286E-05    0.330E-07
RMM:  25    -0.369006377518E+02   -0.57753E-10   -0.49299E-12  2802   0.248E-05
   1 F= -.36900638E+02 E0= -.36900636E+02  d E =-.369006E+02
       N       E                     dE             d eps       ncg     rms          rms(c)
DAV:   1    -0.369006376416E+02    0.11014E-06   -0.94366E-06  6296   0.289E-02    0.596E-04
RMM:   2    -0.369006376477E+02   -0.60495E-08   -0.15696E-07  5951   0.348E-03    0.435E-04
RMM:   3    -0.369006376397E+02    0.79533E-08   -0.25814E-08  5970   0.130E-03    0.111E-04
RMM:   4    -0.369006376401E+02   -0.34765E-09   -0.16165E-09  5981   0.318E-04    0.316E-05
RMM:   5    -0.369006376393E+02    0.74624E-09   -0.88068E-11  3890   0.829E-05    0.129E-05
RMM:   6    -0.369006376397E+02   -0.35641E-09   -0.21903E-11  3596   0.504E-05    0.249E-06
RMM:   7    -0.369006376398E+02   -0.70258E-10   -0.13168E-11  3460   0.394E-05
   2 F= -.36900638E+02 E0= -.36900635E+02  d E =0.112071E-06
       N       E                     dE             d eps       ncg     rms          rms(c)
DAV:   1    -0.369006377537E+02   -0.11396E-06   -0.60754E-06  6768   0.232E-02    0.481E-04
RMM:   2    -0.369006377582E+02   -0.45370E-08   -0.96616E-08  5952   0.278E-03    0.348E-04
RMM:   3    -0.369006377582E+02   -0.45247E-10   -0.16275E-08  5970   0.103E-03    0.848E-05
RMM:   4    -0.369006377574E+02    0.82582E-09   -0.97043E-10  5774   0.249E-04    0.253E-05
RMM:   5    -0.369006377577E+02   -0.29490E-09   -0.49349E-11  3781   0.692E-05    0.102E-05
RMM:   6    -0.369006377578E+02   -0.48317E-10   -0.14952E-11  3429   0.460E-05
   3 F= -.36900638E+02 E0= -.36900636E+02  d E =-.117988E-06
       N       E                     dE             d eps       ncg     rms          rms(c)
DAV:   1    -0.369006377571E+02    0.55559E-09    0.61099E-09  4832   0.394E-05    0.866E-07
RMM:   2    -0.369006377577E+02   -0.52694E-09    0.51272E-13  1898   0.161E-05    0.533E-07
RMM:   3    -0.369006377580E+02   -0.36289E-09   -0.17501E-12  1799   0.164E-05    0.350E-08
RMM:   4    -0.369006377578E+02    0.20134E-09   -0.90777E-13  1731   0.155E-05    0.247E-08
RMM:   5    -0.369006377580E+02   -0.13290E-09   -0.44335E-13  1665   0.147E-05    0.173E-08
RMM:   6    -0.369006377577E+02    0.26523E-09   -0.32747E-13  1599   0.141E-05    0.117E-08
RMM:   7    -0.369006377578E+02   -0.10755E-09   -0.13286E-12  1540   0.137E-05    0.124E-08
RMM:   8    -0.369006377580E+02   -0.18065E-09   -0.10794E-13  1494   0.132E-05    0.704E-09
RMM:   9    -0.369006377579E+02    0.64119E-10   -0.98427E-13  1481   0.129E-05
   4 F= -.36900638E+02 E0= -.36900636E+02  d E =-.176328E-09
       N       E                     dE             d eps       ncg     rms          rms(c)
DAV:   1    -0.369006377573E+02    0.73101E-09    0.61298E-09  4400   0.153E-05    0.174E-07
RMM:   2    -0.369006377580E+02   -0.70509E-09    0.45149E-14  1173   0.610E-06    0.109E-07
RMM:   3    -0.369006377577E+02    0.24795E-09   -0.26119E-13  1270   0.611E-06    0.726E-09
RMM:   4    -0.369006377577E+02   -0.28308E-10    0.37090E-14  1163   0.602E-06    0.432E-09
RMM:   5    -0.369006377577E+02    0.21600E-10    0.14622E-13  1192   0.598E-06
   5 F= -.36900638E+02 E0= -.36900636E+02  d E =0.203045E-09
