<?xml version="1.0" encoding="ISO-8859-1"?>
<modeling>
 <generator>
  <i name="program" type="string">vasp </i>
  <i name="version" type="string">5.3.5  </i>
  <i name="subversion" type="string">31Mar14 (build Mar 02 2015 18:14:16) complex                          parallel </i>
  <i name="platform" type="string">LinuxIFC </i>
  <i name="date" type="string">2018 08 09 </i>
  <i name="time" type="string">20:03:22 </i>
 </generator>
 <incar>
  <i type="string" name="SYSTEM">  gr</i>
  <i type="string" name="PREC">accurate : accuracy</i>
  <i type="string" name="ALGO"> FAST.</i>
  <i type="int" name="NELM">   100</i>
  <i type="int" name="NELMDL">    -3</i>
  <i type="int" name="NELMIN">     5</i>
  <i type="int" name="IBRION">     1</i>
  <i name="EDIFF">      0.00000000</i>
  <i name="EDIFFG">     -0.00000100</i>
  <i type="int" name="NSW">   400</i>
  <i type="int" name="ISIF">     2</i>
  <i name="ENCUT">   2000.00000000</i>
  <i type="int" name="ISMEAR">     0</i>
  <i name="SIGMA">      0.05000000</i>
  <i type="int" name="NWRITE">     2</i>
  <i type="logical" name="LWAVE"> F  </i>
  <i type="logical" name="LCHARG"> F  </i>
  <i type="int" name="NELM">   100</i>
 </incar>
 <kpoints>
  <generation param="Gamma">
   <v type="int" name="divisions">      24       36        1 </v>
   <v name="usershift">      0.00000000       0.00000000       0.00000000 </v>
   <v name="genvec1">      0.04166667       0.00000000       0.00000000 </v>
   <v name="genvec2">      0.00000000       0.02777778       0.00000000 </v>
   <v name="genvec3">      0.00000000       0.00000000       1.00000000 </v>
   <v name="shift">      0.00000000       0.00000000       0.00000000 </v>
  </generation>
  <varray name="kpointlist" >
   <v>       0.00000000       0.00000000       0.00000000 </v>
   <v>       0.04166667       0.00000000       0.00000000 </v>
   <v>       0.08333333       0.00000000       0.00000000 </v>
   <v>       0.12500000       0.00000000       0.00000000 </v>
   <v>       0.16666667       0.00000000       0.00000000 </v>
   <v>       0.20833333       0.00000000       0.00000000 </v>
   <v>       0.25000000       0.00000000       0.00000000 </v>
   <v>       0.29166667       0.00000000       0.00000000 </v>
   <v>       0.33333333       0.00000000       0.00000000 </v>
   <v>       0.37500000       0.00000000       0.00000000 </v>
   <v>       0.41666667       0.00000000       0.00000000 </v>
   <v>       0.45833333       0.00000000       0.00000000 </v>
   <v>       0.50000000       0.00000000       0.00000000 </v>
   <v>       0.00000000       0.02777778       0.00000000 </v>
   <v>       0.04166667       0.02777778       0.00000000 </v>
   <v>       0.08333333       0.02777778       0.00000000 </v>
   <v>       0.12500000       0.02777778       0.00000000 </v>
   <v>       0.16666667       0.02777778       0.00000000 </v>
   <v>       0.20833333       0.02777778       0.00000000 </v>
   <v>       0.25000000       0.02777778       0.00000000 </v>
   <v>       0.29166667       0.02777778       0.00000000 </v>
   <v>       0.33333333       0.02777778       0.00000000 </v>
   <v>       0.37500000       0.02777778       0.00000000 </v>
   <v>       0.41666667       0.02777778       0.00000000 </v>
   <v>       0.45833333       0.02777778       0.00000000 </v>
   <v>       0.50000000       0.02777778       0.00000000 </v>
   <v>       0.00000000       0.05555556       0.00000000 </v>
   <v>       0.04166667       0.05555556       0.00000000 </v>
   <v>       0.08333333       0.05555556       0.00000000 </v>
   <v>       0.12500000       0.05555556       0.00000000 </v>
   <v>       0.16666667       0.05555556       0.00000000 </v>
   <v>       0.20833333       0.05555556       0.00000000 </v>
   <v>       0.25000000       0.05555556       0.00000000 </v>
   <v>       0.29166667       0.05555556       0.00000000 </v>
   <v>       0.33333333       0.05555556       0.00000000 </v>
   <v>       0.37500000       0.05555556       0.00000000 </v>
   <v>       0.41666667       0.05555556       0.00000000 </v>
   <v>       0.45833333       0.05555556       0.00000000 </v>
   <v>       0.50000000       0.05555556       0.00000000 </v>
   <v>       0.00000000       0.08333333       0.00000000 </v>
   <v>       0.04166667       0.08333333       0.00000000 </v>
   <v>       0.08333333       0.08333333       0.00000000 </v>
   <v>       0.12500000       0.08333333       0.00000000 </v>
   <v>       0.16666667       0.08333333       0.00000000 </v>
   <v>       0.20833333       0.08333333       0.00000000 </v>
   <v>       0.25000000       0.08333333       0.00000000 </v>
   <v>       0.29166667       0.08333333       0.00000000 </v>
   <v>       0.33333333       0.08333333       0.00000000 </v>
   <v>       0.37500000       0.08333333       0.00000000 </v>
   <v>       0.41666667       0.08333333       0.00000000 </v>
   <v>       0.45833333       0.08333333       0.00000000 </v>
   <v>       0.50000000       0.08333333       0.00000000 </v>
   <v>       0.00000000       0.11111111       0.00000000 </v>
   <v>       0.04166667       0.11111111       0.00000000 </v>
   <v>       0.08333333       0.11111111       0.00000000 </v>
   <v>       0.12500000       0.11111111       0.00000000 </v>
   <v>       0.16666667       0.11111111       0.00000000 </v>
   <v>       0.20833333       0.11111111       0.00000000 </v>
   <v>       0.25000000       0.11111111       0.00000000 </v>
   <v>       0.29166667       0.11111111       0.00000000 </v>
   <v>       0.33333333       0.11111111       0.00000000 </v>
   <v>       0.37500000       0.11111111       0.00000000 </v>
   <v>       0.41666667       0.11111111       0.00000000 </v>
   <v>       0.45833333       0.11111111       0.00000000 </v>
   <v>       0.50000000       0.11111111       0.00000000 </v>
   <v>       0.00000000       0.13888889       0.00000000 </v>
   <v>       0.04166667       0.13888889       0.00000000 </v>
   <v>       0.08333333       0.13888889       0.00000000 </v>
   <v>       0.12500000       0.13888889       0.00000000 </v>
   <v>       0.16666667       0.13888889       0.00000000 </v>
   <v>       0.20833333       0.13888889       0.00000000 </v>
   <v>       0.25000000       0.13888889       0.00000000 </v>
   <v>       0.29166667       0.13888889       0.00000000 </v>
   <v>       0.33333333       0.13888889       0.00000000 </v>
   <v>       0.37500000       0.13888889       0.00000000 </v>
   <v>       0.41666667       0.13888889       0.00000000 </v>
   <v>       0.45833333       0.13888889       0.00000000 </v>
   <v>       0.50000000       0.13888889       0.00000000 </v>
   <v>       0.00000000       0.16666667       0.00000000 </v>
   <v>       0.04166667       0.16666667       0.00000000 </v>
   <v>       0.08333333       0.16666667       0.00000000 </v>
   <v>       0.12500000       0.16666667       0.00000000 </v>
   <v>       0.16666667       0.16666667       0.00000000 </v>
   <v>       0.20833333       0.16666667       0.00000000 </v>
   <v>       0.25000000       0.16666667       0.00000000 </v>
   <v>       0.29166667       0.16666667       0.00000000 </v>
   <v>       0.33333333       0.16666667       0.00000000 </v>
   <v>       0.37500000       0.16666667       0.00000000 </v>
   <v>       0.41666667       0.16666667       0.00000000 </v>
   <v>       0.45833333       0.16666667       0.00000000 </v>
   <v>       0.50000000       0.16666667       0.00000000 </v>
   <v>       0.00000000       0.19444444       0.00000000 </v>
   <v>       0.04166667       0.19444444       0.00000000 </v>
   <v>       0.08333333       0.19444444       0.00000000 </v>
   <v>       0.12500000       0.19444444       0.00000000 </v>
   <v>       0.16666667       0.19444444       0.00000000 </v>
   <v>       0.20833333       0.19444444       0.00000000 </v>
   <v>       0.25000000       0.19444444       0.00000000 </v>
   <v>       0.29166667       0.19444444       0.00000000 </v>
   <v>       0.33333333       0.19444444       0.00000000 </v>
   <v>       0.37500000       0.19444444       0.00000000 </v>
   <v>       0.41666667       0.19444444       0.00000000 </v>
   <v>       0.45833333       0.19444444       0.00000000 </v>
   <v>       0.50000000       0.19444444       0.00000000 </v>
   <v>       0.00000000       0.22222222       0.00000000 </v>
   <v>       0.04166667       0.22222222       0.00000000 </v>
   <v>       0.08333333       0.22222222       0.00000000 </v>
   <v>       0.12500000       0.22222222       0.00000000 </v>
   <v>       0.16666667       0.22222222       0.00000000 </v>
   <v>       0.20833333       0.22222222       0.00000000 </v>
   <v>       0.25000000       0.22222222       0.00000000 </v>
   <v>       0.29166667       0.22222222       0.00000000 </v>
   <v>       0.33333333       0.22222222       0.00000000 </v>
   <v>       0.37500000       0.22222222       0.00000000 </v>
   <v>       0.41666667       0.22222222       0.00000000 </v>
   <v>       0.45833333       0.22222222       0.00000000 </v>
   <v>       0.50000000       0.22222222       0.00000000 </v>
   <v>       0.00000000       0.25000000       0.00000000 </v>
   <v>       0.04166667       0.25000000       0.00000000 </v>
   <v>       0.08333333       0.25000000       0.00000000 </v>
   <v>       0.12500000       0.25000000       0.00000000 </v>
   <v>       0.16666667       0.25000000       0.00000000 </v>
   <v>       0.20833333       0.25000000       0.00000000 </v>
   <v>       0.25000000       0.25000000       0.00000000 </v>
   <v>       0.29166667       0.25000000       0.00000000 </v>
   <v>       0.33333333       0.25000000       0.00000000 </v>
   <v>       0.37500000       0.25000000       0.00000000 </v>
   <v>       0.41666667       0.25000000       0.00000000 </v>
   <v>       0.45833333       0.25000000       0.00000000 </v>
   <v>       0.50000000       0.25000000       0.00000000 </v>
   <v>       0.00000000       0.27777778       0.00000000 </v>
   <v>       0.04166667       0.27777778       0.00000000 </v>
   <v>       0.08333333       0.27777778       0.00000000 </v>
   <v>       0.12500000       0.27777778       0.00000000 </v>
   <v>       0.16666667       0.27777778       0.00000000 </v>
   <v>       0.20833333       0.27777778       0.00000000 </v>
   <v>       0.25000000       0.27777778       0.00000000 </v>
   <v>       0.29166667       0.27777778       0.00000000 </v>
   <v>       0.33333333       0.27777778       0.00000000 </v>
   <v>       0.37500000       0.27777778       0.00000000 </v>
   <v>       0.41666667       0.27777778       0.00000000 </v>
   <v>       0.45833333       0.27777778       0.00000000 </v>
   <v>       0.50000000       0.27777778       0.00000000 </v>
   <v>       0.00000000       0.30555556       0.00000000 </v>
   <v>       0.04166667       0.30555556       0.00000000 </v>
   <v>       0.08333333       0.30555556       0.00000000 </v>
   <v>       0.12500000       0.30555556       0.00000000 </v>
   <v>       0.16666667       0.30555556       0.00000000 </v>
   <v>       0.20833333       0.30555556       0.00000000 </v>
   <v>       0.25000000       0.30555556       0.00000000 </v>
   <v>       0.29166667       0.30555556       0.00000000 </v>
   <v>       0.33333333       0.30555556       0.00000000 </v>
   <v>       0.37500000       0.30555556       0.00000000 </v>
   <v>       0.41666667       0.30555556       0.00000000 </v>
   <v>       0.45833333       0.30555556       0.00000000 </v>
   <v>       0.50000000       0.30555556       0.00000000 </v>
   <v>       0.00000000       0.33333333       0.00000000 </v>
   <v>       0.04166667       0.33333333       0.00000000 </v>
   <v>       0.08333333       0.33333333       0.00000000 </v>
   <v>       0.12500000       0.33333333       0.00000000 </v>
   <v>       0.16666667       0.33333333       0.00000000 </v>
   <v>       0.20833333       0.33333333       0.00000000 </v>
   <v>       0.25000000       0.33333333       0.00000000 </v>
   <v>       0.29166667       0.33333333       0.00000000 </v>
   <v>       0.33333333       0.33333333       0.00000000 </v>
   <v>       0.37500000       0.33333333       0.00000000 </v>
   <v>       0.41666667       0.33333333       0.00000000 </v>
   <v>       0.45833333       0.33333333       0.00000000 </v>
   <v>       0.50000000       0.33333333       0.00000000 </v>
   <v>       0.00000000       0.36111111       0.00000000 </v>
   <v>       0.04166667       0.36111111       0.00000000 </v>
   <v>       0.08333333       0.36111111       0.00000000 </v>
   <v>       0.12500000       0.36111111       0.00000000 </v>
   <v>       0.16666667       0.36111111       0.00000000 </v>
   <v>       0.20833333       0.36111111       0.00000000 </v>
   <v>       0.25000000       0.36111111       0.00000000 </v>
   <v>       0.29166667       0.36111111       0.00000000 </v>
   <v>       0.33333333       0.36111111       0.00000000 </v>
   <v>       0.37500000       0.36111111       0.00000000 </v>
   <v>       0.41666667       0.36111111       0.00000000 </v>
   <v>       0.45833333       0.36111111       0.00000000 </v>
   <v>       0.50000000       0.36111111       0.00000000 </v>
   <v>       0.00000000       0.38888889       0.00000000 </v>
   <v>       0.04166667       0.38888889       0.00000000 </v>
   <v>       0.08333333       0.38888889       0.00000000 </v>
   <v>       0.12500000       0.38888889       0.00000000 </v>
   <v>       0.16666667       0.38888889       0.00000000 </v>
   <v>       0.20833333       0.38888889       0.00000000 </v>
   <v>       0.25000000       0.38888889       0.00000000 </v>
   <v>       0.29166667       0.38888889       0.00000000 </v>
   <v>       0.33333333       0.38888889       0.00000000 </v>
   <v>       0.37500000       0.38888889       0.00000000 </v>
   <v>       0.41666667       0.38888889       0.00000000 </v>
   <v>       0.45833333       0.38888889       0.00000000 </v>
   <v>       0.50000000       0.38888889       0.00000000 </v>
   <v>       0.00000000       0.41666667       0.00000000 </v>
   <v>       0.04166667       0.41666667       0.00000000 </v>
   <v>       0.08333333       0.41666667       0.00000000 </v>
   <v>       0.12500000       0.41666667       0.00000000 </v>
   <v>       0.16666667       0.41666667       0.00000000 </v>
   <v>       0.20833333       0.41666667       0.00000000 </v>
   <v>       0.25000000       0.41666667       0.00000000 </v>
   <v>       0.29166667       0.41666667       0.00000000 </v>
   <v>       0.33333333       0.41666667       0.00000000 </v>
   <v>       0.37500000       0.41666667       0.00000000 </v>
   <v>       0.41666667       0.41666667       0.00000000 </v>
   <v>       0.45833333       0.41666667       0.00000000 </v>
   <v>       0.50000000       0.41666667       0.00000000 </v>
   <v>       0.00000000       0.44444444       0.00000000 </v>
   <v>       0.04166667       0.44444444       0.00000000 </v>
   <v>       0.08333333       0.44444444       0.00000000 </v>
   <v>       0.12500000       0.44444444       0.00000000 </v>
   <v>       0.16666667       0.44444444       0.00000000 </v>
   <v>       0.20833333       0.44444444       0.00000000 </v>
   <v>       0.25000000       0.44444444       0.00000000 </v>
   <v>       0.29166667       0.44444444       0.00000000 </v>
   <v>       0.33333333       0.44444444       0.00000000 </v>
   <v>       0.37500000       0.44444444       0.00000000 </v>
   <v>       0.41666667       0.44444444       0.00000000 </v>
   <v>       0.45833333       0.44444444       0.00000000 </v>
   <v>       0.50000000       0.44444444       0.00000000 </v>
   <v>       0.00000000       0.47222222       0.00000000 </v>
   <v>       0.04166667       0.47222222       0.00000000 </v>
   <v>       0.08333333       0.47222222       0.00000000 </v>
   <v>       0.12500000       0.47222222       0.00000000 </v>
   <v>       0.16666667       0.47222222       0.00000000 </v>
   <v>       0.20833333       0.47222222       0.00000000 </v>
   <v>       0.25000000       0.47222222       0.00000000 </v>
   <v>       0.29166667       0.47222222       0.00000000 </v>
   <v>       0.33333333       0.47222222       0.00000000 </v>
   <v>       0.37500000       0.47222222       0.00000000 </v>
   <v>       0.41666667       0.47222222       0.00000000 </v>
   <v>       0.45833333       0.47222222       0.00000000 </v>
   <v>       0.50000000       0.47222222       0.00000000 </v>
   <v>       0.00000000       0.50000000       0.00000000 </v>
   <v>       0.04166667       0.50000000       0.00000000 </v>
   <v>       0.08333333       0.50000000       0.00000000 </v>
   <v>       0.12500000       0.50000000       0.00000000 </v>
   <v>       0.16666667       0.50000000       0.00000000 </v>
   <v>       0.20833333       0.50000000       0.00000000 </v>
   <v>       0.25000000       0.50000000       0.00000000 </v>
   <v>       0.29166667       0.50000000       0.00000000 </v>
   <v>       0.33333333       0.50000000       0.00000000 </v>
   <v>       0.37500000       0.50000000       0.00000000 </v>
   <v>       0.41666667       0.50000000       0.00000000 </v>
   <v>       0.45833333       0.50000000       0.00000000 </v>
   <v>       0.50000000       0.50000000       0.00000000 </v>
  </varray>
  <varray name="weights" >
   <v>       0.00115741 </v>
   <v>       0.00231481 </v>
   <v>       0.00231481 </v>
   <v>       0.00231481 </v>
   <v>       0.00231481 </v>
   <v>       0.00231481 </v>
   <v>       0.00231481 </v>
   <v>       0.00231481 </v>
   <v>       0.00231481 </v>
   <v>       0.00231481 </v>
   <v>       0.00231481 </v>
   <v>       0.00231481 </v>
   <v>       0.00115741 </v>
   <v>       0.00231481 </v>
   <v>       0.00462963 </v>
   <v>       0.00462963 </v>
   <v>       0.00462963 </v>
   <v>       0.00462963 </v>
   <v>       0.00462963 </v>
   <v>       0.00462963 </v>
   <v>       0.00462963 </v>
   <v>       0.00462963 </v>
   <v>       0.00462963 </v>
   <v>       0.00462963 </v>
   <v>       0.00462963 </v>
   <v>       0.00231481 </v>
   <v>       0.00231481 </v>
   <v>       0.00462963 </v>
   <v>       0.00462963 </v>
   <v>       0.00462963 </v>
   <v>       0.00462963 </v>
   <v>       0.00462963 </v>
   <v>       0.00462963 </v>
   <v>       0.00462963 </v>
   <v>       0.00462963 </v>
   <v>       0.00462963 </v>
   <v>       0.00462963 </v>
   <v>       0.00462963 </v>
   <v>       0.00231481 </v>
   <v>       0.00231481 </v>
   <v>       0.00462963 </v>
   <v>       0.00462963 </v>
   <v>       0.00462963 </v>
   <v>       0.00462963 </v>
   <v>       0.00462963 </v>
   <v>       0.00462963 </v>
   <v>       0.00462963 </v>
   <v>       0.00462963 </v>
   <v>       0.00462963 </v>
   <v>       0.00462963 </v>
   <v>       0.00462963 </v>
   <v>       0.00231481 </v>
   <v>       0.00231481 </v>
   <v>       0.00462963 </v>
   <v>       0.00462963 </v>
   <v>       0.00462963 </v>
   <v>       0.00462963 </v>
   <v>       0.00462963 </v>
   <v>       0.00462963 </v>
   <v>       0.00462963 </v>
   <v>       0.00462963 </v>
   <v>       0.00462963 </v>
   <v>       0.00462963 </v>
   <v>       0.00462963 </v>
   <v>       0.00231481 </v>
   <v>       0.00231481 </v>
   <v>       0.00462963 </v>
   <v>       0.00462963 </v>
   <v>       0.00462963 </v>
   <v>       0.00462963 </v>
   <v>       0.00462963 </v>
   <v>       0.00462963 </v>
   <v>       0.00462963 </v>
   <v>       0.00462963 </v>
   <v>       0.00462963 </v>
   <v>       0.00462963 </v>
   <v>       0.00462963 </v>
   <v>       0.00231481 </v>
   <v>       0.00231481 </v>
   <v>       0.00462963 </v>
   <v>       0.00462963 </v>
   <v>       0.00462963 </v>
   <v>       0.00462963 </v>
   <v>       0.00462963 </v>
   <v>       0.00462963 </v>
   <v>       0.00462963 </v>
   <v>       0.00462963 </v>
   <v>       0.00462963 </v>
   <v>       0.00462963 </v>
   <v>       0.00462963 </v>
   <v>       0.00231481 </v>
   <v>       0.00231481 </v>
   <v>       0.00462963 </v>
   <v>       0.00462963 </v>
   <v>       0.00462963 </v>
   <v>       0.00462963 </v>
   <v>       0.00462963 </v>
   <v>       0.00462963 </v>
   <v>       0.00462963 </v>
   <v>       0.00462963 </v>
   <v>       0.00462963 </v>
   <v>       0.00462963 </v>
   <v>       0.00462963 </v>
   <v>       0.00231481 </v>
   <v>       0.00231481 </v>
   <v>       0.00462963 </v>
   <v>       0.00462963 </v>
   <v>       0.00462963 </v>
   <v>       0.00462963 </v>
   <v>       0.00462963 </v>
   <v>       0.00462963 </v>
   <v>       0.00462963 </v>
   <v>       0.00462963 </v>
   <v>       0.00462963 </v>
   <v>       0.00462963 </v>
   <v>       0.00462963 </v>
   <v>       0.00231481 </v>
   <v>       0.00231481 </v>
   <v>       0.00462963 </v>
   <v>       0.00462963 </v>
   <v>       0.00462963 </v>
   <v>       0.00462963 </v>
   <v>       0.00462963 </v>
   <v>       0.00462963 </v>
   <v>       0.00462963 </v>
   <v>       0.00462963 </v>
   <v>       0.00462963 </v>
   <v>       0.00462963 </v>
   <v>       0.00462963 </v>
   <v>       0.00231481 </v>
   <v>       0.00231481 </v>
   <v>       0.00462963 </v>
   <v>       0.00462963 </v>
   <v>       0.00462963 </v>
   <v>       0.00462963 </v>
   <v>       0.00462963 </v>
   <v>       0.00462963 </v>
   <v>       0.00462963 </v>
   <v>       0.00462963 </v>
   <v>       0.00462963 </v>
   <v>       0.00462963 </v>
   <v>       0.00462963 </v>
   <v>       0.00231481 </v>
   <v>       0.00231481 </v>
   <v>       0.00462963 </v>
   <v>       0.00462963 </v>
   <v>       0.00462963 </v>
   <v>       0.00462963 </v>
   <v>       0.00462963 </v>
   <v>       0.00462963 </v>
   <v>       0.00462963 </v>
   <v>       0.00462963 </v>
   <v>       0.00462963 </v>
   <v>       0.00462963 </v>
   <v>       0.00462963 </v>
   <v>       0.00231481 </v>
   <v>       0.00231481 </v>
   <v>       0.00462963 </v>
   <v>       0.00462963 </v>
   <v>       0.00462963 </v>
   <v>       0.00462963 </v>
   <v>       0.00462963 </v>
   <v>       0.00462963 </v>
   <v>       0.00462963 </v>
   <v>       0.00462963 </v>
   <v>       0.00462963 </v>
   <v>       0.00462963 </v>
   <v>       0.00462963 </v>
   <v>       0.00231481 </v>
   <v>       0.00231481 </v>
   <v>       0.00462963 </v>
   <v>       0.00462963 </v>
   <v>       0.00462963 </v>
   <v>       0.00462963 </v>
   <v>       0.00462963 </v>
   <v>       0.00462963 </v>
   <v>       0.00462963 </v>
   <v>       0.00462963 </v>
   <v>       0.00462963 </v>
   <v>       0.00462963 </v>
   <v>       0.00462963 </v>
   <v>       0.00231481 </v>
   <v>       0.00231481 </v>
   <v>       0.00462963 </v>
   <v>       0.00462963 </v>
   <v>       0.00462963 </v>
   <v>       0.00462963 </v>
   <v>       0.00462963 </v>
   <v>       0.00462963 </v>
   <v>       0.00462963 </v>
   <v>       0.00462963 </v>
   <v>       0.00462963 </v>
   <v>       0.00462963 </v>
   <v>       0.00462963 </v>
   <v>       0.00231481 </v>
   <v>       0.00231481 </v>
   <v>       0.00462963 </v>
   <v>       0.00462963 </v>
   <v>       0.00462963 </v>
   <v>       0.00462963 </v>
   <v>       0.00462963 </v>
   <v>       0.00462963 </v>
   <v>       0.00462963 </v>
   <v>       0.00462963 </v>
   <v>       0.00462963 </v>
   <v>       0.00462963 </v>
   <v>       0.00462963 </v>
   <v>       0.00231481 </v>
   <v>       0.00231481 </v>
   <v>       0.00462963 </v>
   <v>       0.00462963 </v>
   <v>       0.00462963 </v>
   <v>       0.00462963 </v>
   <v>       0.00462963 </v>
   <v>       0.00462963 </v>
   <v>       0.00462963 </v>
   <v>       0.00462963 </v>
   <v>       0.00462963 </v>
   <v>       0.00462963 </v>
   <v>       0.00462963 </v>
   <v>       0.00231481 </v>
   <v>       0.00231481 </v>
   <v>       0.00462963 </v>
   <v>       0.00462963 </v>
   <v>       0.00462963 </v>
   <v>       0.00462963 </v>
   <v>       0.00462963 </v>
   <v>       0.00462963 </v>
   <v>       0.00462963 </v>
   <v>       0.00462963 </v>
   <v>       0.00462963 </v>
   <v>       0.00462963 </v>
   <v>       0.00462963 </v>
   <v>       0.00231481 </v>
   <v>       0.00115741 </v>
   <v>       0.00231481 </v>
   <v>       0.00231481 </v>
   <v>       0.00231481 </v>
   <v>       0.00231481 </v>
   <v>       0.00231481 </v>
   <v>       0.00231481 </v>
   <v>       0.00231481 </v>
   <v>       0.00231481 </v>
   <v>       0.00231481 </v>
   <v>       0.00231481 </v>
   <v>       0.00231481 </v>
   <v>       0.00115741 </v>
  </varray>
 </kpoints>
 <parameters>
  <separator name="general" >
   <i type="string" name="SYSTEM">gr</i>
   <i type="logical" name="LCOMPAT"> F  </i>
  </separator>
  <separator name="electronic" >
   <i type="string" name="PREC">accura</i>
   <i name="ENMAX">   2000.00000000</i>
   <i name="ENAUG">    644.87300000</i>
   <i name="EDIFF">      0.00000000</i>
   <i type="int" name="IALGO">    68</i>
   <i type="int" name="IWAVPR">    11</i>
   <i type="int" name="NBANDS">    12</i>
   <i name="NELECT">     16.00000000</i>
   <i type="int" name="TURBO">     0</i>
   <i type="int" name="IRESTART">     0</i>
   <i type="int" name="NREBOOT">     0</i>
   <i type="int" name="NMIN">     0</i>
   <i name="EREF">      0.00000000</i>
   <separator name="electronic smearing" >
    <i type="int" name="ISMEAR">     0</i>
    <i name="SIGMA">      0.05000000</i>
    <i name="KSPACING">      0.50000000</i>
    <i type="logical" name="KGAMMA"> T  </i>
   </separator>
   <separator name="electronic projectors" >
    <i type="logical" name="LREAL"> F  </i>
    <v name="ROPT">      0.00000000</v>
    <i type="int" name="LMAXPAW">  -100</i>
    <i type="int" name="LMAXMIX">     2</i>
    <i type="logical" name="NLSPLINE"> F  </i>
   </separator>
   <separator name="electronic startup" >
    <i type="int" name="ISTART">     0</i>
    <i type="int" name="ICHARG">     2</i>
    <i type="int" name="INIWAV">     1</i>
   </separator>
   <separator name="electronic spin" >
    <i type="int" name="ISPIN">     1</i>
    <i type="logical" name="LNONCOLLINEAR"> F  </i>
    <v name="MAGMOM">      1.00000000      1.00000000      1.00000000      1.00000000</v>
    <i name="NUPDOWN">     -1.00000000</i>
    <i type="logical" name="LSORBIT"> F  </i>
    <v name="SAXIS">      0.00000000      0.00000000      1.00000000</v>
    <i type="logical" name="LSPIRAL"> F  </i>
    <v name="QSPIRAL">      0.00000000      0.00000000      0.00000000</v>
    <i type="logical" name="LZEROZ"> F  </i>
   </separator>
   <separator name="electronic exchange-correlation" >
    <i type="logical" name="LASPH"> F  </i>
    <i type="logical" name="LMETAGGA"> F  </i>
   </separator>
   <separator name="electronic convergence" >
    <i type="int" name="NELM">   100</i>
    <i type="int" name="NELMDL">    -3</i>
    <i type="int" name="NELMIN">     5</i>
    <i name="ENINI">   2000.00000000</i>
    <separator name="electronic convergence detail" >
     <i type="logical" name="LDIAG"> T  </i>
     <i type="logical" name="LSUBROT"> F  </i>
     <i name="WEIMIN">      0.00100000</i>
     <i name="EBREAK">      0.00000000</i>
     <i name="DEPER">      0.30000000</i>
     <i type="int" name="NRMM">     4</i>
     <i name="TIME">      0.40000000</i>
    </separator>
   </separator>
   <separator name="electronic mixer" >
    <i name="AMIX">      0.40000000</i>
    <i name="BMIX">      1.00000000</i>
    <i name="AMIN">      0.10000000</i>
    <i name="AMIX_MAG">      1.60000000</i>
    <i name="BMIX_MAG">      1.00000000</i>
    <separator name="electronic mixer details" >
     <i type="int" name="IMIX">     4</i>
     <i type="int" name="MAXMIX">   -45</i>
     <i name="WC">    100.00000000</i>
     <i type="int" name="INIMIX">     1</i>
     <i type="int" name="MIXPRE">     1</i>
     <i type="int" name="MREMOVE">     5</i>
    </separator>
   </separator>
   <separator name="electronic dipolcorrection" >
    <i type="logical" name="LDIPOL"> F  </i>
    <i type="logical" name="LMONO"> F  </i>
    <i type="int" name="IDIPOL">     0</i>
    <i name="EPSILON">      1.00000000</i>
    <v name="DIPOL">   -100.00000000   -100.00000000   -100.00000000</v>
    <i name="EFIELD">      0.00000000</i>
   </separator>
  </separator>
  <separator name="grids" >
   <i type="int" name="NGX">    64</i>
   <i type="int" name="NGY">    40</i>
   <i type="int" name="NGZ">   288</i>
   <i type="int" name="NGXF">   128</i>
   <i type="int" name="NGYF">    80</i>
   <i type="int" name="NGZF">   576</i>
   <i type="logical" name="ADDGRID"> F  </i>
  </separator>
  <separator name="ionic" >
   <i type="int" name="NSW">   400</i>
   <i type="int" name="IBRION">     1</i>
   <i type="int" name="ISIF">     2</i>
   <i name="PSTRESS">      0.00000000</i>
   <i name="EDIFFG">     -0.00000100</i>
   <i type="int" name="NFREE">     0</i>
   <i name="POTIM">      0.50000000</i>
   <i name="SMASS">     -3.00000000</i>
   <i name="SCALEE">      1.00000000</i>
  </separator>
  <separator name="ionic md" >
   <i name="TEBEG">      0.00010000</i>
   <i name="TEEND">      0.00010000</i>
   <i type="int" name="NBLOCK">     1</i>
   <i type="int" name="KBLOCK">   400</i>
   <i type="int" name="NPACO">   256</i>
   <i name="APACO">     16.00000000</i>
  </separator>
  <separator name="symmetry" >
   <i type="int" name="ISYM">     2</i>
   <i name="SYMPREC">      0.00001000</i>
  </separator>
  <separator name="dos" >
   <i type="logical" name="LORBIT"> F  </i>
   <v name="RWIGS">     -1.00000000</v>
   <i type="int" name="NEDOS">   301</i>
   <i name="EMIN">     10.00000000</i>
   <i name="EMAX">    -10.00000000</i>
   <i name="EFERMI">      0.00000000</i>
  </separator>
  <separator name="writing" >
   <i type="int" name="NWRITE">     2</i>
   <i type="logical" name="LWAVE"> F  </i>
   <i type="logical" name="LCHARG"> F  </i>
   <i type="logical" name="LPARD"> F  </i>
   <i type="logical" name="LVTOT"> F  </i>
   <i type="logical" name="LVHAR"> F  </i>
   <i type="logical" name="LELF"> F  </i>
   <i type="logical" name="LOPTICS"> F  </i>
   <v name="STM">      0.00000000      0.00000000      0.00000000      0.00000000      0.00000000      0.00000000      0.00000000</v>
  </separator>
  <separator name="performance" >
   <i type="int" name="NPAR">     4</i>
   <i type="int" name="NSIM">     4</i>
   <i type="int" name="NBLK">    -1</i>
   <i type="logical" name="LPLANE"> T  </i>
   <i type="logical" name="LSCALAPACK"> F  </i>
   <i type="logical" name="LSCAAWARE"> F  </i>
   <i type="logical" name="LSCALU"> F  </i>
   <i type="logical" name="LASYNC"> F  </i>
   <i type="logical" name="LORBITALREAL"> F  </i>
  </separator>
  <separator name="miscellaneous" >
   <i type="int" name="IDIOT">     3</i>
   <i type="logical" name="LMUSIC"> F  </i>
   <v name="POMASS">     12.01100000</v>
   <v name="DARWINR">      0.00000000</v>
   <v name="DARWINV">      1.00000000</v>
   <i type="logical" name="LCORR"> T  </i>
  </separator>
  <i type="logical" name="GGA_COMPAT"> T  </i>
  <i type="logical" name="LBERRY"> F  </i>
  <i type="int" name="ICORELEVEL">     0</i>
  <i type="logical" name="LDAU"> F  </i>
  <i type="int" name="I_CONSTRAINED_M">     0</i>
  <separator name="electronic exchange-correlation" >
   <i type="string" name="GGA">--</i>
   <i type="int" name="VOSKOWN">     0</i>
   <i type="logical" name="LHFCALC"> F  </i>
   <i type="string" name="PRECFOCK"></i>
   <i type="logical" name="LSYMGRAD"> F  </i>
   <i type="logical" name="LHFONE"> F  </i>
   <i type="logical" name="LRHFCALC"> F  </i>
   <i type="logical" name="LTHOMAS"> F  </i>
   <i type="logical" name="LMODELHF"> F  </i>
   <i name="ENCUT4O">     -1.00000000</i>
   <i type="int" name="EXXOEP">     0</i>
   <i type="int" name="FOURORBIT">     0</i>
   <i name="AEXX">      0.00000000</i>
   <i name="HFALPHA">      0.00000000</i>
   <i name="MCALPHA">      0.00000000</i>
   <i name="ALDAX">      1.00000000</i>
   <i name="AGGAX">      1.00000000</i>
   <i name="ALDAC">      1.00000000</i>
   <i name="AGGAC">      1.00000000</i>
   <i type="int" name="NKREDX">     1</i>
   <i type="int" name="NKREDY">     1</i>
   <i type="int" name="NKREDZ">     1</i>
   <i type="logical" name="SHIFTRED"> F  </i>
   <i type="logical" name="ODDONLY"> F  </i>
   <i type="logical" name="EVENONLY"> F  </i>
   <i type="int" name="LMAXFOCK">     0</i>
   <i type="int" name="NMAXFOCKAE">     0</i>
   <i type="logical" name="LFOCKAEDFT"> F  </i>
   <i name="HFSCREEN">      0.00000000</i>
   <i name="HFSCREENC">      0.00000000</i>
   <i type="int" name="NBANDSGWLOW">     0</i>
  </separator>
  <separator name="vdW DFT" >
   <i type="logical" name="LUSE_VDW"> F  </i>
   <i name="Zab_VDW">     -0.84910000</i>
   <i name="PARAM1">      0.12340000</i>
   <i name="PARAM2">      1.00000000</i>
   <i name="PARAM3">      0.00000000</i>
  </separator>
  <separator name="model GW" >
   <i type="int" name="MODEL_GW">     0</i>
   <i name="MODEL_EPS0">     31.62568521</i>
   <i name="MODEL_ALPHA">      1.00000000</i>
  </separator>
  <separator name="linear response parameters" >
   <i type="logical" name="LEPSILON"> F  </i>
   <i type="logical" name="LRPA"> F  </i>
   <i type="logical" name="LNABLA"> F  </i>
   <i type="logical" name="LVEL"> F  </i>
   <i type="int" name="KINTER">     0</i>
   <i name="CSHIFT">      0.10000000</i>
   <i name="OMEGAMAX">     -1.00000000</i>
   <i name="DEG_THRESHOLD">      0.00200000</i>
  </separator>
  <separator name="orbital magnetization" >
   <i type="logical" name="NUCIND"> F  </i>
   <v name="MAGPOS">      0.00000000      0.00000000      0.00000000</v>
   <i type="logical" name="LNICSALL"> T  </i>
   <i type="logical" name="ORBITALMAG"> F  </i>
   <i type="logical" name="LMAGBLOCH"> F  </i>
   <i type="logical" name="LCHIMAG"> F  </i>
   <i type="logical" name="LGAUGE"> T  </i>
   <i type="int" name="MAGATOM">     0</i>
   <v name="MAGDIPOL">      0.00000000      0.00000000      0.00000000</v>
   <v name="AVECCONST">      0.00000000      0.00000000      0.00000000</v>
  </separator>
  <separator name="response functions" >
   <i type="logical" name="LADDER"> F  </i>
   <i type="logical" name="LFXC"> F  </i>
   <i type="logical" name="LHARTREE"> T  </i>
   <i type="int" name="IBSE">     0</i>
   <i type="logical" name="LTCTE"> F  </i>
   <i type="logical" name="LTETE"> F  </i>
   <i type="logical" name="LTRIPLET"> F  </i>
   <i type="logical" name="LFXCEPS"> F  </i>
   <i type="logical" name="LFXHEG"> F  </i>
   <i type="logical" name="L2ORDER"> F  </i>
   <i type="logical" name="LUSEW"> F  </i>
   <i name="ENCUTGW">     -2.00000000</i>
   <i name="ENCUTGWSOFT">     -2.00000000</i>
   <i name="ENCUTLF">     -1.00000000</i>
   <i type="int" name="LMAXMP2">    -1</i>
   <i name="SCISSOR">      0.00000000</i>
   <i type="int" name="NOMEGA">     0</i>
   <i type="int" name="NOMEGAR">     0</i>
   <i type="int" name="NBANDSGW">    -1</i>
   <i type="int" name="NBANDSO">    -1</i>
   <i type="int" name="NBANDSV">    -1</i>
   <i type="int" name="NELM">   100</i>
   <i type="int" name="DIM">     3</i>
   <i type="int" name="ANTIRES">     0</i>
   <i name="OMEGAMAX">    -30.00000000</i>
   <i name="OMEGAMIN">    -30.00000000</i>
   <i name="OMEGATL">   -200.00000000</i>
   <i type="int" name="OMEGAGRID">     0</i>
   <i name="CSHIFT">     -0.10000000</i>
   <i type="logical" name="SELFENERGY"> F  </i>
   <i type="logical" name="LSPECTRAL"> F  </i>
   <i type="logical" name="ODDONLYGW"> F  </i>
   <i type="logical" name="EVENONLYGW"> F  </i>
   <i type="int" name="NKREDLFX">     1</i>
   <i type="int" name="NKREDLFY">     1</i>
   <i type="int" name="NKREDLFZ">     1</i>
   <i type="int" name="MAXMEM">  1800</i>
   <i type="int" name="TELESCOPE">     0</i>
   <i type="int" name="TAUPAR">     1</i>
  </separator>
  <separator name="External order field" >
   <i name="OFIELD_KAPPA">      0.00000000</i>
   <v name="OFIELD_K">      0.00000000      0.00000000      0.00000000</v>
   <i name="OFIELD_Q6_NEAR">      0.00000000</i>
   <i name="OFIELD_Q6_FAR">      0.00000000</i>
   <i name="OFIELD_A">      0.00000000</i>
  </separator>
 </parameters>
 <atominfo>
  <atoms>       4 </atoms>
  <types>       1 </types>
  <array name="atoms" >
   <dimension dim="1">ion</dimension>
   <field type="string">element</field>
   <field type="int">atomtype</field>
   <set>
    <rc><c>C </c><c>   1</c></rc>
    <rc><c>C </c><c>   1</c></rc>
    <rc><c>C </c><c>   1</c></rc>
    <rc><c>C </c><c>   1</c></rc>
   </set>
  </array>
  <array name="atomtypes" >
   <dimension dim="1">type</dimension>
   <field type="int">atomspertype</field>
   <field type="string">element</field>
   <field>mass</field>
   <field>valence</field>
   <field type="string">pseudopotential</field>
   <set>
    <rc><c>   4</c><c>C </c><c>     12.01100000</c><c>      4.00000000</c><c> PAW_PBE C 08Apr2002                    </c></rc>
   </set>
  </array>
 </atominfo>
 <structure name="initialpos" >
  <crystal>
   <varray name="basis" >
    <v>       4.26197722       0.00000000       0.00000000 </v>
    <v>       0.00000000       2.50455735       0.00000000 </v>
    <v>       0.00000000       0.00000000      19.75179550 </v>
   </varray>
   <i name="volume">    210.83790140 </i>
   <varray name="rec_basis" >
    <v>       0.23463288       0.00000000       0.00000000 </v>
    <v>       0.00000000       0.39927215       0.00000000 </v>
    <v>       0.00000000       0.00000000       0.05062831 </v>
   </varray>
  </crystal>
  <varray name="positions" >
   <v>       0.00039382       0.00000000       0.00000000 </v>
   <v>       0.16627284       0.50000000       0.00000000 </v>
   <v>       0.50039382       0.50000000       0.00000000 </v>
   <v>       0.66627284       0.00000000       0.00000000 </v>
  </varray>
 </structure>
 <calculation>
  <scstep>
   <time name="dav">  330.08  330.64</time>
   <time name="total">  332.85  333.45</time>
   <energy>
    <i name="alphaZ">      6.18334092 </i>
    <i name="ewald">   2503.22792213 </i>
    <i name="hartreedc">  -2931.11149308 </i>
    <i name="XCdc">     54.92790445 </i>
    <i name="pawpsdc">    151.32577238 </i>
    <i name="pawaedc">   -155.92769107 </i>
    <i name="eentropy">     -0.00133135 </i>
    <i name="bandstr">    -29.41013581 </i>
    <i name="atom">    588.62352690 </i>
    <i name="e_fr_energy">    187.83781548 </i>
    <i name="e_wo_entrp">    187.83914683 </i>
    <i name="e_0_energy">    187.83848116 </i>
   </energy>
  </scstep>
  <scstep>
   <time name="dav">  487.26  489.42</time>
   <time name="total">  487.27  489.43</time>
   <energy>
    <i name="e_fr_energy">     -9.37798453 </i>
    <i name="e_wo_entrp">     -9.37790489 </i>
    <i name="e_0_energy">     -9.37794471 </i>
   </energy>
  </scstep>
  <scstep>
   <time name="dav">  377.36  380.42</time>
   <time name="total">  411.90  415.36</time>
   <energy>
    <i name="e_fr_energy">    -38.23356006 </i>
    <i name="e_wo_entrp">    -38.23355845 </i>
    <i name="e_0_energy">    -38.23355925 </i>
   </energy>
  </scstep>
  <scstep>
   <time name="diag">   89.04   89.36</time>
   <time name="diis">  377.54  377.90</time>
   <time name="orth">    3.08    3.08</time>
   <time name="total">  507.20  507.90</time>
   <energy>
    <i name="e_fr_energy">    -37.64270531 </i>
    <i name="e_wo_entrp">    -37.64270219 </i>
    <i name="e_0_energy">    -37.64270375 </i>
   </energy>
  </scstep>
  <scstep>
   <time name="diag">   89.23   89.26</time>
   <time name="diis">  373.90  374.14</time>
   <time name="orth">    3.09    3.09</time>
   <time name="total">  503.67  503.98</time>
   <energy>
    <i name="e_fr_energy">    -36.91070163 </i>
    <i name="e_wo_entrp">    -36.91069665 </i>
    <i name="e_0_energy">    -36.91069914 </i>
   </energy>
  </scstep>
  <scstep>
   <time name="diag">   89.26   89.30</time>
   <time name="diis">  409.67  409.93</time>
   <time name="orth">    3.09    3.10</time>
   <time name="total">  539.51  539.90</time>
   <energy>
    <i name="e_fr_energy">    -36.91217867 </i>
    <i name="e_wo_entrp">    -36.91217392 </i>
    <i name="e_0_energy">    -36.91217629 </i>
   </energy>
  </scstep>
  <scstep>
   <time name="diag">   88.85   89.26</time>
   <time name="diis">  371.19  371.86</time>
   <time name="orth">    3.08    3.08</time>
   <time name="total">  500.59  501.77</time>
   <energy>
    <i name="e_fr_energy">    -36.90302632 </i>
    <i name="e_wo_entrp">    -36.90302218 </i>
    <i name="e_0_energy">    -36.90302425 </i>
   </energy>
  </scstep>
  <scstep>
   <time name="diag">   89.21   89.23</time>
   <time name="diis">  374.45  374.57</time>
   <time name="orth">    3.08    3.08</time>
   <time name="total">  504.22  504.44</time>
   <energy>
    <i name="e_fr_energy">    -36.89771841 </i>
    <i name="e_wo_entrp">    -36.89771410 </i>
    <i name="e_0_energy">    -36.89771626 </i>
   </energy>
  </scstep>
  <scstep>
   <time name="diag">   89.27   89.32</time>
   <time name="diis">  361.13  361.20</time>
   <time name="orth">    3.09    3.09</time>
   <time name="total">  491.04  491.19</time>
   <energy>
    <i name="e_fr_energy">    -36.89749856 </i>
    <i name="e_wo_entrp">    -36.89749394 </i>
    <i name="e_0_energy">    -36.89749625 </i>
   </energy>
  </scstep>
  <scstep>
   <time name="diag">   89.29   89.30</time>
   <time name="diis">  361.49  361.56</time>
   <time name="orth">    3.10    3.10</time>
   <time name="total">  491.26  491.39</time>
   <energy>
    <i name="e_fr_energy">    -36.89739500 </i>
    <i name="e_wo_entrp">    -36.89739057 </i>
    <i name="e_0_energy">    -36.89739279 </i>
   </energy>
  </scstep>
  <scstep>
   <time name="diag">   89.22   89.28</time>
   <time name="diis">  363.40  363.73</time>
   <time name="orth">    3.09    3.09</time>
   <time name="total">  493.14  493.57</time>
   <energy>
    <i name="e_fr_energy">    -36.89981009 </i>
    <i name="e_wo_entrp">    -36.89980573 </i>
    <i name="e_0_energy">    -36.89980791 </i>
   </energy>
  </scstep>
  <scstep>
   <time name="diag">   89.26   89.31</time>
   <time name="diis">  362.44  362.53</time>
   <time name="orth">    3.09    3.09</time>
   <time name="total">  492.32  492.49</time>
   <energy>
    <i name="e_fr_energy">    -36.90027409 </i>
    <i name="e_wo_entrp">    -36.90026966 </i>
    <i name="e_0_energy">    -36.90027188 </i>
   </energy>
  </scstep>
  <scstep>
   <time name="diag">   89.30   89.32</time>
   <time name="diis">  368.30  368.60</time>
   <time name="orth">    3.09    3.09</time>
   <time name="total">  498.15  498.57</time>
   <energy>
    <i name="e_fr_energy">    -36.90052687 </i>
    <i name="e_wo_entrp">    -36.90052243 </i>
    <i name="e_0_energy">    -36.90052465 </i>
   </energy>
  </scstep>
  <scstep>
   <time name="diag">   89.29   89.32</time>
   <time name="diis">  364.21  364.28</time>
   <time name="orth">    3.10    3.10</time>
   <time name="total">  494.08  494.20</time>
   <energy>
    <i name="e_fr_energy">    -36.90060882 </i>
    <i name="e_wo_entrp">    -36.90060440 </i>
    <i name="e_0_energy">    -36.90060661 </i>
   </energy>
  </scstep>
  <scstep>
   <time name="diag">   89.23   89.29</time>
   <time name="diis">  366.77  366.85</time>
   <time name="orth">    3.10    3.10</time>
   <time name="total">  496.57  496.92</time>
   <energy>
    <i name="e_fr_energy">    -36.90061827 </i>
    <i name="e_wo_entrp">    -36.90061384 </i>
    <i name="e_0_energy">    -36.90061606 </i>
   </energy>
  </scstep>
  <scstep>
   <time name="diag">   89.27   89.29</time>
   <time name="diis">  362.47  362.55</time>
   <time name="orth">    3.10    3.10</time>
   <time name="total">  492.30  493.00</time>
   <energy>
    <i name="e_fr_energy">    -36.90063069 </i>
    <i name="e_wo_entrp">    -36.90062626 </i>
    <i name="e_0_energy">    -36.90062847 </i>
   </energy>
  </scstep>
  <scstep>
   <time name="diag">   89.23   89.25</time>
   <time name="diis">  374.89  374.97</time>
   <time name="orth">    3.10    3.10</time>
   <time name="total">  504.71  504.90</time>
   <energy>
    <i name="e_fr_energy">    -36.90063580 </i>
    <i name="e_wo_entrp">    -36.90063137 </i>
    <i name="e_0_energy">    -36.90063358 </i>
   </energy>
  </scstep>
  <scstep>
   <time name="diag">   89.21   89.23</time>
   <time name="diis">  361.09  361.17</time>
   <time name="orth">    3.10    3.10</time>
   <time name="total">  490.94  491.07</time>
   <energy>
    <i name="e_fr_energy">    -36.90063692 </i>
    <i name="e_wo_entrp">    -36.90063249 </i>
    <i name="e_0_energy">    -36.90063470 </i>
   </energy>
  </scstep>
  <scstep>
   <time name="diag">   89.22   89.24</time>
   <time name="diis">  372.63  372.71</time>
   <time name="orth">    3.08    3.08</time>
   <time name="total">  502.43  503.11</time>
   <energy>
    <i name="e_fr_energy">    -36.90063768 </i>
    <i name="e_wo_entrp">    -36.90063325 </i>
    <i name="e_0_energy">    -36.90063546 </i>
   </energy>
  </scstep>
  <scstep>
   <time name="diag">   89.28   89.34</time>
   <time name="diis">  283.23  283.46</time>
   <time name="orth">    3.08    3.10</time>
   <time name="total">  412.87  413.44</time>
   <energy>
    <i name="e_fr_energy">    -36.90063773 </i>
    <i name="e_wo_entrp">    -36.90063330 </i>
    <i name="e_0_energy">    -36.90063552 </i>
   </energy>
  </scstep>
  <scstep>
   <time name="diag">   89.24   89.32</time>
   <time name="diis">  279.57  279.65</time>
   <time name="orth">    3.10    3.10</time>
   <time name="total">  409.37  409.68</time>
   <energy>
    <i name="e_fr_energy">    -36.90063775 </i>
    <i name="e_wo_entrp">    -36.90063332 </i>
    <i name="e_0_energy">    -36.90063554 </i>
   </energy>
  </scstep>
  <scstep>
   <time name="diag">   89.27   89.29</time>
   <time name="diis">  249.26  249.31</time>
   <time name="orth">    3.10    3.10</time>
   <time name="total">  379.13  379.35</time>
   <energy>
    <i name="e_fr_energy">    -36.90063775 </i>
    <i name="e_wo_entrp">    -36.90063332 </i>
    <i name="e_0_energy">    -36.90063554 </i>
   </energy>
  </scstep>
  <scstep>
   <time name="diag">   88.87   89.34</time>
   <time name="diis">  235.70  236.92</time>
   <time name="orth">    3.08    3.08</time>
   <time name="total">  364.91  366.93</time>
   <energy>
    <i name="e_fr_energy">    -36.90063775 </i>
    <i name="e_wo_entrp">    -36.90063332 </i>
    <i name="e_0_energy">    -36.90063554 </i>
   </energy>
  </scstep>
  <scstep>
   <time name="diag">   88.94   89.31</time>
   <time name="diis">  227.99  228.09</time>
   <time name="orth">    3.10    3.10</time>
   <time name="total">  357.51  358.02</time>
   <energy>
    <i name="e_fr_energy">    -36.90063775 </i>
    <i name="e_wo_entrp">    -36.90063332 </i>
    <i name="e_0_energy">    -36.90063554 </i>
   </energy>
  </scstep>
  <scstep>
   <time name="diag">   89.18   89.25</time>
   <time name="diis">  217.53  217.68</time>
   <time name="orth">    3.08    3.08</time>
   <time name="total">  312.45  312.69</time>
   <energy>
    <i name="alphaZ">      6.18334092 </i>
    <i name="ewald">   2503.22792213 </i>
    <i name="hartreedc">  -2997.38088030 </i>
    <i name="XCdc">     57.29215329 </i>
    <i name="pawpsdc">    272.04859907 </i>
    <i name="pawaedc">   -277.17463076 </i>
    <i name="eentropy">     -0.00000443 </i>
    <i name="bandstr">   -189.72066457 </i>
    <i name="atom">    588.62352690 </i>
    <i name="e_fr_energy">    -36.90063775 </i>
    <i name="e_wo_entrp">    -36.90063332 </i>
    <i name="e_0_energy">    -36.90063554 </i>
   </energy>
  </scstep>
  <structure>
   <crystal>
    <varray name="basis" >
     <v>       4.26197722       0.00000000       0.00000000 </v>
     <v>       0.00000000       2.50455735       0.00000000 </v>
     <v>       0.00000000       0.00000000      19.75179550 </v>
    </varray>
    <i name="volume">    210.83790140 </i>
    <varray name="rec_basis" >
     <v>       0.23463288       0.00000000       0.00000000 </v>
     <v>       0.00000000       0.39927215       0.00000000 </v>
     <v>       0.00000000       0.00000000       0.05062831 </v>
    </varray>
   </crystal>
   <varray name="positions" >
    <v>       0.00039382       0.00000000       0.00000000 </v>
    <v>       0.16627284       0.50000000       0.00000000 </v>
    <v>       0.50039382       0.50000000       0.00000000 </v>
    <v>       0.66627284       0.00000000       0.00000000 </v>
   </varray>
  </structure>
  <varray name="forces" >
   <v>       0.00060383      -0.00000000       0.00000000 </v>
   <v>      -0.00060383      -0.00000000       0.00000000 </v>
   <v>       0.00060383       0.00000000       0.00000000 </v>
   <v>      -0.00060383      -0.00000000       0.00000000 </v>
  </varray>
  <varray name="stress" >
   <v>       0.00321835       0.00000000       0.00000000 </v>
   <v>       0.00000000     -25.07451459       0.00000000 </v>
   <v>       0.00000000       0.00000000      -0.01028633 </v>
  </varray>
  <energy>
   <i name="e_fr_energy">    -36.90063775 </i>
   <i name="e_wo_entrp">    -36.90063554 </i>
   <i name="e_0_energy">     -0.00000443 </i>
  </energy>
  <time name="totalsc">11577.0311593.65</time>
 </calculation>
 <calculation>
  <scstep>
   <time name="dav">  338.44  339.02</time>
   <time name="total">  376.02  376.64</time>
   <energy>
    <i name="alphaZ">      6.18334092 </i>
    <i name="ewald">   2503.22754445 </i>
    <i name="hartreedc">  -2997.38071698 </i>
    <i name="XCdc">     57.29214254 </i>
    <i name="pawpsdc">    272.04859970 </i>
    <i name="pawaedc">   -277.17463139 </i>
    <i name="eentropy">     -0.00000457 </i>
    <i name="bandstr">   -189.72043923 </i>
    <i name="atom">    588.62352690 </i>
    <i name="e_fr_energy">    -36.90063764 </i>
    <i name="e_wo_entrp">    -36.90063307 </i>
    <i name="e_0_energy">    -36.90063536 </i>
   </energy>
  </scstep>
  <scstep>
   <time name="diag">   89.13   89.43</time>
   <time name="diis">  361.29  361.71</time>
   <time name="orth">    3.08    3.08</time>
   <time name="total">  490.87  491.76</time>
   <energy>
    <i name="e_fr_energy">    -36.90063765 </i>
    <i name="e_wo_entrp">    -36.90063309 </i>
    <i name="e_0_energy">    -36.90063537 </i>
   </energy>
  </scstep>
  <scstep>
   <time name="diag">   89.21   89.47</time>
   <time name="diis">  363.09  364.76</time>
   <time name="orth">    3.08    3.08</time>
   <time name="total">  492.96  494.91</time>
   <energy>
    <i name="e_fr_energy">    -36.90063764 </i>
    <i name="e_wo_entrp">    -36.90063309 </i>
    <i name="e_0_energy">    -36.90063536 </i>
   </energy>
  </scstep>
  <scstep>
   <time name="diag">   89.43   89.44</time>
   <time name="diis">  366.44  366.53</time>
   <time name="orth">    3.10    3.10</time>
   <time name="total">  496.52  497.39</time>
   <energy>
    <i name="e_fr_energy">    -36.90063764 </i>
    <i name="e_wo_entrp">    -36.90063308 </i>
    <i name="e_0_energy">    -36.90063536 </i>
   </energy>
  </scstep>
  <scstep>
   <time name="diag">   89.11   89.46</time>
   <time name="diis">  246.03  247.35</time>
   <time name="orth">    3.08    3.08</time>
   <time name="total">  375.58  377.47</time>
   <energy>
    <i name="e_fr_energy">    -36.90063764 </i>
    <i name="e_wo_entrp">    -36.90063308 </i>
    <i name="e_0_energy">    -36.90063536 </i>
   </energy>
  </scstep>
  <scstep>
   <time name="diag">   89.31   89.50</time>
   <time name="diis">  236.03  236.25</time>
   <time name="orth">    3.10    3.10</time>
   <time name="total">  366.02  366.50</time>
   <energy>
    <i name="e_fr_energy">    -36.90063764 </i>
    <i name="e_wo_entrp">    -36.90063308 </i>
    <i name="e_0_energy">    -36.90063536 </i>
   </energy>
  </scstep>
  <scstep>
   <time name="diag">   89.37   89.43</time>
   <time name="diis">  232.02  232.21</time>
   <time name="orth">    3.07    3.08</time>
   <time name="total">  327.11  327.57</time>
   <energy>
    <i name="alphaZ">      6.18334092 </i>
    <i name="ewald">   2503.22754445 </i>
    <i name="hartreedc">  -2997.38056816 </i>
    <i name="XCdc">     57.29213621 </i>
    <i name="pawpsdc">    272.04793887 </i>
    <i name="pawaedc">   -277.17396777 </i>
    <i name="eentropy">     -0.00000456 </i>
    <i name="bandstr">   -189.72058449 </i>
    <i name="atom">    588.62352690 </i>
    <i name="e_fr_energy">    -36.90063764 </i>
    <i name="e_wo_entrp">    -36.90063308 </i>
    <i name="e_0_energy">    -36.90063536 </i>
   </energy>
  </scstep>
  <structure>
   <crystal>
    <varray name="basis" >
     <v>       4.26197722       0.00000000       0.00000000 </v>
     <v>       0.00000000       2.50455735       0.00000000 </v>
     <v>       0.00000000       0.00000000      19.75179550 </v>
    </varray>
    <i name="volume">    210.83790140 </i>
    <varray name="rec_basis" >
     <v>       0.23463288       0.00000000       0.00000000 </v>
     <v>       0.00000000       0.39927215       0.00000000 </v>
     <v>       0.00000000       0.00000000       0.05062831 </v>
    </varray>
   </crystal>
   <varray name="positions" >
    <v>       0.00040066      -0.00000000       0.00000000 </v>
    <v>       0.16626601       0.50000000       0.00000000 </v>
    <v>       0.50040066       0.50000000       0.00000000 </v>
    <v>       0.66626601      -0.00000000       0.00000000 </v>
   </varray>
  </structure>
  <varray name="forces" >
   <v>      -0.00245725      -0.00000000       0.00000000 </v>
   <v>       0.00245725       0.00000000      -0.00000000 </v>
   <v>      -0.00245725      -0.00000000       0.00000000 </v>
   <v>       0.00245725       0.00000000      -0.00000000 </v>
  </varray>
  <varray name="stress" >
   <v>      -0.00811450       0.00000000       0.00000000 </v>
   <v>       0.00000000     -25.06610492       0.00000000 </v>
   <v>       0.00000000       0.00000000      -0.01028986 </v>
  </varray>
  <energy>
   <i name="e_fr_energy">    -36.90063764 </i>
   <i name="e_wo_entrp">    -36.90063536 </i>
   <i name="e_0_energy">     -0.00000456 </i>
  </energy>
  <time name="totalsc"> 3032.66 3039.88</time>
 </calculation>
 <calculation>
  <scstep>
   <time name="dav">  355.03  355.24</time>
   <time name="total">  392.62  392.84</time>
   <energy>
    <i name="alphaZ">      6.18334092 </i>
    <i name="ewald">   2503.22784754 </i>
    <i name="hartreedc">  -2997.38069479 </i>
    <i name="XCdc">     57.29214476 </i>
    <i name="pawpsdc">    272.04794255 </i>
    <i name="pawaedc">   -277.17397143 </i>
    <i name="eentropy">     -0.00000445 </i>
    <i name="bandstr">   -189.72076976 </i>
    <i name="atom">    588.62352690 </i>
    <i name="e_fr_energy">    -36.90063775 </i>
    <i name="e_wo_entrp">    -36.90063331 </i>
    <i name="e_0_energy">    -36.90063553 </i>
   </energy>
  </scstep>
  <scstep>
   <time name="diag">   89.44   89.46</time>
   <time name="diis">  362.78  363.10</time>
   <time name="orth">    3.08    3.10</time>
   <time name="total">  492.67  493.25</time>
   <energy>
    <i name="e_fr_energy">    -36.90063776 </i>
    <i name="e_wo_entrp">    -36.90063331 </i>
    <i name="e_0_energy">    -36.90063553 </i>
   </energy>
  </scstep>
  <scstep>
   <time name="diag">   88.91   89.41</time>
   <time name="diis">  364.09  365.18</time>
   <time name="orth">    3.09    3.10</time>
   <time name="total">  493.55  495.21</time>
   <energy>
    <i name="e_fr_energy">    -36.90063776 </i>
    <i name="e_wo_entrp">    -36.90063330 </i>
    <i name="e_0_energy">    -36.90063553 </i>
   </energy>
  </scstep>
  <scstep>
   <time name="diag">   89.33   89.39</time>
   <time name="diis">  354.26  354.97</time>
   <time name="orth">    3.11    3.11</time>
   <time name="total">  484.18  485.00</time>
   <energy>
    <i name="e_fr_energy">    -36.90063776 </i>
    <i name="e_wo_entrp">    -36.90063330 </i>
    <i name="e_0_energy">    -36.90063553 </i>
   </energy>
  </scstep>
  <scstep>
   <time name="diag">   89.34   89.39</time>
   <time name="diis">  242.70  242.92</time>
   <time name="orth">    3.10    3.10</time>
   <time name="total">  372.74  373.04</time>
   <energy>
    <i name="e_fr_energy">    -36.90063776 </i>
    <i name="e_wo_entrp">    -36.90063330 </i>
    <i name="e_0_energy">    -36.90063553 </i>
   </energy>
  </scstep>
  <scstep>
   <time name="diag">   89.42   89.44</time>
   <time name="diis">  229.93  230.02</time>
   <time name="orth">    3.10    3.10</time>
   <time name="total">  325.12  325.24</time>
   <energy>
    <i name="alphaZ">      6.18334092 </i>
    <i name="ewald">   2503.22784754 </i>
    <i name="hartreedc">  -2997.38080809 </i>
    <i name="XCdc">     57.29214979 </i>
    <i name="pawpsdc">    272.04847275 </i>
    <i name="pawaedc">   -277.17450389 </i>
    <i name="eentropy">     -0.00000445 </i>
    <i name="bandstr">   -189.72065922 </i>
    <i name="atom">    588.62352690 </i>
    <i name="e_fr_energy">    -36.90063776 </i>
    <i name="e_wo_entrp">    -36.90063330 </i>
    <i name="e_0_energy">    -36.90063553 </i>
   </energy>
  </scstep>
  <structure>
   <crystal>
    <varray name="basis" >
     <v>       4.26197722       0.00000000       0.00000000 </v>
     <v>       0.00000000       2.50455735       0.00000000 </v>
     <v>       0.00000000       0.00000000      19.75179550 </v>
    </varray>
    <i name="volume">    210.83790140 </i>
    <varray name="rec_basis" >
     <v>       0.23463288       0.00000000       0.00000000 </v>
     <v>       0.00000000       0.39927215       0.00000000 </v>
     <v>       0.00000000       0.00000000       0.05062831 </v>
    </varray>
   </crystal>
   <varray name="positions" >
    <v>       0.00039517      -0.00000000       0.00000000 </v>
    <v>       0.16627150       0.50000000      -0.00000000 </v>
    <v>       0.50039517       0.50000000       0.00000000 </v>
    <v>       0.66627150      -0.00000000      -0.00000000 </v>
   </varray>
  </structure>
  <varray name="forces" >
   <v>      -0.00000167      -0.00000000       0.00000000 </v>
   <v>       0.00000167       0.00000000      -0.00000000 </v>
   <v>      -0.00000167       0.00000000       0.00000000 </v>
   <v>       0.00000167       0.00000000      -0.00000000 </v>
  </varray>
  <varray name="stress" >
   <v>       0.00093303       0.00000000       0.00000000 </v>
   <v>       0.00000000     -25.07278830       0.00000000 </v>
   <v>       0.00000000       0.00000000      -0.01026831 </v>
  </varray>
  <energy>
   <i name="e_fr_energy">    -36.90063776 </i>
   <i name="e_wo_entrp">    -36.90063553 </i>
   <i name="e_0_energy">     -0.00000445 </i>
  </energy>
  <time name="totalsc"> 2668.40 2672.22</time>
 </calculation>
 <calculation>
  <scstep>
   <time name="dav">  285.82  286.11</time>
   <time name="total">  323.06  323.37</time>
   <energy>
    <i name="alphaZ">      6.18334092 </i>
    <i name="ewald">   2503.22784775 </i>
    <i name="hartreedc">  -2997.38080941 </i>
    <i name="XCdc">     57.29214984 </i>
    <i name="pawpsdc">    272.04847396 </i>
    <i name="pawaedc">   -277.17450511 </i>
    <i name="eentropy">     -0.00000445 </i>
    <i name="bandstr">   -189.72065815 </i>
    <i name="atom">    588.62352690 </i>
    <i name="e_fr_energy">    -36.90063776 </i>
    <i name="e_wo_entrp">    -36.90063330 </i>
    <i name="e_0_energy">    -36.90063553 </i>
   </energy>
  </scstep>
  <scstep>
   <time name="diag">   89.28   89.37</time>
   <time name="diis">  183.41  183.55</time>
   <time name="orth">    3.10    3.10</time>
   <time name="total">  313.13  313.64</time>
   <energy>
    <i name="e_fr_energy">    -36.90063776 </i>
    <i name="e_wo_entrp">    -36.90063330 </i>
    <i name="e_0_energy">    -36.90063553 </i>
   </energy>
  </scstep>
  <scstep>
   <time name="diag">   89.25   89.28</time>
   <time name="diis">  179.90  179.95</time>
   <time name="orth">    3.10    3.10</time>
   <time name="total">  309.54  309.64</time>
   <energy>
    <i name="e_fr_energy">    -36.90063776 </i>
    <i name="e_wo_entrp">    -36.90063330 </i>
    <i name="e_0_energy">    -36.90063553 </i>
   </energy>
  </scstep>
  <scstep>
   <time name="diag">   89.29   89.34</time>
   <time name="diis">  177.38  177.49</time>
   <time name="orth">    3.10    3.10</time>
   <time name="total">  307.00  307.17</time>
   <energy>
    <i name="e_fr_energy">    -36.90063776 </i>
    <i name="e_wo_entrp">    -36.90063330 </i>
    <i name="e_0_energy">    -36.90063553 </i>
   </energy>
  </scstep>
  <scstep>
   <time name="diag">   89.27   89.29</time>
   <time name="diis">  175.16  175.84</time>
   <time name="orth">    3.08    3.08</time>
   <time name="total">  304.95  305.85</time>
   <energy>
    <i name="e_fr_energy">    -36.90063776 </i>
    <i name="e_wo_entrp">    -36.90063330 </i>
    <i name="e_0_energy">    -36.90063553 </i>
   </energy>
  </scstep>
  <scstep>
   <time name="diag">   88.83   89.31</time>
   <time name="diis">  170.61  172.04</time>
   <time name="orth">    3.08    3.10</time>
   <time name="total">  299.80  302.52</time>
   <energy>
    <i name="e_fr_energy">    -36.90063776 </i>
    <i name="e_wo_entrp">    -36.90063330 </i>
    <i name="e_0_energy">    -36.90063553 </i>
   </energy>
  </scstep>
  <scstep>
   <time name="diag">   88.85   89.27</time>
   <time name="diis">  169.70  170.16</time>
   <time name="orth">    3.10    3.10</time>
   <time name="total">  299.27  300.20</time>
   <energy>
    <i name="e_fr_energy">    -36.90063776 </i>
    <i name="e_wo_entrp">    -36.90063330 </i>
    <i name="e_0_energy">    -36.90063553 </i>
   </energy>
  </scstep>
  <scstep>
   <time name="diag">   89.08   89.30</time>
   <time name="diis">  168.00  168.77</time>
   <time name="orth">    3.08    3.08</time>
   <time name="total">  297.30  298.50</time>
   <energy>
    <i name="e_fr_energy">    -36.90063776 </i>
    <i name="e_wo_entrp">    -36.90063330 </i>
    <i name="e_0_energy">    -36.90063553 </i>
   </energy>
  </scstep>
  <scstep>
   <time name="diag">   88.86   89.28</time>
   <time name="diis">  168.70  168.84</time>
   <time name="orth">    3.08    3.08</time>
   <time name="total">  263.30  263.94</time>
   <energy>
    <i name="alphaZ">      6.18334092 </i>
    <i name="ewald">   2503.22784775 </i>
    <i name="hartreedc">  -2997.38081797 </i>
    <i name="XCdc">     57.29214997 </i>
    <i name="pawpsdc">    272.04847115 </i>
    <i name="pawaedc">   -277.17450233 </i>
    <i name="eentropy">     -0.00000445 </i>
    <i name="bandstr">   -189.72064969 </i>
    <i name="atom">    588.62352690 </i>
    <i name="e_fr_energy">    -36.90063776 </i>
    <i name="e_wo_entrp">    -36.90063330 </i>
    <i name="e_0_energy">    -36.90063553 </i>
   </energy>
  </scstep>
  <structure>
   <crystal>
    <varray name="basis" >
     <v>       4.26197722       0.00000000       0.00000000 </v>
     <v>       0.00000000       2.50455735       0.00000000 </v>
     <v>       0.00000000       0.00000000      19.75179550 </v>
    </varray>
    <i name="volume">    210.83790140 </i>
    <varray name="rec_basis" >
     <v>       0.23463288       0.00000000       0.00000000 </v>
     <v>       0.00000000       0.39927215       0.00000000 </v>
     <v>       0.00000000       0.00000000       0.05062831 </v>
    </varray>
   </crystal>
   <varray name="positions" >
    <v>       0.00039517      -0.00000000       0.00000000 </v>
    <v>       0.16627150       0.50000000      -0.00000000 </v>
    <v>       0.50039517       0.50000000       0.00000000 </v>
    <v>       0.66627150      -0.00000000      -0.00000000 </v>
   </varray>
  </structure>
  <varray name="forces" >
   <v>       0.00000230      -0.00000000      -0.00000000 </v>
   <v>      -0.00000230      -0.00000000       0.00000000 </v>
   <v>       0.00000230      -0.00000000      -0.00000000 </v>
   <v>      -0.00000230       0.00000000       0.00000000 </v>
  </varray>
  <varray name="stress" >
   <v>       0.00099407       0.00000000       0.00000000 </v>
   <v>       0.00000000     -25.07284859       0.00000000 </v>
   <v>       0.00000000       0.00000000      -0.01027145 </v>
  </varray>
  <energy>
   <i name="e_fr_energy">    -36.90063776 </i>
   <i name="e_wo_entrp">    -36.90063553 </i>
   <i name="e_0_energy">     -0.00000445 </i>
  </energy>
  <time name="totalsc"> 2824.97 2832.89</time>
 </calculation>
 <calculation>
  <scstep>
   <time name="dav">  270.29  270.49</time>
   <time name="total">  307.74  307.95</time>
   <energy>
    <i name="alphaZ">      6.18334092 </i>
    <i name="ewald">   2503.22784763 </i>
    <i name="hartreedc">  -2997.38081796 </i>
    <i name="XCdc">     57.29214997 </i>
    <i name="pawpsdc">    272.04847114 </i>
    <i name="pawaedc">   -277.17450233 </i>
    <i name="eentropy">     -0.00000445 </i>
    <i name="bandstr">   -189.72064957 </i>
    <i name="atom">    588.62352690 </i>
    <i name="e_fr_energy">    -36.90063776 </i>
    <i name="e_wo_entrp">    -36.90063330 </i>
    <i name="e_0_energy">    -36.90063553 </i>
   </energy>
  </scstep>
  <scstep>
   <time name="diag">   89.29   89.32</time>
   <time name="diis">  153.97  154.02</time>
   <time name="orth">    3.08    3.08</time>
   <time name="total">  283.45  283.55</time>
   <energy>
    <i name="e_fr_energy">    -36.90063776 </i>
    <i name="e_wo_entrp">    -36.90063330 </i>
    <i name="e_0_energy">    -36.90063553 </i>
   </energy>
  </scstep>
  <scstep>
   <time name="diag">   89.24   89.27</time>
   <time name="diis">  161.45  161.48</time>
   <time name="orth">    3.10    3.10</time>
   <time name="total">  291.16  292.13</time>
   <energy>
    <i name="e_fr_energy">    -36.90063776 </i>
    <i name="e_wo_entrp">    -36.90063330 </i>
    <i name="e_0_energy">    -36.90063553 </i>
   </energy>
  </scstep>
  <scstep>
   <time name="diag">   89.24   89.27</time>
   <time name="diis">  156.34  156.44</time>
   <time name="orth">    3.08    3.10</time>
   <time name="total">  285.73  286.24</time>
   <energy>
    <i name="e_fr_energy">    -36.90063776 </i>
    <i name="e_wo_entrp">    -36.90063330 </i>
    <i name="e_0_energy">    -36.90063553 </i>
   </energy>
  </scstep>
  <scstep>
   <time name="diag">   88.94   89.35</time>
   <time name="diis">  158.14  158.17</time>
   <time name="orth">    3.08    3.08</time>
   <time name="total">  252.85  253.33</time>
   <energy>
    <i name="alphaZ">      6.18334092 </i>
    <i name="ewald">   2503.22784763 </i>
    <i name="hartreedc">  -2997.38081676 </i>
    <i name="XCdc">     57.29214992 </i>
    <i name="pawpsdc">    272.04847007 </i>
    <i name="pawaedc">   -277.17450124 </i>
    <i name="eentropy">     -0.00000445 </i>
    <i name="bandstr">   -189.72065073 </i>
    <i name="atom">    588.62352690 </i>
    <i name="e_fr_energy">    -36.90063776 </i>
    <i name="e_wo_entrp">    -36.90063330 </i>
    <i name="e_0_energy">    -36.90063553 </i>
   </energy>
  </scstep>
  <structure>
   <crystal>
    <varray name="basis" >
     <v>       4.26197722       0.00000000       0.00000000 </v>
     <v>       0.00000000       2.50455735       0.00000000 </v>
     <v>       0.00000000       0.00000000      19.75179550 </v>
    </varray>
    <i name="volume">    210.83790140 </i>
    <varray name="rec_basis" >
     <v>       0.23463288       0.00000000       0.00000000 </v>
     <v>       0.00000000       0.39927215       0.00000000 </v>
     <v>       0.00000000       0.00000000       0.05062831 </v>
    </varray>
   </crystal>
   <varray name="positions" >
    <v>       0.00039517      -0.00000000       0.00000000 </v>
    <v>       0.16627150       0.50000000      -0.00000000 </v>
    <v>       0.50039517       0.50000000       0.00000000 </v>
    <v>       0.66627150       0.00000000      -0.00000000 </v>
   </varray>
  </structure>
  <varray name="forces" >
   <v>       0.00000049       0.00000000       0.00000000 </v>
   <v>      -0.00000049      -0.00000000       0.00000000 </v>
   <v>       0.00000049      -0.00000000       0.00000000 </v>
   <v>      -0.00000049       0.00000000       0.00000000 </v>
  </varray>
  <varray name="stress" >
   <v>       0.00099069       0.00000000       0.00000000 </v>
   <v>       0.00000000     -25.07284468       0.00000000 </v>
   <v>       0.00000000       0.00000000      -0.01028050 </v>
  </varray>
  <energy>
   <i name="e_fr_energy">    -36.90063776 </i>
   <i name="e_wo_entrp">    -36.90063553 </i>
   <i name="e_0_energy">     -0.00000445 </i>
  </energy>
  <time name="totalsc"> 1521.34 1524.05</time>
  <eigenvalues>
   <array>
    <dimension dim="1">band</dimension>
    <dimension dim="2">kpoint</dimension>
    <dimension dim="3">spin</dimension>
    <field>eigene</field>
    <field>occ</field>
    <set>
     <set comment="spin 1">
      <set comment="kpoint 1">
       <r>  -22.1494    1.0000 </r>
       <r>  -16.8284    1.0000 </r>
       <r>  -15.9060    1.0000 </r>
       <r>  -10.2784    1.0000 </r>
       <r>   -9.3567    1.0000 </r>
       <r>   -5.9173    1.0000 </r>
       <r>   -5.7543    1.0000 </r>
       <r>   -4.9854    1.0000 </r>
       <r>   -1.1127    0.0000 </r>
       <r>    0.5364    0.0000 </r>
       <r>    1.3357    0.0000 </r>
       <r>    1.7248    0.0000 </r>
      </set>
      <set comment="kpoint 2">
       <r>  -22.1391    1.0000 </r>
       <r>  -17.0113    1.0000 </r>
       <r>  -15.7080    1.0000 </r>
       <r>  -10.2661    1.0000 </r>
       <r>   -9.3464    1.0000 </r>
       <r>   -5.9405    1.0000 </r>
       <r>   -5.7955    1.0000 </r>
       <r>   -5.0540    1.0000 </r>
       <r>   -1.0288    0.0000 </r>
       <r>    0.5504    0.0000 </r>
       <r>    1.3498    0.0000 </r>
       <r>    1.7392    0.0000 </r>
      </set>
      <set comment="kpoint 3">
       <r>  -22.1081    1.0000 </r>
       <r>  -17.3663    1.0000 </r>
       <r>  -15.3077    1.0000 </r>
       <r>  -10.2293    1.0000 </r>
       <r>   -9.3154    1.0000 </r>
       <r>   -6.0090    1.0000 </r>
       <r>   -5.9176    1.0000 </r>
       <r>   -5.2438    1.0000 </r>
       <r>   -0.7934    0.0000 </r>
       <r>    0.5923    0.0000 </r>
       <r>    1.3923    0.0000 </r>
       <r>    1.7822    0.0000 </r>
      </set>
      <set comment="kpoint 4">
       <r>  -22.0565    1.0000 </r>
       <r>  -17.7530    1.0000 </r>
       <r>  -14.8459    1.0000 </r>
       <r>  -10.1680    1.0000 </r>
       <r>   -9.2641    1.0000 </r>
       <r>   -6.1190    1.0000 </r>
       <r>   -6.1160    1.0000 </r>
       <r>   -5.5190    1.0000 </r>
       <r>   -0.4425    0.0000 </r>
       <r>    0.6623    0.0000 </r>
       <r>    1.4631    0.0000 </r>
       <r>    1.8538    0.0000 </r>
      </set>
      <set comment="kpoint 5">
       <r>  -21.9843    1.0000 </r>
       <r>  -18.1387    1.0000 </r>
       <r>  -14.3556    1.0000 </r>
       <r>  -10.0822    1.0000 </r>
       <r>   -9.1925    1.0000 </r>
       <r>   -6.3841    1.0000 </r>
       <r>   -6.2650    1.0000 </r>
       <r>   -5.8454    1.0000 </r>
       <r>   -0.0116    0.0000 </r>
       <r>    0.7603    0.0000 </r>
       <r>    1.5621    0.0000 </r>
       <r>    1.9542    0.0000 </r>
      </set>
      <set comment="kpoint 6">
       <r>  -21.8916    1.0000 </r>
       <r>  -18.5140    1.0000 </r>
       <r>  -13.8471    1.0000 </r>
       <r>   -9.9722    1.0000 </r>
       <r>   -9.1011    1.0000 </r>
       <r>   -6.7136    1.0000 </r>
       <r>   -6.4403    1.0000 </r>
       <r>   -6.1980    1.0000 </r>
       <r>    0.4732    0.0000 </r>
       <r>    0.8863    0.0000 </r>
       <r>    1.6894    0.0000 </r>
       <r>    2.0831    0.0000 </r>
      </set>
      <set comment="kpoint 7">
       <r>  -21.7783    1.0000 </r>
       <r>  -18.8750    1.0000 </r>
       <r>  -13.3248    1.0000 </r>
       <r>   -9.8382    1.0000 </r>
       <r>   -8.9904    1.0000 </r>
       <r>   -7.0960    1.0000 </r>
       <r>   -6.6381    1.0000 </r>
       <r>   -6.5604    1.0000 </r>
       <r>    0.9940    0.0000 </r>
       <r>    1.0402    0.0000 </r>
       <r>    1.8449    0.0000 </r>
       <r>    2.2408    0.0000 </r>
      </set>
      <set comment="kpoint 8">
       <r>  -21.6447    1.0000 </r>
       <r>  -19.2200    1.0000 </r>
       <r>  -12.7920    1.0000 </r>
       <r>   -9.6803    1.0000 </r>
       <r>   -8.8611    1.0000 </r>
       <r>   -7.5224    1.0000 </r>
       <r>   -6.9223    1.0000 </r>
       <r>   -6.8517    1.0000 </r>
       <r>    1.2220    0.0000 </r>
       <r>    1.5381    0.0000 </r>
       <r>    2.0285    0.0000 </r>
       <r>    2.4271    0.0000 </r>
      </set>
      <set comment="kpoint 9">
       <r>  -21.4908    1.0000 </r>
       <r>  -19.5478    1.0000 </r>
       <r>  -12.2510    1.0000 </r>
       <r>   -9.4988    1.0000 </r>
       <r>   -8.7138    1.0000 </r>
       <r>   -7.9849    1.0000 </r>
       <r>   -7.2767    1.0000 </r>
       <r>   -7.0752    1.0000 </r>
       <r>    1.4318    0.0000 </r>
       <r>    2.0961    0.0000 </r>
       <r>    2.2401    0.0000 </r>
       <r>    2.6420    0.0000 </r>
      </set>
      <set comment="kpoint 10">
       <r>  -21.3167    1.0000 </r>
       <r>  -19.8576    1.0000 </r>
       <r>  -11.7044    1.0000 </r>
       <r>   -9.2943    1.0000 </r>
       <r>   -8.5498    1.0000 </r>
       <r>   -8.4758    1.0000 </r>
       <r>   -7.6191    1.0000 </r>
       <r>   -7.3030    1.0000 </r>
       <r>    1.6693    0.0000 </r>
       <r>    2.4796    0.0000 </r>
       <r>    2.6597    0.0000 </r>
       <r>    2.8856    0.0000 </r>
      </set>
      <set comment="kpoint 11">
       <r>  -21.1225    1.0000 </r>
       <r>  -20.1489    1.0000 </r>
       <r>  -11.1546    1.0000 </r>
       <r>   -9.0671    1.0000 </r>
       <r>   -8.9886    1.0000 </r>
       <r>   -8.3701    1.0000 </r>
       <r>   -7.9465    1.0000 </r>
       <r>   -7.5305    1.0000 </r>
       <r>    1.9346    0.0000 </r>
       <r>    2.7465    0.0000 </r>
       <r>    3.1578    0.0000 </r>
       <r>    3.2169    0.0000 </r>
      </set>
      <set comment="kpoint 12">
       <r>  -20.9084    1.0000 </r>
       <r>  -20.4214    1.0000 </r>
       <r>  -10.6046    1.0000 </r>
       <r>   -9.5176    1.0000 </r>
       <r>   -8.8178    1.0000 </r>
       <r>   -8.2564    1.0000 </r>
       <r>   -8.1763    1.0000 </r>
       <r>   -7.7540    1.0000 </r>
       <r>    2.2276    0.0000 </r>
       <r>    2.8955    0.0000 </r>
       <r>    3.0400    0.0000 </r>
       <r>    3.4586    0.0000 </r>
      </set>
      <set comment="kpoint 13">
       <r>  -20.6747    1.0000 </r>
       <r>  -20.6747    1.0000 </r>
       <r>  -10.0577    1.0000 </r>
       <r>  -10.0577    1.0000 </r>
       <r>   -8.5473    1.0000 </r>
       <r>   -8.5473    1.0000 </r>
       <r>   -7.9702    1.0000 </r>
       <r>   -7.9702    1.0000 </r>
       <r>    2.5479    0.0000 </r>
       <r>    2.5479    0.0000 </r>
       <r>    3.3559    0.0000 </r>
       <r>    3.3559    0.0000 </r>
      </set>
      <set comment="kpoint 14">
       <r>  -22.1361    1.0000 </r>
       <r>  -16.8169    1.0000 </r>
       <r>  -15.8952    1.0000 </r>
       <r>  -10.2626    1.0000 </r>
       <r>   -9.4162    1.0000 </r>
       <r>   -5.9720    1.0000 </r>
       <r>   -5.7858    1.0000 </r>
       <r>   -4.9693    1.0000 </r>
       <r>   -1.1180    0.0000 </r>
       <r>    0.5543    0.0000 </r>
       <r>    1.3539    0.0000 </r>
       <r>    1.7433    0.0000 </r>
      </set>
      <set comment="kpoint 15">
       <r>  -22.1258    1.0000 </r>
       <r>  -16.9998    1.0000 </r>
       <r>  -15.6973    1.0000 </r>
       <r>  -10.2504    1.0000 </r>
       <r>   -9.4058    1.0000 </r>
       <r>   -5.9992    1.0000 </r>
       <r>   -5.8224    1.0000 </r>
       <r>   -5.0381    1.0000 </r>
       <r>   -1.0340    0.0000 </r>
       <r>    0.5683    0.0000 </r>
       <r>    1.3681    0.0000 </r>
       <r>    1.7576    0.0000 </r>
      </set>
      <set comment="kpoint 16">
       <r>  -22.0948    1.0000 </r>
       <r>  -17.3545    1.0000 </r>
       <r>  -15.2975    1.0000 </r>
       <r>  -10.2135    1.0000 </r>
       <r>   -9.3748    1.0000 </r>
       <r>   -6.0824    1.0000 </r>
       <r>   -5.9278    1.0000 </r>
       <r>   -5.2282    1.0000 </r>
       <r>   -0.7986    0.0000 </r>
       <r>    0.6103    0.0000 </r>
       <r>    1.4105    0.0000 </r>
       <r>    1.8006    0.0000 </r>
      </set>
      <set comment="kpoint 17">
       <r>  -22.0432    1.0000 </r>
       <r>  -17.7410    1.0000 </r>
       <r>  -14.8361    1.0000 </r>
       <r>  -10.1522    1.0000 </r>
       <r>   -9.3233    1.0000 </r>
       <r>   -6.2310    1.0000 </r>
       <r>   -6.0846    1.0000 </r>
       <r>   -5.5038    1.0000 </r>
       <r>   -0.4481    0.0000 </r>
       <r>    0.6803    0.0000 </r>
       <r>    1.4813    0.0000 </r>
       <r>    1.8723    0.0000 </r>
      </set>
      <set comment="kpoint 18">
       <r>  -21.9711    1.0000 </r>
       <r>  -18.1265    1.0000 </r>
       <r>  -14.3465    1.0000 </r>
       <r>  -10.0665    1.0000 </r>
       <r>   -9.2516    1.0000 </r>
       <r>   -6.4617    1.0000 </r>
       <r>   -6.2644    1.0000 </r>
       <r>   -5.8305    1.0000 </r>
       <r>   -0.0178    0.0000 </r>
       <r>    0.7783    0.0000 </r>
       <r>    1.5803    0.0000 </r>
       <r>    1.9726    0.0000 </r>
      </set>
      <set comment="kpoint 19">
       <r>  -21.8783    1.0000 </r>
       <r>  -18.5016    1.0000 </r>
       <r>  -13.8387    1.0000 </r>
       <r>   -9.9566    1.0000 </r>
       <r>   -9.1599    1.0000 </r>
       <r>   -6.7696    1.0000 </r>
       <r>   -6.4577    1.0000 </r>
       <r>   -6.1832    1.0000 </r>
       <r>    0.4660    0.0000 </r>
       <r>    0.9043    0.0000 </r>
       <r>    1.7076    0.0000 </r>
       <r>    2.1016    0.0000 </r>
      </set>
      <set comment="kpoint 20">
       <r>  -21.7651    1.0000 </r>
       <r>  -18.8626    1.0000 </r>
       <r>  -13.3173    1.0000 </r>
       <r>   -9.8225    1.0000 </r>
       <r>   -9.0489    1.0000 </r>
       <r>   -7.1380    1.0000 </r>
       <r>   -6.6660    1.0000 </r>
       <r>   -6.5457    1.0000 </r>
       <r>    0.9855    0.0000 </r>
       <r>    1.0582    0.0000 </r>
       <r>    1.8630    0.0000 </r>
       <r>    2.2592    0.0000 </r>
      </set>
      <set comment="kpoint 21">
       <r>  -21.6315    1.0000 </r>
       <r>  -19.2074    1.0000 </r>
       <r>  -12.7856    1.0000 </r>
       <r>   -9.6647    1.0000 </r>
       <r>   -8.9190    1.0000 </r>
       <r>   -7.5540    1.0000 </r>
       <r>   -6.9075    1.0000 </r>
       <r>   -6.8869    1.0000 </r>
       <r>    1.2401    0.0000 </r>
       <r>    1.5279    0.0000 </r>
       <r>    2.0466    0.0000 </r>
       <r>    2.4455    0.0000 </r>
      </set>
      <set comment="kpoint 22">
       <r>  -21.4776    1.0000 </r>
       <r>  -19.5351    1.0000 </r>
       <r>  -12.2459    1.0000 </r>
       <r>   -9.4833    1.0000 </r>
       <r>   -8.7712    1.0000 </r>
       <r>   -8.0083    1.0000 </r>
       <r>   -7.2619    1.0000 </r>
       <r>   -7.1157    1.0000 </r>
       <r>    1.4498    0.0000 </r>
       <r>    2.0841    0.0000 </r>
       <r>    2.2582    0.0000 </r>
       <r>    2.6605    0.0000 </r>
      </set>
      <set comment="kpoint 23">
       <r>  -21.3035    1.0000 </r>
       <r>  -19.8448    1.0000 </r>
       <r>  -11.7008    1.0000 </r>
       <r>   -9.2789    1.0000 </r>
       <r>   -8.6063    1.0000 </r>
       <r>   -8.4926    1.0000 </r>
       <r>   -7.6043    1.0000 </r>
       <r>   -7.3476    1.0000 </r>
       <r>    1.6874    0.0000 </r>
       <r>    2.4977    0.0000 </r>
       <r>    2.6457    0.0000 </r>
       <r>    2.9041    0.0000 </r>
      </set>
      <set comment="kpoint 24">
       <r>  -21.1094    1.0000 </r>
       <r>  -20.1361    1.0000 </r>
       <r>  -11.1530    1.0000 </r>
       <r>   -9.0517    1.0000 </r>
       <r>   -9.0001    1.0000 </r>
       <r>   -8.4256    1.0000 </r>
       <r>   -7.9315    1.0000 </r>
       <r>   -7.5785    1.0000 </r>
[...]
       <r>   -9.0854    1.0000 </r>
       <r>   -5.6376    1.0000 </r>
       <r>   -5.6376    1.0000 </r>
       <r>   -0.5146    0.0000 </r>
       <r>   -0.5146    0.0000 </r>
       <r>    4.8232    0.0000 </r>
       <r>    4.8232    0.0000 </r>
      </set>
      <set comment="kpoint 209">
       <r>  -18.8401    1.0000 </r>
       <r>  -17.1125    1.0000 </r>
       <r>  -13.9350    1.0000 </r>
       <r>  -12.3550    1.0000 </r>
       <r>  -12.3515    1.0000 </r>
       <r>  -10.8644    1.0000 </r>
       <r>   -6.4684    1.0000 </r>
       <r>   -4.6329    1.0000 </r>
       <r>   -0.9924    0.0000 </r>
       <r>    1.1060    0.0000 </r>
       <r>    5.1164    0.0000 </r>
       <r>    5.9054    0.0000 </r>
      </set>
      <set comment="kpoint 210">
       <r>  -18.8303    1.0000 </r>
       <r>  -17.1050    1.0000 </r>
       <r>  -14.0251    1.0000 </r>
       <r>  -12.4358    1.0000 </r>
       <r>  -12.2567    1.0000 </r>
       <r>  -10.7820    1.0000 </r>
       <r>   -6.4596    1.0000 </r>
       <r>   -4.6353    1.0000 </r>
       <r>   -1.0030    0.0000 </r>
       <r>    1.0802    0.0000 </r>
       <r>    5.1301    0.0000 </r>
       <r>    5.9215    0.0000 </r>
      </set>
      <set comment="kpoint 211">
       <r>  -18.8011    1.0000 </r>
       <r>  -17.0826    1.0000 </r>
       <r>  -14.2465    1.0000 </r>
       <r>  -12.6467    1.0000 </r>
       <r>  -12.0107    1.0000 </r>
       <r>  -10.5772    1.0000 </r>
       <r>   -6.4332    1.0000 </r>
       <r>   -4.6429    1.0000 </r>
       <r>   -1.0330    0.0000 </r>
       <r>    1.0046    0.0000 </r>
       <r>    5.1711    0.0000 </r>
       <r>    5.9696    0.0000 </r>
      </set>
      <set comment="kpoint 212">
       <r>  -18.7526    1.0000 </r>
       <r>  -17.0468    1.0000 </r>
       <r>  -14.5263    1.0000 </r>
       <r>  -12.9204    1.0000 </r>
       <r>  -11.6902    1.0000 </r>
       <r>  -10.3160    1.0000 </r>
       <r>   -6.3896    1.0000 </r>
       <r>   -4.6573    1.0000 </r>
       <r>   -1.0770    0.0000 </r>
       <r>    0.8847    0.0000 </r>
       <r>    5.2390    0.0000 </r>
       <r>    6.0486    0.0000 </r>
      </set>
      <set comment="kpoint 213">
       <r>  -18.6848    1.0000 </r>
       <r>  -17.0001    1.0000 </r>
       <r>  -14.8218    1.0000 </r>
       <r>  -13.2198    1.0000 </r>
       <r>  -11.3373    1.0000 </r>
       <r>  -10.0390    1.0000 </r>
       <r>   -6.3293    1.0000 </r>
       <r>   -4.6809    1.0000 </r>
       <r>   -1.1272    0.0000 </r>
       <r>    0.7283    0.0000 </r>
       <r>    5.3331    0.0000 </r>
       <r>    6.1570    0.0000 </r>
      </set>
      <set comment="kpoint 214">
       <r>  -18.5980    1.0000 </r>
       <r>  -16.9478    1.0000 </r>
       <r>  -15.1094    1.0000 </r>
       <r>  -13.5266    1.0000 </r>
       <r>  -10.9740    1.0000 </r>
       <r>   -9.7690    1.0000 </r>
       <r>   -6.2530    1.0000 </r>
       <r>   -4.7164    1.0000 </r>
       <r>   -1.1743    0.0000 </r>
       <r>    0.5444    0.0000 </r>
       <r>    5.4493    0.0000 </r>
       <r>    6.1810    0.0000 </r>
      </set>
      <set comment="kpoint 215">
       <r>  -18.4926    1.0000 </r>
       <r>  -16.8995    1.0000 </r>
       <r>  -15.3703    1.0000 </r>
       <r>  -13.8314    1.0000 </r>
       <r>  -10.6138    1.0000 </r>
       <r>   -9.5213    1.0000 </r>
       <r>   -6.1617    1.0000 </r>
       <r>   -4.7668    1.0000 </r>
       <r>   -1.2088    0.0000 </r>
       <r>    0.3420    0.0000 </r>
       <r>    5.5436    0.0000 </r>
       <r>    5.7922    0.0000 </r>
      </set>
      <set comment="kpoint 216">
       <r>  -18.3691    1.0000 </r>
       <r>  -16.8735    1.0000 </r>
       <r>  -15.5814    1.0000 </r>
       <r>  -14.1284    1.0000 </r>
       <r>  -10.2671    1.0000 </r>
       <r>   -9.3081    1.0000 </r>
       <r>   -6.0569    1.0000 </r>
       <r>   -4.8340    1.0000 </r>
       <r>   -1.2225    0.0000 </r>
       <r>    0.1295    0.0000 </r>
       <r>    5.3062    0.0000 </r>
       <r>    5.8265    0.0000 </r>
      </set>
      <set comment="kpoint 217">
       <r>  -18.2282    1.0000 </r>
       <r>  -16.8966    1.0000 </r>
       <r>  -15.7129    1.0000 </r>
       <r>  -14.4138    1.0000 </r>
       <r>   -9.9435    1.0000 </r>
       <r>   -9.1400    1.0000 </r>
       <r>   -5.9401    1.0000 </r>
       <r>   -4.9190    1.0000 </r>
       <r>   -1.2088    0.0000 </r>
       <r>   -0.0853    0.0000 </r>
       <r>    5.0124    0.0000 </r>
       <r>    5.8351    0.0000 </r>
      </set>
      <set comment="kpoint 218">
       <r>  -18.0708    1.0000 </r>
       <r>  -16.9887    1.0000 </r>
       <r>  -15.7432    1.0000 </r>
       <r>  -14.6846    1.0000 </r>
       <r>   -9.6524    1.0000 </r>
       <r>   -9.0258    1.0000 </r>
       <r>   -5.8135    1.0000 </r>
       <r>   -5.0212    1.0000 </r>
       <r>   -1.1641    0.0000 </r>
       <r>   -0.2956    0.0000 </r>
       <r>    4.7944    0.0000 </r>
       <r>    5.4361    0.0000 </r>
      </set>
      <set comment="kpoint 219">
       <r>  -17.8985    1.0000 </r>
       <r>  -17.1404    1.0000 </r>
       <r>  -15.6807    1.0000 </r>
       <r>  -14.9378    1.0000 </r>
       <r>   -9.4028    1.0000 </r>
       <r>   -8.9727    1.0000 </r>
       <r>   -5.6795    1.0000 </r>
       <r>   -5.1381    1.0000 </r>
       <r>   -1.0871    0.0000 </r>
       <r>   -0.4952    0.0000 </r>
       <r>    4.6666    0.0000 </r>
       <r>    5.1075    0.0000 </r>
      </set>
      <set comment="kpoint 220">
       <r>  -17.7136    1.0000 </r>
       <r>  -17.3248    1.0000 </r>
       <r>  -15.5515    1.0000 </r>
       <r>  -15.1701    1.0000 </r>
       <r>   -9.2037    1.0000 </r>
       <r>   -8.9846    1.0000 </r>
       <r>   -5.5413    1.0000 </r>
       <r>   -5.2665    1.0000 </r>
       <r>   -0.9787    0.0000 </r>
       <r>   -0.6788    0.0000 </r>
       <r>    4.6346    0.0000 </r>
       <r>    4.8593    0.0000 </r>
      </set>
      <set comment="kpoint 221">
       <r>  -17.5200    1.0000 </r>
       <r>  -17.5200    1.0000 </r>
       <r>  -15.3771    1.0000 </r>
       <r>  -15.3771    1.0000 </r>
       <r>   -9.0624    1.0000 </r>
       <r>   -9.0624    1.0000 </r>
       <r>   -5.4023    1.0000 </r>
       <r>   -5.4023    1.0000 </r>
       <r>   -0.8414    0.0000 </r>
       <r>   -0.8414    0.0000 </r>
       <r>    4.6997    0.0000 </r>
       <r>    4.6997    0.0000 </r>
      </set>
      <set comment="kpoint 222">
       <r>  -18.4315    1.0000 </r>
       <r>  -17.5639    1.0000 </r>
       <r>  -13.5684    1.0000 </r>
       <r>  -12.7758    1.0000 </r>
       <r>  -12.0162    1.0000 </r>
       <r>  -11.2663    1.0000 </r>
       <r>   -6.0224    1.0000 </r>
       <r>   -5.0996    1.0000 </r>
       <r>   -0.5002    0.0000 </r>
       <r>    0.5510    0.0000 </r>
       <r>    5.6974    0.0000 </r>
       <r>    6.4530    0.0000 </r>
      </set>
      <set comment="kpoint 223">
       <r>  -18.4219    1.0000 </r>
       <r>  -17.5552    1.0000 </r>
       <r>  -13.6589    1.0000 </r>
       <r>  -12.8629    1.0000 </r>
       <r>  -11.9203    1.0000 </r>
       <r>  -11.1786    1.0000 </r>
       <r>   -6.0148    1.0000 </r>
       <r>   -5.0971    1.0000 </r>
       <r>   -0.5171    0.0000 </r>
       <r>    0.5272    0.0000 </r>
       <r>    5.7111    0.0000 </r>
       <r>    6.4700    0.0000 </r>
      </set>
      <set comment="kpoint 224">
       <r>  -18.3933    1.0000 </r>
       <r>  -17.5293    1.0000 </r>
       <r>  -13.8819    1.0000 </r>
       <r>  -13.0793    1.0000 </r>
       <r>  -11.6812    1.0000 </r>
       <r>  -10.9606    1.0000 </r>
       <r>   -5.9924    1.0000 </r>
       <r>   -5.0897    1.0000 </r>
       <r>   -0.5659    0.0000 </r>
       <r>    0.4577    0.0000 </r>
       <r>    5.7518    0.0000 </r>
       <r>    6.5204    0.0000 </r>
      </set>
      <set comment="kpoint 225">
       <r>  -18.3457    1.0000 </r>
       <r>  -17.4867    1.0000 </r>
       <r>  -14.1660    1.0000 </r>
       <r>  -13.3585    1.0000 </r>
       <r>  -11.3715    1.0000 </r>
       <r>  -10.6810    1.0000 </r>
       <r>   -5.9555    1.0000 </r>
       <r>   -5.0786    1.0000 </r>
       <r>   -0.6413    0.0000 </r>
       <r>    0.3477    0.0000 </r>
       <r>    5.8193    0.0000 </r>
       <r>    6.6030    0.0000 </r>
      </set>
      <set comment="kpoint 226">
       <r>  -18.2795    1.0000 </r>
       <r>  -17.4284    1.0000 </r>
       <r>  -14.4707    1.0000 </r>
       <r>  -13.6620    1.0000 </r>
       <r>  -11.0333    1.0000 </r>
       <r>  -10.3810    1.0000 </r>
       <r>   -5.9050    1.0000 </r>
       <r>   -5.0656    1.0000 </r>
       <r>   -0.7354    0.0000 </r>
       <r>    0.2052    0.0000 </r>
       <r>    5.9117    0.0000 </r>
       <r>    6.7156    0.0000 </r>
      </set>
      <set comment="kpoint 227">
       <r>  -18.1950    1.0000 </r>
       <r>  -17.3561    1.0000 </r>
       <r>  -14.7758    1.0000 </r>
       <r>  -13.9715    1.0000 </r>
       <r>  -10.6888    1.0000 </r>
       <r>  -10.0832    1.0000 </r>
       <r>   -5.8420    1.0000 </r>
       <r>   -5.0534    1.0000 </r>
       <r>   -0.8385    0.0000 </r>
       <r>    0.0390    0.0000 </r>
       <r>    6.0174    0.0000 </r>
       <r>    6.4532    0.0000 </r>
      </set>
      <set comment="kpoint 228">
       <r>  -18.0928    1.0000 </r>
       <r>  -17.2729    1.0000 </r>
       <r>  -15.0693    1.0000 </r>
       <r>  -14.2772    1.0000 </r>
       <r>  -10.3517    1.0000 </r>
       <r>   -9.8024    1.0000 </r>
       <r>   -5.7680    1.0000 </r>
       <r>   -5.0450    1.0000 </r>
       <r>   -0.9403    0.0000 </r>
       <r>   -0.1413    0.0000 </r>
       <r>    5.9002    0.0000 </r>
       <r>    6.2421    0.0000 </r>
      </set>
      <set comment="kpoint 229">
       <r>  -17.9738    1.0000 </r>
       <r>  -17.1846    1.0000 </r>
       <r>  -15.3406    1.0000 </r>
       <r>  -14.5732    1.0000 </r>
       <r>  -10.0331    1.0000 </r>
       <r>   -9.5506    1.0000 </r>
       <r>   -5.6851    1.0000 </r>
       <r>   -5.0440    1.0000 </r>
       <r>   -1.0308    0.0000 </r>
       <r>   -0.3267    0.0000 </r>
       <r>    5.5056    0.0000 </r>
       <r>    5.9986    0.0000 </r>
      </set>
      <set comment="kpoint 230">
       <r>  -17.8394    1.0000 </r>
       <r>  -17.1016    1.0000 </r>
       <r>  -15.5763    1.0000 </r>
       <r>  -14.8551    1.0000 </r>
       <r>   -9.7429    1.0000 </r>
       <r>   -9.3383    1.0000 </r>
       <r>   -5.5958    1.0000 </r>
       <r>   -5.0539    1.0000 </r>
       <r>   -1.1007    0.0000 </r>
       <r>   -0.5089    0.0000 </r>
       <r>    5.1589    0.0000 </r>
       <r>    5.5718    0.0000 </r>
      </set>
      <set comment="kpoint 231">
       <r>  -17.6917    1.0000 </r>
       <r>  -17.0431    1.0000 </r>
       <r>  -15.7553    1.0000 </r>
       <r>  -15.1188    1.0000 </r>
       <r>   -9.4907    1.0000 </r>
       <r>   -9.1750    1.0000 </r>
       <r>   -5.5030    1.0000 </r>
       <r>   -5.0775    1.0000 </r>
       <r>   -1.1426    0.0000 </r>
       <r>   -0.6798    0.0000 </r>
       <r>    4.8886    0.0000 </r>
       <r>    5.2112    0.0000 </r>
      </set>
      <set comment="kpoint 232">
       <r>  -17.5344    1.0000 </r>
       <r>  -17.0369    1.0000 </r>
       <r>  -15.8489    1.0000 </r>
       <r>  -15.3592    1.0000 </r>
       <r>   -9.2857    1.0000 </r>
       <r>   -9.0688    1.0000 </r>
       <r>   -5.4103    1.0000 </r>
       <r>   -5.1166    1.0000 </r>
       <r>   -1.1509    0.0000 </r>
       <r>   -0.8326    0.0000 </r>
       <r>    4.7055    0.0000 </r>
       <r>    4.9274    0.0000 </r>
      </set>
      <set comment="kpoint 233">
       <r>  -17.3740    1.0000 </r>
       <r>  -17.1008    1.0000 </r>
       <r>  -15.8384    1.0000 </r>
       <r>  -15.5691    1.0000 </r>
       <r>   -9.1361    1.0000 </r>
       <r>   -9.0255    1.0000 </r>
       <r>   -5.3216    1.0000 </r>
       <r>   -5.1715    1.0000 </r>
       <r>   -1.1231    0.0000 </r>
       <r>   -0.9607    0.0000 </r>
       <r>    4.6164    0.0000 </r>
       <r>    4.7296    0.0000 </r>
      </set>
      <set comment="kpoint 234">
       <r>  -17.2224    1.0000 </r>
       <r>  -17.2224    1.0000 </r>
       <r>  -15.7359    1.0000 </r>
       <r>  -15.7359    1.0000 </r>
       <r>   -9.0481    1.0000 </r>
       <r>   -9.0481    1.0000 </r>
       <r>   -5.2408    1.0000 </r>
       <r>   -5.2408    1.0000 </r>
       <r>   -1.0589    0.0000 </r>
       <r>   -1.0589    0.0000 </r>
       <r>    4.6246    0.0000 </r>
       <r>    4.6246    0.0000 </r>
      </set>
      <set comment="kpoint 235">
       <r>  -18.0051    1.0000 </r>
       <r>  -18.0051    1.0000 </r>
       <r>  -13.1818    1.0000 </r>
       <r>  -13.1818    1.0000 </r>
       <r>  -11.6516    1.0000 </r>
       <r>  -11.6516    1.0000 </r>
       <r>   -5.5646    1.0000 </r>
       <r>   -5.5646    1.0000 </r>
       <r>    0.0149    0.0000 </r>
       <r>    0.0149    0.0000 </r>
       <r>    6.3083    0.0000 </r>
       <r>    6.3083    0.0000 </r>
      </set>
      <set comment="kpoint 236">
       <r>  -17.9958    1.0000 </r>
       <r>  -17.9958    1.0000 </r>
       <r>  -13.2710    1.0000 </r>
       <r>  -13.2710    1.0000 </r>
       <r>  -11.5593    1.0000 </r>
       <r>  -11.5593    1.0000 </r>
       <r>   -5.5590    1.0000 </r>
       <r>   -5.5590    1.0000 </r>
       <r>   -0.0061    0.0000 </r>
       <r>   -0.0061    0.0000 </r>
       <r>    6.3219    0.0000 </r>
       <r>    6.3219    0.0000 </r>
      </set>
      <set comment="kpoint 237">
       <r>  -17.9682    1.0000 </r>
       <r>  -17.9682    1.0000 </r>
       <r>  -13.4918    1.0000 </r>
       <r>  -13.4918    1.0000 </r>
       <r>  -11.3298    1.0000 </r>
       <r>  -11.3298    1.0000 </r>
       <r>   -5.5425    1.0000 </r>
       <r>   -5.5425    1.0000 </r>
       <r>   -0.0672    0.0000 </r>
       <r>   -0.0672    0.0000 </r>
       <r>    6.3623    0.0000 </r>
       <r>    6.3623    0.0000 </r>
      </set>
      <set comment="kpoint 238">
       <r>  -17.9224    1.0000 </r>
       <r>  -17.9224    1.0000 </r>
       <r>  -13.7748    1.0000 </r>
       <r>  -13.7748    1.0000 </r>
       <r>  -11.0339    1.0000 </r>
       <r>  -11.0339    1.0000 </r>
       <r>   -5.5157    1.0000 </r>
       <r>   -5.5157    1.0000 </r>
       <r>   -0.1631    0.0000 </r>
       <r>   -0.1631    0.0000 </r>
       <r>    6.4290    0.0000 </r>
       <r>    6.4290    0.0000 </r>
      </set>
      <set comment="kpoint 239">
       <r>  -17.8588    1.0000 </r>
       <r>  -17.8588    1.0000 </r>
       <r>  -14.0806    1.0000 </r>
       <r>  -14.0806    1.0000 </r>
       <r>  -10.7134    1.0000 </r>
       <r>  -10.7134    1.0000 </r>
       <r>   -5.4799    1.0000 </r>
       <r>   -5.4799    1.0000 </r>
       <r>   -0.2861    0.0000 </r>
       <r>   -0.2861    0.0000 </r>
       <r>    6.5181    0.0000 </r>
       <r>    6.5181    0.0000 </r>
      </set>
      <set comment="kpoint 240">
       <r>  -17.7783    1.0000 </r>
       <r>  -17.7783    1.0000 </r>
       <r>  -14.3904    1.0000 </r>
       <r>  -14.3904    1.0000 </r>
       <r>  -10.3908    1.0000 </r>
       <r>  -10.3908    1.0000 </r>
       <r>   -5.4368    1.0000 </r>
       <r>   -5.4368    1.0000 </r>
       <r>   -0.4267    0.0000 </r>
       <r>   -0.4267    0.0000 </r>
       <r>    6.5712    0.0000 </r>
       <r>    6.5712    0.0000 </r>
      </set>
      <set comment="kpoint 241">
       <r>  -17.6821    1.0000 </r>
       <r>  -17.6821    1.0000 </r>
       <r>  -14.6938    1.0000 </r>
       <r>  -14.6938    1.0000 </r>
       <r>  -10.0802    1.0000 </r>
       <r>  -10.0802    1.0000 </r>
       <r>   -5.3889    1.0000 </r>
       <r>   -5.3889    1.0000 </r>
       <r>   -0.5752    0.0000 </r>
       <r>   -0.5752    0.0000 </r>
       <r>    6.1820    0.0000 </r>
       <r>    6.1820    0.0000 </r>
      </set>
      <set comment="kpoint 242">
       <r>  -17.5721    1.0000 </r>
       <r>  -17.5721    1.0000 </r>
       <r>  -14.9840    1.0000 </r>
       <r>  -14.9840    1.0000 </r>
       <r>   -9.7933    1.0000 </r>
       <r>   -9.7933    1.0000 </r>
       <r>   -5.3389    1.0000 </r>
       <r>   -5.3389    1.0000 </r>
       <r>   -0.7218    0.0000 </r>
       <r>   -0.7218    0.0000 </r>
       <r>    5.7355    0.0000 </r>
       <r>    5.7355    0.0000 </r>
      </set>
      <set comment="kpoint 243">
       <r>  -17.4517    1.0000 </r>
       <r>  -17.4517    1.0000 </r>
       <r>  -15.2546    1.0000 </r>
       <r>  -15.2546    1.0000 </r>
       <r>   -9.5402    1.0000 </r>
       <r>   -9.5402    1.0000 </r>
       <r>   -5.2904    1.0000 </r>
       <r>   -5.2904    1.0000 </r>
       <r>   -0.8571    0.0000 </r>
       <r>   -0.8571    0.0000 </r>
       <r>    5.3457    0.0000 </r>
       <r>    5.3457    0.0000 </r>
      </set>
      <set comment="kpoint 244">
       <r>  -17.3271    1.0000 </r>
       <r>  -17.3271    1.0000 </r>
       <r>  -15.4977    1.0000 </r>
       <r>  -15.4977    1.0000 </r>
       <r>   -9.3308    1.0000 </r>
       <r>   -9.3308    1.0000 </r>
       <r>   -5.2470    1.0000 </r>
       <r>   -5.2470    1.0000 </r>
       <r>   -0.9727    0.0000 </r>
       <r>   -0.9727    0.0000 </r>
       <r>    5.0280    0.0000 </r>
       <r>    5.0280    0.0000 </r>
      </set>
      <set comment="kpoint 245">
       <r>  -17.2094    1.0000 </r>
       <r>  -17.2094    1.0000 </r>
       <r>  -15.7007    1.0000 </r>
       <r>  -15.7007    1.0000 </r>
       <r>   -9.1737    1.0000 </r>
       <r>   -9.1737    1.0000 </r>
       <r>   -5.2125    1.0000 </r>
       <r>   -5.2125    1.0000 </r>
       <r>   -1.0613    0.0000 </r>
       <r>   -1.0613    0.0000 </r>
       <r>    4.7928    0.0000 </r>
       <r>    4.7928    0.0000 </r>
      </set>
      <set comment="kpoint 246">
       <r>  -17.1190    1.0000 </r>
       <r>  -17.1190    1.0000 </r>
       <r>  -15.8426    1.0000 </r>
       <r>  -15.8426    1.0000 </r>
       <r>   -9.0763    1.0000 </r>
       <r>   -9.0763    1.0000 </r>
       <r>   -5.1903    1.0000 </r>
       <r>   -5.1903    1.0000 </r>
       <r>   -1.1170    0.0000 </r>
       <r>   -1.1170    0.0000 </r>
       <r>    4.6482    0.0000 </r>
       <r>    4.6482    0.0000 </r>
      </set>
      <set comment="kpoint 247">
       <r>  -17.0837    1.0000 </r>
       <r>  -17.0837    1.0000 </r>
       <r>  -15.8951    1.0000 </r>
       <r>  -15.8951    1.0000 </r>
       <r>   -9.0432    1.0000 </r>
       <r>   -9.0432    1.0000 </r>
       <r>   -5.1826    1.0000 </r>
       <r>   -5.1826    1.0000 </r>
       <r>   -1.1360    0.0000 </r>
       <r>   -1.1360    0.0000 </r>
       <r>    4.5994    0.0000 </r>
       <r>    4.5994    0.0000 </r>
      </set>
     </set>
    </set>
   </array>
  </eigenvalues>
  <separator name="orbital magnetization" >
   <v name="MAGDIPOLOUT">      0.00000000      0.00000000      0.00000000</v>
  </separator>
 </calculation>
 <structure name="finalpos" >
  <crystal>
   <varray name="basis" >
    <v>       4.26197722       0.00000000       0.00000000 </v>
    <v>       0.00000000       2.50455735       0.00000000 </v>
    <v>       0.00000000       0.00000000      19.75179550 </v>
   </varray>
   <i name="volume">    210.83790140 </i>
   <varray name="rec_basis" >
    <v>       0.23463288       0.00000000       0.00000000 </v>
    <v>       0.00000000       0.39927215       0.00000000 </v>
    <v>       0.00000000       0.00000000       0.05062831 </v>
   </varray>
  </crystal>
  <varray name="positions" >
   <v>       0.00039517      -0.00000000       0.00000000 </v>
   <v>       0.16627150       0.50000000      -0.00000000 </v>
   <v>       0.50039517       0.50000000       0.00000000 </v>
   <v>       0.66627150       0.00000000      -0.00000000 </v>
  </varray>
 </structure>
</modeling>
