gr                                      
           1
     4.261977    0.000000    0.000000
     0.000000    2.504557    0.000000
     0.000000    0.000000   19.751795
   C 
   4
Direct configuration=     1
   0.00039382  0.00000000  0.00000000
   0.16627284  0.50000000  0.00000000
   0.50039382  0.50000000  0.00000000
   0.66627284  0.00000000  0.00000000
Direct configuration=     2
   0.00040066 -0.00000000  0.00000000
   0.16626601  0.50000000  0.00000000
   0.50040066  0.50000000  0.00000000
   0.66626601 -0.00000000  0.00000000
Direct configuration=     3
   0.00039517 -0.00000000  0.00000000
   0.16627150  0.50000000 -0.00000000
   0.50039517  0.50000000  0.00000000
   0.66627150 -0.00000000 -0.00000000
Direct configuration=     4
   0.00039517 -0.00000000  0.00000000
   0.16627150  0.50000000 -0.00000000
   0.50039517  0.50000000  0.00000000
   0.66627150 -0.00000000 -0.00000000
Direct configuration=     5
   0.00039517 -0.00000000  0.00000000
   0.16627150  0.50000000 -0.00000000
   0.50039517  0.50000000  0.00000000
   0.66627150  0.00000000 -0.00000000
