 running on    8 total cores
 distrk:  each k-point on    8 cores,    1 groups
 distr:  one band on    2 cores,    4 groups
 using from now: INCAR     
 vasp.5.3.5 31Mar14 (build Mar 02 2015 18:14:16) complex                        
  
 POSCAR found type information on POSCAR  C 
 POSCAR found :  1 types and       4 ions
 LDA part: xc-table for Pade appr. of Perdew
 POSCAR, INCAR and KPOINTS ok, starting setup
 FFT: planning ...
 WAVECAR not read
 entering main loop
       N       E                     dE             d eps       ncg     rms          rms(c)
DAV:   1     0.189904450318E+03    0.18990E+03   -0.10633E+04  5928   0.275E+03
DAV:   2    -0.965143414090E+01   -0.19956E+03   -0.17820E+03 10508   0.260E+02
DAV:   3    -0.384024332946E+02   -0.28751E+02   -0.28268E+02  7264   0.119E+02    0.736E+00
RMM:   4    -0.376953577152E+02    0.70708E+00   -0.92152E+00  5928   0.263E+01    0.425E+00
RMM:   5    -0.369225704992E+02    0.77279E+00   -0.28451E+00  5928   0.116E+01    0.730E-01
RMM:   6    -0.369284703454E+02   -0.58998E-02   -0.10844E-01  6370   0.204E+00    0.524E-01
RMM:   7    -0.369276285661E+02    0.84178E-03   -0.97080E-02  5947   0.160E+00    0.345E-01
RMM:   8    -0.369224897224E+02    0.51388E-02   -0.84713E-03  5931   0.578E-01    0.138E-01
RMM:   9    -0.369223117835E+02    0.17794E-03   -0.22374E-02  5930   0.889E-01    0.173E-01
RMM:  10    -0.369219702287E+02    0.34155E-03   -0.29906E-03  5928   0.393E-01    0.312E-02
RMM:  11    -0.369246172313E+02   -0.26470E-02   -0.89115E-04  5930   0.198E-01    0.512E-02
RMM:  12    -0.369250728900E+02   -0.45566E-03   -0.25447E-04  5933   0.106E-01    0.771E-03
RMM:  13    -0.369253134946E+02   -0.24060E-03   -0.67446E-05  5980   0.494E-02    0.539E-03
RMM:  14    -0.369253999547E+02   -0.86460E-04   -0.12687E-05  5937   0.218E-02    0.236E-03
RMM:  15    -0.369254085092E+02   -0.85546E-05   -0.15997E-06  6018   0.751E-03    0.724E-04
RMM:  16    -0.369254197379E+02   -0.11229E-04   -0.36332E-07  6027   0.345E-03    0.368E-04
RMM:  17    -0.369254228445E+02   -0.31066E-05   -0.31620E-08  6080   0.150E-03    0.754E-04
RMM:  18    -0.369254251805E+02   -0.23360E-05   -0.13127E-07  5928   0.242E-03    0.151E-04
RMM:  19    -0.369254253845E+02   -0.20404E-06   -0.35372E-09  6061   0.416E-04    0.474E-05
RMM:  20    -0.369254254622E+02   -0.77667E-07   -0.85649E-10  4609   0.171E-04    0.395E-06
RMM:  21    -0.369254254659E+02   -0.36930E-08   -0.24569E-11  3936   0.532E-05    0.221E-06
RMM:  22    -0.369254254668E+02   -0.88630E-09   -0.31103E-11  3754   0.469E-05    0.766E-07
RMM:  23    -0.369254254671E+02   -0.35925E-09   -0.81980E-12  3412   0.348E-05    0.297E-07
RMM:  24    -0.369254254667E+02    0.41086E-09   -0.53124E-12  3065   0.294E-05    0.885E-08
RMM:  25    -0.369254254669E+02   -0.16939E-09   -0.32519E-12  2802   0.263E-05    0.674E-08
RMM:  26    -0.369254254669E+02    0.15689E-10   -0.36229E-12  2602   0.232E-05
   1 F= -.36925425E+02 E0= -.36925361E+02  d E =-.369254E+02
 BRION: g(F)=  0.599E-03 g(S)=  0.000E+00
 bond charge predicted
       N       E                     dE             d eps       ncg     rms          rms(c)
DAV:   1    -0.369245346272E+02    0.89084E-03   -0.80777E-02  6720   0.268E+00    0.578E-02
RMM:   2    -0.369245746907E+02   -0.40063E-04   -0.13037E-03  5930   0.322E-01    0.410E-02
RMM:   3    -0.369245327057E+02    0.41985E-04   -0.23159E-04  5975   0.123E-01    0.102E-02
RMM:   4    -0.369245287245E+02    0.39812E-05   -0.13594E-05  6090   0.291E-02    0.291E-03
RMM:   5    -0.369245288588E+02   -0.13428E-06   -0.10336E-06  6212   0.734E-03    0.141E-03
RMM:   6    -0.369245287837E+02    0.75104E-07   -0.16810E-07  6095   0.316E-03    0.108E-04
WARNING in EDDRMM: call to ZHEGV failed, returncode =   6  3  1
RMM:   7    -0.369245287851E+02   -0.13559E-08   -0.10139E-08  6095   0.726E-04    0.819E-05
RMM:   8    -0.369245287850E+02    0.70372E-10   -0.72962E-10  5379   0.212E-04
   2 F= -.36924529E+02 E0= -.36924482E+02  d E =0.896682E-03
 BRION: g(F)=  0.956E-02 g(S)=  0.000E+00 retain N=  1 mean eig= 0.20
 eig:   0.200
 bond charge predicted
       N       E                     dE             d eps       ncg     rms          rms(c)
DAV:   1    -0.369254924123E+02   -0.96363E-03   -0.51594E-02  6416   0.214E+00    0.464E-02
RMM:   2    -0.369255141572E+02   -0.21745E-04   -0.80249E-04  5929   0.255E-01    0.327E-02
RMM:   3    -0.369254876300E+02    0.26527E-04   -0.14648E-04  5952   0.976E-02    0.796E-03
RMM:   4    -0.369254852136E+02    0.24164E-05   -0.85471E-06  6102   0.234E-02    0.235E-03
RMM:   5    -0.369254852955E+02   -0.81901E-07   -0.65786E-07  6168   0.583E-03    0.114E-03
RMM:   6    -0.369254852473E+02    0.48140E-07   -0.11528E-07  6101   0.262E-03    0.821E-05
RMM:   7    -0.369254852468E+02    0.59049E-09   -0.62511E-09  6095   0.565E-04    0.637E-05
RMM:   8    -0.369254852463E+02    0.42314E-09   -0.44384E-10  4651   0.168E-04    0.108E-05
RMM:   9    -0.369254852462E+02    0.11630E-09   -0.25833E-11  3833   0.647E-05    0.226E-06
RMM:  10    -0.369254852460E+02    0.17440E-09   -0.27840E-11  3790   0.529E-05    0.274E-06
RMM:  11    -0.369254852464E+02   -0.38324E-09   -0.10737E-11  3542   0.393E-05    0.486E-07
RMM:  12    -0.369254852470E+02   -0.53706E-09   -0.74110E-12  3234   0.331E-05    0.376E-07
RMM:  13    -0.369254852473E+02   -0.30468E-09   -0.78298E-12  3067   0.295E-05    0.458E-07
RMM:  14    -0.369254852470E+02    0.22146E-09   -0.60499E-12  2888   0.262E-05    0.157E-07
RMM:  15    -0.369254852469E+02    0.13551E-09   -0.30306E-12  2591   0.236E-05    0.144E-07
RMM:  16    -0.369254852472E+02   -0.28535E-09   -0.21359E-12  2391   0.218E-05    0.891E-08
RMM:  17    -0.369254852473E+02   -0.64574E-10   -0.22835E-12  2239   0.205E-05
   3 F= -.36925485E+02 E0= -.36925420E+02  d E =-.956462E-03
 BRION: g(F)=  0.149E-08 g(S)=  0.000E+00 retain N=  1 mean eig= 0.20
 eig:   0.200
 bond charge predicted
       N       E                     dE             d eps       ncg     rms          rms(c)
DAV:   1    -0.369254852469E+02    0.28422E-09   -0.23172E-09  6844   0.849E-04    0.186E-05
RMM:   2    -0.369254852471E+02   -0.20736E-09   -0.94530E-11  3732   0.104E-04    0.131E-05
RMM:   3    -0.369254852472E+02   -0.87425E-10   -0.37598E-11  3676   0.705E-05    0.343E-06
RMM:   4    -0.369254852472E+02   -0.15689E-10   -0.17009E-11  3209   0.421E-05    0.121E-06
RMM:   5    -0.369254852474E+02   -0.18929E-09   -0.32768E-12  2986   0.347E-05    0.371E-06
RMM:   6    -0.369254852472E+02    0.17224E-09   -0.39813E-12  2691   0.287E-05    0.674E-07
RMM:   7    -0.369254852471E+02    0.98225E-10   -0.26377E-12  2330   0.256E-05
   4 F= -.36925485E+02 E0= -.36925420E+02  d E =0.119485E-09
 BRION: g(F)=  0.775E-13 g(S)=  0.000E+00 retain N=  1 mean eig= 0.20
 eig:   0.199
 reached required accuracy - stopping structural energy minimisation
