    4    4  400    1
  0.5270948E+02  0.4273896E-09  0.2467398E-09  0.1999335E-08  0.5000000E-15
  1.000000000000000E-004
  CAR 
 gr                                      
     16    247     12
 
  0.0000000E+00  0.0000000E+00  0.0000000E+00  0.1157407E-02
    1      -22.251597
    2      -17.020498
    3      -15.971535
    4      -10.357353
    5       -9.157643
    6       -5.787033
    7       -5.786661
    8       -5.111058
    9       -1.076225
   10        0.524113
   11        1.325155
   12        1.708223
 
  0.4166667E-01  0.0000000E+00  0.0000000E+00  0.2314815E-02
    1      -22.241350
    2      -17.185288
    3      -15.791484
    4      -10.345113
    5       -9.147460
    6       -5.829786
    7       -5.809226
    8       -5.177527
    9       -0.993779
   10        0.538011
   11        1.339237
   12        1.722474
 
  0.8333333E-01  0.0000000E+00  0.0000000E+00  0.2314815E-02
    1      -22.210617
    2      -17.522032
    3      -15.409041
    4      -10.308410
    5       -9.116961
    6       -5.956281
    7       -5.875675
    8       -5.361971
    9       -0.761573
   10        0.579706
   11        1.381476
   12        1.765228
 
  0.1250000E+00  0.0000000E+00  0.0000000E+00  0.2314815E-02
    1      -22.159414
    2      -17.898242
    3      -14.956954
    4      -10.247303
    5       -9.066300
    6       -6.161530
    7       -5.982470
    8       -5.631103
    9       -0.413411
   10        0.649205
   11        1.451861
   12        1.836486
 
  0.1666667E+00  0.0000000E+00  0.0000000E+00  0.2314815E-02
    1      -22.087778
    2      -18.277169
    3      -14.472413
    4      -10.161889
    5       -8.995739
    6       -6.438090
    7       -6.124348
    8       -5.951920
    9        0.016835
   10        0.746512
   11        1.550371
   12        1.936249
 
  0.2083333E+00  0.0000000E+00  0.0000000E+00  0.2314815E-02
    1      -21.995757
    2      -18.647449
    3      -13.967421
    4      -10.052309
    5       -8.905657
    6       -6.777070
    7       -6.299855
    8       -6.295030
    9        0.503347
   10        0.871628
   11        1.676970
   12        2.064518
 
  0.2500000E+00  0.0000000E+00  0.0000000E+00  0.2314815E-02
    1      -21.883412
    2      -19.004506
    3      -13.447398
    4       -9.918752
    5       -8.796559
    6       -7.169065
    7       -6.658534
    8       -6.487898
    9        1.024540
   10        1.028079
   11        1.831608
   12        2.221292
 
  0.2916667E+00  0.0000000E+00  0.0000000E+00  0.2314815E-02
    1      -21.750826
    2      -19.346075
    3      -12.915684
    4       -9.761463
    5       -8.669099
    6       -7.604873
    7       -7.017327
    8       -6.696515
    9        1.205224
   10        1.578231
   11        2.014208
   12        2.406570
 
  0.3333333E+00  0.0000000E+00  0.0000000E+00  0.2314815E-02
    1      -21.598096
    2      -19.670852
    3      -12.374922
    4       -9.580752
    5       -8.524094
    6       -8.075945
    7       -7.369261
    8       -6.914959
    9        1.413643
   10        2.143906
   11        2.224643
   12        2.620345
 
  0.3750000E+00  0.0000000E+00  0.0000000E+00  0.2314815E-02
    1      -21.425334
    2      -19.977995
    3      -11.827595
    4       -9.377010
    5       -8.574615
    6       -8.362556
    7       -7.709638
    8       -7.137983
    9        1.649746
   10        2.462697
   11        2.715773
   12        2.862610
 
  0.4166667E+00  0.0000000E+00  0.0000000E+00  0.2314815E-02
    1      -21.232680
    2      -20.266910
    3      -11.276281
    4       -9.150724
    5       -9.094161
    6       -8.185727
    7       -8.035197
    8       -7.361055
    9        1.913460
   10        2.727921
   11        3.133350
   12        3.241637
 
  0.4583333E+00  0.0000000E+00  0.0000000E+00  0.2314815E-02
    1      -21.020294
    2      -20.537152
    3      -10.723816
    4       -9.628761
    5       -8.902508
    6       -8.343602
    7       -7.995122
    8       -7.580329
    9        2.204687
   10        2.869061
   11        3.019150
   12        3.432558
 
  0.5000000E+00  0.0000000E+00  0.0000000E+00  0.1157407E-02
    1      -20.788374
    2      -20.788374
    3      -10.173411
    4      -10.173411
    5       -8.633137
    6       -8.633137
    7       -7.792580
    8       -7.792580
    9        2.523291
   10        2.523291
   11        3.331698
   12        3.331698
 
  0.0000000E+00  0.2777778E-01  0.0000000E+00  0.2314815E-02
    1      -22.237933
    2      -17.008775
    3      -15.959950
    4      -10.341031
    5       -9.219224
    6       -5.843471
    7       -5.817200
    8       -5.094432
    9       -1.080168
   10        0.542646
   11        1.343932
   12        1.727227
 
  0.4166667E-01  0.2777778E-01  0.0000000E+00  0.4629630E-02
    1      -22.227688
    2      -17.173395
    3      -15.780120
    4      -10.328795
    5       -9.209024
    6       -5.885984
    7       -5.839331
    8       -5.161046
    9       -0.997695
   10        0.556544
   11        1.358012
   12        1.741478
 
  0.8333333E-01  0.2777778E-01  0.0000000E+00  0.4629630E-02
    1      -22.196958
    2      -17.509879
    3      -15.398092
    4      -10.292105
    5       -9.178474
    6       -6.009628
    7       -5.906727
    8       -5.345824
    9       -0.765511
   10        0.598241
   11        1.400249
   12        1.784232
 
  0.1250000E+00  0.2777778E-01  0.0000000E+00  0.4629630E-02
    1      -22.145764
    2      -17.885860
    3      -14.946499
    4      -10.231019
    5       -9.127723
    6       -6.209703
    7       -6.015881
    8       -5.615299
    9       -0.417602
   10        0.667744
   11        1.470630
   12        1.855490
 
  0.1666667E+00  0.2777778E-01  0.0000000E+00  0.4629630E-02
    1      -22.074138
    2      -18.264594
    3      -14.462536
    4      -10.145635
    5       -9.057027
    6       -6.479827
    7       -6.160863
    8       -5.936369
    9        0.012061
   10        0.765057
   11        1.569134
   12        1.955255
 
  0.2083333E+00  0.2777778E-01  0.0000000E+00  0.4629630E-02
    1      -21.982131
    2      -18.634709
    3      -13.958227
    4      -10.036092
    5       -8.966756
    6       -6.811931
    7       -6.334934
    8       -6.284451
    9        0.497641
   10        0.890181
   11        1.695726
   12        2.083526
 
  0.2500000E+00  0.2777778E-01  0.0000000E+00  0.4629630E-02
    1      -21.869804
    2      -18.991625
    3      -13.439013
    4       -9.902581
    5       -8.857405
    6       -7.197195
    7       -6.643188
    8       -6.531163
    9        1.021121
   10        1.043102
   11        1.850357
   12        2.240302
 
  0.2916667E+00  0.2777778E-01  0.0000000E+00  0.4629630E-02
    1      -21.737241
    2      -19.333072
    3      -12.908263
    4       -9.745347
    5       -8.729608
    6       -7.626778
    7       -7.001977
    8       -6.742915
    9        1.223799
   10        1.569741
   11        2.032948
   12        2.425583
 
  0.3333333E+00  0.2777778E-01  0.0000000E+00  0.4629630E-02
    1      -21.584536
    2      -19.657745
    3      -12.368653
    4       -9.564699
    5       -8.584165
    6       -8.092313
    7       -7.353866
    8       -6.964159
    9        1.432232
   10        2.133687
   11        2.243378
   12        2.639362
 
  0.3750000E+00  0.2777778E-01  0.0000000E+00  0.4629630E-02
    1      -21.411806
    2      -19.964799
    3      -11.822706
    4       -9.361027
    5       -8.586184
    6       -8.422066
    7       -7.694173
    8       -7.189606
    9        1.668350
   10        2.481430
   11        2.703847
   12        2.881632
 
  0.4166667E+00  0.2777778E-01  0.0000000E+00  0.4629630E-02
    1      -21.219187
    2      -20.253636
    3      -11.273051
    4       -9.134819
    5       -9.101642
    6       -8.244522
    7       -8.019647
    8       -7.414727
    9        1.932081
   10        2.746665
   11        3.152390
   12        3.260461
 
  0.4583333E+00  0.2777778E-01  0.0000000E+00  0.4629630E-02
    1      -21.006844
    2      -20.523810
    3      -10.722580
    4       -9.632800
    5       -8.886687
    6       -8.327962
    7       -8.053016
    8       -7.635704
    9        2.223330
   10        2.887785
   11        3.037925
   12        3.451583
 
  0.5000000E+00  0.2777778E-01  0.0000000E+00  0.2314815E-02
    1      -20.774974
    2      -20.774974
    3      -10.174572
    4      -10.174572
    5       -8.617404
    6       -8.617404
    7       -7.849348
    8       -7.849348
    9        2.541965
   10        2.541965
   11        3.350448
   12        3.350448
 
  0.0000000E+00  0.5555556E-01  0.0000000E+00  0.2314815E-02
    1      -22.196954
    2      -16.973607
    3      -15.925347
    4      -10.292099
    5       -9.399040
    6       -6.009378
    7       -5.906972
    8       -5.044573
    9       -1.092829
   10        0.598248
   11        1.400256
   12        1.784238
 
  0.4166667E-01  0.5555556E-01  0.0000000E+00  0.4629630E-02
    1      -22.186712
    2      -17.137729
    3      -15.746173
    4      -10.279876
    5       -9.388784
    6       -6.052262
    7       -5.926756
    8       -5.111638
    9       -1.010267
   10        0.612147
   11        1.414333
   12        1.798490
 
  0.8333333E-01  0.5555556E-01  0.0000000E+00  0.4629630E-02
    1      -22.155996
    2      -17.473441
    3      -15.365398
    4      -10.243224
    5       -9.358063
    6       -6.173088
    7       -5.991385
    8       -5.297443
    9       -0.778144
   10        0.653848
   11        1.456562
   12        1.841245
 
  0.1250000E+00  0.5555556E-01  0.0000000E+00  0.4629630E-02
    1      -22.104823
    2      -17.848740
    3      -14.915305
    4      -10.182202
    5       -9.307015
    6       -6.362566
    7       -6.102832
    8       -5.567969
    9       -0.431001
   10        0.723359
   11        1.526929
   12        1.912505
 
  0.1666667E+00  0.5555556E-01  0.0000000E+00  0.4629630E-02
    1      -22.033230
    2      -18.226892
    3      -14.433112
    4      -10.096907
    5       -9.235874
    6       -6.615361
    7       -6.255265
    8       -5.889811
    9       -0.003120
   10        0.820686
   11        1.625414
   12        2.012272
 
  0.2083333E+00  0.5555556E-01  0.0000000E+00  0.4629630E-02
    1      -21.941265
    2      -18.596510
    3      -13.930897
    4       -9.987479
    5       -9.144982
    6       -6.926568
    7       -6.439854
    8       -6.238336
    9        0.479617
   10        0.945829
   11        1.751984
   12        2.140548
 
  0.2500000E+00  0.5555556E-01  0.0000000E+00  0.4629630E-02
    1      -21.828993
    2      -18.953000
    3      -13.414179
    4       -9.854109
    5       -9.034792
    6       -7.290256
    7       -6.647587
    8       -6.597248
    9        0.999265
   10        1.098775
   11        1.906589
   12        2.297330
 
  0.2916667E+00  0.5555556E-01  0.0000000E+00  0.4629630E-02
    1      -21.696495
    2      -19.294082
    3      -12.886412
    4       -9.697040
    5       -8.905888
    6       -7.699479
    7       -6.956020
    8       -6.870432
    9        1.279502
   10        1.543200
   11        2.089155
   12        2.482619
 
  0.3333333E+00  0.5555556E-01  0.0000000E+00  0.4629630E-02
    1      -21.543869
    2      -19.618440
    3      -12.350383
    4       -9.516583
    5       -8.759003
    6       -8.146821
    7       -7.307767
    8       -7.101634
    9        1.487969
   10        2.101829
   11        2.299564
   12        2.696408
 
  0.3750000E+00  0.5555556E-01  0.0000000E+00  0.4629630E-02
    1      -21.371233
    2      -19.925223
    3      -11.808749
    4       -9.313127
    5       -8.624978
    6       -8.595045
    7       -7.647857
    8       -7.335637
    9        1.724125
   10        2.537613
   11        2.666614
   12        2.938691
 
  0.4166667E+00  0.5555556E-01  0.0000000E+00  0.4629630E-02
    1      -21.178724
    2      -20.213826
    3      -11.264301
    4       -9.127141
    5       -9.087157
    6       -8.415124
    7       -7.973071
    8       -7.567907
    9        1.987899
   10        2.802881
   11        3.209511
   12        3.226279
 
  0.4583333E+00  0.5555556E-01  0.0000000E+00  0.4629630E-02
    1      -20.966509
    2      -20.483799
    3      -10.720128
    4       -9.647189
    5       -8.839282
    6       -8.281108
    7       -8.220601
    8       -7.794746
    9        2.279201
   10        2.943842
   11        3.094238
   12        3.508747
 
  0.5000000E+00  0.5555556E-01  0.0000000E+00  0.2314815E-02
    1      -20.734789
    2      -20.734789
    3      -10.179743
    4      -10.179743
    5       -8.570271
    6       -8.570271
    7       -8.013134
    8       -8.013134
    9        2.597907
   10        2.597907
   11        3.406677
   12        3.406677
 
  0.0000000E+00  0.8333333E-01  0.0000000E+00  0.2314815E-02
    1      -22.128692
    2      -16.915008
    3      -15.868211
    4      -10.210659
    5       -9.683667
    6       -6.272179
    7       -6.054197
    8       -4.961543
    9       -1.116703
   10        0.690932
   11        1.494104
   12        1.879261
 
  0.4166667E-01  0.8333333E-01  0.0000000E+00  0.4629630E-02
    1      -22.118458
    2      -17.078336
    3      -15.690110
    4      -10.198457
    5       -9.673301
    6       -6.316167
    7       -6.069733
    8       -5.029404
    9       -1.033968
   10        0.704831
   11        1.508176
   12        1.893513
 
  0.8333333E-01  0.8333333E-01  0.0000000E+00  0.4629630E-02
    1      -22.087764
    2      -17.412786
    3      -15.311440
    4      -10.161871
    5       -9.642240
    6       -6.437717
    7       -6.124716
    8       -5.217017
    9       -0.801910
   10        0.746532
   11        1.550390
   12        1.936268
 
  0.1250000E+00  0.8333333E-01  0.0000000E+00  0.4629630E-02
    1      -22.036630
    2      -17.786952
    3      -14.863926
    4      -10.100958
    5       -9.590602
    6       -6.621332
    7       -6.228671
    8       -5.489374
    9       -0.456067
   10        0.816047
   11        1.620732
   12        2.007529
 
  0.1666667E+00  0.8333333E-01  0.0000000E+00  0.4629630E-02
    1      -21.965091
    2      -18.164130
    3      -14.384806
    4      -10.015816
    5       -9.518579
    6       -6.857683
    7       -6.381510
    8       -5.812543
    9       -0.031251
   10        0.913384
   11        1.719183
   12        2.107299
 
  0.2083333E+00  0.8333333E-01  0.0000000E+00  0.4629630E-02
    1      -21.873197
    2      -18.532915
    3      -13.886265
    4       -9.906586
    5       -9.426453
    6       -7.142049
    7       -6.575928
    8       -6.161819
    9        0.446582
   10        1.038545
   11        1.845710
   12        2.235580
 
  0.2500000E+00  0.8333333E-01  0.0000000E+00  0.4629630E-02
    1      -21.761015
    2      -18.888690
    3      -13.373957
    4       -9.773457
    5       -9.314595
    6       -7.471932
    7       -6.800813
    8       -6.521015
    9        0.959624
   10        1.191518
   11        2.000266
   12        2.392370
 
  0.2916667E+00  0.8333333E-01  0.0000000E+00  0.4629630E-02
    1      -21.628627
    2      -19.229158
    3      -12.851510
    4       -9.616673
    5       -9.183482
    6       -7.845058
    7       -7.044321
    8       -6.879743
    9        1.372278
   10        1.495468
   11        2.182782
   12        2.577669
 
  0.3333333E+00  0.8333333E-01  0.0000000E+00  0.4629630E-02
    1      -21.476133
    2      -19.552988
    3      -12.321929
    4       -9.436545
    5       -9.033703
    6       -8.257923
    7       -7.296215
    8       -7.231233
    9        1.580785
   10        2.044845
   11        2.393150
   12        2.791471
 
  0.3750000E+00  0.8333333E-01  0.0000000E+00  0.4629630E-02
    1      -21.303652
    2      -19.859315
    3      -11.788140
    4       -9.233459
    5       -8.865982
    6       -8.705451
    7       -7.570937
    8       -7.548822
    9        1.816983
   10        2.599945
   11        2.631184
   12        3.033770
 
  0.4166667E+00  0.8333333E-01  0.0000000E+00  0.4629630E-02
    1      -21.111327
    2      -20.147526
    3      -11.253277
    4       -9.181576
    5       -9.007898
    6       -8.681199
    7       -7.895697
    8       -7.796789
    9        2.080804
   10        2.896505
   11        3.151821
   12        3.304557
 
  0.4583333E+00  0.8333333E-01  0.0000000E+00  0.4629630E-02
    1      -20.899327
    2      -20.417160
    3      -10.720852
    4       -9.680028
    5       -8.760466
    6       -8.480421
    7       -8.203249
    8       -8.036393
    9        2.372159
   10        3.036975
   11        3.188047
   12        3.604061
 
  0.5000000E+00  0.8333333E-01  0.0000000E+00  0.2314815E-02
    1      -20.667858
    2      -20.667858
    3      -10.194889
    4      -10.194889
    5       -8.491926
    6       -8.491926
    7       -8.264950
    8       -8.264950
    9        2.690934
   10        2.690934
   11        3.500286
   12        3.500286
 
  0.0000000E+00  0.1111111E+00  0.0000000E+00  0.2314815E-02
    1      -22.033211
    2      -16.832997
    3      -15.789458
    4      -10.096883
    5      -10.054387
    6       -6.615185
    7       -6.255423
    8       -4.845444
    9       -1.155914
   10        0.820712
   11        1.625440
   12        2.012298
 
  0.4166667E-01  0.1111111E+00  0.0000000E+00  0.4629630E-02
    1      -22.022988
    2      -16.995293
    3      -15.612814
    4      -10.084713
    5      -10.043825
    6       -6.660741
    7       -6.265294
    8       -4.914528
    9       -1.072869
   10        0.834608
   11        1.639504
   12        2.026549
 
  0.8333333E-01  0.1111111E+00  0.0000000E+00  0.4629630E-02
    1      -21.992325
    2      -17.328036
    3      -15.237145
    4      -10.048223
    5      -10.012167
    6       -6.785221
    7       -6.305642
    8       -5.104889
    9       -0.840806
   10        0.876301
   11        1.681693
   12        2.069303
 
  0.1250000E+00  0.1111111E+00  0.0000000E+00  0.4629630E-02
    1      -21.941244
    2      -17.700623
    3      -14.793430
    4       -9.987470
    5       -9.959483
    6       -6.968516
    7       -6.392207
    8       -5.379984
    9       -0.496802
   10        0.945805
   11        1.751995
   12        2.140564
 
  0.1666667E+00  0.1111111E+00  0.0000000E+00  0.4629630E-02
    1      -21.869781
    2      -18.076430
    3      -14.318928
    4       -9.902551
    5       -9.885894
    6       -7.196774
    7       -6.531596
    8       -5.705102
    9       -0.076455
   10        1.043135
   11        1.850389
   12        2.240334
 
  0.2083333E+00  0.1111111E+00  0.0000000E+00  0.4629630E-02
    1      -21.777988
    2      -18.444036
    3      -13.825989
    4       -9.793609
    5       -9.791567
    6       -7.462148
    7       -6.721831
    8       -6.055452
    9        0.394203
   10        1.168297
   11        1.976844
   12        2.368617
 
  0.2500000E+00  0.1111111E+00  0.0000000E+00  0.4629630E-02
    1      -21.665933
    2      -18.798798
    3      -13.320505
    4       -9.676714
    5       -9.660833
    6       -7.760947
    7       -6.954824
    8       -6.415028
    9        0.897582
   10        1.321281
   11        2.131316
   12        2.525413
 
  0.2916667E+00  0.1111111E+00  0.0000000E+00  0.4629630E-02
    1      -21.533700
    2      -19.138395
    3      -12.806415
    4       -9.541592
    5       -9.504468
    6       -8.092470
    7       -7.218413
    8       -6.773655
    9        1.421586
   10        1.502061
   11        2.313742
   12        2.710721
 
  0.3333333E+00  0.1111111E+00  0.0000000E+00  0.4629630E-02
    1      -21.381391
    2      -19.461476
    3      -12.287130
    4       -9.386492
    5       -9.324822
    6       -8.457618
    7       -7.498640
    8       -7.124736
    9        1.710594
   10        1.957346
   11        2.524026
   12        2.924535
 
  0.3750000E+00  0.1111111E+00  0.0000000E+00  0.4629630E-02
    1      -21.209129
    2      -19.767157
    3      -11.766108
    4       -9.211742
    5       -9.122280
    6       -8.856950
    7       -7.782438
    8       -7.463848
    9        1.946821
   10        2.497748
   11        2.762014
   12        3.166850
 
  0.4166667E+00  0.1111111E+00  0.0000000E+00  0.4629630E-02
    1      -21.017063
    2      -20.054813
    3      -11.247158
    4       -9.288970
    5       -9.017698
    6       -8.897322
    7       -8.059839
    8       -7.787921
    9        2.210669
   10        3.027395
   11        3.036133
   12        3.437657
 
  0.4583333E+00  0.1111111E+00  0.0000000E+00  0.4629630E-02
    1      -20.805368
    2      -20.323968
    3      -10.734647
    4       -9.749712
    5       -8.804766
    6       -8.650545
    7       -8.324615
    8       -8.094749
    9        2.502050
   10        3.166932
   11        3.319252
   12        3.559608
 
  0.5000000E+00  0.1111111E+00  0.0000000E+00  0.2314815E-02
    1      -20.574253
    2      -20.574253
    3      -10.233606
    4      -10.233606
    5       -8.573462
    6       -8.573462
    7       -8.382703
    8       -8.382703
    9        2.820851
   10        2.820851
   11        3.630871
   12        3.630871
 
  0.0000000E+00  0.1388889E+00  0.0000000E+00  0.2314815E-02
    1      -21.910599
    2      -16.727603
    3      -15.690643
    4      -10.490511
    5       -9.951021
    6       -7.020598
    7       -6.506106
    8       -4.696423
    9       -1.216099
   10        0.987597
   11        1.794206
   12        2.183353
 
  0.4166667E-01  0.1388889E+00  0.0000000E+00  0.4629630E-02
    1      -21.900389
    2      -16.888725
    3      -15.515797
    4      -10.479618
    5       -9.938894
    6       -7.068077
    7       -6.509252
    8       -4.767296
    9       -1.132502
   10        1.001485
   11        1.808258
   12        2.197603
 
  0.8333333E-01  0.1388889E+00  0.0000000E+00  0.4629630E-02
    1      -21.869766
    2      -17.219381
    3      -15.144123
    4      -10.446935
    5       -9.902534
    6       -7.196803
    7       -6.531550
    8       -4.961615
    9       -0.900191
   10        1.043155
   11        1.850408
   12        2.240354
 
  0.1250000E+00  0.1388889E+00  0.0000000E+00  0.4629630E-02
    1      -21.818754
    2      -17.589954
    3      -14.705715
    4      -10.392454
    5       -9.841997
    6       -7.383109
    7       -6.593956
    8       -5.240561
    9       -0.558516
   10        1.112627
   11        1.920644
   12        2.311610
 
  0.1666667E+00  0.1388889E+00  0.0000000E+00  0.4629630E-02
    1      -21.747391
    2      -17.963980
    3      -14.237851
    4      -10.316150
    5       -9.757384
    6       -7.609756
    7       -6.708809
    8       -5.568343
    9       -0.144153
   10        1.209922
   11        2.018946
   12        2.411376
 
  0.2083333E+00  0.1388889E+00  0.0000000E+00  0.4629630E-02
    1      -21.655728
    2      -18.330042
    3      -13.753154
    4      -10.217964
    5       -9.648835
    6       -7.866205
    7       -6.879349
    8       -5.920104
    9        0.316835
   10        1.335052
   11        2.145282
   12        2.539656
 
  0.2500000E+00  0.1388889E+00  0.0000000E+00  0.4629630E-02
    1      -21.543836
    2      -18.683476
    3      -13.257937
    4      -10.097782
    5       -9.516541
    6       -8.146359
    7       -7.102138
    8       -6.280123
    9        0.807213
   10        1.488014
   11        2.299610
   12        2.696453
 
  0.2916667E+00  0.1388889E+00  0.0000000E+00  0.4629630E-02
    1      -21.411803
    2      -19.021932
    3      -12.756731
    4       -9.955393
    5       -9.360748
    6       -8.447453
    7       -7.368738
    8       -6.638539
    9        1.315327
   10        1.668783
   11        2.481870
   12        2.881765
 
  0.3333333E+00  0.1388889E+00  0.0000000E+00  0.4629630E-02
    1      -21.259733
    2      -19.344031
    3      -12.253743
    4       -9.790440
    5       -9.181762
    6       -8.769611
    7       -7.666981
    8       -6.988997
    9        1.832793
   10        1.877313
   11        2.691983
   12        3.095588
 
  0.3750000E+00  0.1388889E+00  0.0000000E+00  0.4629630E-02
    1      -21.087757
    2      -19.648868
    3      -11.753486
    4       -9.602371
    5       -9.115356
    6       -8.979967
    7       -7.982281
    8       -7.327250
    9        2.113539
   10        2.353123
   11        2.929830
   12        3.337916
 
  0.4166667E+00  0.1388889E+00  0.0000000E+00  0.4629630E-02
    1      -20.896027
    2      -19.935797
    3      -11.261109
    4       -9.488376
    5       -9.390418
    6       -8.755840
    7       -8.299530
    8       -7.650344
    9        2.377381
   10        2.870895
   11        3.195210
   12        3.608738
 
  0.4583333E+00  0.1388889E+00  0.0000000E+00  0.4629630E-02
    1      -20.684728
    2      -20.204329
    3      -10.782497
    4       -9.891361
    5       -9.153719
    6       -8.605649
    7       -8.509969
    8       -7.956152
    9        2.668743
   10        3.333540
   11        3.380894
   12        3.487552
 
  0.5000000E+00  0.1388889E+00  0.0000000E+00  0.2314815E-02
    1      -20.454076
    2      -20.454076
    3      -10.323976
    4      -10.323976
    5       -8.891791
    6       -8.891791
    7       -8.243095
    8       -8.243095
    9        2.987510
   10        2.987510
   11        3.791429
   12        3.791443
 
  0.0000000E+00  0.1666667E+00  0.0000000E+00  0.2314815E-02
    1      -21.760972
    2      -16.598865
    3      -15.574379
    4      -10.971498
    5       -9.773404
    6       -7.471854
    7       -6.800862
    8       -4.514674
    9       -1.304113
   10        1.191578
   11        2.000324
   12        2.392428
 
  0.4166667E-01  0.1666667E+00  0.0000000E+00  0.4629630E-02
    1      -21.750779
    2      -16.758818
    3      -15.401630
    4      -10.960032
    5       -9.761334
    6       -7.521542
    7       -6.796559
    8       -4.588142
    9       -1.219511
   10        1.205453
   11        2.014354
   12        2.406676
 
  0.8333333E-01  0.1666667E+00  0.0000000E+00  0.4629630E-02
    1      -21.720208
    2      -17.087112
    3      -15.035167
    4      -10.925578
    5       -9.725144
    6       -7.655393
    7       -6.798558
    8       -4.788073
    9       -0.986353
   10        1.247086
   11        2.056442
   12        2.449421
 
  0.1250000E+00  0.1666667E+00  0.0000000E+00  0.4629630E-02
    1      -21.669281
    2      -17.455242
    3      -14.604164
    4      -10.867960
    5       -9.664893
    6       -7.846638
    7       -6.832463
    8       -5.072294
    9       -0.647321
   10        1.316499
   11        2.126572
   12        2.520667
 
  0.1666667E+00  0.1666667E+00  0.0000000E+00  0.4629630E-02
    1      -21.598039
    2      -17.827058
    3      -14.145941
    4      -10.786846
    5       -9.580681
    6       -8.075434
    7       -6.915509
    8       -5.403577
    9       -0.240484
   10        1.413721
   11        2.224721
   12        2.620422
 
  0.2083333E+00  0.1666667E+00  0.0000000E+00  0.4629630E-02
    1      -21.506536
    2      -18.191186
    3      -13.673623
    4      -10.681698
    5       -9.472649
    6       -8.329448
    7       -7.055370
    8       -5.757083
    9        0.208194
   10        1.538775
   11        2.350852
   12        2.748691
 
  0.2500000E+00  0.1666667E+00  0.0000000E+00  0.4629630E-02
    1      -21.394845
    2      -18.542950
    3      -13.194356
    4      -10.551676
    5       -9.340992
    6       -8.601026
    7       -7.252688
    8       -6.117544
    9        0.682069
   10        1.691668
   11        2.504917
   12        2.905480
 
  0.2916667E+00  0.1666667E+00  0.0000000E+00  0.4629630E-02
    1      -21.263057
    2      -18.879971
    3      -12.713865
    4      -10.395530
    5       -9.185954
    6       -8.885602
    7       -7.502874
    8       -6.475543
    9        1.170147
   10        1.872379
   11        2.686850
   12        3.090789
 
  0.3333333E+00  0.1666667E+00  0.0000000E+00  0.4629630E-02
    1      -21.111284
    2      -19.200838
    3      -12.237969
    4      -10.211480
    5       -9.181086
    6       -9.007843
    7       -7.797351
    8       -6.825065
    9        1.664690
   10        2.080862
   11        2.896566
   12        3.304614
 
  0.3750000E+00  0.1666667E+00  0.0000000E+00  0.4629630E-02
    1      -20.939661
    2      -19.504616
    3      -11.773161
    4       -9.997224
    5       -9.487763
    6       -8.807042
    7       -8.124500
    8       -7.162091
    9        2.159864
   10        2.317044
   11        3.133950
   12        3.546949
 
  0.4166667E+00  0.1666667E+00  0.0000000E+00  0.4629630E-02
    1      -20.748350
    2      -19.790636
    3      -11.326518
    4       -9.808356
    5       -9.750338
    6       -8.584022
    7       -8.470388
    8       -7.483821
    9        2.580836
   10        2.650999
   11        3.398846
   12        3.817783
 
  0.4583333E+00  0.1666667E+00  0.0000000E+00  0.4629630E-02
    1      -20.537542
    2      -20.058387
    3      -10.904679
    4      -10.147767
    5       -9.469527
    6       -8.819598
    7       -8.339366
    8       -7.788228
    9        2.872129
   10        3.134146
   11        3.536680
   12        3.690935
 
  0.5000000E+00  0.1666667E+00  0.0000000E+00  0.2314815E-02
    1      -20.307465
    2      -20.307465
    3      -10.511810
    4      -10.511810
    5       -9.156824
    6       -9.156824
    7       -8.073797
    8       -8.073797
    9        3.190794
   10        3.190794
   11        3.605686
   12        3.605686
 