gr                                      
           1
     4.273896    0.000000    0.000000
     0.000000    2.467398    0.000000
     0.000000    0.000000   19.993352
   C 
   4
Direct configuration=     1
   0.99987391  0.00000000  0.00000000
   0.16679275  0.50000000  0.00000000
   0.49987391  0.50000000  0.00000000
   0.66679275  0.00000000  0.00000000
Direct configuration=     2
   1.00050261 -0.00000000  0.00000000
   0.16616406  0.50000000 -0.00000000
   0.50050261  0.50000000  0.00000000
   0.66616406  0.00000000 -0.00000000
Direct configuration=     3
   0.99999975 -0.00000000  0.00000000
   0.16666691  0.50000000 -0.00000000
   0.49999975  0.50000000  0.00000000
   0.66666691 -0.00000000 -0.00000000
Direct configuration=     4
   0.99999956 -0.00000000  0.00000000
   0.16666711  0.50000000 -0.00000000
   0.49999956  0.50000000  0.00000000
   0.66666711 -0.00000000 -0.00000000
