    4    4  400    1
  0.5270948E+02  0.4317488E-09  0.2462692E-09  0.1982930E-08  0.5000000E-15
  1.000000000000000E-004
  CAR 
 gr                                      
     16    247     12
 
  0.0000000E+00  0.0000000E+00  0.0000000E+00  0.1157407E-02
    1      -22.182257
    2      -17.122660
    3      -15.917332
    4      -10.303802
    5       -9.008218
    6       -5.880494
    7       -5.760280
    8       -5.206145
    9       -1.123239
   10        0.532379
   11        1.332280
   12        1.719448
 
  0.4166667E-01  0.0000000E+00  0.0000000E+00  0.2314815E-02
    1      -22.172215
    2      -17.265495
    3      -15.759349
    4      -10.291838
    5       -8.998343
    6       -5.923908
    7       -5.781788
    8       -5.269313
    9       -1.044176
   10        0.545985
   11        1.346072
   12        1.733409
 
  0.8333333E-01  0.0000000E+00  0.0000000E+00  0.2314815E-02
    1      -22.142092
    2      -17.574952
    3      -15.404528
    4      -10.255964
    5       -8.968769
    6       -6.052239
    7       -5.845152
    8       -5.445226
    9       -0.820746
   10        0.586806
   11        1.387444
   12        1.775294
 
  0.1250000E+00  0.0000000E+00  0.0000000E+00  0.2314815E-02
    1      -22.091909
    2      -17.932390
    3      -14.971755
    4      -10.196238
    5       -8.919648
    6       -6.260117
    7       -5.947081
    8       -5.703216
    9       -0.484112
   10        0.654854
   11        1.456382
   12        1.845105
 
  0.1666667E+00  0.0000000E+00  0.0000000E+00  0.2314815E-02
    1      -22.021699
    2      -18.297538
    3      -14.501723
    4      -10.112757
    5       -8.851242
    6       -6.539592
    7       -6.082657
    8       -6.012222
    9       -0.066178
   10        0.750141
   11        1.552864
   12        1.942843
 
  0.2083333E+00  0.0000000E+00  0.0000000E+00  0.2314815E-02
    1      -21.931514
    2      -18.656759
    3      -14.008674
    4      -10.005663
    5       -8.763927
    6       -6.881263
    7       -6.348612
    8       -6.245986
    9        0.408213
   10        0.872672
   11        1.676851
   12        2.068511
 
  0.2500000E+00  0.0000000E+00  0.0000000E+00  0.2314815E-02
    1      -21.821415
    2      -19.004403
    3      -13.499056
    4       -9.875146
    5       -8.658208
    6       -7.275302
    7       -6.696355
    8       -6.430817
    9        0.921405
   10        1.022440
   11        1.828287
   12        2.222108
 
  0.2916667E+00  0.0000000E+00  0.0000000E+00  0.2314815E-02
    1      -21.691484
    2      -19.337675
    3      -12.976689
    4       -9.721452
    5       -8.534733
    6       -7.712210
    7       -7.044914
    8       -6.631036
    9        1.199425
   10        1.460728
   11        2.007083
   12        2.403633
 
  0.3333333E+00  0.0000000E+00  0.0000000E+00  0.2314815E-02
    1      -21.541821
    2      -19.654988
    3      -12.444436
    4       -9.544893
    5       -8.394314
    6       -8.183274
    7       -7.387314
    8       -6.840979
    9        1.403593
   10        2.016325
   11        2.213096
   12        2.613081
 
  0.3750000E+00  0.0000000E+00  0.0000000E+00  0.2314815E-02
    1      -21.372542
    2      -19.955340
    3      -11.904864
    4       -9.345860
    5       -8.680765
    6       -8.237954
    7       -7.718830
    8       -7.055601
    9        1.634893
   10        2.446061
   11        2.578906
   12        2.850444
 
  0.4166667E+00  0.0000000E+00  0.0000000E+00  0.2314815E-02
    1      -21.183790
    2      -20.238039
    3      -11.360564
    4       -9.197971
    5       -9.124847
    6       -8.066884
    7       -8.036171
    8       -7.270524
    9        1.893258
   10        2.705420
   11        3.115709
   12        3.132918
 
  0.4583333E+00  0.0000000E+00  0.0000000E+00  0.2314815E-02
    1      -20.975733
    2      -20.502580
    3      -10.814333
    4       -9.729128
    5       -8.882470
    6       -8.336977
    7       -7.882599
    8       -7.482009
    9        2.178596
   10        2.829625
   11        2.989649
   12        3.408854
 
  0.5000000E+00  0.0000000E+00  0.0000000E+00  0.1157407E-02
    1      -20.748581
    2      -20.748581
    3      -10.269317
    4      -10.269317
    5       -8.619512
    6       -8.619512
    7       -7.686912
    8       -7.686912
    9        2.490780
   10        2.490780
   11        3.292129
   12        3.292129
 
  0.0000000E+00  0.2777778E-01  0.0000000E+00  0.2314815E-02
    1      -22.168520
    2      -17.110815
    3      -15.905656
    4      -10.287437
    5       -9.070547
    6       -5.908937
    7       -5.818060
    8       -5.189486
    9       -1.126526
   10        0.551005
   11        1.351125
   12        1.738525
 
  0.4166667E-01  0.2777778E-01  0.0000000E+00  0.4629630E-02
    1      -22.158478
    2      -17.253504
    3      -15.747867
    4      -10.275476
    5       -9.060658
    6       -5.955629
    7       -5.835645
    8       -5.252786
    9       -1.047443
   10        0.564611
   11        1.364916
   12        1.752486
 
  0.8333333E-01  0.2777778E-01  0.0000000E+00  0.4629630E-02
    1      -22.128360
    2      -17.562717
    3      -15.393437
    4      -10.239615
    5       -9.031039
    6       -6.087407
    7       -5.893744
    8       -5.429004
    9       -0.824042
   10        0.605433
   11        1.406286
   12        1.794371
 
  0.1250000E+00  0.2777778E-01  0.0000000E+00  0.4629630E-02
    1      -22.078184
    2      -17.919933
    3      -14.961135
    4      -10.179909
    5       -8.981842
    6       -6.295087
    7       -5.993184
    8       -5.687315
    9       -0.487646
   10        0.673483
   11        1.475220
   12        1.864182
 
  0.1666667E+00  0.2777778E-01  0.0000000E+00  0.4629630E-02
    1      -22.007986
    2      -18.284890
    3      -14.491654
    4      -10.096456
    5       -8.913321
    6       -6.571584
    7       -6.128557
    8       -5.996562
    9       -0.070254
   10        0.768774
   11        1.571697
   12        1.961922
 
  0.2083333E+00  0.2777778E-01  0.0000000E+00  0.4629630E-02
    1      -21.917815
    2      -18.643948
    3      -13.999250
    4       -9.989399
    5       -8.825846
    6       -6.908818
    7       -6.333097
    8       -6.292993
    9        0.403272
   10        0.891311
   11        1.695678
   12        2.087591
 
  0.2500000E+00  0.2777778E-01  0.0000000E+00  0.4629630E-02
    1      -21.807734
    2      -18.991451
    3      -13.490393
    4       -9.858927
    5       -8.719912
    6       -7.297902
    7       -6.680903
    8       -6.479558
    9        0.915296
   10        1.041086
   11        1.847107
   12        2.241190
 
  0.2916667E+00  0.2777778E-01  0.0000000E+00  0.4629630E-02
    1      -21.677826
    2      -19.324603
    3      -12.968926
    4       -9.705285
    5       -8.596154
    6       -7.729908
    7       -7.029464
    8       -6.681721
    9        1.218081
   10        1.453192
   11        2.025897
   12        2.422718
 
  0.3333333E+00  0.2777778E-01  0.0000000E+00  0.4629630E-02
    1      -21.528189
    2      -19.641812
    3      -12.437741
    4       -9.528785
    5       -8.455368
    6       -8.196431
    7       -7.371825
    8       -6.893579
    9        1.422259
   10        2.007174
   11        2.231906
   12        2.632170
 
  0.3750000E+00  0.2777778E-01  0.0000000E+00  0.4629630E-02
    1      -21.358942
    2      -19.942074
    3      -11.899440
    4       -9.329821
    5       -8.689877
    6       -8.298540
    7       -7.703278
    8       -7.109963
    9        1.653572
   10        2.464873
   11        2.568155
   12        2.869538
 
  0.4166667E+00  0.2777778E-01  0.0000000E+00  0.4629630E-02
    1      -21.170227
    2      -20.224695
    3      -11.356654
    4       -9.203567
    5       -9.108882
    6       -8.126879
    7       -8.020541
    8       -7.326435
    9        1.911952
   10        2.724247
   11        3.121630
   12        3.134809
 
  0.4583333E+00  0.2777778E-01  0.0000000E+00  0.4629630E-02
    1      -20.962214
    2      -20.489169
    3      -10.812227
    4       -9.731718
    5       -8.866585
    6       -8.321263
    7       -7.941855
    8       -7.539247
    9        2.197307
   10        2.848399
   11        3.008502
   12        3.427999
 
  0.5000000E+00  0.2777778E-01  0.0000000E+00  0.2314815E-02
    1      -20.735111
    2      -20.735111
    3      -10.269358
    4      -10.269358
    5       -8.603711
    6       -8.603711
    7       -7.745257
    8       -7.745257
    9        2.509515
   10        2.509515
   11        3.310859
   12        3.310859
 
  0.0000000E+00  0.5555556E-01  0.0000000E+00  0.2314815E-02
    1      -22.127318
    2      -17.075285
    3      -15.870774
    4      -10.238374
    5       -9.252519
    6       -5.993686
    7       -5.986735
    8       -5.139531
    9       -1.137211
   10        0.606884
   11        1.407653
   12        1.795757
 
  0.4166667E-01  0.5555556E-01  0.0000000E+00  0.4629630E-02
    1      -22.117281
    2      -17.217544
    3      -15.713563
    4      -10.226426
    5       -9.242582
    6       -6.066250
    7       -5.976557
    8       -5.203237
    9       -1.058060
   10        0.620490
   11        1.421442
   12        1.809718
 
  0.8333333E-01  0.5555556E-01  0.0000000E+00  0.4629630E-02
    1      -22.087176
    2      -17.526029
    3      -15.360309
    4      -10.190601
    5       -9.212817
    6       -6.206575
    7       -6.020764
    8       -5.380395
    9       -0.834739
   10        0.661314
   11        1.462804
   12        1.851604
 
  0.1250000E+00  0.5555556E-01  0.0000000E+00  0.4629630E-02
    1      -22.037023
    2      -17.882581
    3      -14.929439
    4      -10.130957
    5       -9.163365
    6       -6.411030
    7       -6.115484
    8       -5.639687
    9       -0.499067
   10        0.729368
   11        1.531726
   12        1.921416
 
  0.1666667E+00  0.5555556E-01  0.0000000E+00  0.4629630E-02
    1      -21.966859
    2      -18.246965
    3      -14.461638
    4      -10.047591
    5       -9.094465
    6       -6.676869
    7       -6.252067
    8       -5.949673
    9       -0.083331
   10        0.824667
   11        1.628186
   12        2.019157
 
  0.2083333E+00  0.5555556E-01  0.0000000E+00  0.4629630E-02
    1      -21.876731
    2      -18.605533
    3      -13.971212
    4       -9.940645
    5       -9.006461
    6       -6.999350
    7       -6.421328
    8       -6.286646
    9        0.387551
   10        0.947216
   11        1.752147
   12        2.144830
 
  0.2500000E+00  0.5555556E-01  0.0000000E+00  0.4629630E-02
    1      -21.766705
    2      -18.952615
    3      -13.464695
    4       -9.810308
    5       -8.899815
    6       -7.372186
    7       -6.634638
    8       -6.614503
    9        0.896006
   10        1.097010
   11        1.903555
   12        2.298435
 
  0.2916667E+00  0.5555556E-01  0.0000000E+00  0.4629630E-02
    1      -21.636864
    2      -19.285404
    3      -12.946006
    4       -9.656826
    5       -8.775121
    6       -7.788199
    7       -6.983202
    8       -6.823779
    9        1.274027
   10        1.429528
   11        2.082325
   12        2.479970
 
  0.3333333E+00  0.5555556E-01  0.0000000E+00  0.4629630E-02
    1      -21.487307
    2      -19.602300
    3      -12.418129
    4       -9.480510
    5       -8.633123
    6       -8.239972
    7       -7.325443
    8       -7.042486
    9        1.478232
   10        1.978541
   11        2.288321
   12        2.689430
 
  0.3750000E+00  0.5555556E-01  0.0000000E+00  0.4629630E-02
    1      -21.318155
    2      -19.902290
    3      -11.883780
    4       -9.281751
    5       -8.720350
    6       -8.474745
    7       -7.656700
    8       -7.265052
    9        1.709574
   10        2.521294
   11        2.534490
   12        2.926810
 
  0.4166667E+00  0.5555556E-01  0.0000000E+00  0.4629630E-02
    1      -21.129550
    2      -20.184677
    3      -11.345720
    4       -9.222751
    5       -9.061039
    6       -8.301120
    7       -7.973724
    8       -7.486887
    9        1.967987
   10        2.780711
   11        3.085496
   12        3.192098
 
  0.4583333E+00  0.5555556E-01  0.0000000E+00  0.4629630E-02
    1      -20.921667
    2      -20.448949
    3      -10.806953
    4       -9.741301
    5       -8.818987
    6       -8.274186
    7       -8.113635
    8       -7.704224
    9        2.253383
   10        2.904617
   11        3.065056
   12        3.485707
 
  0.5000000E+00  0.5555556E-01  0.0000000E+00  0.2314815E-02
    1      -20.694716
    2      -20.694716
    3      -10.270857
    4      -10.270857
    5       -8.556371
    6       -8.556371
    7       -7.913981
    8       -7.913981
    9        2.565647
   10        2.565647
   11        3.366978
   12        3.366978
 
  0.0000000E+00  0.8333333E-01  0.0000000E+00  0.2314815E-02
    1      -22.058687
    2      -17.016080
    3      -15.813153
    4      -10.156718
    5       -9.540492
    6       -6.253741
    7       -6.133020
    8       -5.056341
    9       -1.157755
   10        0.700022
   11        1.501842
   12        1.891145
 
  0.4166667E-01  0.8333333E-01  0.0000000E+00  0.4629630E-02
    1      -22.048658
    2      -17.157650
    3      -15.656892
    4      -10.144792
    5       -9.530459
    6       -6.306169
    7       -6.139954
    8       -5.120766
    9       -1.078472
   10        0.713627
   11        1.515626
   12        1.905106
 
  0.8333333E-01  0.8333333E-01  0.0000000E+00  0.4629630E-02
    1      -22.018575
    2      -17.464948
    3      -15.305614
    4      -10.109030
    5       -9.500401
    6       -6.439272
    7       -6.182805
    8       -5.299577
    9       -0.855257
   10        0.754448
   11        1.556974
   12        1.946992
 
  0.1250000E+00  0.8333333E-01  0.0000000E+00  0.4629630E-02
    1      -21.968462
    2      -17.820398
    3      -14.877193
    4      -10.049492
    5       -9.450439
    6       -6.632856
    7       -6.275565
    8       -5.560578
    9       -0.520813
   10        0.822501
   11        1.625874
   12        2.016804
 
  0.1666667E+00  0.8333333E-01  0.0000000E+00  0.4629630E-02
    1      -21.898353
    2      -18.183827
    3      -14.412300
    4       -9.966274
    5       -9.380780
    6       -6.879821
    7       -6.415627
    8       -5.871836
    9       -0.107929
   10        0.917802
   11        1.722303
   12        2.114547
 
  0.2083333E+00  0.8333333E-01  0.0000000E+00  0.4629630E-02
    1      -21.808297
    2      -18.541573
    3      -13.925326
    4       -9.859518
    5       -9.291718
    6       -7.176416
    7       -6.594451
    8       -6.209554
    9        0.358390
   10        1.040360
   11        1.846227
   12        2.240223
 
  0.2500000E+00  0.8333333E-01  0.0000000E+00  0.4629630E-02
    1      -21.698364
    2      -18.887949
    3      -13.422922
    4       -9.729413
    5       -9.183651
    6       -7.519465
    7       -6.801437
    8       -6.557851
    9        0.860681
   10        1.190169
   11        1.997593
   12        2.393834
 
  0.2916667E+00  0.8333333E-01  0.0000000E+00  0.4629630E-02
    1      -21.568635
    2      -19.220128
    3      -12.909153
    4       -9.576206
    5       -9.057086
    6       -7.905117
    7       -7.026263
    8       -6.906405
    9        1.367208
   10        1.386637
   11        2.176324
   12        2.575378
 
  0.3333333E+00  0.8333333E-01  0.0000000E+00  0.4629630E-02
    1      -21.419212
    2      -19.536499
    3      -12.387185
    4       -9.400205
    5       -8.912659
    6       -8.328397
    7       -7.260214
    8       -7.248428
    9        1.571441
   10        1.926990
   11        2.382292
   12        2.784850
 
  0.3750000E+00  0.8333333E-01  0.0000000E+00  0.4629630E-02
    1      -21.250217
    2      -19.836035
    3      -11.859956
    4       -9.201802
    5       -8.783449
    6       -8.751155
    7       -7.579337
    8       -7.496532
    9        1.802813
   10        2.473870
   11        2.615270
   12        3.022245
 
  0.4166667E+00  0.8333333E-01  0.0000000E+00  0.4629630E-02
    1      -21.061798
    2      -20.118030
    3      -11.330498
    4       -9.264095
    5       -8.981481
    6       -8.573538
    7       -7.895942
    8       -7.730148
    9        2.061259
   10        2.874764
   11        3.018283
   12        3.287552
 
  0.4583333E+00  0.8333333E-01  0.0000000E+00  0.4629630E-02
    1      -20.854133
    2      -20.381961
    3      -10.802143
    4       -9.764336
    5       -8.739851
    6       -8.380989
    7       -8.195953
    8       -7.957259
    9        2.346691
   10        2.998043
   11        3.159285
   12        3.522491
 
  0.5000000E+00  0.8333333E-01  0.0000000E+00  0.2314815E-02
    1      -20.627435
    2      -20.627435
    3      -10.278655
    4      -10.278655
    5       -8.477681
    6       -8.477681
    7       -8.174962
    8       -8.174962
    9        2.659001
   10        2.659001
   11        3.460156
   12        3.460156
 
  0.0000000E+00  0.1111111E+00  0.0000000E+00  0.2314815E-02
    1      -21.962688
    2      -16.933223
    3      -15.733672
    4      -10.042646
    5       -9.915490
    6       -6.601948
    7       -6.324122
    8       -4.940024
    9       -1.192249
   10        0.830425
   11        1.633653
   12        2.024691
 
  0.4166667E-01  0.1111111E+00  0.0000000E+00  0.4629630E-02
    1      -21.952669
    2      -17.073886
    3      -15.578713
    4      -10.030750
    5       -9.905288
    6       -6.649236
    7       -6.332230
    8       -5.005550
    9       -1.112724
   10        0.844026
   11        1.647430
   12        2.038652
 
  0.8333333E-01  0.1111111E+00  0.0000000E+00  0.4629630E-02
    1      -21.922620
    2      -17.379577
    3      -15.230246
    4       -9.995081
    5       -9.874709
    6       -6.776098
    7       -6.370000
    8       -5.186869
    9       -0.889577
   10        0.884836
   11        1.688756
   12        2.080536
 
  0.1250000E+00  0.1111111E+00  0.0000000E+00  0.4629630E-02
    1      -21.872561
    2      -17.733497
    3      -14.805411
    4       -9.935697
    5       -9.823840
    6       -6.961152
    7       -6.454182
    8       -5.450429
    9       -0.556878
   10        0.952873
   11        1.757618
   12        2.150347
 
  0.1666667E+00  0.1111111E+00  0.0000000E+00  0.4629630E-02
    1      -21.802529
    2      -18.095587
    3      -14.344856
    4       -9.852695
    5       -9.752828
    6       -7.191984
    7       -6.589590
    8       -5.763557
    9       -0.148158
   10        1.048159
   11        1.853996
   12        2.248088
 
  0.2083333E+00  0.1111111E+00  0.0000000E+00  0.4629630E-02
    1      -21.712576
    2      -18.452173
    3      -13.863104
    4       -9.746218
    5       -9.661876
    6       -7.462313
    7       -6.772350
    8       -6.102346
    9        0.311471
   10        1.170707
   11        1.977856
   12        2.373766
 
  0.2500000E+00  0.1111111E+00  0.0000000E+00  0.4629630E-02
    1      -21.602772
    2      -18.797549
    3      -13.367005
    4       -9.616454
    5       -9.551256
    6       -7.769413
    7       -6.993164
    8       -6.451060
    9        0.804727
   10        1.320513
   11        2.129151
   12        2.527380
 
  0.2916667E+00  0.1111111E+00  0.0000000E+00  0.4629630E-02
    1      -21.473199
    2      -19.128867
    3      -12.860880
    4       -9.463648
    5       -9.421305
    6       -8.112543
    7       -7.239797
    8       -6.799567
    9        1.319583
   10        1.497558
   11        2.307808
   12        2.708931
 
  0.3333333E+00  0.1111111E+00  0.0000000E+00  0.4629630E-02
    1      -21.323964
    2      -19.444493
    3      -12.348225
    4       -9.288111
    5       -9.272432
    6       -8.491284
    7       -7.499623
    8       -7.141240
    9        1.701801
   10        1.847148
   11        2.513718
   12        2.918413
 
  0.3750000E+00  0.1111111E+00  0.0000000E+00  0.4629630E-02
    1      -21.155193
    2      -19.743386
    3      -11.832397
    4       -9.105129
    5       -9.090229
    6       -8.903994
    7       -7.761896
    8       -7.471616
    9        1.933187
   10        2.380224
   11        2.746687
   12        3.155822
 
  0.4166667E+00  0.1111111E+00  0.0000000E+00  0.4629630E-02
    1      -20.967036
    2      -20.024826
    3      -11.316957
    4       -9.347119
    5       -8.919980
    6       -8.870484
    7       -8.018872
    8       -7.787588
    9        2.191642
   10        2.911974
   11        3.006291
   12        3.421147
 
  0.4583333E+00  0.1111111E+00  0.0000000E+00  0.4629630E-02
    1      -20.759678
    2      -20.288278
    3      -10.805888
    4       -9.815598
    5       -8.717695
    6       -8.629478
    7       -8.265620
    8       -8.086922
    9        2.477081
   10        3.128444
   11        3.291137
   12        3.429744
 
  0.5000000E+00  0.1111111E+00  0.0000000E+00  0.2314815E-02
    1      -20.533336
    2      -20.533336
    3      -10.303725
    4      -10.303725
    5       -8.499169
    6       -8.499169
    7       -8.367969
    8       -8.367969
    9        2.789394
   10        2.789394
   11        3.588767
   12        3.588767
 
  0.0000000E+00  0.1388889E+00  0.0000000E+00  0.2314815E-02
    1      -21.839408
    2      -16.826742
    3      -15.633819
    4      -10.356620
    5       -9.896409
    6       -7.013163
    7       -6.563189
    8       -4.790729
    9       -1.246313
   10        0.998091
   11        1.803029
   12        2.196399
 
  0.4166667E-01  0.1388889E+00  0.0000000E+00  0.4629630E-02
    1      -21.829403
    2      -16.966351
    3      -15.480491
    4      -10.346127
    5       -9.884556
    6       -7.059876
    7       -6.567190
    8       -4.857861
    9       -1.166346
   10        1.011683
   11        1.816794
   12        2.210358
 
  0.8333333E-01  0.1388889E+00  0.0000000E+00  0.4629630E-02
    1      -21.799395
    2      -17.270075
    3      -15.135747
    4      -10.314656
    5       -9.849013
    6       -7.186213
    7       -6.592037
    8       -5.042789
    9       -0.943085
   10        1.052469
   11        1.858084
   12        2.252238
 
  0.1250000E+00  0.1388889E+00  0.0000000E+00  0.4629630E-02
    1      -21.749407
    2      -17.622055
    3      -14.715876
    4      -10.262227
    5       -9.789839
    6       -7.369171
    7       -6.657747
    8       -5.309949
    9       -0.612610
   10        1.120470
   11        1.926887
   12        2.322043
 
  0.1666667E+00  0.1388889E+00  0.0000000E+00  0.4629630E-02
    1      -21.679476
    2      -17.982414
    3      -14.261492
    4      -10.188870
    5       -9.707132
    6       -7.592718
    7       -6.775064
    8       -5.625643
    9       -0.209477
   10        1.215714
   11        2.023181
   12        2.419779
 
  0.2083333E+00  0.1388889E+00  0.0000000E+00  0.4629630E-02
    1      -21.589656
    2      -18.337491
    3      -13.787330
    4      -10.094614
    5       -9.601034
    6       -7.847447
    7       -6.945702
    8       -5.965848
    9        0.241113
   10        1.338219
   11        2.146935
   12        2.545452
 
  0.2500000E+00  0.1388889E+00  0.0000000E+00  0.4629630E-02
    1      -21.480017
    2      -18.681562
    3      -13.300582
    4       -9.979473
    5       -9.471735
    6       -8.128284
    7       -7.164881
    8       -6.315066
    9        0.722172
   10        1.487990
   11        2.298103
   12        2.699065
 
  0.2916667E+00  0.1388889E+00  0.0000000E+00  0.4629630E-02
    1      -21.350648
    2      -19.011753
    3      -12.806044
    4       -9.843429
    5       -9.319481
    6       -8.433402
    7       -7.423039
    8       -6.663444
    9        1.222069
   10        1.665008
   11        2.476624
   12        2.880617
 
  0.3333333E+00  0.1388889E+00  0.0000000E+00  0.4629630E-02
    1      -21.201657
    2      -19.326407
    3      -12.307841
    4       -9.686401
    5       -9.144579
    6       -8.763572
    7       -7.707322
    8       -7.004582
    9        1.732367
   10        1.869230
   11        2.682406
   12        3.090106
 
  0.3750000E+00  0.1388889E+00  0.0000000E+00  0.4629630E-02
    1      -21.033174
    2      -19.624461
    3      -11.810154
    4       -9.508224
    5       -9.121154
    6       -8.947414
    7       -8.003392
    8       -7.334182
    9        2.100596
   10        2.246475
   11        2.915304
   12        3.327524
 
  0.4166667E+00  0.1388889E+00  0.0000000E+00  0.4629630E-02
    1      -20.845358
    2      -19.905176
    3      -11.317597
    4       -9.508359
    5       -9.308634
    6       -8.728462
    7       -8.297776
    8       -7.649250
    9        2.359025
   10        2.758811
   11        3.175024
   12        3.592862
 
  0.4583333E+00  0.1388889E+00  0.0000000E+00  0.4629630E-02
    1      -20.638398
    2      -20.168004
    3      -10.835397
    4       -9.925339
    5       -9.087337
    6       -8.580136
    7       -8.488318
    8       -7.947632
    9        2.644425
   10        3.263764
   11        3.295648
   12        3.460476
 
  0.5000000E+00  0.1388889E+00  0.0000000E+00  0.2314815E-02
    1      -20.412522
    2      -20.412522
    3      -10.369346
    4      -10.369346
    5       -8.844250
    6       -8.844250
    7       -8.227727
    8       -8.227727
    9        2.956679
   10        2.956679
   11        3.715353
   12        3.715353
 
  0.0000000E+00  0.1666667E+00  0.0000000E+00  0.2314815E-02
    1      -21.688964
    2      -16.696676
    3      -15.516087
    4      -10.843250
    5       -9.718350
    6       -7.470522
    7       -6.845578
    8       -4.608657
    9       -1.326844
   10        1.203004
   11        2.009888
   12        2.406269
 
  0.4166667E-01  0.1666667E+00  0.0000000E+00  0.4629630E-02
    1      -21.678976
    2      -16.835190
    3      -15.364701
    4      -10.832258
    5       -9.706551
    6       -7.518133
    7       -6.843534
    8       -4.678109
    9       -1.246060
   10        1.216584
   11        2.023633
   12        2.420226
 
  0.8333333E-01  0.1666667E+00  0.0000000E+00  0.4629630E-02
    1      -21.649020
    2      -17.136686
    3      -15.024780
    4      -10.799247
    5       -9.671173
    6       -7.646862
    7       -6.851103
    8       -4.868143
    9       -1.022193
   10        1.257332
   11        2.064865
   12        2.462100
 
  0.1250000E+00  0.1666667E+00  0.0000000E+00  0.4629630E-02
    1      -21.599119
    2      -17.486334
    3      -14.611740
    4      -10.744104
    5       -9.612275
    6       -7.831765
    7       -6.891795
    8       -5.140240
    9       -0.694267
   10        1.325273
   11        2.133570
   12        2.531894
 
  0.1666667E+00  0.1666667E+00  0.0000000E+00  0.4629630E-02
    1      -21.529312
    2      -17.844559
    3      -14.166179
    4      -10.666618
    5       -9.529956
    6       -8.054239
    7       -6.981215
    8       -5.459321
    9       -0.298183
   10        1.420439
   11        2.229723
   12        2.629616
 
  0.2083333E+00  0.1666667E+00  0.0000000E+00  0.4629630E-02
    1      -21.439654
    2      -18.197757
    3      -13.703219
    4      -10.566441
    5       -9.424359
    6       -8.302716
    7       -7.125840
    8       -5.801301
    9        0.140862
   10        1.542859
   11        2.353292
   12        2.755275
 
  0.2500000E+00  0.1666667E+00  0.0000000E+00  0.4629630E-02
    1      -21.330220
    2      -18.540196
    3      -13.230709
    4      -10.443031
    5       -9.295675
    6       -8.570142
    7       -7.325334
    8       -6.151059
    9        0.606372
   10        1.692546
   11        2.504229
   12        2.908876
 
  0.2916667E+00  0.1666667E+00  0.0000000E+00  0.4629630E-02
    1      -21.201101
    2      -18.868978
    3      -12.754388
    4      -10.295568
    5       -9.144148
    6       -8.852569
    7       -7.574232
    8       -6.499143
    9        1.087307
   10        1.869488
   11        2.682470
   12        3.090421
 
  0.3333333E+00  0.1666667E+00  0.0000000E+00  0.4629630E-02
    1      -21.052410
    2      -19.182416
    3      -12.279661
    4      -10.122873
    5       -9.148625
    6       -8.970088
    7       -7.863133
    8       -6.839469
    9        1.575819
   10        2.073643
   11        2.887936
   12        3.299909
 
  0.3750000E+00  0.1666667E+00  0.0000000E+00  0.4629630E-02
    1      -20.884285
    2      -19.479420
    3      -11.812336
    4       -9.923371
    5       -9.459392
    6       -8.773875
    7       -8.179652
    8       -7.167959
    9        2.065944
   10        2.304944
   11        3.120519
   12        3.537332
 
  0.4166667E+00  0.1666667E+00  0.0000000E+00  0.4629630E-02
    1      -20.696891
    2      -19.759231
    3      -11.358832
    4       -9.788216
    5       -9.695254
    6       -8.555983
    7       -8.509374
    8       -7.481769
    9        2.552867
   10        2.563302
   11        3.380081
   12        3.802679
 
  0.4583333E+00  0.1666667E+00  0.0000000E+00  0.4629630E-02
    1      -20.490427
    2      -20.021280
    3      -10.925747
    4      -10.139858
    5       -9.437160
    6       -8.837217
    7       -8.316996
    8       -7.778842
    9        2.848609
   10        3.032490
   11        3.499534
   12        3.666413
 
  0.5000000E+00  0.1666667E+00  0.0000000E+00  0.2314815E-02
    1      -20.265129
    2      -20.265129
    3      -10.518574
    4      -10.518574
    5       -9.149652
    6       -9.149652
    7       -8.057643
    8       -8.057643
    9        3.160738
   10        3.160738
   11        3.501148
   12        3.501148
 