       N       E                     dE             d eps       ncg     rms          rms(c)
DAV:   1     0.188329343058E+03    0.18833E+03   -0.10640E+04  5928   0.275E+03
DAV:   2    -0.868424814476E+01   -0.19701E+03   -0.17493E+03 10348   0.262E+02
DAV:   3    -0.382697781008E+02   -0.29586E+02   -0.28920E+02  7356   0.120E+02    0.724E+00
RMM:   4    -0.376735682615E+02    0.59621E+00   -0.95954E+00  5928   0.266E+01    0.420E+00
RMM:   5    -0.369245370435E+02    0.74903E+00   -0.27807E+00  5931   0.114E+01    0.724E-01
RMM:   6    -0.369256355127E+02   -0.10985E-02   -0.79637E-02  6354   0.201E+00    0.513E-01
RMM:   7    -0.369163469947E+02    0.92885E-02   -0.32912E-02  5944   0.158E+00    0.339E-01
RMM:   8    -0.369109495632E+02    0.53974E-02   -0.70198E-03  5932   0.556E-01    0.138E-01
RMM:   9    -0.369106344234E+02    0.31514E-03   -0.20692E-02  5928   0.853E-01    0.158E-01
RMM:  10    -0.369105262411E+02    0.10818E-03   -0.24331E-03  5928   0.357E-01    0.290E-02
RMM:  11    -0.369130027195E+02   -0.24765E-02   -0.74563E-04  5930   0.179E-01    0.450E-02
RMM:  12    -0.369134641275E+02   -0.46141E-03   -0.22970E-04  5941   0.100E-01    0.459E-03
RMM:  13    -0.369137118330E+02   -0.24771E-03   -0.47063E-05  6024   0.375E-02    0.382E-03
RMM:  14    -0.369137948073E+02   -0.82974E-04   -0.10342E-05  5960   0.171E-02    0.167E-03
RMM:  15    -0.369138046281E+02   -0.98208E-05   -0.15665E-06  5978   0.718E-03    0.126E-03
RMM:  16    -0.369138164748E+02   -0.11847E-04   -0.81333E-07  5928   0.579E-03    0.923E-04
RMM:  17    -0.369138211591E+02   -0.46844E-05   -0.57805E-08  6075   0.152E-03    0.648E-04
RMM:  18    -0.369138223453E+02   -0.11862E-05   -0.54014E-08  5928   0.175E-03    0.116E-04
RMM:  19    -0.369138230716E+02   -0.72629E-06   -0.97136E-09  6034   0.486E-04    0.170E-05
RMM:  20    -0.369138231205E+02   -0.48827E-07   -0.80167E-10  4527   0.142E-04    0.249E-05
RMM:  21    -0.369138231386E+02   -0.18151E-07   -0.25561E-10  4393   0.918E-05    0.618E-06
RMM:  22    -0.369138231388E+02   -0.23238E-09   -0.14765E-11  3900   0.491E-05    0.233E-06
RMM:  23    -0.369138231393E+02   -0.45225E-09   -0.16338E-11  3468   0.366E-05    0.152E-06
RMM:  24    -0.369138231397E+02   -0.38744E-09   -0.49663E-12  2999   0.272E-05    0.460E-07
RMM:  25    -0.369138231397E+02    0.15234E-10   -0.46365E-12  2702   0.236E-05
   1 F= -.36913823E+02 E0= -.36913810E+02  d E =-.369138E+02
       N       E                     dE             d eps       ncg     rms          rms(c)
DAV:   1    -0.369138210384E+02    0.21013E-05   -0.18894E-04  6392   0.129E-01    0.268E-03
RMM:   2    -0.369138211481E+02   -0.10977E-06   -0.30755E-06  5945   0.155E-02    0.193E-03
RMM:   3    -0.369138210556E+02    0.92522E-07   -0.53083E-07  5958   0.587E-03    0.510E-04
RMM:   4    -0.369138210466E+02    0.90592E-08   -0.34792E-08  6099   0.148E-03    0.143E-04
RMM:   5    -0.369138210457E+02    0.81263E-09   -0.25288E-09  6023   0.356E-04    0.661E-05
RMM:   6    -0.369138210459E+02   -0.20134E-09   -0.36467E-10  4862   0.154E-04    0.608E-06
RMM:   7    -0.369138210459E+02    0.43315E-10   -0.15950E-11  3756   0.535E-05
   2 F= -.36913821E+02 E0= -.36913807E+02  d E =0.209376E-05
       N       E                     dE             d eps       ncg     rms          rms(c)
DAV:   1    -0.369138232647E+02   -0.22188E-05   -0.12019E-04  6580   0.103E-01    0.215E-03
RMM:   2    -0.369138233367E+02   -0.71968E-07   -0.18824E-06  5946   0.123E-02    0.154E-03
RMM:   3    -0.369138232847E+02    0.52024E-07   -0.33131E-07  5964   0.464E-03    0.391E-04
RMM:   4    -0.369138232781E+02    0.65373E-08   -0.20752E-08  6097   0.115E-03    0.113E-04
RMM:   5    -0.369138232788E+02   -0.66348E-09   -0.15784E-09  5767   0.279E-04    0.530E-05
RMM:   6    -0.369138232790E+02   -0.18679E-09   -0.23525E-10  4075   0.125E-04    0.487E-06
RMM:   7    -0.369138232791E+02   -0.11289E-09   -0.11484E-11  3733   0.529E-05    0.200E-06
RMM:   8    -0.369138232786E+02    0.46316E-09   -0.14835E-11  3424   0.434E-05    0.131E-06
RMM:   9    -0.369138232789E+02   -0.30411E-09   -0.46566E-12  3057   0.322E-05    0.109E-06
RMM:  10    -0.369138232788E+02    0.14109E-09   -0.58534E-12  2805   0.284E-05    0.741E-07
RMM:  11    -0.369138232789E+02   -0.66393E-10   -0.33959E-12  2683   0.256E-05
   3 F= -.36913823E+02 E0= -.36913810E+02  d E =-.223295E-05
       N       E                     dE             d eps       ncg     rms          rms(c)
DAV:   1    -0.369138232785E+02    0.29149E-09    0.56845E-09  4712   0.426E-05    0.567E-07
RMM:   2    -0.369138232787E+02   -0.18713E-09    0.27348E-13  1668   0.147E-05    0.353E-07
RMM:   3    -0.369138232791E+02   -0.39256E-09   -0.34207E-13  1600   0.145E-05    0.229E-08
RMM:   4    -0.369138232787E+02    0.37596E-09   -0.14036E-13  1545   0.144E-05    0.144E-08
RMM:   5    -0.369138232788E+02   -0.11369E-09   -0.54530E-13  1502   0.141E-05    0.835E-09
RMM:   6    -0.369138232786E+02    0.26319E-09    0.24548E-14  1466   0.139E-05    0.113E-08
RMM:   7    -0.369138232787E+02   -0.18213E-09   -0.45297E-13  1353   0.137E-05    0.145E-08
RMM:   8    -0.369138232789E+02   -0.20441E-09    0.15253E-13  1261   0.135E-05    0.190E-08
RMM:   9    -0.369138232786E+02    0.33231E-09   -0.45766E-14  1369   0.135E-05    0.107E-08
RMM:  10    -0.369138232786E+02   -0.28876E-10   -0.23911E-14  1371   0.133E-05
   4 F= -.36913823E+02 E0= -.36913810E+02  d E =0.220552E-09
       N       E                     dE             d eps       ncg     rms          rms(c)
DAV:   1    -0.369138232783E+02    0.27001E-09    0.57011E-09  4564   0.192E-05    0.247E-07
RMM:   2    -0.369138232786E+02   -0.29320E-09    0.36761E-14  1056   0.664E-06    0.152E-07
RMM:   3    -0.369138232787E+02   -0.96293E-10   -0.19552E-13  1061   0.655E-06    0.526E-09
RMM:   4    -0.369138232788E+02   -0.11653E-09    0.10473E-13   879   0.657E-06    0.305E-09
RMM:   5    -0.369138232786E+02    0.24022E-09   -0.19018E-13   751   0.657E-06    0.191E-09
RMM:   6    -0.369138232788E+02   -0.19645E-09   -0.21135E-14   959   0.651E-06    0.195E-09
RMM:   7    -0.369138232787E+02    0.14313E-09   -0.75577E-14   790   0.650E-06    0.301E-09
RMM:   8    -0.369138232786E+02    0.39790E-10    0.33923E-14   769   0.650E-06
   5 F= -.36913823E+02 E0= -.36913810E+02  d E =0.195541E-10
