<?xml version="1.0" encoding="ISO-8859-1"?>
<modeling>
 <generator>
  <i name="program" type="string">vasp </i>
  <i name="version" type="string">5.3.5  </i>
  <i name="subversion" type="string">31Mar14 (build Mar 02 2015 18:14:16) complex                          parallel </i>
  <i name="platform" type="string">LinuxIFC </i>
  <i name="date" type="string">2018 08 07 </i>
  <i name="time" type="string">16:36:48 </i>
 </generator>
 <incar>
  <i type="string" name="SYSTEM">  gr</i>
  <i type="string" name="PREC">accurate : accuracy</i>
  <i type="string" name="ALGO"> FAST.</i>
  <i type="int" name="NELM">   100</i>
  <i type="int" name="NELMDL">    -3</i>
  <i type="int" name="NELMIN">     5</i>
  <i type="int" name="IBRION">     1</i>
  <i name="EDIFF">      0.00000000</i>
  <i name="EDIFFG">     -0.00000100</i>
  <i type="int" name="NSW">   400</i>
  <i type="int" name="ISIF">     2</i>
  <i name="ENCUT">   2000.00000000</i>
  <i type="int" name="ISMEAR">     0</i>
  <i name="SIGMA">      0.05000000</i>
  <i type="int" name="NWRITE">     2</i>
  <i type="logical" name="LWAVE"> F  </i>
  <i type="logical" name="LCHARG"> F  </i>
  <i type="int" name="NELM">   100</i>
 </incar>
 <kpoints>
  <generation param="Gamma">
   <v type="int" name="divisions">      24       36        1 </v>
   <v name="usershift">      0.00000000       0.00000000       0.00000000 </v>
   <v name="genvec1">      0.04166667       0.00000000       0.00000000 </v>
   <v name="genvec2">      0.00000000       0.02777778       0.00000000 </v>
   <v name="genvec3">      0.00000000       0.00000000       1.00000000 </v>
   <v name="shift">      0.00000000       0.00000000       0.00000000 </v>
  </generation>
  <varray name="kpointlist" >
   <v>       0.00000000       0.00000000       0.00000000 </v>
   <v>       0.04166667       0.00000000       0.00000000 </v>
   <v>       0.08333333       0.00000000       0.00000000 </v>
   <v>       0.12500000       0.00000000       0.00000000 </v>
   <v>       0.16666667       0.00000000       0.00000000 </v>
   <v>       0.20833333       0.00000000       0.00000000 </v>
   <v>       0.25000000       0.00000000       0.00000000 </v>
   <v>       0.29166667       0.00000000       0.00000000 </v>
   <v>       0.33333333       0.00000000       0.00000000 </v>
   <v>       0.37500000       0.00000000       0.00000000 </v>
   <v>       0.41666667       0.00000000       0.00000000 </v>
   <v>       0.45833333       0.00000000       0.00000000 </v>
   <v>       0.50000000       0.00000000       0.00000000 </v>
   <v>       0.00000000       0.02777778       0.00000000 </v>
   <v>       0.04166667       0.02777778       0.00000000 </v>
   <v>       0.08333333       0.02777778       0.00000000 </v>
   <v>       0.12500000       0.02777778       0.00000000 </v>
   <v>       0.16666667       0.02777778       0.00000000 </v>
   <v>       0.20833333       0.02777778       0.00000000 </v>
   <v>       0.25000000       0.02777778       0.00000000 </v>
   <v>       0.29166667       0.02777778       0.00000000 </v>
   <v>       0.33333333       0.02777778       0.00000000 </v>
   <v>       0.37500000       0.02777778       0.00000000 </v>
   <v>       0.41666667       0.02777778       0.00000000 </v>
   <v>       0.45833333       0.02777778       0.00000000 </v>
   <v>       0.50000000       0.02777778       0.00000000 </v>
   <v>       0.00000000       0.05555556       0.00000000 </v>
   <v>       0.04166667       0.05555556       0.00000000 </v>
   <v>       0.08333333       0.05555556       0.00000000 </v>
   <v>       0.12500000       0.05555556       0.00000000 </v>
   <v>       0.16666667       0.05555556       0.00000000 </v>
   <v>       0.20833333       0.05555556       0.00000000 </v>
   <v>       0.25000000       0.05555556       0.00000000 </v>
   <v>       0.29166667       0.05555556       0.00000000 </v>
   <v>       0.33333333       0.05555556       0.00000000 </v>
   <v>       0.37500000       0.05555556       0.00000000 </v>
   <v>       0.41666667       0.05555556       0.00000000 </v>
   <v>       0.45833333       0.05555556       0.00000000 </v>
   <v>       0.50000000       0.05555556       0.00000000 </v>
   <v>       0.00000000       0.08333333       0.00000000 </v>
   <v>       0.04166667       0.08333333       0.00000000 </v>
   <v>       0.08333333       0.08333333       0.00000000 </v>
   <v>       0.12500000       0.08333333       0.00000000 </v>
   <v>       0.16666667       0.08333333       0.00000000 </v>
   <v>       0.20833333       0.08333333       0.00000000 </v>
   <v>       0.25000000       0.08333333       0.00000000 </v>
   <v>       0.29166667       0.08333333       0.00000000 </v>
   <v>       0.33333333       0.08333333       0.00000000 </v>
   <v>       0.37500000       0.08333333       0.00000000 </v>
   <v>       0.41666667       0.08333333       0.00000000 </v>
   <v>       0.45833333       0.08333333       0.00000000 </v>
   <v>       0.50000000       0.08333333       0.00000000 </v>
   <v>       0.00000000       0.11111111       0.00000000 </v>
   <v>       0.04166667       0.11111111       0.00000000 </v>
   <v>       0.08333333       0.11111111       0.00000000 </v>
   <v>       0.12500000       0.11111111       0.00000000 </v>
   <v>       0.16666667       0.11111111       0.00000000 </v>
   <v>       0.20833333       0.11111111       0.00000000 </v>
   <v>       0.25000000       0.11111111       0.00000000 </v>
   <v>       0.29166667       0.11111111       0.00000000 </v>
   <v>       0.33333333       0.11111111       0.00000000 </v>
   <v>       0.37500000       0.11111111       0.00000000 </v>
   <v>       0.41666667       0.11111111       0.00000000 </v>
   <v>       0.45833333       0.11111111       0.00000000 </v>
   <v>       0.50000000       0.11111111       0.00000000 </v>
   <v>       0.00000000       0.13888889       0.00000000 </v>
   <v>       0.04166667       0.13888889       0.00000000 </v>
   <v>       0.08333333       0.13888889       0.00000000 </v>
   <v>       0.12500000       0.13888889       0.00000000 </v>
   <v>       0.16666667       0.13888889       0.00000000 </v>
   <v>       0.20833333       0.13888889       0.00000000 </v>
   <v>       0.25000000       0.13888889       0.00000000 </v>
   <v>       0.29166667       0.13888889       0.00000000 </v>
   <v>       0.33333333       0.13888889       0.00000000 </v>
   <v>       0.37500000       0.13888889       0.00000000 </v>
   <v>       0.41666667       0.13888889       0.00000000 </v>
   <v>       0.45833333       0.13888889       0.00000000 </v>
   <v>       0.50000000       0.13888889       0.00000000 </v>
   <v>       0.00000000       0.16666667       0.00000000 </v>
   <v>       0.04166667       0.16666667       0.00000000 </v>
   <v>       0.08333333       0.16666667       0.00000000 </v>
   <v>       0.12500000       0.16666667       0.00000000 </v>
   <v>       0.16666667       0.16666667       0.00000000 </v>
   <v>       0.20833333       0.16666667       0.00000000 </v>
   <v>       0.25000000       0.16666667       0.00000000 </v>
   <v>       0.29166667       0.16666667       0.00000000 </v>
   <v>       0.33333333       0.16666667       0.00000000 </v>
   <v>       0.37500000       0.16666667       0.00000000 </v>
   <v>       0.41666667       0.16666667       0.00000000 </v>
   <v>       0.45833333       0.16666667       0.00000000 </v>
   <v>       0.50000000       0.16666667       0.00000000 </v>
   <v>       0.00000000       0.19444444       0.00000000 </v>
   <v>       0.04166667       0.19444444       0.00000000 </v>
   <v>       0.08333333       0.19444444       0.00000000 </v>
   <v>       0.12500000       0.19444444       0.00000000 </v>
   <v>       0.16666667       0.19444444       0.00000000 </v>
   <v>       0.20833333       0.19444444       0.00000000 </v>
   <v>       0.25000000       0.19444444       0.00000000 </v>
   <v>       0.29166667       0.19444444       0.00000000 </v>
   <v>       0.33333333       0.19444444       0.00000000 </v>
   <v>       0.37500000       0.19444444       0.00000000 </v>
   <v>       0.41666667       0.19444444       0.00000000 </v>
   <v>       0.45833333       0.19444444       0.00000000 </v>
   <v>       0.50000000       0.19444444       0.00000000 </v>
   <v>       0.00000000       0.22222222       0.00000000 </v>
   <v>       0.04166667       0.22222222       0.00000000 </v>
   <v>       0.08333333       0.22222222       0.00000000 </v>
   <v>       0.12500000       0.22222222       0.00000000 </v>
   <v>       0.16666667       0.22222222       0.00000000 </v>
   <v>       0.20833333       0.22222222       0.00000000 </v>
   <v>       0.25000000       0.22222222       0.00000000 </v>
   <v>       0.29166667       0.22222222       0.00000000 </v>
   <v>       0.33333333       0.22222222       0.00000000 </v>
   <v>       0.37500000       0.22222222       0.00000000 </v>
   <v>       0.41666667       0.22222222       0.00000000 </v>
   <v>       0.45833333       0.22222222       0.00000000 </v>
   <v>       0.50000000       0.22222222       0.00000000 </v>
   <v>       0.00000000       0.25000000       0.00000000 </v>
   <v>       0.04166667       0.25000000       0.00000000 </v>
   <v>       0.08333333       0.25000000       0.00000000 </v>
   <v>       0.12500000       0.25000000       0.00000000 </v>
   <v>       0.16666667       0.25000000       0.00000000 </v>
   <v>       0.20833333       0.25000000       0.00000000 </v>
   <v>       0.25000000       0.25000000       0.00000000 </v>
   <v>       0.29166667       0.25000000       0.00000000 </v>
   <v>       0.33333333       0.25000000       0.00000000 </v>
   <v>       0.37500000       0.25000000       0.00000000 </v>
   <v>       0.41666667       0.25000000       0.00000000 </v>
   <v>       0.45833333       0.25000000       0.00000000 </v>
   <v>       0.50000000       0.25000000       0.00000000 </v>
   <v>       0.00000000       0.27777778       0.00000000 </v>
   <v>       0.04166667       0.27777778       0.00000000 </v>
   <v>       0.08333333       0.27777778       0.00000000 </v>
   <v>       0.12500000       0.27777778       0.00000000 </v>
   <v>       0.16666667       0.27777778       0.00000000 </v>
   <v>       0.20833333       0.27777778       0.00000000 </v>
   <v>       0.25000000       0.27777778       0.00000000 </v>
   <v>       0.29166667       0.27777778       0.00000000 </v>
   <v>       0.33333333       0.27777778       0.00000000 </v>
   <v>       0.37500000       0.27777778       0.00000000 </v>
   <v>       0.41666667       0.27777778       0.00000000 </v>
   <v>       0.45833333       0.27777778       0.00000000 </v>
   <v>       0.50000000       0.27777778       0.00000000 </v>
   <v>       0.00000000       0.30555556       0.00000000 </v>
   <v>       0.04166667       0.30555556       0.00000000 </v>
   <v>       0.08333333       0.30555556       0.00000000 </v>
   <v>       0.12500000       0.30555556       0.00000000 </v>
   <v>       0.16666667       0.30555556       0.00000000 </v>
   <v>       0.20833333       0.30555556       0.00000000 </v>
   <v>       0.25000000       0.30555556       0.00000000 </v>
   <v>       0.29166667       0.30555556       0.00000000 </v>
   <v>       0.33333333       0.30555556       0.00000000 </v>
   <v>       0.37500000       0.30555556       0.00000000 </v>
   <v>       0.41666667       0.30555556       0.00000000 </v>
   <v>       0.45833333       0.30555556       0.00000000 </v>
   <v>       0.50000000       0.30555556       0.00000000 </v>
   <v>       0.00000000       0.33333333       0.00000000 </v>
   <v>       0.04166667       0.33333333       0.00000000 </v>
   <v>       0.08333333       0.33333333       0.00000000 </v>
   <v>       0.12500000       0.33333333       0.00000000 </v>
   <v>       0.16666667       0.33333333       0.00000000 </v>
   <v>       0.20833333       0.33333333       0.00000000 </v>
   <v>       0.25000000       0.33333333       0.00000000 </v>
   <v>       0.29166667       0.33333333       0.00000000 </v>
   <v>       0.33333333       0.33333333       0.00000000 </v>
   <v>       0.37500000       0.33333333       0.00000000 </v>
   <v>       0.41666667       0.33333333       0.00000000 </v>
   <v>       0.45833333       0.33333333       0.00000000 </v>
   <v>       0.50000000       0.33333333       0.00000000 </v>
   <v>       0.00000000       0.36111111       0.00000000 </v>
   <v>       0.04166667       0.36111111       0.00000000 </v>
   <v>       0.08333333       0.36111111       0.00000000 </v>
   <v>       0.12500000       0.36111111       0.00000000 </v>
   <v>       0.16666667       0.36111111       0.00000000 </v>
   <v>       0.20833333       0.36111111       0.00000000 </v>
   <v>       0.25000000       0.36111111       0.00000000 </v>
   <v>       0.29166667       0.36111111       0.00000000 </v>
   <v>       0.33333333       0.36111111       0.00000000 </v>
   <v>       0.37500000       0.36111111       0.00000000 </v>
   <v>       0.41666667       0.36111111       0.00000000 </v>
   <v>       0.45833333       0.36111111       0.00000000 </v>
   <v>       0.50000000       0.36111111       0.00000000 </v>
   <v>       0.00000000       0.38888889       0.00000000 </v>
   <v>       0.04166667       0.38888889       0.00000000 </v>
   <v>       0.08333333       0.38888889       0.00000000 </v>
   <v>       0.12500000       0.38888889       0.00000000 </v>
   <v>       0.16666667       0.38888889       0.00000000 </v>
   <v>       0.20833333       0.38888889       0.00000000 </v>
   <v>       0.25000000       0.38888889       0.00000000 </v>
   <v>       0.29166667       0.38888889       0.00000000 </v>
   <v>       0.33333333       0.38888889       0.00000000 </v>
   <v>       0.37500000       0.38888889       0.00000000 </v>
   <v>       0.41666667       0.38888889       0.00000000 </v>
   <v>       0.45833333       0.38888889       0.00000000 </v>
   <v>       0.50000000       0.38888889       0.00000000 </v>
   <v>       0.00000000       0.41666667       0.00000000 </v>
   <v>       0.04166667       0.41666667       0.00000000 </v>
   <v>       0.08333333       0.41666667       0.00000000 </v>
   <v>       0.12500000       0.41666667       0.00000000 </v>
   <v>       0.16666667       0.41666667       0.00000000 </v>
   <v>       0.20833333       0.41666667       0.00000000 </v>
   <v>       0.25000000       0.41666667       0.00000000 </v>
   <v>       0.29166667       0.41666667       0.00000000 </v>
   <v>       0.33333333       0.41666667       0.00000000 </v>
   <v>       0.37500000       0.41666667       0.00000000 </v>
   <v>       0.41666667       0.41666667       0.00000000 </v>
   <v>       0.45833333       0.41666667       0.00000000 </v>
   <v>       0.50000000       0.41666667       0.00000000 </v>
   <v>       0.00000000       0.44444444       0.00000000 </v>
   <v>       0.04166667       0.44444444       0.00000000 </v>
   <v>       0.08333333       0.44444444       0.00000000 </v>
   <v>       0.12500000       0.44444444       0.00000000 </v>
   <v>       0.16666667       0.44444444       0.00000000 </v>
   <v>       0.20833333       0.44444444       0.00000000 </v>
   <v>       0.25000000       0.44444444       0.00000000 </v>
   <v>       0.29166667       0.44444444       0.00000000 </v>
   <v>       0.33333333       0.44444444       0.00000000 </v>
   <v>       0.37500000       0.44444444       0.00000000 </v>
   <v>       0.41666667       0.44444444       0.00000000 </v>
   <v>       0.45833333       0.44444444       0.00000000 </v>
   <v>       0.50000000       0.44444444       0.00000000 </v>
   <v>       0.00000000       0.47222222       0.00000000 </v>
   <v>       0.04166667       0.47222222       0.00000000 </v>
   <v>       0.08333333       0.47222222       0.00000000 </v>
   <v>       0.12500000       0.47222222       0.00000000 </v>
   <v>       0.16666667       0.47222222       0.00000000 </v>
   <v>       0.20833333       0.47222222       0.00000000 </v>
   <v>       0.25000000       0.47222222       0.00000000 </v>
   <v>       0.29166667       0.47222222       0.00000000 </v>
   <v>       0.33333333       0.47222222       0.00000000 </v>
   <v>       0.37500000       0.47222222       0.00000000 </v>
   <v>       0.41666667       0.47222222       0.00000000 </v>
   <v>       0.45833333       0.47222222       0.00000000 </v>
   <v>       0.50000000       0.47222222       0.00000000 </v>
   <v>       0.00000000       0.50000000       0.00000000 </v>
   <v>       0.04166667       0.50000000       0.00000000 </v>
   <v>       0.08333333       0.50000000       0.00000000 </v>
   <v>       0.12500000       0.50000000       0.00000000 </v>
   <v>       0.16666667       0.50000000       0.00000000 </v>
   <v>       0.20833333       0.50000000       0.00000000 </v>
   <v>       0.25000000       0.50000000       0.00000000 </v>
   <v>       0.29166667       0.50000000       0.00000000 </v>
   <v>       0.33333333       0.50000000       0.00000000 </v>
   <v>       0.37500000       0.50000000       0.00000000 </v>
   <v>       0.41666667       0.50000000       0.00000000 </v>
   <v>       0.45833333       0.50000000       0.00000000 </v>
   <v>       0.50000000       0.50000000       0.00000000 </v>
  </varray>
  <varray name="weights" >
   <v>       0.00115741 </v>
   <v>       0.00231481 </v>
   <v>       0.00231481 </v>
   <v>       0.00231481 </v>
   <v>       0.00231481 </v>
   <v>       0.00231481 </v>
   <v>       0.00231481 </v>
   <v>       0.00231481 </v>
   <v>       0.00231481 </v>
   <v>       0.00231481 </v>
   <v>       0.00231481 </v>
   <v>       0.00231481 </v>
   <v>       0.00115741 </v>
   <v>       0.00231481 </v>
   <v>       0.00462963 </v>
   <v>       0.00462963 </v>
   <v>       0.00462963 </v>
   <v>       0.00462963 </v>
   <v>       0.00462963 </v>
   <v>       0.00462963 </v>
   <v>       0.00462963 </v>
   <v>       0.00462963 </v>
   <v>       0.00462963 </v>
   <v>       0.00462963 </v>
   <v>       0.00462963 </v>
   <v>       0.00231481 </v>
   <v>       0.00231481 </v>
   <v>       0.00462963 </v>
   <v>       0.00462963 </v>
   <v>       0.00462963 </v>
   <v>       0.00462963 </v>
   <v>       0.00462963 </v>
   <v>       0.00462963 </v>
   <v>       0.00462963 </v>
   <v>       0.00462963 </v>
   <v>       0.00462963 </v>
   <v>       0.00462963 </v>
   <v>       0.00462963 </v>
   <v>       0.00231481 </v>
   <v>       0.00231481 </v>
   <v>       0.00462963 </v>
   <v>       0.00462963 </v>
   <v>       0.00462963 </v>
   <v>       0.00462963 </v>
   <v>       0.00462963 </v>
   <v>       0.00462963 </v>
   <v>       0.00462963 </v>
   <v>       0.00462963 </v>
   <v>       0.00462963 </v>
   <v>       0.00462963 </v>
   <v>       0.00462963 </v>
   <v>       0.00231481 </v>
   <v>       0.00231481 </v>
   <v>       0.00462963 </v>
   <v>       0.00462963 </v>
   <v>       0.00462963 </v>
   <v>       0.00462963 </v>
   <v>       0.00462963 </v>
   <v>       0.00462963 </v>
   <v>       0.00462963 </v>
   <v>       0.00462963 </v>
   <v>       0.00462963 </v>
   <v>       0.00462963 </v>
   <v>       0.00462963 </v>
   <v>       0.00231481 </v>
   <v>       0.00231481 </v>
   <v>       0.00462963 </v>
   <v>       0.00462963 </v>
   <v>       0.00462963 </v>
   <v>       0.00462963 </v>
   <v>       0.00462963 </v>
   <v>       0.00462963 </v>
   <v>       0.00462963 </v>
   <v>       0.00462963 </v>
   <v>       0.00462963 </v>
   <v>       0.00462963 </v>
   <v>       0.00462963 </v>
   <v>       0.00231481 </v>
   <v>       0.00231481 </v>
   <v>       0.00462963 </v>
   <v>       0.00462963 </v>
   <v>       0.00462963 </v>
   <v>       0.00462963 </v>
   <v>       0.00462963 </v>
   <v>       0.00462963 </v>
   <v>       0.00462963 </v>
   <v>       0.00462963 </v>
   <v>       0.00462963 </v>
   <v>       0.00462963 </v>
   <v>       0.00462963 </v>
   <v>       0.00231481 </v>
   <v>       0.00231481 </v>
   <v>       0.00462963 </v>
   <v>       0.00462963 </v>
   <v>       0.00462963 </v>
   <v>       0.00462963 </v>
   <v>       0.00462963 </v>
   <v>       0.00462963 </v>
   <v>       0.00462963 </v>
   <v>       0.00462963 </v>
   <v>       0.00462963 </v>
   <v>       0.00462963 </v>
   <v>       0.00462963 </v>
   <v>       0.00231481 </v>
   <v>       0.00231481 </v>
   <v>       0.00462963 </v>
   <v>       0.00462963 </v>
   <v>       0.00462963 </v>
   <v>       0.00462963 </v>
   <v>       0.00462963 </v>
   <v>       0.00462963 </v>
   <v>       0.00462963 </v>
   <v>       0.00462963 </v>
   <v>       0.00462963 </v>
   <v>       0.00462963 </v>
   <v>       0.00462963 </v>
   <v>       0.00231481 </v>
   <v>       0.00231481 </v>
   <v>       0.00462963 </v>
   <v>       0.00462963 </v>
   <v>       0.00462963 </v>
   <v>       0.00462963 </v>
   <v>       0.00462963 </v>
   <v>       0.00462963 </v>
   <v>       0.00462963 </v>
   <v>       0.00462963 </v>
   <v>       0.00462963 </v>
   <v>       0.00462963 </v>
   <v>       0.00462963 </v>
   <v>       0.00231481 </v>
   <v>       0.00231481 </v>
   <v>       0.00462963 </v>
   <v>       0.00462963 </v>
   <v>       0.00462963 </v>
   <v>       0.00462963 </v>
   <v>       0.00462963 </v>
   <v>       0.00462963 </v>
   <v>       0.00462963 </v>
   <v>       0.00462963 </v>
   <v>       0.00462963 </v>
   <v>       0.00462963 </v>
   <v>       0.00462963 </v>
   <v>       0.00231481 </v>
   <v>       0.00231481 </v>
   <v>       0.00462963 </v>
   <v>       0.00462963 </v>
   <v>       0.00462963 </v>
   <v>       0.00462963 </v>
   <v>       0.00462963 </v>
   <v>       0.00462963 </v>
   <v>       0.00462963 </v>
   <v>       0.00462963 </v>
   <v>       0.00462963 </v>
   <v>       0.00462963 </v>
   <v>       0.00462963 </v>
   <v>       0.00231481 </v>
   <v>       0.00231481 </v>
   <v>       0.00462963 </v>
   <v>       0.00462963 </v>
   <v>       0.00462963 </v>
   <v>       0.00462963 </v>
   <v>       0.00462963 </v>
   <v>       0.00462963 </v>
   <v>       0.00462963 </v>
   <v>       0.00462963 </v>
   <v>       0.00462963 </v>
   <v>       0.00462963 </v>
   <v>       0.00462963 </v>
   <v>       0.00231481 </v>
   <v>       0.00231481 </v>
   <v>       0.00462963 </v>
   <v>       0.00462963 </v>
   <v>       0.00462963 </v>
   <v>       0.00462963 </v>
   <v>       0.00462963 </v>
   <v>       0.00462963 </v>
   <v>       0.00462963 </v>
   <v>       0.00462963 </v>
   <v>       0.00462963 </v>
   <v>       0.00462963 </v>
   <v>       0.00462963 </v>
   <v>       0.00231481 </v>
   <v>       0.00231481 </v>
   <v>       0.00462963 </v>
   <v>       0.00462963 </v>
   <v>       0.00462963 </v>
   <v>       0.00462963 </v>
   <v>       0.00462963 </v>
   <v>       0.00462963 </v>
   <v>       0.00462963 </v>
   <v>       0.00462963 </v>
   <v>       0.00462963 </v>
   <v>       0.00462963 </v>
   <v>       0.00462963 </v>
   <v>       0.00231481 </v>
   <v>       0.00231481 </v>
   <v>       0.00462963 </v>
   <v>       0.00462963 </v>
   <v>       0.00462963 </v>
   <v>       0.00462963 </v>
   <v>       0.00462963 </v>
   <v>       0.00462963 </v>
   <v>       0.00462963 </v>
   <v>       0.00462963 </v>
   <v>       0.00462963 </v>
   <v>       0.00462963 </v>
   <v>       0.00462963 </v>
   <v>       0.00231481 </v>
   <v>       0.00231481 </v>
   <v>       0.00462963 </v>
   <v>       0.00462963 </v>
   <v>       0.00462963 </v>
   <v>       0.00462963 </v>
   <v>       0.00462963 </v>
   <v>       0.00462963 </v>
   <v>       0.00462963 </v>
   <v>       0.00462963 </v>
   <v>       0.00462963 </v>
   <v>       0.00462963 </v>
   <v>       0.00462963 </v>
   <v>       0.00231481 </v>
   <v>       0.00231481 </v>
   <v>       0.00462963 </v>
   <v>       0.00462963 </v>
   <v>       0.00462963 </v>
   <v>       0.00462963 </v>
   <v>       0.00462963 </v>
   <v>       0.00462963 </v>
   <v>       0.00462963 </v>
   <v>       0.00462963 </v>
   <v>       0.00462963 </v>
   <v>       0.00462963 </v>
   <v>       0.00462963 </v>
   <v>       0.00231481 </v>
   <v>       0.00115741 </v>
   <v>       0.00231481 </v>
   <v>       0.00231481 </v>
   <v>       0.00231481 </v>
   <v>       0.00231481 </v>
   <v>       0.00231481 </v>
   <v>       0.00231481 </v>
   <v>       0.00231481 </v>
   <v>       0.00231481 </v>
   <v>       0.00231481 </v>
   <v>       0.00231481 </v>
   <v>       0.00231481 </v>
   <v>       0.00115741 </v>
  </varray>
 </kpoints>
 <parameters>
  <separator name="general" >
   <i type="string" name="SYSTEM">gr</i>
   <i type="logical" name="LCOMPAT"> F  </i>
  </separator>
  <separator name="electronic" >
   <i type="string" name="PREC">accura</i>
   <i name="ENMAX">   2000.00000000</i>
   <i name="ENAUG">    644.87300000</i>
   <i name="EDIFF">      0.00000000</i>
   <i type="int" name="IALGO">    68</i>
   <i type="int" name="IWAVPR">    11</i>
   <i type="int" name="NBANDS">    12</i>
   <i name="NELECT">     16.00000000</i>
   <i type="int" name="TURBO">     0</i>
   <i type="int" name="IRESTART">     0</i>
   <i type="int" name="NREBOOT">     0</i>
   <i type="int" name="NMIN">     0</i>
   <i name="EREF">      0.00000000</i>
   <separator name="electronic smearing" >
    <i type="int" name="ISMEAR">     0</i>
    <i name="SIGMA">      0.05000000</i>
    <i name="KSPACING">      0.50000000</i>
    <i type="logical" name="KGAMMA"> T  </i>
   </separator>
   <separator name="electronic projectors" >
    <i type="logical" name="LREAL"> F  </i>
    <v name="ROPT">      0.00000000</v>
    <i type="int" name="LMAXPAW">  -100</i>
    <i type="int" name="LMAXMIX">     2</i>
    <i type="logical" name="NLSPLINE"> F  </i>
   </separator>
   <separator name="electronic startup" >
    <i type="int" name="ISTART">     0</i>
    <i type="int" name="ICHARG">     2</i>
    <i type="int" name="INIWAV">     1</i>
   </separator>
   <separator name="electronic spin" >
    <i type="int" name="ISPIN">     1</i>
    <i type="logical" name="LNONCOLLINEAR"> F  </i>
    <v name="MAGMOM">      1.00000000      1.00000000      1.00000000      1.00000000</v>
    <i name="NUPDOWN">     -1.00000000</i>
    <i type="logical" name="LSORBIT"> F  </i>
    <v name="SAXIS">      0.00000000      0.00000000      1.00000000</v>
    <i type="logical" name="LSPIRAL"> F  </i>
    <v name="QSPIRAL">      0.00000000      0.00000000      0.00000000</v>
    <i type="logical" name="LZEROZ"> F  </i>
   </separator>
   <separator name="electronic exchange-correlation" >
    <i type="logical" name="LASPH"> F  </i>
    <i type="logical" name="LMETAGGA"> F  </i>
   </separator>
   <separator name="electronic convergence" >
    <i type="int" name="NELM">   100</i>
    <i type="int" name="NELMDL">    -3</i>
    <i type="int" name="NELMIN">     5</i>
    <i name="ENINI">   2000.00000000</i>
    <separator name="electronic convergence detail" >
     <i type="logical" name="LDIAG"> T  </i>
     <i type="logical" name="LSUBROT"> F  </i>
     <i name="WEIMIN">      0.00100000</i>
     <i name="EBREAK">      0.00000000</i>
     <i name="DEPER">      0.30000000</i>
     <i type="int" name="NRMM">     4</i>
     <i name="TIME">      0.40000000</i>
    </separator>
   </separator>
   <separator name="electronic mixer" >
    <i name="AMIX">      0.40000000</i>
    <i name="BMIX">      1.00000000</i>
    <i name="AMIN">      0.10000000</i>
    <i name="AMIX_MAG">      1.60000000</i>
    <i name="BMIX_MAG">      1.00000000</i>
    <separator name="electronic mixer details" >
     <i type="int" name="IMIX">     4</i>
     <i type="int" name="MAXMIX">   -45</i>
     <i name="WC">    100.00000000</i>
     <i type="int" name="INIMIX">     1</i>
     <i type="int" name="MIXPRE">     1</i>
     <i type="int" name="MREMOVE">     5</i>
    </separator>
   </separator>
   <separator name="electronic dipolcorrection" >
    <i type="logical" name="LDIPOL"> F  </i>
    <i type="logical" name="LMONO"> F  </i>
    <i type="int" name="IDIPOL">     0</i>
    <i name="EPSILON">      1.00000000</i>
    <v name="DIPOL">   -100.00000000   -100.00000000   -100.00000000</v>
    <i name="EFIELD">      0.00000000</i>
   </separator>
  </separator>
  <separator name="grids" >
   <i type="int" name="NGX">    64</i>
   <i type="int" name="NGY">    36</i>
   <i type="int" name="NGZ">   294</i>
   <i type="int" name="NGXF">   128</i>
   <i type="int" name="NGYF">    72</i>
   <i type="int" name="NGZF">   588</i>
   <i type="logical" name="ADDGRID"> F  </i>
  </separator>
  <separator name="ionic" >
   <i type="int" name="NSW">   400</i>
   <i type="int" name="IBRION">     1</i>
   <i type="int" name="ISIF">     2</i>
   <i name="PSTRESS">      0.00000000</i>
   <i name="EDIFFG">     -0.00000100</i>
   <i type="int" name="NFREE">     0</i>
   <i name="POTIM">      0.50000000</i>
   <i name="SMASS">     -3.00000000</i>
   <i name="SCALEE">      1.00000000</i>
  </separator>
  <separator name="ionic md" >
   <i name="TEBEG">      0.00010000</i>
   <i name="TEEND">      0.00010000</i>
   <i type="int" name="NBLOCK">     1</i>
   <i type="int" name="KBLOCK">   400</i>
   <i type="int" name="NPACO">   256</i>
   <i name="APACO">     16.00000000</i>
  </separator>
  <separator name="symmetry" >
   <i type="int" name="ISYM">     2</i>
   <i name="SYMPREC">      0.00001000</i>
  </separator>
  <separator name="dos" >
   <i type="logical" name="LORBIT"> F  </i>
   <v name="RWIGS">     -1.00000000</v>
   <i type="int" name="NEDOS">   301</i>
   <i name="EMIN">     10.00000000</i>
   <i name="EMAX">    -10.00000000</i>
   <i name="EFERMI">      0.00000000</i>
  </separator>
  <separator name="writing" >
   <i type="int" name="NWRITE">     2</i>
   <i type="logical" name="LWAVE"> F  </i>
   <i type="logical" name="LCHARG"> F  </i>
   <i type="logical" name="LPARD"> F  </i>
   <i type="logical" name="LVTOT"> F  </i>
   <i type="logical" name="LVHAR"> F  </i>
   <i type="logical" name="LELF"> F  </i>
   <i type="logical" name="LOPTICS"> F  </i>
   <v name="STM">      0.00000000      0.00000000      0.00000000      0.00000000      0.00000000      0.00000000      0.00000000</v>
  </separator>
  <separator name="performance" >
   <i type="int" name="NPAR">     4</i>
   <i type="int" name="NSIM">     4</i>
   <i type="int" name="NBLK">    -1</i>
   <i type="logical" name="LPLANE"> T  </i>
   <i type="logical" name="LSCALAPACK"> F  </i>
   <i type="logical" name="LSCAAWARE"> F  </i>
   <i type="logical" name="LSCALU"> F  </i>
   <i type="logical" name="LASYNC"> F  </i>
   <i type="logical" name="LORBITALREAL"> F  </i>
  </separator>
  <separator name="miscellaneous" >
   <i type="int" name="IDIOT">     3</i>
   <i type="logical" name="LMUSIC"> F  </i>
   <v name="POMASS">     12.01100000</v>
   <v name="DARWINR">      0.00000000</v>
   <v name="DARWINV">      1.00000000</v>
   <i type="logical" name="LCORR"> T  </i>
  </separator>
  <i type="logical" name="GGA_COMPAT"> T  </i>
  <i type="logical" name="LBERRY"> F  </i>
  <i type="int" name="ICORELEVEL">     0</i>
  <i type="logical" name="LDAU"> F  </i>
  <i type="int" name="I_CONSTRAINED_M">     0</i>
  <separator name="electronic exchange-correlation" >
   <i type="string" name="GGA">--</i>
   <i type="int" name="VOSKOWN">     0</i>
   <i type="logical" name="LHFCALC"> F  </i>
   <i type="string" name="PRECFOCK"></i>
   <i type="logical" name="LSYMGRAD"> F  </i>
   <i type="logical" name="LHFONE"> F  </i>
   <i type="logical" name="LRHFCALC"> F  </i>
   <i type="logical" name="LTHOMAS"> F  </i>
   <i type="logical" name="LMODELHF"> F  </i>
   <i name="ENCUT4O">     -1.00000000</i>
   <i type="int" name="EXXOEP">     0</i>
   <i type="int" name="FOURORBIT">     0</i>
   <i name="AEXX">      0.00000000</i>
   <i name="HFALPHA">      0.00000000</i>
   <i name="MCALPHA">      0.00000000</i>
   <i name="ALDAX">      1.00000000</i>
   <i name="AGGAX">      1.00000000</i>
   <i name="ALDAC">      1.00000000</i>
   <i name="AGGAC">      1.00000000</i>
   <i type="int" name="NKREDX">     1</i>
   <i type="int" name="NKREDY">     1</i>
   <i type="int" name="NKREDZ">     1</i>
   <i type="logical" name="SHIFTRED"> F  </i>
   <i type="logical" name="ODDONLY"> F  </i>
   <i type="logical" name="EVENONLY"> F  </i>
   <i type="int" name="LMAXFOCK">     0</i>
   <i type="int" name="NMAXFOCKAE">     0</i>
   <i type="logical" name="LFOCKAEDFT"> F  </i>
   <i name="HFSCREEN">      0.00000000</i>
   <i name="HFSCREENC">      0.00000000</i>
   <i type="int" name="NBANDSGWLOW">     0</i>
  </separator>
  <separator name="vdW DFT" >
   <i type="logical" name="LUSE_VDW"> F  </i>
   <i name="Zab_VDW">     -0.84910000</i>
   <i name="PARAM1">      0.12340000</i>
   <i name="PARAM2">      1.00000000</i>
   <i name="PARAM3">      0.00000000</i>
  </separator>
  <separator name="model GW" >
   <i type="int" name="MODEL_GW">     0</i>
   <i name="MODEL_EPS0">     31.62568521</i>
   <i name="MODEL_ALPHA">      1.00000000</i>
  </separator>
  <separator name="linear response parameters" >
   <i type="logical" name="LEPSILON"> F  </i>
   <i type="logical" name="LRPA"> F  </i>
   <i type="logical" name="LNABLA"> F  </i>
   <i type="logical" name="LVEL"> F  </i>
   <i type="int" name="KINTER">     0</i>
   <i name="CSHIFT">      0.10000000</i>
   <i name="OMEGAMAX">     -1.00000000</i>
   <i name="DEG_THRESHOLD">      0.00200000</i>
  </separator>
  <separator name="orbital magnetization" >
   <i type="logical" name="NUCIND"> F  </i>
   <v name="MAGPOS">      0.00000000      0.00000000      0.00000000</v>
   <i type="logical" name="LNICSALL"> T  </i>
   <i type="logical" name="ORBITALMAG"> F  </i>
   <i type="logical" name="LMAGBLOCH"> F  </i>
   <i type="logical" name="LCHIMAG"> F  </i>
   <i type="logical" name="LGAUGE"> T  </i>
   <i type="int" name="MAGATOM">     0</i>
   <v name="MAGDIPOL">      0.00000000      0.00000000      0.00000000</v>
   <v name="AVECCONST">      0.00000000      0.00000000      0.00000000</v>
  </separator>
  <separator name="response functions" >
   <i type="logical" name="LADDER"> F  </i>
   <i type="logical" name="LFXC"> F  </i>
   <i type="logical" name="LHARTREE"> T  </i>
   <i type="int" name="IBSE">     0</i>
   <i type="logical" name="LTCTE"> F  </i>
   <i type="logical" name="LTETE"> F  </i>
   <i type="logical" name="LTRIPLET"> F  </i>
   <i type="logical" name="LFXCEPS"> F  </i>
   <i type="logical" name="LFXHEG"> F  </i>
   <i type="logical" name="L2ORDER"> F  </i>
   <i type="logical" name="LUSEW"> F  </i>
   <i name="ENCUTGW">     -2.00000000</i>
   <i name="ENCUTGWSOFT">     -2.00000000</i>
   <i name="ENCUTLF">     -1.00000000</i>
   <i type="int" name="LMAXMP2">    -1</i>
   <i name="SCISSOR">      0.00000000</i>
   <i type="int" name="NOMEGA">     0</i>
   <i type="int" name="NOMEGAR">     0</i>
   <i type="int" name="NBANDSGW">    -1</i>
   <i type="int" name="NBANDSO">    -1</i>
   <i type="int" name="NBANDSV">    -1</i>
   <i type="int" name="NELM">   100</i>
   <i type="int" name="DIM">     3</i>
   <i type="int" name="ANTIRES">     0</i>
   <i name="OMEGAMAX">    -30.00000000</i>
   <i name="OMEGAMIN">    -30.00000000</i>
   <i name="OMEGATL">   -200.00000000</i>
   <i type="int" name="OMEGAGRID">     0</i>
   <i name="CSHIFT">     -0.10000000</i>
   <i type="logical" name="SELFENERGY"> F  </i>
   <i type="logical" name="LSPECTRAL"> F  </i>
   <i type="logical" name="ODDONLYGW"> F  </i>
   <i type="logical" name="EVENONLYGW"> F  </i>
   <i type="int" name="NKREDLFX">     1</i>
   <i type="int" name="NKREDLFY">     1</i>
   <i type="int" name="NKREDLFZ">     1</i>
   <i type="int" name="MAXMEM">  1800</i>
   <i type="int" name="TELESCOPE">     0</i>
   <i type="int" name="TAUPAR">     1</i>
  </separator>
  <separator name="External order field" >
   <i name="OFIELD_KAPPA">      0.00000000</i>
   <v name="OFIELD_K">      0.00000000      0.00000000      0.00000000</v>
   <i name="OFIELD_Q6_NEAR">      0.00000000</i>
   <i name="OFIELD_Q6_FAR">      0.00000000</i>
   <i name="OFIELD_A">      0.00000000</i>
  </separator>
 </parameters>
 <atominfo>
  <atoms>       4 </atoms>
  <types>       1 </types>
  <array name="atoms" >
   <dimension dim="1">ion</dimension>
   <field type="string">element</field>
   <field type="int">atomtype</field>
   <set>
    <rc><c>C </c><c>   1</c></rc>
    <rc><c>C </c><c>   1</c></rc>
    <rc><c>C </c><c>   1</c></rc>
    <rc><c>C </c><c>   1</c></rc>
   </set>
  </array>
  <array name="atomtypes" >
   <dimension dim="1">type</dimension>
   <field type="int">atomspertype</field>
   <field type="string">element</field>
   <field>mass</field>
   <field>valence</field>
   <field type="string">pseudopotential</field>
   <set>
    <rc><c>   4</c><c>C </c><c>     12.01100000</c><c>      4.00000000</c><c> PAW_PBE C 08Apr2002                    </c></rc>
   </set>
  </array>
 </atominfo>
 <structure name="initialpos" >
  <crystal>
   <varray name="basis" >
    <v>       4.31748752       0.00000000       0.00000000 </v>
    <v>       0.00000000       2.46269244       0.00000000 </v>
    <v>       0.00000000       0.00000000      19.82930151 </v>
   </varray>
   <i name="volume">    210.83790140 </i>
   <varray name="rec_basis" >
    <v>       0.23161619       0.00000000       0.00000000 </v>
    <v>       0.00000000       0.40605964       0.00000000 </v>
    <v>       0.00000000       0.00000000       0.05043042 </v>
   </varray>
  </crystal>
  <varray name="positions" >
   <v>       0.99975412       0.00000000       0.00000000 </v>
   <v>       0.16691255       0.50000000       0.00000000 </v>
   <v>       0.49975412       0.50000000       0.00000000 </v>
   <v>       0.66691255       0.00000000       0.00000000 </v>
  </varray>
 </structure>
 <calculation>
  <scstep>
   <time name="dav">  295.83  438.61</time>
   <time name="total">  298.41  448.58</time>
   <energy>
    <i name="alphaZ">      6.18334092 </i>
    <i name="ewald">   2529.22070042 </i>
    <i name="hartreedc">  -2956.32495933 </i>
    <i name="XCdc">     54.98103905 </i>
    <i name="pawpsdc">    151.32577238 </i>
    <i name="pawaedc">   -155.92769107 </i>
    <i name="eentropy">     -0.00220406 </i>
    <i name="bandstr">    -29.75018217 </i>
    <i name="atom">    588.62352690 </i>
    <i name="e_fr_energy">    188.32934306 </i>
    <i name="e_wo_entrp">    188.33154712 </i>
    <i name="e_0_energy">    188.33044509 </i>
   </energy>
  </scstep>
  <scstep>
   <time name="dav">  442.81  486.18</time>
   <time name="total">  442.82  486.21</time>
   <energy>
    <i name="e_fr_energy">     -8.68424814 </i>
    <i name="e_wo_entrp">     -8.68390027 </i>
    <i name="e_0_energy">     -8.68407421 </i>
   </energy>
  </scstep>
  <scstep>
   <time name="dav">  339.97  341.18</time>
   <time name="total">  370.28  371.54</time>
   <energy>
    <i name="e_fr_energy">    -38.26977810 </i>
    <i name="e_wo_entrp">    -38.26977809 </i>
    <i name="e_0_energy">    -38.26977809 </i>
   </energy>
  </scstep>
  <scstep>
   <time name="diag">   79.43   79.47</time>
   <time name="diis">  344.36  345.11</time>
   <time name="orth">    3.09    3.09</time>
   <time name="total">  459.68  460.48</time>
   <energy>
    <i name="e_fr_energy">    -37.67356826 </i>
    <i name="e_wo_entrp">    -37.67354397 </i>
    <i name="e_0_energy">    -37.67355611 </i>
   </energy>
  </scstep>
  <scstep>
   <time name="diag">   79.51   79.55</time>
   <time name="diis">  336.04  336.13</time>
   <time name="orth">    3.10    3.11</time>
   <time name="total">  451.35  487.84</time>
   <energy>
    <i name="e_fr_energy">    -36.92453704 </i>
    <i name="e_wo_entrp">    -36.92449948 </i>
    <i name="e_0_energy">    -36.92451826 </i>
   </energy>
  </scstep>
  <scstep>
   <time name="diag">   79.51   79.54</time>
   <time name="diis">  369.27  369.89</time>
   <time name="orth">    3.09    3.10</time>
   <time name="total">  484.55  506.85</time>
   <energy>
    <i name="e_fr_energy">    -36.92563551 </i>
    <i name="e_wo_entrp">    -36.92560770 </i>
    <i name="e_0_energy">    -36.92562161 </i>
   </energy>
  </scstep>
  <scstep>
   <time name="diag">   79.17   79.55</time>
   <time name="diis">  337.19  337.42</time>
   <time name="orth">    3.07    3.08</time>
   <time name="total">  452.04  452.67</time>
   <energy>
    <i name="e_fr_energy">    -36.91634699 </i>
    <i name="e_wo_entrp">    -36.91632162 </i>
    <i name="e_0_energy">    -36.91633431 </i>
   </energy>
  </scstep>
  <scstep>
   <time name="diag">   79.51   79.57</time>
   <time name="diis">  337.08  338.05</time>
   <time name="orth">    3.10    3.10</time>
   <time name="total">  452.47  453.52</time>
   <energy>
    <i name="e_fr_energy">    -36.91094956 </i>
    <i name="e_wo_entrp">    -36.91092367 </i>
    <i name="e_0_energy">    -36.91093662 </i>
   </energy>
  </scstep>
  <scstep>
   <time name="diag">   79.48   79.50</time>
   <time name="diis">  323.90  324.13</time>
   <time name="orth">    3.09    3.09</time>
   <time name="total">  439.17  439.52</time>
   <energy>
    <i name="e_fr_energy">    -36.91063442 </i>
    <i name="e_wo_entrp">    -36.91060755 </i>
    <i name="e_0_energy">    -36.91062098 </i>
   </energy>
  </scstep>
  <scstep>
   <time name="diag">   79.42   79.45</time>
   <time name="diis">  324.17  324.73</time>
   <time name="orth">    3.09    3.09</time>
   <time name="total">  439.42  440.04</time>
   <energy>
    <i name="e_fr_energy">    -36.91052624 </i>
    <i name="e_wo_entrp">    -36.91049994 </i>
    <i name="e_0_energy">    -36.91051309 </i>
   </energy>
  </scstep>
  <scstep>
   <time name="diag">   79.43   79.49</time>
   <time name="diis">  326.46  326.59</time>
   <time name="orth">    3.07    3.07</time>
   <time name="total">  441.72  441.94</time>
   <energy>
    <i name="e_fr_energy">    -36.91300272 </i>
    <i name="e_wo_entrp">    -36.91297668 </i>
    <i name="e_0_energy">    -36.91298970 </i>
   </energy>
  </scstep>
  <scstep>
   <time name="diag">   79.50   79.54</time>
   <time name="diis">  325.63  325.79</time>
   <time name="orth">    3.11    3.11</time>
   <time name="total">  441.01  441.22</time>
   <energy>
    <i name="e_fr_energy">    -36.91346413 </i>
    <i name="e_wo_entrp">    -36.91343785 </i>
    <i name="e_0_energy">    -36.91345099 </i>
   </energy>
  </scstep>
  <scstep>
   <time name="diag">   79.37   79.41</time>
   <time name="diis">  333.68  334.05</time>
   <time name="orth">    3.09    3.09</time>
   <time name="total">  448.99  449.39</time>
   <energy>
    <i name="e_fr_energy">    -36.91371183 </i>
    <i name="e_wo_entrp">    -36.91368552 </i>
    <i name="e_0_energy">    -36.91369868 </i>
   </energy>
  </scstep>
  <scstep>
   <time name="diag">   79.50   79.53</time>
   <time name="diis">  328.83  328.96</time>
   <time name="orth">    3.07    3.07</time>
   <time name="total">  444.03  445.20</time>
   <energy>
    <i name="e_fr_energy">    -36.91379481 </i>
    <i name="e_wo_entrp">    -36.91376856 </i>
    <i name="e_0_energy">    -36.91378168 </i>
   </energy>
  </scstep>
  <scstep>
   <time name="diag">   79.47   79.50</time>
   <time name="diis">  329.51  329.66</time>
   <time name="orth">    3.09    3.09</time>
   <time name="total">  444.90  445.08</time>
   <energy>
    <i name="e_fr_energy">    -36.91380463 </i>
    <i name="e_wo_entrp">    -36.91377836 </i>
    <i name="e_0_energy">    -36.91379149 </i>
   </energy>
  </scstep>
  <scstep>
   <time name="diag">   79.56   79.60</time>
   <time name="diis">  324.82  325.55</time>
   <time name="orth">    3.09    3.09</time>
   <time name="total">  440.14  441.03</time>
   <energy>
    <i name="e_fr_energy">    -36.91381647 </i>
    <i name="e_wo_entrp">    -36.91379019 </i>
    <i name="e_0_energy">    -36.91380333 </i>
   </energy>
  </scstep>
  <scstep>
   <time name="diag">   79.30   79.54</time>
   <time name="diis">  337.81  338.32</time>
   <time name="orth">    3.08    3.09</time>
   <time name="total">  452.97  453.75</time>
   <energy>
    <i name="e_fr_energy">    -36.91382116 </i>
    <i name="e_wo_entrp">    -36.91379489 </i>
    <i name="e_0_energy">    -36.91380802 </i>
   </energy>
  </scstep>
  <scstep>
   <time name="diag">   79.42   79.55</time>
   <time name="diis">  323.14  323.84</time>
   <time name="orth">    3.07    3.07</time>
   <time name="total">  438.37  439.29</time>
   <energy>
    <i name="e_fr_energy">    -36.91382235 </i>
    <i name="e_wo_entrp">    -36.91379607 </i>
    <i name="e_0_energy">    -36.91380921 </i>
   </energy>
  </scstep>
  <scstep>
   <time name="diag">   79.28   79.32</time>
   <time name="diis">  331.50  331.58</time>
   <time name="orth">    3.11    3.11</time>
   <time name="total">  446.58  446.75</time>
   <energy>
    <i name="e_fr_energy">    -36.91382307 </i>
    <i name="e_wo_entrp">    -36.91379680 </i>
    <i name="e_0_energy">    -36.91380993 </i>
   </energy>
  </scstep>
  <scstep>
   <time name="diag">   79.27   79.31</time>
   <time name="diis">  259.48  259.56</time>
   <time name="orth">    3.10    3.10</time>
   <time name="total">  374.66  379.15</time>
   <energy>
    <i name="e_fr_energy">    -36.91382312 </i>
    <i name="e_wo_entrp">    -36.91379684 </i>
    <i name="e_0_energy">    -36.91380998 </i>
   </energy>
  </scstep>
  <scstep>
   <time name="diag">   79.30   79.33</time>
   <time name="diis">  253.02  253.08</time>
   <time name="orth">    3.07    3.07</time>
   <time name="total">  368.14  368.32</time>
   <energy>
    <i name="e_fr_energy">    -36.91382314 </i>
    <i name="e_wo_entrp">    -36.91379686 </i>
    <i name="e_0_energy">    -36.91381000 </i>
   </energy>
  </scstep>
  <scstep>
   <time name="diag">   78.99   79.31</time>
   <time name="diis">  224.65  225.72</time>
   <time name="orth">    3.07    3.07</time>
   <time name="total">  339.31  340.96</time>
   <energy>
    <i name="e_fr_energy">    -36.91382314 </i>
    <i name="e_wo_entrp">    -36.91379686 </i>
    <i name="e_0_energy">    -36.91381000 </i>
   </energy>
  </scstep>
  <scstep>
   <time name="diag">   79.25   79.31</time>
   <time name="diis">  213.71  213.80</time>
   <time name="orth">    3.07    3.07</time>
   <time name="total">  328.82  329.05</time>
   <energy>
    <i name="e_fr_energy">    -36.91382314 </i>
    <i name="e_wo_entrp">    -36.91379686 </i>
    <i name="e_0_energy">    -36.91381000 </i>
   </energy>
  </scstep>
  <scstep>
   <time name="diag">   79.24   79.41</time>
   <time name="diis">  201.60  202.58</time>
   <time name="orth">    3.12    3.14</time>
   <time name="total">  316.57  318.27</time>
   <energy>
    <i name="e_fr_energy">    -36.91382314 </i>
    <i name="e_wo_entrp">    -36.91379686 </i>
    <i name="e_0_energy">    -36.91381000 </i>
   </energy>
  </scstep>
  <scstep>
   <time name="diag">   79.30   79.41</time>
   <time name="diis">  193.76  193.82</time>
   <time name="orth">    3.10    3.10</time>
   <time name="total">  278.66  278.83</time>
   <energy>
    <i name="alphaZ">      6.18334092 </i>
    <i name="ewald">   2529.22070042 </i>
    <i name="hartreedc">  -3023.30912733 </i>
    <i name="XCdc">     57.36432684 </i>
    <i name="pawpsdc">    273.61365295 </i>
    <i name="pawaedc">   -278.74676311 </i>
    <i name="eentropy">     -0.00002628 </i>
    <i name="bandstr">   -189.86345446 </i>
    <i name="atom">    588.62352690 </i>
    <i name="e_fr_energy">    -36.91382314 </i>
    <i name="e_wo_entrp">    -36.91379686 </i>
    <i name="e_0_energy">    -36.91381000 </i>
   </energy>
  </scstep>
  <structure>
   <crystal>
    <varray name="basis" >
     <v>       4.31748752       0.00000000       0.00000000 </v>
     <v>       0.00000000       2.46269244       0.00000000 </v>
     <v>       0.00000000       0.00000000      19.82930151 </v>
    </varray>
    <i name="volume">    210.83790140 </i>
    <varray name="rec_basis" >
     <v>       0.23161619       0.00000000       0.00000000 </v>
     <v>       0.00000000       0.40605964       0.00000000 </v>
     <v>       0.00000000       0.00000000       0.05043042 </v>
    </varray>
   </crystal>
   <varray name="positions" >
    <v>       0.99975412       0.00000000       0.00000000 </v>
    <v>       0.16691255       0.50000000       0.00000000 </v>
    <v>       0.49975412       0.50000000       0.00000000 </v>
    <v>       0.66691255       0.00000000       0.00000000 </v>
   </varray>
  </structure>
  <varray name="forces" >
   <v>      -0.00270092       0.00000000      -0.00000000 </v>
   <v>       0.00270092      -0.00000000       0.00000000 </v>
   <v>      -0.00270092       0.00000000      -0.00000000 </v>
   <v>       0.00270092       0.00000000       0.00000000 </v>
  </varray>
  <varray name="stress" >
   <v>     -17.26077690       0.00000000       0.00000000 </v>
   <v>       0.00000000       0.01748316       0.00000000 </v>
   <v>       0.00000000       0.00000000      -0.01021323 </v>
  </varray>
  <energy>
   <i name="e_fr_energy">    -36.91382314 </i>
   <i name="e_wo_entrp">    -36.91381000 </i>
   <i name="e_0_energy">     -0.00002628 </i>
  </energy>
  <time name="totalsc">10395.3710668.66</time>
 </calculation>
 <calculation>
  <scstep>
   <time name="dav">  307.39  307.80</time>
   <time name="total">  340.22  340.64</time>
   <energy>
    <i name="alphaZ">      6.18334092 </i>
    <i name="ewald">   2529.21953556 </i>
    <i name="hartreedc">  -3023.30862038 </i>
    <i name="XCdc">     57.36429364 </i>
    <i name="pawpsdc">    273.61365358 </i>
    <i name="pawaedc">   -278.74676371 </i>
    <i name="eentropy">     -0.00002885 </i>
    <i name="bandstr">   -189.86275870 </i>
    <i name="atom">    588.62352690 </i>
    <i name="e_fr_energy">    -36.91382104 </i>
    <i name="e_wo_entrp">    -36.91379218 </i>
    <i name="e_0_energy">    -36.91380661 </i>
   </energy>
  </scstep>
  <scstep>
   <time name="diag">   79.58   79.64</time>
   <time name="diis">  322.74  322.85</time>
   <time name="orth">    3.09    3.09</time>
   <time name="total">  438.34  438.52</time>
   <energy>
    <i name="e_fr_energy">    -36.91382115 </i>
    <i name="e_wo_entrp">    -36.91379238 </i>
    <i name="e_0_energy">    -36.91380676 </i>
   </energy>
  </scstep>
  <scstep>
   <time name="diag">   79.51   79.59</time>
   <time name="diis">  328.89  328.99</time>
   <time name="orth">    3.09    3.09</time>
   <time name="total">  444.36  444.59</time>
   <energy>
    <i name="e_fr_energy">    -36.91382106 </i>
    <i name="e_wo_entrp">    -36.91379245 </i>
    <i name="e_0_energy">    -36.91380675 </i>
   </energy>
  </scstep>
  <scstep>
   <time name="diag">   79.57   79.62</time>
   <time name="diis">  336.38  336.49</time>
   <time name="orth">    3.07    3.07</time>
   <time name="total">  451.90  452.08</time>
   <energy>
    <i name="e_fr_energy">    -36.91382105 </i>
    <i name="e_wo_entrp">    -36.91379240 </i>
    <i name="e_0_energy">    -36.91380672 </i>
   </energy>
  </scstep>
  <scstep>
   <time name="diag">   79.65   79.67</time>
   <time name="diis">  333.19  333.31</time>
   <time name="orth">    3.07    3.07</time>
   <time name="total">  448.84  449.32</time>
   <energy>
    <i name="e_fr_energy">    -36.91382105 </i>
    <i name="e_wo_entrp">    -36.91379239 </i>
    <i name="e_0_energy">    -36.91380672 </i>
   </energy>
  </scstep>
  <scstep>
   <time name="diag">   79.53   79.56</time>
   <time name="diis">  272.79  273.03</time>
   <time name="orth">    3.09    3.09</time>
   <time name="total">  388.19  388.54</time>
   <energy>
    <i name="e_fr_energy">    -36.91382105 </i>
    <i name="e_wo_entrp">    -36.91379240 </i>
    <i name="e_0_energy">    -36.91380672 </i>
   </energy>
  </scstep>
  <scstep>
   <time name="diag">   79.65   79.68</time>
   <time name="diis">  217.76  217.91</time>
   <time name="orth">    3.09    3.09</time>
   <time name="total">  303.01  303.19</time>
   <energy>
    <i name="alphaZ">      6.18334092 </i>
    <i name="ewald">   2529.21953556 </i>
    <i name="hartreedc">  -3023.30817203 </i>
    <i name="XCdc">     57.36427421 </i>
    <i name="pawpsdc">    273.61163499 </i>
    <i name="pawaedc">   -278.74473640 </i>
    <i name="eentropy">     -0.00002865 </i>
    <i name="bandstr">   -189.86319656 </i>
    <i name="atom">    588.62352690 </i>
    <i name="e_fr_energy">    -36.91382105 </i>
    <i name="e_wo_entrp">    -36.91379240 </i>
    <i name="e_0_energy">    -36.91380672 </i>
   </energy>
  </scstep>
  <structure>
   <crystal>
    <varray name="basis" >
     <v>       4.31748752       0.00000000       0.00000000 </v>
     <v>       0.00000000       2.46269244       0.00000000 </v>
     <v>       0.00000000       0.00000000      19.82930151 </v>
    </varray>
    <i name="volume">    210.83790140 </i>
    <varray name="rec_basis" >
     <v>       0.23161619       0.00000000       0.00000000 </v>
     <v>       0.00000000       0.40605964       0.00000000 </v>
     <v>       0.00000000       0.00000000       0.05043042 </v>
    </varray>
   </crystal>
   <varray name="positions" >
    <v>       0.99972394       0.00000000      -0.00000000 </v>
    <v>       0.16694273       0.50000000       0.00000000 </v>
    <v>       0.49972394       0.50000000      -0.00000000 </v>
    <v>       0.66694273       0.00000000       0.00000000 </v>
   </varray>
  </structure>
  <varray name="forces" >
   <v>       0.01067670       0.00000000      -0.00000000 </v>
   <v>      -0.01067670       0.00000000       0.00000000 </v>
   <v>       0.01067670      -0.00000000      -0.00000000 </v>
   <v>      -0.01067670       0.00000000       0.00000000 </v>
  </varray>
  <varray name="stress" >
   <v>     -17.22663525       0.00000000       0.00000000 </v>
   <v>       0.00000000      -0.02559705       0.00000000 </v>
   <v>       0.00000000       0.00000000      -0.01026398 </v>
  </varray>
  <energy>
   <i name="e_fr_energy">    -36.91382105 </i>
   <i name="e_wo_entrp">    -36.91380672 </i>
   <i name="e_0_energy">     -0.00002865 </i>
  </energy>
  <time name="totalsc"> 2917.17 2926.06</time>
 </calculation>
 <calculation>
  <scstep>
   <time name="dav">  312.95  313.85</time>
   <time name="total">  345.66  346.72</time>
   <energy>
    <i name="alphaZ">      6.18334092 </i>
    <i name="ewald">   2529.22046332 </i>
    <i name="hartreedc">  -3023.30856259 </i>
    <i name="XCdc">     57.36430044 </i>
    <i name="pawpsdc">    273.61162715 </i>
    <i name="pawaedc">   -278.74472858 </i>
    <i name="eentropy">     -0.00002659 </i>
    <i name="bandstr">   -189.86376423 </i>
    <i name="atom">    588.62352690 </i>
    <i name="e_fr_energy">    -36.91382326 </i>
    <i name="e_wo_entrp">    -36.91379668 </i>
    <i name="e_0_energy">    -36.91380997 </i>
   </energy>
  </scstep>
  <scstep>
   <time name="diag">   79.25   79.63</time>
   <time name="diis">  322.68  324.28</time>
   <time name="orth">    3.06    3.09</time>
   <time name="total">  437.67  439.82</time>
   <energy>
    <i name="e_fr_energy">    -36.91382334 </i>
    <i name="e_wo_entrp">    -36.91379668 </i>
    <i name="e_0_energy">    -36.91381001 </i>
   </energy>
  </scstep>
  <scstep>
   <time name="diag">   79.22   79.61</time>
   <time name="diis">  325.77  326.85</time>
   <time name="orth">    3.07    3.07</time>
   <time name="total">  440.83  442.54</time>
   <energy>
    <i name="e_fr_energy">    -36.91382328 </i>
    <i name="e_wo_entrp">    -36.91379651 </i>
    <i name="e_0_energy">    -36.91380990 </i>
   </energy>
  </scstep>
  <scstep>
   <time name="diag">   79.62   79.65</time>
   <time name="diis">  335.83  335.97</time>
   <time name="orth">    3.09    3.09</time>
   <time name="total">  451.43  451.62</time>
   <energy>
    <i name="e_fr_energy">    -36.91382328 </i>
    <i name="e_wo_entrp">    -36.91379654 </i>
    <i name="e_0_energy">    -36.91380991 </i>
   </energy>
  </scstep>
  <scstep>
   <time name="diag">   79.60   79.65</time>
   <time name="diis">  316.19  316.29</time>
   <time name="orth">    3.09    3.09</time>
   <time name="total">  431.72  431.88</time>
   <energy>
    <i name="e_fr_energy">    -36.91382328 </i>
    <i name="e_wo_entrp">    -36.91379654 </i>
    <i name="e_0_energy">    -36.91380991 </i>
   </energy>
  </scstep>
  <scstep>
   <time name="diag">   79.61   79.66</time>
   <time name="diis">  230.82  231.96</time>
   <time name="orth">    3.06    3.09</time>
   <time name="total">  346.17  347.54</time>
   <energy>
    <i name="e_fr_energy">    -36.91382328 </i>
    <i name="e_wo_entrp">    -36.91379654 </i>
    <i name="e_0_energy">    -36.91380991 </i>
   </energy>
  </scstep>
  <scstep>
   <time name="diag">   79.63   79.67</time>
   <time name="diis">  217.02  217.20</time>
   <time name="orth">    3.07    3.09</time>
   <time name="total">  332.42  332.82</time>
   <energy>
    <i name="e_fr_energy">    -36.91382328 </i>
    <i name="e_wo_entrp">    -36.91379654 </i>
    <i name="e_0_energy">    -36.91380991 </i>
   </energy>
  </scstep>
  <scstep>
   <time name="diag">   79.17   79.59</time>
   <time name="diis">  206.66  207.66</time>
   <time name="orth">    3.08    3.11</time>
   <time name="total">  321.50  323.31</time>
   <energy>
    <i name="e_fr_energy">    -36.91382328 </i>
    <i name="e_wo_entrp">    -36.91379653 </i>
    <i name="e_0_energy">    -36.91380991 </i>
   </energy>
  </scstep>
  <scstep>
   <time name="diag">   79.21   79.59</time>
   <time name="diis">  196.77  197.71</time>
   <time name="orth">    3.07    3.07</time>
   <time name="total">  311.70  313.26</time>
   <energy>
    <i name="e_fr_energy">    -36.91382328 </i>
    <i name="e_wo_entrp">    -36.91379654 </i>
    <i name="e_0_energy">    -36.91380991 </i>
   </energy>
  </scstep>
  <scstep>
   <time name="diag">   79.29   79.68</time>
   <time name="diis">  188.96  189.89</time>
   <time name="orth">    3.08    3.10</time>
   <time name="total">  303.92  305.54</time>
   <energy>
    <i name="e_fr_energy">    -36.91382328 </i>
    <i name="e_wo_entrp">    -36.91379654 </i>
    <i name="e_0_energy">    -36.91380991 </i>
   </energy>
  </scstep>
  <scstep>
   <time name="diag">   79.25   79.65</time>
   <time name="diis">  185.80  186.67</time>
   <time name="orth">    3.08    3.10</time>
   <time name="total">  270.62  271.91</time>
   <energy>
    <i name="alphaZ">      6.18334092 </i>
    <i name="ewald">   2529.22046332 </i>
    <i name="hartreedc">  -3023.30892310 </i>
    <i name="XCdc">     57.36431614 </i>
    <i name="pawpsdc">    273.61324120 </i>
    <i name="pawaedc">   -278.74634964 </i>
    <i name="eentropy">     -0.00002674 </i>
    <i name="bandstr">   -189.86341228 </i>
    <i name="atom">    588.62352690 </i>
    <i name="e_fr_energy">    -36.91382328 </i>
    <i name="e_wo_entrp">    -36.91379654 </i>
    <i name="e_0_energy">    -36.91380991 </i>
   </energy>
  </scstep>
  <structure>
   <crystal>
    <varray name="basis" >
     <v>       4.31748752       0.00000000       0.00000000 </v>
     <v>       0.00000000       2.46269244       0.00000000 </v>
     <v>       0.00000000       0.00000000      19.82930151 </v>
    </varray>
    <i name="volume">    210.83790140 </i>
    <varray name="rec_basis" >
     <v>       0.23161619       0.00000000       0.00000000 </v>
     <v>       0.00000000       0.40605964       0.00000000 </v>
     <v>       0.00000000       0.00000000       0.05043042 </v>
    </varray>
   </crystal>
   <varray name="positions" >
    <v>       0.99974803       0.00000000      -0.00000000 </v>
    <v>       0.16691864       0.50000000       0.00000000 </v>
    <v>       0.49974803       0.50000000      -0.00000000 </v>
    <v>       0.66691864       0.00000000       0.00000000 </v>
   </varray>
  </structure>
  <varray name="forces" >
   <v>       0.00000385      -0.00000000       0.00000000 </v>
   <v>      -0.00000385       0.00000000       0.00000000 </v>
   <v>       0.00000385      -0.00000000       0.00000000 </v>
   <v>      -0.00000385       0.00000000       0.00000000 </v>
  </varray>
  <varray name="stress" >
   <v>     -17.25384236       0.00000000       0.00000000 </v>
   <v>       0.00000000       0.00873754       0.00000000 </v>
   <v>       0.00000000       0.00000000      -0.01019168 </v>
  </varray>
  <energy>
   <i name="e_fr_energy">    -36.91382328 </i>
   <i name="e_wo_entrp">    -36.91380991 </i>
   <i name="e_0_energy">     -0.00002674 </i>
  </energy>
  <time name="totalsc"> 4094.61 4123.62</time>
 </calculation>
 <calculation>
  <scstep>
   <time name="dav">  252.88  253.20</time>
   <time name="total">  285.73  286.09</time>
   <energy>
    <i name="alphaZ">      6.18334092 </i>
    <i name="ewald">   2529.22046366 </i>
    <i name="hartreedc">  -3023.30892536 </i>
    <i name="XCdc">     57.36431617 </i>
    <i name="pawpsdc">    273.61324190 </i>
    <i name="pawaedc">   -278.74635034 </i>
    <i name="eentropy">     -0.00002674 </i>
    <i name="bandstr">   -189.86341039 </i>
    <i name="atom">    588.62352690 </i>
    <i name="e_fr_energy">    -36.91382328 </i>
    <i name="e_wo_entrp">    -36.91379654 </i>
    <i name="e_0_energy">    -36.91380991 </i>
   </energy>
  </scstep>
  <scstep>
   <time name="diag">   79.55   79.57</time>
   <time name="diis">  157.80  158.09</time>
   <time name="orth">    3.07    3.07</time>
   <time name="total">  273.13  273.60</time>
   <energy>
    <i name="e_fr_energy">    -36.91382328 </i>
    <i name="e_wo_entrp">    -36.91379654 </i>
    <i name="e_0_energy">    -36.91380991 </i>
   </energy>
  </scstep>
  <scstep>
   <time name="diag">   79.19   79.59</time>
   <time name="diis">  155.55  156.23</time>
   <time name="orth">    3.07    3.09</time>
   <time name="total">  270.57  271.86</time>
   <energy>
    <i name="e_fr_energy">    -36.91382328 </i>
    <i name="e_wo_entrp">    -36.91379654 </i>
    <i name="e_0_energy">    -36.91380991 </i>
   </energy>
  </scstep>
  <scstep>
   <time name="diag">   79.20   79.60</time>
   <time name="diis">  153.71  154.48</time>
   <time name="orth">    3.07    3.09</time>
   <time name="total">  268.67  270.24</time>
   <energy>
    <i name="e_fr_energy">    -36.91382328 </i>
    <i name="e_wo_entrp">    -36.91379654 </i>
    <i name="e_0_energy">    -36.91380991 </i>
   </energy>
  </scstep>
  <scstep>
   <time name="diag">   79.30   79.70</time>
   <time name="diis">  152.85  153.54</time>
   <time name="orth">    3.07    3.07</time>
   <time name="total">  268.02  269.28</time>
   <energy>
    <i name="e_fr_energy">    -36.91382328 </i>
    <i name="e_wo_entrp">    -36.91379654 </i>
    <i name="e_0_energy">    -36.91380991 </i>
   </energy>
  </scstep>
  <scstep>
   <time name="diag">   79.20   79.59</time>
   <time name="diis">  151.68  152.09</time>
   <time name="orth">    3.09    3.09</time>
   <time name="total">  266.89  267.71</time>
   <energy>
    <i name="e_fr_energy">    -36.91382328 </i>
    <i name="e_wo_entrp">    -36.91379654 </i>
    <i name="e_0_energy">    -36.91380991 </i>
   </energy>
  </scstep>
  <scstep>
   <time name="diag">   79.58   79.60</time>
   <time name="diis">  147.25  147.28</time>
   <time name="orth">    3.15    3.15</time>
   <time name="total">  262.84  262.93</time>
   <energy>
    <i name="e_fr_energy">    -36.91382328 </i>
    <i name="e_wo_entrp">    -36.91379654 </i>
    <i name="e_0_energy">    -36.91380991 </i>
   </energy>
  </scstep>
  <scstep>
   <time name="diag">   79.57   79.61</time>
   <time name="diis">  143.27  143.30</time>
   <time name="orth">    3.07    3.08</time>
   <time name="total">  258.79  258.91</time>
   <energy>
    <i name="e_fr_energy">    -36.91382328 </i>
    <i name="e_wo_entrp">    -36.91379654 </i>
    <i name="e_0_energy">    -36.91380991 </i>
   </energy>
  </scstep>
  <scstep>
   <time name="diag">   79.62   79.64</time>
   <time name="diis">  149.02  149.05</time>
   <time name="orth">    3.08    3.08</time>
   <time name="total">  264.58  264.66</time>
   <energy>
    <i name="e_fr_energy">    -36.91382328 </i>
    <i name="e_wo_entrp">    -36.91379654 </i>
    <i name="e_0_energy">    -36.91380991 </i>
   </energy>
  </scstep>
  <scstep>
   <time name="diag">   79.62   79.63</time>
   <time name="diis">  149.08  149.11</time>
   <time name="orth">    3.07    3.08</time>
   <time name="total">  234.25  234.32</time>
   <energy>
    <i name="alphaZ">      6.18334092 </i>
    <i name="ewald">   2529.22046366 </i>
    <i name="hartreedc">  -3023.30892283 </i>
    <i name="XCdc">     57.36431605 </i>
    <i name="pawpsdc">    273.61324100 </i>
    <i name="pawaedc">   -278.74634942 </i>
    <i name="eentropy">     -0.00002674 </i>
    <i name="bandstr">   -189.86341282 </i>
    <i name="atom">    588.62352690 </i>
    <i name="e_fr_energy">    -36.91382328 </i>
    <i name="e_wo_entrp">    -36.91379654 </i>
    <i name="e_0_energy">    -36.91380991 </i>
   </energy>
  </scstep>
  <structure>
   <crystal>
    <varray name="basis" >
     <v>       4.31748752       0.00000000       0.00000000 </v>
     <v>       0.00000000       2.46269244       0.00000000 </v>
     <v>       0.00000000       0.00000000      19.82930151 </v>
    </varray>
    <i name="volume">    210.83790140 </i>
    <varray name="rec_basis" >
     <v>       0.23161619       0.00000000       0.00000000 </v>
     <v>       0.00000000       0.40605964       0.00000000 </v>
     <v>       0.00000000       0.00000000       0.05043042 </v>
    </varray>
   </crystal>
   <varray name="positions" >
    <v>       0.99974803       0.00000000      -0.00000000 </v>
    <v>       0.16691863       0.50000000       0.00000000 </v>
    <v>       0.49974803       0.50000000      -0.00000000 </v>
    <v>       0.66691863       0.00000000       0.00000000 </v>
   </varray>
  </structure>
  <varray name="forces" >
   <v>      -0.00000337       0.00000000      -0.00000000 </v>
   <v>       0.00000337      -0.00000000       0.00000000 </v>
   <v>      -0.00000337      -0.00000000      -0.00000000 </v>
   <v>       0.00000337       0.00000000       0.00000000 </v>
  </varray>
  <varray name="stress" >
   <v>     -17.25387387       0.00000000       0.00000000 </v>
   <v>       0.00000000       0.00877807       0.00000000 </v>
   <v>       0.00000000       0.00000000      -0.01021684 </v>
  </varray>
  <energy>
   <i name="e_fr_energy">    -36.91382328 </i>
   <i name="e_wo_entrp">    -36.91380991 </i>
   <i name="e_0_energy">     -0.00002674 </i>
  </energy>
  <time name="totalsc"> 2754.34 2770.56</time>
 </calculation>
 <calculation>
  <scstep>
   <time name="dav">  248.87  249.01</time>
   <time name="total">  281.77  281.91</time>
   <energy>
    <i name="alphaZ">      6.18334092 </i>
    <i name="ewald">   2529.22046350 </i>
    <i name="hartreedc">  -3023.30892282 </i>
    <i name="XCdc">     57.36431605 </i>
    <i name="pawpsdc">    273.61324097 </i>
    <i name="pawaedc">   -278.74634939 </i>
    <i name="eentropy">     -0.00002674 </i>
    <i name="bandstr">   -189.86341267 </i>
    <i name="atom">    588.62352690 </i>
    <i name="e_fr_energy">    -36.91382328 </i>
    <i name="e_wo_entrp">    -36.91379653 </i>
    <i name="e_0_energy">    -36.91380991 </i>
   </energy>
  </scstep>
  <scstep>
   <time name="diag">   79.56   79.60</time>
   <time name="diis">  134.45  134.49</time>
   <time name="orth">    3.09    3.09</time>
   <time name="total">  250.08  250.18</time>
   <energy>
    <i name="e_fr_energy">    -36.91382328 </i>
    <i name="e_wo_entrp">    -36.91379654 </i>
    <i name="e_0_energy">    -36.91380991 </i>
   </energy>
  </scstep>
  <scstep>
   <time name="diag">   79.65   79.67</time>
   <time name="diis">  134.97  135.00</time>
   <time name="orth">    3.11    3.11</time>
   <time name="total">  250.61  250.73</time>
   <energy>
    <i name="e_fr_energy">    -36.91382328 </i>
    <i name="e_wo_entrp">    -36.91379654 </i>
    <i name="e_0_energy">    -36.91380991 </i>
   </energy>
  </scstep>
  <scstep>
   <time name="diag">   79.61   79.63</time>
   <time name="diis">  127.73  127.77</time>
   <time name="orth">    3.09    3.09</time>
   <time name="total">  243.39  243.45</time>
   <energy>
    <i name="e_fr_energy">    -36.91382328 </i>
    <i name="e_wo_entrp">    -36.91379654 </i>
    <i name="e_0_energy">    -36.91380991 </i>
   </energy>
  </scstep>
  <scstep>
   <time name="diag">   79.63   79.69</time>
   <time name="diis">  122.11  122.15</time>
   <time name="orth">    3.07    3.07</time>
   <time name="total">  237.74  237.88</time>
   <energy>
    <i name="e_fr_energy">    -36.91382328 </i>
    <i name="e_wo_entrp">    -36.91379654 </i>
    <i name="e_0_energy">    -36.91380991 </i>
   </energy>
  </scstep>
  <scstep>
   <time name="diag">   79.57   79.60</time>
   <time name="diis">  130.16  130.77</time>
   <time name="orth">    3.07    3.07</time>
   <time name="total">  245.56  246.38</time>
   <energy>
    <i name="e_fr_energy">    -36.91382328 </i>
    <i name="e_wo_entrp">    -36.91379654 </i>
    <i name="e_0_energy">    -36.91380991 </i>
   </energy>
  </scstep>
  <scstep>
   <time name="diag">   79.43   79.61</time>
   <time name="diis">  124.19  124.22</time>
   <time name="orth">    3.07    3.07</time>
   <time name="total">  239.60  239.88</time>
   <energy>
    <i name="e_fr_energy">    -36.91382328 </i>
    <i name="e_wo_entrp">    -36.91379654 </i>
    <i name="e_0_energy">    -36.91380991 </i>
   </energy>
  </scstep>
  <scstep>
   <time name="diag">   79.58   79.61</time>
   <time name="diis">  123.99  124.01</time>
   <time name="orth">    3.07    3.07</time>
   <time name="total">  209.16  209.22</time>
   <energy>
    <i name="alphaZ">      6.18334092 </i>
    <i name="ewald">   2529.22046350 </i>
    <i name="hartreedc">  -3023.30892334 </i>
    <i name="XCdc">     57.36431607 </i>
    <i name="pawpsdc">    273.61324125 </i>
    <i name="pawaedc">   -278.74634967 </i>
    <i name="eentropy">     -0.00002674 </i>
    <i name="bandstr">   -189.86341216 </i>
    <i name="atom">    588.62352690 </i>
    <i name="e_fr_energy">    -36.91382328 </i>
    <i name="e_wo_entrp">    -36.91379654 </i>
    <i name="e_0_energy">    -36.91380991 </i>
   </energy>
  </scstep>
  <structure>
   <crystal>
    <varray name="basis" >
     <v>       4.31748752       0.00000000       0.00000000 </v>
     <v>       0.00000000       2.46269244       0.00000000 </v>
     <v>       0.00000000       0.00000000      19.82930151 </v>
    </varray>
    <i name="volume">    210.83790140 </i>
    <varray name="rec_basis" >
     <v>       0.23161619       0.00000000       0.00000000 </v>
     <v>       0.00000000       0.40605964       0.00000000 </v>
     <v>       0.00000000       0.00000000       0.05043042 </v>
    </varray>
   </crystal>
   <varray name="positions" >
    <v>       0.99974803       0.00000000      -0.00000000 </v>
    <v>       0.16691864       0.50000000       0.00000000 </v>
    <v>       0.49974803       0.50000000      -0.00000000 </v>
    <v>       0.66691864       0.00000000       0.00000000 </v>
   </varray>
  </structure>
  <varray name="forces" >
   <v>       0.00000053       0.00000000      -0.00000000 </v>
   <v>      -0.00000053      -0.00000000       0.00000000 </v>
   <v>       0.00000053      -0.00000000      -0.00000000 </v>
   <v>      -0.00000053       0.00000000       0.00000000 </v>
  </varray>
  <varray name="stress" >
   <v>     -17.25386406       0.00000000       0.00000000 </v>
   <v>       0.00000000       0.00876313       0.00000000 </v>
   <v>       0.00000000       0.00000000      -0.01020954 </v>
  </varray>
  <energy>
   <i name="e_fr_energy">    -36.91382328 </i>
   <i name="e_wo_entrp">    -36.91380991 </i>
   <i name="e_0_energy">     -0.00002674 </i>
  </energy>
  <time name="totalsc"> 2052.75 2064.34</time>
  <eigenvalues>
   <array>
    <dimension dim="1">band</dimension>
    <dimension dim="2">kpoint</dimension>
    <dimension dim="3">spin</dimension>
    <field>eigene</field>
    <field>occ</field>
    <set>
     <set comment="spin 1">
      <set comment="kpoint 1">
       <r>  -22.1823    1.0000 </r>
       <r>  -17.1227    1.0000 </r>
       <r>  -15.9173    1.0000 </r>
       <r>  -10.3038    1.0000 </r>
       <r>   -9.0082    1.0000 </r>
       <r>   -5.8805    1.0000 </r>
       <r>   -5.7603    1.0000 </r>
       <r>   -5.2061    1.0000 </r>
       <r>   -1.1232    0.0000 </r>
       <r>    0.5324    0.0000 </r>
       <r>    1.3323    0.0000 </r>
       <r>    1.7194    0.0000 </r>
      </set>
      <set comment="kpoint 2">
       <r>  -22.1722    1.0000 </r>
       <r>  -17.2655    1.0000 </r>
       <r>  -15.7593    1.0000 </r>
       <r>  -10.2918    1.0000 </r>
       <r>   -8.9983    1.0000 </r>
       <r>   -5.9239    1.0000 </r>
       <r>   -5.7818    1.0000 </r>
       <r>   -5.2693    1.0000 </r>
       <r>   -1.0442    0.0000 </r>
       <r>    0.5460    0.0000 </r>
       <r>    1.3461    0.0000 </r>
       <r>    1.7334    0.0000 </r>
      </set>
      <set comment="kpoint 3">
       <r>  -22.1421    1.0000 </r>
       <r>  -17.5750    1.0000 </r>
       <r>  -15.4045    1.0000 </r>
       <r>  -10.2560    1.0000 </r>
       <r>   -8.9688    1.0000 </r>
       <r>   -6.0522    1.0000 </r>
       <r>   -5.8452    1.0000 </r>
       <r>   -5.4452    1.0000 </r>
       <r>   -0.8207    0.0000 </r>
       <r>    0.5868    0.0000 </r>
       <r>    1.3874    0.0000 </r>
       <r>    1.7753    0.0000 </r>
      </set>
      <set comment="kpoint 4">
       <r>  -22.0919    1.0000 </r>
       <r>  -17.9324    1.0000 </r>
       <r>  -14.9718    1.0000 </r>
       <r>  -10.1962    1.0000 </r>
       <r>   -8.9196    1.0000 </r>
       <r>   -6.2601    1.0000 </r>
       <r>   -5.9471    1.0000 </r>
       <r>   -5.7032    1.0000 </r>
       <r>   -0.4841    0.0000 </r>
       <r>    0.6549    0.0000 </r>
       <r>    1.4564    0.0000 </r>
       <r>    1.8451    0.0000 </r>
      </set>
      <set comment="kpoint 5">
       <r>  -22.0217    1.0000 </r>
       <r>  -18.2975    1.0000 </r>
       <r>  -14.5017    1.0000 </r>
       <r>  -10.1128    1.0000 </r>
       <r>   -8.8512    1.0000 </r>
       <r>   -6.5396    1.0000 </r>
       <r>   -6.0827    1.0000 </r>
       <r>   -6.0122    1.0000 </r>
       <r>   -0.0662    0.0000 </r>
       <r>    0.7501    0.0000 </r>
       <r>    1.5529    0.0000 </r>
       <r>    1.9428    0.0000 </r>
      </set>
      <set comment="kpoint 6">
       <r>  -21.9315    1.0000 </r>
       <r>  -18.6568    1.0000 </r>
       <r>  -14.0087    1.0000 </r>
       <r>  -10.0057    1.0000 </r>
       <r>   -8.7639    1.0000 </r>
       <r>   -6.8813    1.0000 </r>
       <r>   -6.3486    1.0000 </r>
       <r>   -6.2460    1.0000 </r>
       <r>    0.4082    0.0000 </r>
       <r>    0.8727    0.0000 </r>
       <r>    1.6769    0.0000 </r>
       <r>    2.0685    0.0000 </r>
      </set>
      <set comment="kpoint 7">
       <r>  -21.8214    1.0000 </r>
       <r>  -19.0044    1.0000 </r>
       <r>  -13.4991    1.0000 </r>
       <r>   -9.8751    1.0000 </r>
       <r>   -8.6582    1.0000 </r>
       <r>   -7.2753    1.0000 </r>
       <r>   -6.6964    1.0000 </r>
       <r>   -6.4308    1.0000 </r>
       <r>    0.9214    0.0000 </r>
       <r>    1.0224    0.0000 </r>
       <r>    1.8283    0.0000 </r>
       <r>    2.2221    0.0000 </r>
      </set>
      <set comment="kpoint 8">
       <r>  -21.6915    1.0000 </r>
       <r>  -19.3377    1.0000 </r>
       <r>  -12.9767    1.0000 </r>
       <r>   -9.7215    1.0000 </r>
       <r>   -8.5347    1.0000 </r>
       <r>   -7.7122    1.0000 </r>
       <r>   -7.0449    1.0000 </r>
       <r>   -6.6310    1.0000 </r>
       <r>    1.1994    0.0000 </r>
       <r>    1.4607    0.0000 </r>
       <r>    2.0071    0.0000 </r>
       <r>    2.4036    0.0000 </r>
      </set>
      <set comment="kpoint 9">
       <r>  -21.5418    1.0000 </r>
       <r>  -19.6550    1.0000 </r>
       <r>  -12.4444    1.0000 </r>
       <r>   -9.5449    1.0000 </r>
       <r>   -8.3943    1.0000 </r>
       <r>   -8.1833    1.0000 </r>
       <r>   -7.3873    1.0000 </r>
       <r>   -6.8410    1.0000 </r>
       <r>    1.4036    0.0000 </r>
       <r>    2.0163    0.0000 </r>
       <r>    2.2131    0.0000 </r>
       <r>    2.6131    0.0000 </r>
      </set>
      <set comment="kpoint 10">
       <r>  -21.3725    1.0000 </r>
       <r>  -19.9553    1.0000 </r>
       <r>  -11.9049    1.0000 </r>
       <r>   -9.3459    1.0000 </r>
       <r>   -8.6808    1.0000 </r>
       <r>   -8.2380    1.0000 </r>
       <r>   -7.7188    1.0000 </r>
       <r>   -7.0556    1.0000 </r>
       <r>    1.6349    0.0000 </r>
       <r>    2.4461    0.0000 </r>
       <r>    2.5789    0.0000 </r>
       <r>    2.8504    0.0000 </r>
      </set>
      <set comment="kpoint 11">
       <r>  -21.1838    1.0000 </r>
       <r>  -20.2380    1.0000 </r>
       <r>  -11.3606    1.0000 </r>
       <r>   -9.1980    1.0000 </r>
       <r>   -9.1248    1.0000 </r>
       <r>   -8.0669    1.0000 </r>
       <r>   -8.0362    1.0000 </r>
       <r>   -7.2705    1.0000 </r>
       <r>    1.8933    0.0000 </r>
       <r>    2.7054    0.0000 </r>
       <r>    3.1157    0.0000 </r>
       <r>    3.1329    0.0000 </r>
      </set>
      <set comment="kpoint 12">
       <r>  -20.9757    1.0000 </r>
       <r>  -20.5026    1.0000 </r>
       <r>  -10.8143    1.0000 </r>
       <r>   -9.7291    1.0000 </r>
       <r>   -8.8825    1.0000 </r>
       <r>   -8.3370    1.0000 </r>
       <r>   -7.8826    1.0000 </r>
       <r>   -7.4820    1.0000 </r>
       <r>    2.1786    0.0000 </r>
       <r>    2.8296    0.0000 </r>
       <r>    2.9896    0.0000 </r>
       <r>    3.4089    0.0000 </r>
      </set>
      <set comment="kpoint 13">
       <r>  -20.7486    1.0000 </r>
       <r>  -20.7486    1.0000 </r>
       <r>  -10.2693    1.0000 </r>
       <r>  -10.2693    1.0000 </r>
       <r>   -8.6195    1.0000 </r>
       <r>   -8.6195    1.0000 </r>
       <r>   -7.6869    1.0000 </r>
       <r>   -7.6869    1.0000 </r>
       <r>    2.4908    0.0000 </r>
       <r>    2.4908    0.0000 </r>
       <r>    3.2921    0.0000 </r>
       <r>    3.2921    0.0000 </r>
      </set>
      <set comment="kpoint 14">
       <r>  -22.1685    1.0000 </r>
       <r>  -17.1108    1.0000 </r>
       <r>  -15.9057    1.0000 </r>
       <r>  -10.2874    1.0000 </r>
       <r>   -9.0705    1.0000 </r>
       <r>   -5.9089    1.0000 </r>
       <r>   -5.8181    1.0000 </r>
       <r>   -5.1895    1.0000 </r>
       <r>   -1.1265    0.0000 </r>
       <r>    0.5510    0.0000 </r>
       <r>    1.3511    0.0000 </r>
       <r>    1.7385    0.0000 </r>
      </set>
      <set comment="kpoint 15">
       <r>  -22.1585    1.0000 </r>
       <r>  -17.2535    1.0000 </r>
       <r>  -15.7479    1.0000 </r>
       <r>  -10.2755    1.0000 </r>
       <r>   -9.0607    1.0000 </r>
       <r>   -5.9556    1.0000 </r>
       <r>   -5.8356    1.0000 </r>
       <r>   -5.2528    1.0000 </r>
       <r>   -1.0474    0.0000 </r>
       <r>    0.5646    0.0000 </r>
       <r>    1.3649    0.0000 </r>
       <r>    1.7525    0.0000 </r>
      </set>
      <set comment="kpoint 16">
       <r>  -22.1284    1.0000 </r>
       <r>  -17.5627    1.0000 </r>
       <r>  -15.3934    1.0000 </r>
       <r>  -10.2396    1.0000 </r>
       <r>   -9.0310    1.0000 </r>
       <r>   -6.0874    1.0000 </r>
       <r>   -5.8937    1.0000 </r>
       <r>   -5.4290    1.0000 </r>
       <r>   -0.8240    0.0000 </r>
       <r>    0.6054    0.0000 </r>
       <r>    1.4063    0.0000 </r>
       <r>    1.7944    0.0000 </r>
      </set>
      <set comment="kpoint 17">
       <r>  -22.0782    1.0000 </r>
       <r>  -17.9199    1.0000 </r>
       <r>  -14.9611    1.0000 </r>
       <r>  -10.1799    1.0000 </r>
       <r>   -8.9818    1.0000 </r>
       <r>   -6.2951    1.0000 </r>
       <r>   -5.9932    1.0000 </r>
       <r>   -5.6873    1.0000 </r>
[...]
       <r>   -9.2724    1.0000 </r>
       <r>   -5.5615    1.0000 </r>
       <r>   -5.5615    1.0000 </r>
       <r>   -0.4496    0.0000 </r>
       <r>   -0.4496    0.0000 </r>
       <r>    4.5448    0.0000 </r>
       <r>    4.5448    0.0000 </r>
      </set>
      <set comment="kpoint 209">
       <r>  -18.7491    1.0000 </r>
       <r>  -16.9471    1.0000 </r>
       <r>  -14.1206    1.0000 </r>
       <r>  -12.4760    1.0000 </r>
       <r>  -12.3713    1.0000 </r>
       <r>  -10.8468    1.0000 </r>
       <r>   -6.3594    1.0000 </r>
       <r>   -4.4740    1.0000 </r>
       <r>   -1.0764    0.0000 </r>
       <r>    1.0886    0.0000 </r>
       <r>    5.2773    0.0000 </r>
       <r>    6.0580    0.0000 </r>
      </set>
      <set comment="kpoint 210">
       <r>  -18.7396    1.0000 </r>
       <r>  -16.9396    1.0000 </r>
       <r>  -14.1982    1.0000 </r>
       <r>  -12.5480    1.0000 </r>
       <r>  -12.2861    1.0000 </r>
       <r>  -10.7772    1.0000 </r>
       <r>   -6.3508    1.0000 </r>
       <r>   -4.4774    1.0000 </r>
       <r>   -1.0846    0.0000 </r>
       <r>    1.0642    0.0000 </r>
       <r>    5.2906    0.0000 </r>
       <r>    6.0736    0.0000 </r>
      </set>
      <set comment="kpoint 211">
       <r>  -18.7111    1.0000 </r>
       <r>  -16.9174    1.0000 </r>
       <r>  -14.3951    1.0000 </r>
       <r>  -12.7340    1.0000 </r>
       <r>  -12.0661    1.0000 </r>
       <r>  -10.5990    1.0000 </r>
       <r>   -6.3251    1.0000 </r>
       <r>   -4.4880    1.0000 </r>
       <r>   -1.1076    0.0000 </r>
       <r>    0.9930    0.0000 </r>
       <r>    5.3304    0.0000 </r>
       <r>    6.1203    0.0000 </r>
      </set>
      <set comment="kpoint 212">
       <r>  -18.6637    1.0000 </r>
       <r>  -16.8818    1.0000 </r>
       <r>  -14.6520    1.0000 </r>
       <r>  -12.9832    1.0000 </r>
       <r>  -11.7708    1.0000 </r>
       <r>  -10.3650    1.0000 </r>
       <r>   -6.2826    1.0000 </r>
       <r>   -4.5073    1.0000 </r>
       <r>   -1.1407    0.0000 </r>
       <r>    0.8798    0.0000 </r>
       <r>    5.3962    0.0000 </r>
       <r>    6.1969    0.0000 </r>
      </set>
      <set comment="kpoint 213">
       <r>  -18.5975    1.0000 </r>
       <r>  -16.8355    1.0000 </r>
       <r>  -14.9290    1.0000 </r>
       <r>  -13.2615    1.0000 </r>
       <r>  -11.4397    1.0000 </r>
       <r>  -10.1127    1.0000 </r>
       <r>   -6.2237    1.0000 </r>
       <r>   -4.5374    1.0000 </r>
       <r>   -1.1768    0.0000 </r>
       <r>    0.7316    0.0000 </r>
       <r>    5.4861    0.0000 </r>
       <r>    6.3028    0.0000 </r>
      </set>
      <set comment="kpoint 214">
       <r>  -18.5128    1.0000 </r>
       <r>  -16.7840    1.0000 </r>
       <r>  -15.2014    1.0000 </r>
       <r>  -13.5504    1.0000 </r>
       <r>  -11.0950    1.0000 </r>
       <r>   -9.8649    1.0000 </r>
       <r>   -6.1492    1.0000 </r>
       <r>   -4.5808    1.0000 </r>
       <r>   -1.2077    0.0000 </r>
       <r>    0.5567    0.0000 </r>
       <r>    5.5812    0.0000 </r>
       <r>    5.8605    0.0000 </r>
      </set>
      <set comment="kpoint 215">
       <r>  -18.4098    1.0000 </r>
       <r>  -16.7384    1.0000 </r>
       <r>  -15.4481    1.0000 </r>
       <r>  -13.8399    1.0000 </r>
       <r>  -10.7511    1.0000 </r>
       <r>   -9.6373    1.0000 </r>
       <r>   -6.0599    1.0000 </r>
       <r>   -4.6397    1.0000 </r>
       <r>   -1.2252    0.0000 </r>
       <r>    0.3632    0.0000 </r>
       <r>    5.3628    0.0000 </r>
       <r>    5.7887    0.0000 </r>
      </set>
      <set comment="kpoint 216">
       <r>  -18.2888    1.0000 </r>
       <r>  -16.7207    1.0000 </r>
       <r>  -15.6420    1.0000 </r>
       <r>  -14.1238    1.0000 </r>
       <r>  -10.4185    1.0000 </r>
       <r>   -9.4422    1.0000 </r>
       <r>   -5.9572    1.0000 </r>
       <r>   -4.7155    1.0000 </r>
       <r>   -1.2221    0.0000 </r>
       <r>    0.1592    0.0000 </r>
       <r>    5.0028    0.0000 </r>
       <r>    5.9507    0.0000 </r>
      </set>
      <set comment="kpoint 217">
       <r>  -18.1506    1.0000 </r>
       <r>  -16.7627    1.0000 </r>
       <r>  -15.7477    1.0000 </r>
       <r>  -14.3981    1.0000 </r>
       <r>  -10.1068    1.0000 </r>
       <r>   -9.2898    1.0000 </r>
       <r>   -5.8425    1.0000 </r>
       <r>   -4.8085    1.0000 </r>
       <r>   -1.1933    0.0000 </r>
       <r>   -0.0481    0.0000 </r>
       <r>    4.7091    0.0000 </r>
       <r>    5.5285    0.0000 </r>
      </set>
      <set comment="kpoint 218">
       <r>  -17.9958    1.0000 </r>
       <r>  -16.8803    1.0000 </r>
       <r>  -15.7474    1.0000 </r>
       <r>  -14.6597    1.0000 </r>
       <r>   -9.8251    1.0000 </r>
       <r>   -9.1889    1.0000 </r>
       <r>   -5.7177    1.0000 </r>
       <r>   -4.9173    1.0000 </r>
       <r>   -1.1357    0.0000 </r>
       <r>   -0.2524    0.0000 </r>
       <r>    4.4974    0.0000 </r>
       <r>    5.1374    0.0000 </r>
      </set>
      <set comment="kpoint 219">
       <r>  -17.8256    1.0000 </r>
       <r>  -17.0521    1.0000 </r>
       <r>  -15.6615    1.0000 </r>
       <r>  -14.9060    1.0000 </r>
       <r>   -9.5823    1.0000 </r>
       <r>   -9.1460    1.0000 </r>
       <r>   -5.5852    1.0000 </r>
       <r>   -5.0393    1.0000 </r>
       <r>   -1.0489    0.0000 </r>
       <r>   -0.4479    0.0000 </r>
       <r>    4.3755    0.0000 </r>
       <r>    4.8154    0.0000 </r>
      </set>
      <set comment="kpoint 220">
       <r>  -17.6418    1.0000 </r>
       <r>  -17.2475    1.0000 </r>
       <r>  -15.5195    1.0000 </r>
       <r>  -15.1340    1.0000 </r>
       <r>   -9.3869    1.0000 </r>
       <r>   -9.1648    1.0000 </r>
       <r>   -5.4477    1.0000 </r>
       <r>   -5.1709    1.0000 </r>
       <r>   -0.9337    0.0000 </r>
       <r>   -0.6296    0.0000 </r>
       <r>    4.3474    0.0000 </r>
       <r>    4.5715    0.0000 </r>
      </set>
      <set comment="kpoint 221">
       <r>  -17.4474    1.0000 </r>
       <r>  -17.4474    1.0000 </r>
       <r>  -15.3404    1.0000 </r>
       <r>  -15.3404    1.0000 </r>
       <r>   -9.2459    1.0000 </r>
       <r>   -9.2459    1.0000 </r>
       <r>   -5.3084    1.0000 </r>
       <r>   -5.3084    1.0000 </r>
       <r>   -0.7929    0.0000 </r>
       <r>   -0.7929    0.0000 </r>
       <r>    4.4136    0.0000 </r>
       <r>    4.4136    0.0000 </r>
      </set>
      <set comment="kpoint 222">
       <r>  -18.3238    1.0000 </r>
       <r>  -17.4191    1.0000 </r>
       <r>  -13.7400    1.0000 </r>
       <r>  -12.9169    1.0000 </r>
       <r>  -12.0222    1.0000 </r>
       <r>  -11.2551    1.0000 </r>
       <r>   -5.8995    1.0000 </r>
       <r>   -4.9513    1.0000 </r>
       <r>   -0.5681    0.0000 </r>
       <r>    0.5166    0.0000 </r>
       <r>    5.8803    0.0000 </r>
       <r>    6.6206    0.0000 </r>
      </set>
      <set comment="kpoint 223">
       <r>  -18.3145    1.0000 </r>
       <r>  -17.4105    1.0000 </r>
       <r>  -13.8177    1.0000 </r>
       <r>  -12.9913    1.0000 </r>
       <r>  -11.9396    1.0000 </r>
       <r>  -11.1805    1.0000 </r>
       <r>   -5.8923    1.0000 </r>
       <r>   -4.9492    1.0000 </r>
       <r>   -0.5831    0.0000 </r>
       <r>    0.4943    0.0000 </r>
       <r>    5.8935    0.0000 </r>
       <r>    6.6371    0.0000 </r>
      </set>
      <set comment="kpoint 224">
       <r>  -18.2865    1.0000 </r>
       <r>  -17.3849    1.0000 </r>
       <r>  -14.0157    1.0000 </r>
       <r>  -13.1825    1.0000 </r>
       <r>  -11.7269    1.0000 </r>
       <r>  -10.9893    1.0000 </r>
       <r>   -5.8705    1.0000 </r>
       <r>   -4.9433    1.0000 </r>
       <r>   -0.6266    0.0000 </r>
       <r>    0.4292    0.0000 </r>
       <r>    5.9331    0.0000 </r>
       <r>    6.6863    0.0000 </r>
      </set>
      <set comment="kpoint 225">
       <r>  -18.2400    1.0000 </r>
       <r>  -17.3427    1.0000 </r>
       <r>  -14.2763    1.0000 </r>
       <r>  -13.4373    1.0000 </r>
       <r>  -11.4431    1.0000 </r>
       <r>  -10.7365    1.0000 </r>
       <r>   -5.8348    1.0000 </r>
       <r>   -4.9346    1.0000 </r>
       <r>   -0.6936    0.0000 </r>
       <r>    0.3261    0.0000 </r>
       <r>    5.9981    0.0000 </r>
       <r>    6.7667    0.0000 </r>
      </set>
      <set comment="kpoint 226">
       <r>  -18.1751    1.0000 </r>
       <r>  -17.2848    1.0000 </r>
       <r>  -14.5619    1.0000 </r>
       <r>  -13.7201    1.0000 </r>
       <r>  -11.1274    1.0000 </r>
       <r>  -10.4604    1.0000 </r>
       <r>   -5.7859    1.0000 </r>
       <r>   -4.9251    1.0000 </r>
       <r>   -0.7770    0.0000 </r>
       <r>    0.1920    0.0000 </r>
       <r>    6.0839    0.0000 </r>
       <r>    6.6150    0.0000 </r>
      </set>
      <set comment="kpoint 227">
       <r>  -18.0922    1.0000 </r>
       <r>  -17.2128    1.0000 </r>
       <r>  -14.8518    1.0000 </r>
       <r>  -14.0123    1.0000 </r>
       <r>  -10.8023    1.0000 </r>
       <r>  -10.1838    1.0000 </r>
       <r>   -5.7247    1.0000 </r>
       <r>   -4.9170    1.0000 </r>
       <r>   -0.8680    0.0000 </r>
       <r>    0.0352    0.0000 </r>
       <r>    6.0361    0.0000 </r>
       <r>    6.2635    0.0000 </r>
      </set>
      <set comment="kpoint 228">
       <r>  -17.9919    1.0000 </r>
       <r>  -17.1296    1.0000 </r>
       <r>  -15.1336    1.0000 </r>
       <r>  -14.3036    1.0000 </r>
       <r>  -10.4823    1.0000 </r>
       <r>   -9.9220    1.0000 </r>
       <r>   -5.6529    1.0000 </r>
       <r>   -4.9134    1.0000 </r>
       <r>   -0.9570    0.0000 </r>
       <r>   -0.1356    0.0000 </r>
       <r>    5.5974    0.0000 </r>
       <r>    6.1542    0.0000 </r>
      </set>
      <set comment="kpoint 229">
       <r>  -17.8747    1.0000 </r>
       <r>  -17.0407    1.0000 </r>
       <r>  -15.3961    1.0000 </r>
       <r>  -14.5877    1.0000 </r>
       <r>  -10.1786    1.0000 </r>
       <r>   -9.6871    1.0000 </r>
       <r>   -5.5722    1.0000 </r>
       <r>   -4.9176    1.0000 </r>
       <r>   -1.0347    0.0000 </r>
       <r>   -0.3121    0.0000 </r>
       <r>    5.1899    0.0000 </r>
       <r>    5.6800    0.0000 </r>
      </set>
      <set comment="kpoint 230">
       <r>  -17.7418    1.0000 </r>
       <r>  -16.9569    1.0000 </r>
       <r>  -15.6253    1.0000 </r>
       <r>  -14.8600    1.0000 </r>
       <r>   -9.9011    1.0000 </r>
       <r>   -9.4895    1.0000 </r>
       <r>   -5.4850    1.0000 </r>
       <r>   -4.9326    1.0000 </r>
       <r>   -1.0928    0.0000 </r>
       <r>   -0.4863    0.0000 </r>
       <r>    4.8492    0.0000 </r>
       <r>    5.2613    0.0000 </r>
      </set>
      <set comment="kpoint 231">
       <r>  -17.5949    1.0000 </r>
       <r>  -16.8996    1.0000 </r>
       <r>  -15.7977    1.0000 </r>
       <r>  -15.1167    1.0000 </r>
       <r>   -9.6591    1.0000 </r>
       <r>   -9.3384    1.0000 </r>
       <r>   -5.3941    1.0000 </r>
       <r>   -4.9611    1.0000 </r>
       <r>   -1.1242    0.0000 </r>
       <r>   -0.6508    0.0000 </r>
       <r>    4.5863    0.0000 </r>
       <r>    4.9085    0.0000 </r>
      </set>
      <set comment="kpoint 232">
       <r>  -17.4369    1.0000 </r>
       <r>  -16.9012    1.0000 </r>
       <r>  -15.8798    1.0000 </r>
       <r>  -15.3533    1.0000 </r>
       <r>   -9.4616    1.0000 </r>
       <r>   -9.2415    1.0000 </r>
       <r>   -5.3027    1.0000 </r>
       <r>   -5.0043    1.0000 </r>
       <r>   -1.1242    0.0000 </r>
       <r>   -0.7990    0.0000 </r>
       <r>    4.4094    0.0000 </r>
       <r>    4.6311    0.0000 </r>
      </set>
      <set comment="kpoint 233">
       <r>  -17.2732    1.0000 </r>
       <r>  -16.9796    1.0000 </r>
       <r>  -15.8528    1.0000 </r>
       <r>  -15.5637    1.0000 </r>
       <r>   -9.3163    1.0000 </r>
       <r>   -9.2042    1.0000 </r>
       <r>   -5.2145    1.0000 </r>
       <r>   -5.0621    1.0000 </r>
       <r>   -1.0906    0.0000 </r>
       <r>   -0.9249    0.0000 </r>
       <r>    4.3244    0.0000 </r>
       <r>    4.4374    0.0000 </r>
      </set>
      <set comment="kpoint 234">
       <r>  -17.1141    1.0000 </r>
       <r>  -17.1141    1.0000 </r>
       <r>  -15.7370    1.0000 </r>
       <r>  -15.7370    1.0000 </r>
       <r>   -9.2294    1.0000 </r>
       <r>   -9.2294    1.0000 </r>
       <r>   -5.1331    1.0000 </r>
       <r>   -5.1331    1.0000 </r>
       <r>   -1.0234    0.0000 </r>
       <r>   -1.0234    0.0000 </r>
       <r>    4.3339    0.0000 </r>
       <r>    4.3339    0.0000 </r>
      </set>
      <set comment="kpoint 235">
       <r>  -17.8795    1.0000 </r>
       <r>  -17.8795    1.0000 </r>
       <r>  -13.3385    1.0000 </r>
       <r>  -13.3385    1.0000 </r>
       <r>  -11.6483    1.0000 </r>
       <r>  -11.6483    1.0000 </r>
       <r>   -5.4285    1.0000 </r>
       <r>   -5.4285    1.0000 </r>
       <r>   -0.0364    0.0000 </r>
       <r>   -0.0364    0.0000 </r>
       <r>    6.5150    0.0000 </r>
       <r>    6.5150    0.0000 </r>
      </set>
      <set comment="kpoint 236">
       <r>  -17.8704    1.0000 </r>
       <r>  -17.8704    1.0000 </r>
       <r>  -13.4149    1.0000 </r>
       <r>  -13.4149    1.0000 </r>
       <r>  -11.5693    1.0000 </r>
       <r>  -11.5693    1.0000 </r>
       <r>   -5.4232    1.0000 </r>
       <r>   -5.4232    1.0000 </r>
       <r>   -0.0558    0.0000 </r>
       <r>   -0.0558    0.0000 </r>
       <r>    6.5282    0.0000 </r>
       <r>    6.5282    0.0000 </r>
      </set>
      <set comment="kpoint 237">
       <r>  -17.8433    1.0000 </r>
       <r>  -17.8433    1.0000 </r>
       <r>  -13.6104    1.0000 </r>
       <r>  -13.6104    1.0000 </r>
       <r>  -11.3665    1.0000 </r>
       <r>  -11.3665    1.0000 </r>
       <r>   -5.4076    1.0000 </r>
       <r>   -5.4076    1.0000 </r>
       <r>   -0.1122    0.0000 </r>
       <r>   -0.1122    0.0000 </r>
       <r>    6.5674    0.0000 </r>
       <r>    6.5674    0.0000 </r>
      </set>
      <set comment="kpoint 238">
       <r>  -17.7982    1.0000 </r>
       <r>  -17.7982    1.0000 </r>
       <r>  -13.8693    1.0000 </r>
       <r>  -13.8693    1.0000 </r>
       <r>  -11.0970    1.0000 </r>
       <r>  -11.0970    1.0000 </r>
       <r>   -5.3823    1.0000 </r>
       <r>   -5.3823    1.0000 </r>
       <r>   -0.2008    0.0000 </r>
       <r>   -0.2008    0.0000 </r>
       <r>    6.6311    0.0000 </r>
       <r>    6.6311    0.0000 </r>
      </set>
      <set comment="kpoint 239">
       <r>  -17.7356    1.0000 </r>
       <r>  -17.7356    1.0000 </r>
       <r>  -14.1552    1.0000 </r>
       <r>  -14.1552    1.0000 </r>
       <r>  -10.7998    1.0000 </r>
       <r>  -10.7998    1.0000 </r>
       <r>   -5.3485    1.0000 </r>
       <r>   -5.3485    1.0000 </r>
       <r>   -0.3146    0.0000 </r>
       <r>   -0.3146    0.0000 </r>
       <r>    6.6992    0.0000 </r>
       <r>    6.6992    0.0000 </r>
      </set>
      <set comment="kpoint 240">
       <r>  -17.6562    1.0000 </r>
       <r>  -17.6562    1.0000 </r>
       <r>  -14.4487    1.0000 </r>
       <r>  -14.4487    1.0000 </r>
       <r>  -10.4974    1.0000 </r>
       <r>  -10.4974    1.0000 </r>
       <r>   -5.3080    1.0000 </r>
       <r>   -5.3080    1.0000 </r>
       <r>   -0.4451    0.0000 </r>
       <r>   -0.4451    0.0000 </r>
       <r>    6.3515    0.0000 </r>
       <r>    6.3515    0.0000 </r>
      </set>
      <set comment="kpoint 241">
       <r>  -17.5609    1.0000 </r>
       <r>  -17.5609    1.0000 </r>
       <r>  -14.7389    1.0000 </r>
       <r>  -14.7389    1.0000 </r>
       <r>  -10.2048    1.0000 </r>
       <r>  -10.2048    1.0000 </r>
       <r>   -5.2629    1.0000 </r>
       <r>   -5.2629    1.0000 </r>
       <r>   -0.5831    0.0000 </r>
       <r>   -0.5831    0.0000 </r>
       <r>    5.8603    0.0000 </r>
       <r>    5.8603    0.0000 </r>
      </set>
      <set comment="kpoint 242">
       <r>  -17.4515    1.0000 </r>
       <r>  -17.4515    1.0000 </r>
       <r>  -15.0188    1.0000 </r>
       <r>  -15.0188    1.0000 </r>
       <r>   -9.9337    1.0000 </r>
       <r>   -9.9337    1.0000 </r>
       <r>   -5.2159    1.0000 </r>
       <r>   -5.2159    1.0000 </r>
       <r>   -0.7195    0.0000 </r>
       <r>   -0.7195    0.0000 </r>
       <r>    5.4162    0.0000 </r>
       <r>    5.4162    0.0000 </r>
      </set>
      <set comment="kpoint 243">
       <r>  -17.3308    1.0000 </r>
       <r>  -17.3308    1.0000 </r>
       <r>  -15.2821    1.0000 </r>
       <r>  -15.2821    1.0000 </r>
       <r>   -9.6942    1.0000 </r>
       <r>   -9.6942    1.0000 </r>
       <r>   -5.1704    1.0000 </r>
       <r>   -5.1704    1.0000 </r>
       <r>   -0.8455    0.0000 </r>
       <r>   -0.8455    0.0000 </r>
       <r>    5.0340    0.0000 </r>
       <r>    5.0340    0.0000 </r>
      </set>
      <set comment="kpoint 244">
       <r>  -17.2042    1.0000 </r>
       <r>  -17.2042    1.0000 </r>
       <r>  -15.5213    1.0000 </r>
       <r>  -15.5213    1.0000 </r>
       <r>   -9.4959    1.0000 </r>
       <r>   -9.4959    1.0000 </r>
       <r>   -5.1298    1.0000 </r>
       <r>   -5.1298    1.0000 </r>
       <r>   -0.9533    0.0000 </r>
       <r>   -0.9533    0.0000 </r>
       <r>    4.7239    0.0000 </r>
       <r>    4.7239    0.0000 </r>
      </set>
      <set comment="kpoint 245">
       <r>  -17.0823    1.0000 </r>
       <r>  -17.0823    1.0000 </r>
       <r>  -15.7244    1.0000 </r>
       <r>  -15.7244    1.0000 </r>
       <r>   -9.3472    1.0000 </r>
       <r>   -9.3472    1.0000 </r>
       <r>   -5.0976    1.0000 </r>
       <r>   -5.0976    1.0000 </r>
       <r>   -1.0359    0.0000 </r>
       <r>   -1.0359    0.0000 </r>
       <r>    4.4951    0.0000 </r>
       <r>    4.4951    0.0000 </r>
      </set>
      <set comment="kpoint 246">
       <r>  -16.9860    1.0000 </r>
       <r>  -16.9860    1.0000 </r>
       <r>  -15.8698    1.0000 </r>
       <r>  -15.8698    1.0000 </r>
       <r>   -9.2550    1.0000 </r>
       <r>   -9.2550    1.0000 </r>
       <r>   -5.0768    1.0000 </r>
       <r>   -5.0768    1.0000 </r>
       <r>   -1.0878    0.0000 </r>
       <r>   -1.0878    0.0000 </r>
       <r>    4.3546    0.0000 </r>
       <r>    4.3546    0.0000 </r>
      </set>
      <set comment="kpoint 247">
       <r>  -16.9474    1.0000 </r>
       <r>  -16.9474    1.0000 </r>
       <r>  -15.9248    1.0000 </r>
       <r>  -15.9248    1.0000 </r>
       <r>   -9.2237    1.0000 </r>
       <r>   -9.2237    1.0000 </r>
       <r>   -5.0696    1.0000 </r>
       <r>   -5.0696    1.0000 </r>
       <r>   -1.1055    0.0000 </r>
       <r>   -1.1055    0.0000 </r>
       <r>    4.3072    0.0000 </r>
       <r>    4.3072    0.0000 </r>
      </set>
     </set>
    </set>
   </array>
  </eigenvalues>
  <separator name="orbital magnetization" >
   <v name="MAGDIPOLOUT">      0.00000000      0.00000000      0.00000000</v>
  </separator>
 </calculation>
 <structure name="finalpos" >
  <crystal>
   <varray name="basis" >
    <v>       4.31748752       0.00000000       0.00000000 </v>
    <v>       0.00000000       2.46269244       0.00000000 </v>
    <v>       0.00000000       0.00000000      19.82930151 </v>
   </varray>
   <i name="volume">    210.83790140 </i>
   <varray name="rec_basis" >
    <v>       0.23161619       0.00000000       0.00000000 </v>
    <v>       0.00000000       0.40605964       0.00000000 </v>
    <v>       0.00000000       0.00000000       0.05043042 </v>
   </varray>
  </crystal>
  <varray name="positions" >
   <v>       0.99974803       0.00000000      -0.00000000 </v>
   <v>       0.16691864       0.50000000       0.00000000 </v>
   <v>       0.49974803       0.50000000      -0.00000000 </v>
   <v>       0.66691864       0.00000000       0.00000000 </v>
  </varray>
 </structure>
</modeling>
