gr                                      
           1
     4.317488    0.000000    0.000000
     0.000000    2.462692    0.000000
     0.000000    0.000000   19.829302
   C 
   4
Direct configuration=     1
   0.99975412  0.00000000  0.00000000
   0.16691255  0.50000000  0.00000000
   0.49975412  0.50000000  0.00000000
   0.66691255  0.00000000  0.00000000
Direct configuration=     2
   0.99972394  0.00000000 -0.00000000
   0.16694273  0.50000000  0.00000000
   0.49972394  0.50000000 -0.00000000
   0.66694273  0.00000000  0.00000000
Direct configuration=     3
   0.99974803  0.00000000 -0.00000000
   0.16691864  0.50000000  0.00000000
   0.49974803  0.50000000 -0.00000000
   0.66691864  0.00000000  0.00000000
Direct configuration=     4
   0.99974803  0.00000000 -0.00000000
   0.16691863  0.50000000  0.00000000
   0.49974803  0.50000000 -0.00000000
   0.66691863  0.00000000  0.00000000
Direct configuration=     5
   0.99974803  0.00000000 -0.00000000
   0.16691864  0.50000000  0.00000000
   0.49974803  0.50000000 -0.00000000
   0.66691864  0.00000000  0.00000000
