    4    4  400    1
  0.5270948E+02  0.4358729E-09  0.2458986E-09  0.1967129E-08  0.5000000E-15
  1.000000000000000E-004
  CAR 
 gr                                      
     16    247     12
 
  0.0000000E+00  0.0000000E+00  0.0000000E+00  0.1157407E-02
    1      -22.115254
    2      -17.212513
    3      -15.862450
    4      -10.252075
    5       -8.872796
    6       -5.965214
    7       -5.737538
    8       -5.291710
    9       -1.165788
   10        0.540523
   11        1.339245
   12        1.730503
 
  0.4166667E-01  0.0000000E+00  0.0000000E+00  0.2314815E-02
    1      -22.105401
    2      -17.338381
    3      -15.721545
    4      -10.240366
    5       -8.863205
    6       -6.009204
    7       -5.758091
    8       -5.351921
    9       -1.089795
   10        0.553859
   11        1.352770
   12        1.744197
 
  0.8333333E-01  0.0000000E+00  0.0000000E+00  0.2314815E-02
    1      -22.075844
    2      -17.623714
    3      -15.391180
    4      -10.205259
    5       -8.834483
    6       -6.139132
    7       -5.818668
    8       -5.520129
    9       -0.874396
   10        0.593872
   11        1.393343
   12        1.785282
 
  0.1250000E+00  0.0000000E+00  0.0000000E+00  0.2314815E-02
    1      -22.026604
    2      -17.963321
    3      -14.976776
    4      -10.146811
    5       -8.786782
    6       -6.349263
    7       -5.916193
    8       -5.767959
    9       -0.548451
   10        0.660580
   11        1.460949
   12        1.853761
 
  0.1666667E+00  0.0000000E+00  0.0000000E+00  0.2314815E-02
    1      -21.957716
    2      -18.315156
    3      -14.520783
    4      -10.065120
    5       -8.720362
    6       -6.631180
    7       -6.066103
    8       -6.046054
    9       -0.142081
   10        0.754003
   11        1.555561
   12        1.949637
 
  0.2083333E+00  0.0000000E+00  0.0000000E+00  0.2314815E-02
    1      -21.869231
    2      -18.663703
    3      -14.039291
    4       -9.960328
    5       -8.635599
    6       -6.975019
    7       -6.391818
    8       -6.202700
    9        0.320793
   10        0.874151
   11        1.677140
   12        2.072912
 
  0.2500000E+00  0.0000000E+00  0.0000000E+00  0.2314815E-02
    1      -21.761212
    2      -19.002315
    3      -13.539711
    4       -9.832625
    5       -8.532995
    6       -7.370576
    7       -6.729420
    8       -6.380211
    9        0.822901
   10        1.021025
   11        1.825622
   12        2.223588
 
  0.2916667E+00  0.0000000E+00  0.0000000E+00  0.2314815E-02
    1      -21.633743
    2      -19.327677
    3      -13.026336
    4       -9.682260
    5       -8.413193
    6       -7.808102
    7       -7.068474
    8       -6.572762
    9        1.194606
   10        1.351721
   11        2.000907
   12        2.401664
 
  0.3333333E+00  0.0000000E+00  0.0000000E+00  0.2314815E-02
    1      -21.486926
    2      -19.637914
    3      -12.502260
    4       -9.509546
    5       -8.278748
    6       -8.277000
    7       -7.402013
    8       -6.774933
    9        1.394863
   10        1.897450
   11        2.202827
   12        2.607134
 
  0.3750000E+00  0.0000000E+00  0.0000000E+00  0.2314815E-02
    1      -21.320882
    2      -19.931856
    3      -11.970151
    4       -9.314879
    5       -8.774744
    6       -8.125411
    7       -7.725293
    8       -6.981861
    9        1.621748
   10        2.431068
   11        2.450877
   12        2.839991
 
  0.4166667E+00  0.0000000E+00  0.0000000E+00  0.2314815E-02
    1      -21.135758
    2      -20.208710
    3      -11.432624
    4       -9.289400
    5       -9.098753
    6       -8.034999
    7       -7.959643
    8       -7.189309
    9        1.875195
   10        2.684944
   11        2.997409
   12        3.100224
 
  0.4583333E+00  0.0000000E+00  0.0000000E+00  0.2314815E-02
    1      -20.931734
    2      -20.467909
    3      -10.892456
    4       -9.817012
    5       -8.861792
    6       -8.328748
    7       -7.781174
    8       -7.393642
    9        2.155115
   10        2.793854
   11        2.962484
   12        3.387820
 
  0.5000000E+00  0.0000000E+00  0.0000000E+00  0.1157407E-02
    1      -20.709028
    2      -20.709028
    3      -10.352738
    4      -10.352738
    5       -8.604786
    6       -8.604786
    7       -7.591790
    8       -7.591790
    9        2.461391
   10        2.461391
   11        3.254477
   12        3.254477
 
  0.0000000E+00  0.2777778E-01  0.0000000E+00  0.2314815E-02
    1      -22.101456
    2      -17.200562
    3      -15.850698
    4      -10.235678
    5       -8.935786
    6       -5.992091
    7       -5.796175
    8       -5.275032
    9       -1.168508
   10        0.559223
   11        1.358143
   12        1.749638
 
  0.4166667E-01  0.2777778E-01  0.0000000E+00  0.4629630E-02
    1      -22.091603
    2      -17.326303
    3      -15.709966
    4      -10.223973
    5       -8.926182
    6       -6.037235
    7       -5.814956
    8       -5.335362
    9       -1.092499
   10        0.572558
   11        1.371668
   12        1.763332
 
  0.8333333E-01  0.2777778E-01  0.0000000E+00  0.4629630E-02
    1      -22.062050
    2      -17.611406
    3      -15.379967
    4      -10.188878
    5       -8.897422
    6       -6.168631
    7       -5.872322
    8       -5.503851
    9       -0.877135
   10        0.612572
   11        1.412239
   12        1.804417
 
  0.1250000E+00  0.2777778E-01  0.0000000E+00  0.4629630E-02
    1      -22.012818
    2      -17.950797
    3      -14.966015
    4      -10.130449
    5       -8.849655
    6       -6.378367
    7       -5.967666
    8       -5.751981
    9       -0.551416
   10        0.679281
   11        1.479841
   12        1.872896
 
  0.1666667E+00  0.2777778E-01  0.0000000E+00  0.4629630E-02
    1      -21.943942
    2      -18.302445
    3      -14.510549
    4      -10.048785
    5       -8.783137
    6       -6.657921
    7       -6.096844
    8       -6.050357
    9       -0.145554
   10        0.772706
   11        1.574449
   12        1.968773
 
  0.2083333E+00  0.2777778E-01  0.0000000E+00  0.4629630E-02
    1      -21.855471
    2      -18.650831
    3      -14.029672
    4       -9.944029
    5       -8.698236
    6       -6.998150
    7       -6.376214
    8       -6.253911
    9        0.316510
   10        0.892859
   11        1.696022
   12        2.092049
 
  0.2500000E+00  0.2777778E-01  0.0000000E+00  0.4629630E-02
    1      -21.747470
    2      -18.989304
    3      -13.530813
    4       -9.816369
    5       -8.595447
    6       -7.389560
    7       -6.713881
    8       -6.432481
    9        0.817523
   10        1.039738
   11        1.844499
   12        2.242727
 
  0.2916667E+00  0.2777778E-01  0.0000000E+00  0.4629630E-02
    1      -21.620025
    2      -19.314546
    3      -13.018286
    4       -9.666055
    5       -8.475401
    6       -7.822896
    7       -7.052941
    8       -6.626385
    9        1.213327
   10        1.345002
   11        2.019779
   12        2.420805
 
  0.3333333E+00  0.2777778E-01  0.0000000E+00  0.4629630E-02
    1      -21.473234
    2      -19.624679
    3      -12.495210
    4       -9.493399
    5       -8.338894
    6       -8.289598
    7       -7.386448
    8       -6.829976
    9        1.413592
   10        1.889213
   11        2.221697
   12        2.626279
 
  0.3750000E+00  0.2777778E-01  0.0000000E+00  0.4629630E-02
    1      -21.307222
    2      -19.918531
    3      -11.964285
    4       -9.298796
    5       -8.782034
    6       -8.186907
    7       -7.709671
    8       -7.038264
    9        1.640487
   10        2.441130
   11        2.449943
   12        2.859141
 
  0.4166667E+00  0.2777778E-01  0.0000000E+00  0.4629630E-02
    1      -21.122136
    2      -20.195308
    3      -11.428160
    4       -9.293563
    5       -9.082741
    6       -8.020638
    7       -8.019305
    8       -7.246942
    9        1.893945
   10        2.703834
   11        2.987052
   12        3.119379
 
  0.4583333E+00  0.2777778E-01  0.0000000E+00  0.4629630E-02
    1      -20.918155
    2      -20.454439
    3      -10.889649
    4       -9.818474
    5       -8.845857
    6       -8.312975
    7       -7.841549
    8       -7.452349
    9        2.173880
   10        2.812669
   11        2.981393
   12        3.407234
 
  0.5000000E+00  0.2777778E-01  0.0000000E+00  0.2314815E-02
    1      -20.695500
    2      -20.695500
    3      -10.351892
    4      -10.351892
    5       -8.588931
    6       -8.588931
    7       -7.651408
    8       -7.651408
    9        2.480175
   10        2.480175
   11        3.273100
   12        3.273100
 
  0.0000000E+00  0.5555556E-01  0.0000000E+00  0.2314815E-02
    1      -22.060069
    2      -17.164711
    3      -15.815585
    4      -10.186521
    5       -9.119662
    6       -6.072271
    7       -5.967293
    8       -5.225018
    9       -1.177476
   10        0.615322
   11        1.414831
   12        1.807042
 
  0.4166667E-01  0.5555556E-01  0.0000000E+00  0.4629630E-02
    1      -22.050221
    2      -17.290077
    3      -15.675367
    4      -10.174828
    5       -9.110018
    6       -6.125375
    7       -5.976296
    8       -5.285718
    9       -1.101418
   10        0.628657
   11        1.428354
   12        1.820737
 
  0.8333333E-01  0.5555556E-01  0.0000000E+00  0.4629630E-02
    1      -22.020682
    2      -17.574500
    3      -15.346474
    4      -10.139769
    5       -9.081130
    6       -6.264293
    7       -6.021004
    8       -5.455071
    9       -0.886153
   10        0.668670
   11        1.468918
   12        1.861822
 
  0.1250000E+00  0.5555556E-01  0.0000000E+00  0.4629630E-02
    1      -21.971474
    2      -17.913246
    3      -14.933890
    4      -10.081400
    5       -9.033142
    6       -6.473035
    7       -6.109715
    8       -5.704120
    9       -0.561123
   10        0.735381
   11        1.536509
   12        1.930302
 
  0.1666667E+00  0.5555556E-01  0.0000000E+00  0.4629630E-02
    1      -21.902631
    2      -18.264331
    3      -14.480029
    4       -9.999820
    5       -8.966294
    6       -6.744850
    7       -6.237567
    8       -6.003202
    9       -0.156813
   10        0.828810
   11        1.631102
   12        2.026180
 
  0.2083333E+00  0.5555556E-01  0.0000000E+00  0.4629630E-02
    1      -21.814204
    2      -18.612232
    3      -14.001033
    4       -9.895170
    5       -8.880935
    6       -7.073375
    7       -6.396813
    8       -6.329491
    9        0.302776
   10        0.948971
   11        1.752658
   12        2.149460
 
  0.2500000E+00  0.5555556E-01  0.0000000E+00  0.4629630E-02
    1      -21.706259
    2      -18.950289
    3      -13.504386
    4       -9.767642
    5       -8.777530
    6       -7.451413
    7       -6.667352
    8       -6.579508
    9        0.800442
   10        1.095862
   11        1.901116
   12        2.300142
 
  0.2916667E+00  0.5555556E-01  0.0000000E+00  0.4629630E-02
    1      -21.578882
    2      -19.275171
    3      -12.994470
    4       -9.617481
    5       -8.656679
    6       -7.871280
    7       -7.006430
    8       -6.778355
    9        1.269467
   10        1.323812
   11        2.076381
   12        2.478226
 
  0.3333333E+00  0.5555556E-01  0.0000000E+00  0.4629630E-02
    1      -21.432172
    2      -19.584992
    3      -12.474486
    4       -9.445002
    5       -8.519134
    6       -8.325340
    7       -7.339835
    8       -6.986989
    9        1.469752
   10        1.863349
   11        2.278294
   12        2.683709
 
  0.3750000E+00  0.5555556E-01  0.0000000E+00  0.4629630E-02
    1      -21.266256
    2      -19.878573
    3      -11.947229
    4       -9.250597
    5       -8.806414
    6       -8.365826
    7       -7.662881
    8       -7.200008
    9        1.696670
   10        2.410517
   11        2.506554
   12        2.916581
 
  0.4166667E+00  0.5555556E-01  0.0000000E+00  0.4629630E-02
    1      -21.081282
    2      -20.155116
    3      -11.415461
    4       -9.308002
    5       -9.034760
    6       -8.197898
    7       -7.972294
    8       -7.412905
    9        1.950154
   10        2.760495
   11        2.953837
   12        3.176836
 
  0.4583333E+00  0.5555556E-01  0.0000000E+00  0.4629630E-02
    1      -20.877432
    2      -20.414044
    3      -10.882128
    4       -9.824368
    5       -8.798109
    6       -8.265721
    7       -8.016746
    8       -7.621950
    9        2.230120
   10        2.869016
   11        3.038116
   12        3.428740
 
  0.5000000E+00  0.5555556E-01  0.0000000E+00  0.2314815E-02
    1      -20.654929
    2      -20.654929
    3      -10.350516
    4      -10.350516
    5       -8.541428
    6       -8.541428
    7       -7.824072
    8       -7.824072
    9        2.536457
   10        2.536457
   11        3.328797
   12        3.328797
 
  0.0000000E+00  0.8333333E-01  0.0000000E+00  0.2314815E-02
    1      -21.991130
    2      -17.104973
    3      -15.757562
    4      -10.104710
    5       -9.410578
    6       -6.237999
    7       -6.204399
    8       -5.141733
    9       -1.195127
   10        0.708821
   11        1.509286
   12        1.902718
 
  0.4166667E-01  0.8333333E-01  0.0000000E+00  0.4629630E-02
    1      -21.981289
    2      -17.229735
    3      -15.618194
    4      -10.093038
    5       -9.400850
    6       -6.311706
    7       -6.189881
    8       -5.203085
    9       -1.118970
   10        0.722154
   11        1.522805
   12        1.916413
 
  0.8333333E-01  0.8333333E-01  0.0000000E+00  0.4629630E-02
    1      -21.951773
    2      -17.513045
    3      -15.291156
    4      -10.058040
    5       -9.371705
    6       -6.456954
    7       -6.219987
    8       -5.373956
    9       -0.903846
   10        0.762163
   11        1.563356
   12        1.957498
 
  0.1250000E+00  0.8333333E-01  0.0000000E+00  0.4629630E-02
    1      -21.902605
    2      -17.850723
    3      -14.880906
    4       -9.999773
    5       -9.323269
    6       -6.659093
    7       -6.302937
    8       -5.624606
    9       -0.579988
   10        0.828869
   11        1.630926
   12        2.025977
 
  0.1666667E+00  0.8333333E-01  0.0000000E+00  0.4629630E-02
    1      -21.833818
    2      -18.200871
    3      -14.429813
    4       -9.918336
    5       -9.255758
    6       -6.914870
    7       -6.432007
    8       -5.924907
    9       -0.178352
   10        0.922294
   11        1.725492
   12        2.121856
 
  0.2083333E+00  0.8333333E-01  0.0000000E+00  0.4629630E-02
    1      -21.745465
    2      -18.547964
    3      -13.954086
    4       -9.813871
    5       -9.169477
    6       -7.221022
    7       -6.597926
    8       -6.251931
    9        0.276960
   10        1.042456
   11        1.847016
   12        2.245138
 
  0.2500000E+00  0.8333333E-01  0.0000000E+00  0.4629630E-02
    1      -21.637614
    2      -18.885322
    3      -13.461311
    4       -9.686567
    5       -9.064839
    6       -7.573601
    7       -6.790718
    8       -6.590114
    9        0.768840
   10        1.189354
   11        1.995439
   12        2.395825
 
  0.2916667E+00  0.8333333E-01  0.0000000E+00  0.4629630E-02
    1      -21.510350
    2      -19.209599
    3      -12.955998
    4       -9.536671
    5       -8.942374
    6       -7.967692
    7       -7.001094
    8       -6.929211
    9        1.285095
   10        1.362972
   11        2.170674
   12        2.573917
 
  0.3333333E+00  0.8333333E-01  0.0000000E+00  0.4629630E-02
    1      -21.363776
    2      -19.518897
    3      -12.441501
    4       -9.364496
    5       -8.802746
    6       -8.397532
    7       -7.262430
    8       -7.221196
    9        1.563275
   10        1.816477
   11        2.372571
   12        2.779409
 
  0.3750000E+00  0.8333333E-01  0.0000000E+00  0.4629630E-02
    1      -21.198020
    2      -19.812026
    3      -11.920804
    4       -9.170432
    5       -8.856919
    6       -8.646780
    7       -7.585162
    8       -7.444746
    9        1.790212
   10        2.355092
   11        2.600853
   12        3.012295
 
  0.4166667E+00  0.8333333E-01  0.0000000E+00  0.4629630E-02
    1      -21.013233
    2      -20.088177
    3      -11.396894
    4       -9.339681
    5       -8.954970
    6       -8.475490
    7       -7.894186
    8       -7.666839
    9        2.043717
   10        2.854885
   11        2.891994
   12        3.272567
 
  0.4583333E+00  0.8333333E-01  0.0000000E+00  0.4629630E-02
    1      -20.809603
    2      -20.346765
    3      -10.872985
    4       -9.840015
    5       -8.718722
    6       -8.290121
    7       -8.187189
    8       -7.883658
    9        2.323705
   10        2.962675
   11        3.132634
   12        3.396586
 
  0.5000000E+00  0.8333333E-01  0.0000000E+00  0.2314815E-02
    1      -20.587355
    2      -20.587355
    3      -10.352665
    4      -10.352665
    5       -8.462464
    6       -8.462464
    7       -8.092211
    8       -8.092211
    9        2.630071
   10        2.630071
   11        3.420732
   12        3.420732
 
  0.0000000E+00  0.1111111E+00  0.0000000E+00  0.2314815E-02
    1      -21.894698
    2      -17.021368
    3      -15.677480
    4       -9.990424
    5       -9.789322
    6       -6.590770
    7       -6.386208
    8       -5.025285
    9       -1.225511
   10        0.839718
   11        1.641469
   12        2.036667
 
  0.4166667E-01  0.1111111E+00  0.0000000E+00  0.4629630E-02
    1      -21.884868
    2      -17.145330
    3      -15.539284
    4       -9.978782
    5       -9.779443
    6       -6.641369
    7       -6.390949
    8       -5.087635
    9       -1.149167
   10        0.853047
   11        1.654981
   12        2.050361
 
  0.8333333E-01  0.1111111E+00  0.0000000E+00  0.4629630E-02
    1      -21.855385
    2      -17.427131
    3      -15.214882
    4       -9.943873
    5       -9.749837
    6       -6.772500
    7       -6.424193
    8       -5.260810
    9       -0.934175
   10        0.893044
   11        1.695511
   12        2.091443
 
  0.1250000E+00  0.1111111E+00  0.0000000E+00  0.4629630E-02
    1      -21.806272
    2      -17.763332
    3      -14.808035
    4       -9.885756
    5       -9.700603
    6       -6.960809
    7       -6.504405
    8       -5.513856
    9       -0.611987
   10        0.959730
   11        1.763048
   12        2.159920
 
  0.1666667E+00  0.1111111E+00  0.0000000E+00  0.4629630E-02
    1      -21.737565
    2      -18.112170
    3      -14.361048
    4       -9.804529
    5       -9.631902
    6       -7.195695
    7       -6.634267
    8       -5.815952
    9       -0.214261
   10        1.053135
   11        1.857568
   12        2.255796
 
  0.2083333E+00  0.1111111E+00  0.0000000E+00  0.4629630E-02
    1      -21.649316
    2      -18.458122
    3      -13.890237
    4       -9.700333
    5       -9.543969
    6       -7.472256
    7       -6.808214
    8       -6.144038
    9        0.234774
   10        1.173278
   11        1.979035
   12        2.379078
 
  0.2500000E+00  0.1111111E+00  0.0000000E+00  0.4629630E-02
    1      -21.541596
    2      -18.794494
    3      -13.403353
    4       -9.573358
    5       -9.437113
    6       -7.788165
    7       -7.016339
    8       -6.482664
    9        0.718158
   10        1.320163
   11        2.127398
   12        2.529767
 
  0.2916667E+00  0.1111111E+00  0.0000000E+00  0.4629630E-02
    1      -21.414490
    2      -19.117918
    3      -12.905126
    4       -9.423851
    5       -9.311729
    6       -8.141989
    7       -7.247007
    8       -6.821759
    9        1.223952
   10        1.493774
   11        2.302574
   12        2.707864
 
  0.3333333E+00  0.1111111E+00  0.0000000E+00  0.4629630E-02
    1      -21.268107
    2      -19.426477
    3      -12.399185
    4       -9.252122
    5       -9.168303
    6       -8.531780
    7       -7.489157
    8       -7.154679
    9        1.694075
   10        1.743262
   11        2.504436
   12        2.913364
 
  0.3750000E+00  0.1111111E+00  0.0000000E+00  0.4629630E-02
    1      -21.102576
    2      -19.718966
    3      -11.888860
    4       -9.058560
    5       -9.007433
    6       -8.954223
    7       -7.733836
    8       -7.476928
    9        1.921011
   10        2.268841
   11        2.732739
   12        3.146262
 
  0.4166667E+00  0.1111111E+00  0.0000000E+00  0.4629630E-02
    1      -20.918054
    2      -19.994562
    3      -11.377565
    4       -9.404638
    5       -8.843649
    6       -8.829850
    7       -7.974594
    8       -7.785366
    9        2.174511
   10        2.793735
   11        2.986918
   12        3.406549
 
  0.4583333E+00  0.1111111E+00  0.0000000E+00  0.4629630E-02
    1      -20.714734
    2      -20.252671
    3      -10.869031
    4       -9.877574
    5       -8.636451
    6       -8.607996
    7       -8.207078
    8       -8.077735
    9        2.454490
   10        3.093425
   11        3.264917
   12        3.305769
 
  0.5000000E+00  0.1111111E+00  0.0000000E+00  0.2314815E-02
    1      -20.492845
    2      -20.492845
    3      -10.367455
    4      -10.367455
    5       -8.428369
    6       -8.428369
    7       -8.352367
    8       -8.352367
    9        2.760839
   10        2.760839
   11        3.544280
   12        3.544280
 
  0.0000000E+00  0.1388889E+00  0.0000000E+00  0.2314815E-02
    1      -21.770860
    2      -16.913927
    3      -15.576774
    4      -10.234804
    5       -9.843921
    6       -7.007063
    7       -6.614542
    8       -4.875829
    9       -1.274223
   10        1.008006
   11        1.811321
   12        2.208889
 
  0.4166667E-01  0.1388889E+00  0.0000000E+00  0.4629630E-02
    1      -21.761044
    2      -17.036944
    3      -15.440060
    4      -10.224667
    5       -9.832319
    6       -7.053322
    7       -6.619053
    8       -4.939631
    9       -1.197529
   10        1.021327
   11        1.824821
   12        2.222582
 
  0.8333333E-01  0.1388889E+00  0.0000000E+00  0.4629630E-02
    1      -21.731604
    2      -17.316898
    3      -15.119142
    4      -10.194272
    5       -9.797533
    6       -7.177992
    7       -6.645636
    8       -5.116115
    9       -0.982536
   10        1.061299
   11        1.865319
   12        2.263660
 
  0.1250000E+00  0.1388889E+00  0.0000000E+00  0.4629630E-02
    1      -21.682562
    2      -17.651229
    3      -14.716972
    4      -10.143660
    5       -9.739620
    6       -7.358571
    7       -6.713544
    8       -5.372536
    9       -0.662489
   10        1.127947
   11        1.932801
   12        2.332130
 
  0.1666667E+00  0.1388889E+00  0.0000000E+00  0.4629630E-02
    1      -21.613958
    2      -17.998382
    3      -14.275776
    4      -10.072900
    5       -9.658678
    6       -7.580214
    7       -6.831977
    8       -5.677100
    9       -0.270017
   10        1.221304
   11        2.027245
   12        2.427998
 
  0.2083333E+00  0.1388889E+00  0.0000000E+00  0.4629630E-02
    1      -21.525845
    2      -18.342856
    3      -13.812037
    4       -9.982083
    5       -9.554850
    6       -7.834631
    7       -7.001171
    8       -6.006598
    9        0.170520
   10        1.341396
   11        2.148618
   12        2.551273
 
  0.2500000E+00  0.1388889E+00  0.0000000E+00  0.4629630E-02
    1      -21.418293
    2      -18.677944
    3      -13.333792
    4       -9.871314
    5       -9.428325
    6       -8.117701
    7       -7.215112
    8       -6.345775
    9        0.642405
   10        1.488234
   11        2.296872
   12        2.701958
 
  0.2916667E+00  0.1388889E+00  0.0000000E+00  0.4629630E-02
    1      -21.291393
    2      -19.000255
    3      -12.846159
    4       -9.740706
    5       -9.279350
    6       -8.428290
    7       -7.463392
    8       -6.684808
    9        1.134056
   10        1.661804
   11        2.471937
   12        2.880054
 
  0.3333333E+00  0.1388889E+00  0.0000000E+00  0.4629630E-02
    1      -21.145256
    2      -19.307852
    3      -12.353284
    4       -9.590366
    5       -9.108232
    6       -8.767288
    7       -7.733017
    8       -7.017267
    9        1.637003
   10        1.862068
   11        2.673709
   12        3.085558
 
  0.3750000E+00  0.1388889E+00  0.0000000E+00  0.4629630E-02
    1      -20.980017
    2      -19.599506
    3      -11.859160
    4       -9.420387
    5       -9.136190
    6       -8.915358
    7       -8.010608
    8       -7.338812
    9        2.088968
   10        2.144586
   11        2.902004
   12        3.318464
 
  0.4166667E+00  0.1388889E+00  0.0000000E+00  0.4629630E-02
    1      -20.795838
    2      -19.874380
    3      -11.368044
    4       -9.535346
    5       -9.230848
    6       -8.701208
    7       -8.284711
    8       -7.646414
    9        2.342425
   10        2.651089
   11        3.156389
   12        3.578762
 
  0.4583333E+00  0.1388889E+00  0.0000000E+00  0.4629630E-02
    1      -20.592919
    2      -20.131865
    3      -10.884688
    4       -9.962803
    5       -9.021862
    6       -8.547284
    7       -8.466379
    8       -7.937890
    9        2.622346
   10        3.150614
   11        3.261097
   12        3.434920
 
  0.5000000E+00  0.1388889E+00  0.0000000E+00  0.2314815E-02
    1      -20.371497
    2      -20.371497
    3      -10.414389
    4      -10.414389
    5       -8.793723
    6       -8.793723
    7       -8.211623
    8       -8.211623
    9        2.928617
   10        2.928617
   11        3.613978
   12        3.613979
 
  0.0000000E+00  0.1666667E+00  0.0000000E+00  0.2314815E-02
    1      -21.619732
    2      -16.782690
    3      -15.457837
    4      -10.726303
    5       -9.665547
    6       -7.469754
    7       -6.885429
    8       -4.693570
    9       -1.348181
   10        1.213663
   11        2.018757
   12        2.419386
 
  0.4166667E-01  0.1666667E+00  0.0000000E+00  0.4629630E-02
    1      -21.609934
    2      -16.904697
    3      -15.322916
    4      -10.715725
    5       -9.653999
    6       -7.515493
    7       -6.885401
    8       -4.759462
    9       -1.270822
   10        1.226971
   11        2.032240
   12        2.433076
 
  0.8333333E-01  0.1666667E+00  0.0000000E+00  0.4629630E-02
    1      -21.580546
    2      -17.182550
    3      -15.006489
    4      -10.683968
    5       -9.619373
    6       -7.639635
    7       -6.897891
    8       -4.940621
    9       -1.055426
   10        1.266906
   11        2.072683
   12        2.474147
 
  0.1250000E+00  0.1666667E+00  0.0000000E+00  0.4629630E-02
    1      -21.531593
    2      -17.514646
    3      -14.610687
    4      -10.630968
    5       -9.561728
    6       -7.818942
    7       -6.944454
    8       -5.201674
    9       -0.737856
   10        1.333494
   11        2.140075
   12        2.542605
 
  0.1666667E+00  0.1666667E+00  0.0000000E+00  0.4629630E-02
    1      -21.463114
    2      -17.859736
    3      -14.177669
    4      -10.556597
    5       -9.481162
    6       -8.035974
    7       -7.039167
    8       -5.509510
    9       -0.352028
   10        1.426769
   11        2.234390
   12        2.638458
 
  0.2083333E+00  0.1666667E+00  0.0000000E+00  0.4629630E-02
    1      -21.375166
    2      -18.202380
    3      -13.724218
    4      -10.460644
    5       -9.377818
    6       -8.279909
    7       -7.187372
    8       -5.840795
    9        0.077625
   10        1.546768
   11        2.355596
   12        2.761715
 
  0.2500000E+00  0.1666667E+00  0.0000000E+00  0.4629630E-02
    1      -21.267821
    2      -18.535870
    3      -13.258907
    4      -10.342772
    5       -9.251888
    6       -8.544301
    7       -7.387784
    8       -6.180588
    9        0.534800
   10        1.693509
   11        2.503646
   12        2.912384
 
  0.2916667E+00  0.1666667E+00  0.0000000E+00  0.4629630E-02
    1      -21.141175
    2      -18.856794
    3      -12.787617
    4      -10.202463
    5       -9.103616
    6       -8.825829
    7       -7.634087
    8       -6.519430
    9        1.008443
   10        1.866988
   11        2.678478
   12        3.090469
 
  0.3333333E+00  0.1666667E+00  0.0000000E+00  0.4629630E-02
    1      -20.995342
    2      -19.163189
    3      -12.315531
    4      -10.038960
    5       -9.123807
    6       -8.933309
    7       -7.916114
    8       -6.851183
    9        1.490632
   10        2.067167
   11        2.880008
   12        3.295969
 
  0.3750000E+00  0.1666667E+00  0.0000000E+00  0.4629630E-02
    1      -20.830464
    2      -19.453803
    3      -11.847983
    4       -9.851221
    5       -9.439937
    6       -8.741352
    7       -8.220911
    8       -7.171719
    9        1.975299
   10        2.293984
   11        3.108122
   12        3.528877
 
  0.4166667E+00  0.1666667E+00  0.0000000E+00  0.4629630E-02
    1      -20.646712
    2      -19.727777
    3      -11.390814
    4       -9.777730
    5       -9.637995
    6       -8.534033
    7       -8.528217
    8       -7.478155
    9        2.457506
   10        2.547350
   11        3.362634
   12        3.789181
 
  0.4583333E+00  0.1666667E+00  0.0000000E+00  0.4629630E-02
    1      -20.444290
    2      -19.984485
    3      -10.950277
    4      -10.141110
    5       -9.398181
    6       -8.841419
    7       -8.294493
    8       -7.768404
    9        2.827158
   10        2.933002
   11        3.465564
   12        3.642545
 
  0.5000000E+00  0.1666667E+00  0.0000000E+00  0.2314815E-02
    1      -20.223448
    2      -20.223448
    3      -10.532308
    4      -10.532308
    5       -9.131767
    6       -9.131767
    7       -8.040913
    8       -8.040913
    9        3.133281
   10        3.133281
   11        3.397826
   12        3.397826
 