<?xml version="1.0" encoding="ISO-8859-1"?>
<modeling>
 <generator>
  <i name="program" type="string">vasp </i>
  <i name="version" type="string">5.3.5  </i>
  <i name="subversion" type="string">31Mar14 (build Mar 02 2015 18:14:16) complex                          parallel </i>
  <i name="platform" type="string">LinuxIFC </i>
  <i name="date" type="string">2018 08 08 </i>
  <i name="time" type="string">18:43:18 </i>
 </generator>
 <incar>
  <i type="string" name="SYSTEM">  gr</i>
  <i type="string" name="PREC">accurate : accuracy</i>
  <i type="string" name="ALGO"> FAST.</i>
  <i type="int" name="NELM">   100</i>
  <i type="int" name="NELMDL">    -3</i>
  <i type="int" name="NELMIN">     5</i>
  <i type="int" name="IBRION">     1</i>
  <i name="EDIFF">      0.00000000</i>
  <i name="EDIFFG">     -0.00000100</i>
  <i type="int" name="NSW">   400</i>
  <i type="int" name="ISIF">     2</i>
  <i name="ENCUT">   2000.00000000</i>
  <i type="int" name="ISMEAR">     0</i>
  <i name="SIGMA">      0.05000000</i>
  <i type="int" name="NWRITE">     2</i>
  <i type="logical" name="LWAVE"> F  </i>
  <i type="logical" name="LCHARG"> F  </i>
  <i type="int" name="NELM">   100</i>
 </incar>
 <kpoints>
  <generation param="Gamma">
   <v type="int" name="divisions">      24       36        1 </v>
   <v name="usershift">      0.00000000       0.00000000       0.00000000 </v>
   <v name="genvec1">      0.04166667       0.00000000       0.00000000 </v>
   <v name="genvec2">      0.00000000       0.02777778       0.00000000 </v>
   <v name="genvec3">      0.00000000       0.00000000       1.00000000 </v>
   <v name="shift">      0.00000000       0.00000000       0.00000000 </v>
  </generation>
  <varray name="kpointlist" >
   <v>       0.00000000       0.00000000       0.00000000 </v>
   <v>       0.04166667       0.00000000       0.00000000 </v>
   <v>       0.08333333       0.00000000       0.00000000 </v>
   <v>       0.12500000       0.00000000       0.00000000 </v>
   <v>       0.16666667       0.00000000       0.00000000 </v>
   <v>       0.20833333       0.00000000       0.00000000 </v>
   <v>       0.25000000       0.00000000       0.00000000 </v>
   <v>       0.29166667       0.00000000       0.00000000 </v>
   <v>       0.33333333       0.00000000       0.00000000 </v>
   <v>       0.37500000       0.00000000       0.00000000 </v>
   <v>       0.41666667       0.00000000       0.00000000 </v>
   <v>       0.45833333       0.00000000       0.00000000 </v>
   <v>       0.50000000       0.00000000       0.00000000 </v>
   <v>       0.00000000       0.02777778       0.00000000 </v>
   <v>       0.04166667       0.02777778       0.00000000 </v>
   <v>       0.08333333       0.02777778       0.00000000 </v>
   <v>       0.12500000       0.02777778       0.00000000 </v>
   <v>       0.16666667       0.02777778       0.00000000 </v>
   <v>       0.20833333       0.02777778       0.00000000 </v>
   <v>       0.25000000       0.02777778       0.00000000 </v>
   <v>       0.29166667       0.02777778       0.00000000 </v>
   <v>       0.33333333       0.02777778       0.00000000 </v>
   <v>       0.37500000       0.02777778       0.00000000 </v>
   <v>       0.41666667       0.02777778       0.00000000 </v>
   <v>       0.45833333       0.02777778       0.00000000 </v>
   <v>       0.50000000       0.02777778       0.00000000 </v>
   <v>       0.00000000       0.05555556       0.00000000 </v>
   <v>       0.04166667       0.05555556       0.00000000 </v>
   <v>       0.08333333       0.05555556       0.00000000 </v>
   <v>       0.12500000       0.05555556       0.00000000 </v>
   <v>       0.16666667       0.05555556       0.00000000 </v>
   <v>       0.20833333       0.05555556       0.00000000 </v>
   <v>       0.25000000       0.05555556       0.00000000 </v>
   <v>       0.29166667       0.05555556       0.00000000 </v>
   <v>       0.33333333       0.05555556       0.00000000 </v>
   <v>       0.37500000       0.05555556       0.00000000 </v>
   <v>       0.41666667       0.05555556       0.00000000 </v>
   <v>       0.45833333       0.05555556       0.00000000 </v>
   <v>       0.50000000       0.05555556       0.00000000 </v>
   <v>       0.00000000       0.08333333       0.00000000 </v>
   <v>       0.04166667       0.08333333       0.00000000 </v>
   <v>       0.08333333       0.08333333       0.00000000 </v>
   <v>       0.12500000       0.08333333       0.00000000 </v>
   <v>       0.16666667       0.08333333       0.00000000 </v>
   <v>       0.20833333       0.08333333       0.00000000 </v>
   <v>       0.25000000       0.08333333       0.00000000 </v>
   <v>       0.29166667       0.08333333       0.00000000 </v>
   <v>       0.33333333       0.08333333       0.00000000 </v>
   <v>       0.37500000       0.08333333       0.00000000 </v>
   <v>       0.41666667       0.08333333       0.00000000 </v>
   <v>       0.45833333       0.08333333       0.00000000 </v>
   <v>       0.50000000       0.08333333       0.00000000 </v>
   <v>       0.00000000       0.11111111       0.00000000 </v>
   <v>       0.04166667       0.11111111       0.00000000 </v>
   <v>       0.08333333       0.11111111       0.00000000 </v>
   <v>       0.12500000       0.11111111       0.00000000 </v>
   <v>       0.16666667       0.11111111       0.00000000 </v>
   <v>       0.20833333       0.11111111       0.00000000 </v>
   <v>       0.25000000       0.11111111       0.00000000 </v>
   <v>       0.29166667       0.11111111       0.00000000 </v>
   <v>       0.33333333       0.11111111       0.00000000 </v>
   <v>       0.37500000       0.11111111       0.00000000 </v>
   <v>       0.41666667       0.11111111       0.00000000 </v>
   <v>       0.45833333       0.11111111       0.00000000 </v>
   <v>       0.50000000       0.11111111       0.00000000 </v>
   <v>       0.00000000       0.13888889       0.00000000 </v>
   <v>       0.04166667       0.13888889       0.00000000 </v>
   <v>       0.08333333       0.13888889       0.00000000 </v>
   <v>       0.12500000       0.13888889       0.00000000 </v>
   <v>       0.16666667       0.13888889       0.00000000 </v>
   <v>       0.20833333       0.13888889       0.00000000 </v>
   <v>       0.25000000       0.13888889       0.00000000 </v>
   <v>       0.29166667       0.13888889       0.00000000 </v>
   <v>       0.33333333       0.13888889       0.00000000 </v>
   <v>       0.37500000       0.13888889       0.00000000 </v>
   <v>       0.41666667       0.13888889       0.00000000 </v>
   <v>       0.45833333       0.13888889       0.00000000 </v>
   <v>       0.50000000       0.13888889       0.00000000 </v>
   <v>       0.00000000       0.16666667       0.00000000 </v>
   <v>       0.04166667       0.16666667       0.00000000 </v>
   <v>       0.08333333       0.16666667       0.00000000 </v>
   <v>       0.12500000       0.16666667       0.00000000 </v>
   <v>       0.16666667       0.16666667       0.00000000 </v>
   <v>       0.20833333       0.16666667       0.00000000 </v>
   <v>       0.25000000       0.16666667       0.00000000 </v>
   <v>       0.29166667       0.16666667       0.00000000 </v>
   <v>       0.33333333       0.16666667       0.00000000 </v>
   <v>       0.37500000       0.16666667       0.00000000 </v>
   <v>       0.41666667       0.16666667       0.00000000 </v>
   <v>       0.45833333       0.16666667       0.00000000 </v>
   <v>       0.50000000       0.16666667       0.00000000 </v>
   <v>       0.00000000       0.19444444       0.00000000 </v>
   <v>       0.04166667       0.19444444       0.00000000 </v>
   <v>       0.08333333       0.19444444       0.00000000 </v>
   <v>       0.12500000       0.19444444       0.00000000 </v>
   <v>       0.16666667       0.19444444       0.00000000 </v>
   <v>       0.20833333       0.19444444       0.00000000 </v>
   <v>       0.25000000       0.19444444       0.00000000 </v>
   <v>       0.29166667       0.19444444       0.00000000 </v>
   <v>       0.33333333       0.19444444       0.00000000 </v>
   <v>       0.37500000       0.19444444       0.00000000 </v>
   <v>       0.41666667       0.19444444       0.00000000 </v>
   <v>       0.45833333       0.19444444       0.00000000 </v>
   <v>       0.50000000       0.19444444       0.00000000 </v>
   <v>       0.00000000       0.22222222       0.00000000 </v>
   <v>       0.04166667       0.22222222       0.00000000 </v>
   <v>       0.08333333       0.22222222       0.00000000 </v>
   <v>       0.12500000       0.22222222       0.00000000 </v>
   <v>       0.16666667       0.22222222       0.00000000 </v>
   <v>       0.20833333       0.22222222       0.00000000 </v>
   <v>       0.25000000       0.22222222       0.00000000 </v>
   <v>       0.29166667       0.22222222       0.00000000 </v>
   <v>       0.33333333       0.22222222       0.00000000 </v>
   <v>       0.37500000       0.22222222       0.00000000 </v>
   <v>       0.41666667       0.22222222       0.00000000 </v>
   <v>       0.45833333       0.22222222       0.00000000 </v>
   <v>       0.50000000       0.22222222       0.00000000 </v>
   <v>       0.00000000       0.25000000       0.00000000 </v>
   <v>       0.04166667       0.25000000       0.00000000 </v>
   <v>       0.08333333       0.25000000       0.00000000 </v>
   <v>       0.12500000       0.25000000       0.00000000 </v>
   <v>       0.16666667       0.25000000       0.00000000 </v>
   <v>       0.20833333       0.25000000       0.00000000 </v>
   <v>       0.25000000       0.25000000       0.00000000 </v>
   <v>       0.29166667       0.25000000       0.00000000 </v>
   <v>       0.33333333       0.25000000       0.00000000 </v>
   <v>       0.37500000       0.25000000       0.00000000 </v>
   <v>       0.41666667       0.25000000       0.00000000 </v>
   <v>       0.45833333       0.25000000       0.00000000 </v>
   <v>       0.50000000       0.25000000       0.00000000 </v>
   <v>       0.00000000       0.27777778       0.00000000 </v>
   <v>       0.04166667       0.27777778       0.00000000 </v>
   <v>       0.08333333       0.27777778       0.00000000 </v>
   <v>       0.12500000       0.27777778       0.00000000 </v>
   <v>       0.16666667       0.27777778       0.00000000 </v>
   <v>       0.20833333       0.27777778       0.00000000 </v>
   <v>       0.25000000       0.27777778       0.00000000 </v>
   <v>       0.29166667       0.27777778       0.00000000 </v>
   <v>       0.33333333       0.27777778       0.00000000 </v>
   <v>       0.37500000       0.27777778       0.00000000 </v>
   <v>       0.41666667       0.27777778       0.00000000 </v>
   <v>       0.45833333       0.27777778       0.00000000 </v>
   <v>       0.50000000       0.27777778       0.00000000 </v>
   <v>       0.00000000       0.30555556       0.00000000 </v>
   <v>       0.04166667       0.30555556       0.00000000 </v>
   <v>       0.08333333       0.30555556       0.00000000 </v>
   <v>       0.12500000       0.30555556       0.00000000 </v>
   <v>       0.16666667       0.30555556       0.00000000 </v>
   <v>       0.20833333       0.30555556       0.00000000 </v>
   <v>       0.25000000       0.30555556       0.00000000 </v>
   <v>       0.29166667       0.30555556       0.00000000 </v>
   <v>       0.33333333       0.30555556       0.00000000 </v>
   <v>       0.37500000       0.30555556       0.00000000 </v>
   <v>       0.41666667       0.30555556       0.00000000 </v>
   <v>       0.45833333       0.30555556       0.00000000 </v>
   <v>       0.50000000       0.30555556       0.00000000 </v>
   <v>       0.00000000       0.33333333       0.00000000 </v>
   <v>       0.04166667       0.33333333       0.00000000 </v>
   <v>       0.08333333       0.33333333       0.00000000 </v>
   <v>       0.12500000       0.33333333       0.00000000 </v>
   <v>       0.16666667       0.33333333       0.00000000 </v>
   <v>       0.20833333       0.33333333       0.00000000 </v>
   <v>       0.25000000       0.33333333       0.00000000 </v>
   <v>       0.29166667       0.33333333       0.00000000 </v>
   <v>       0.33333333       0.33333333       0.00000000 </v>
   <v>       0.37500000       0.33333333       0.00000000 </v>
   <v>       0.41666667       0.33333333       0.00000000 </v>
   <v>       0.45833333       0.33333333       0.00000000 </v>
   <v>       0.50000000       0.33333333       0.00000000 </v>
   <v>       0.00000000       0.36111111       0.00000000 </v>
   <v>       0.04166667       0.36111111       0.00000000 </v>
   <v>       0.08333333       0.36111111       0.00000000 </v>
   <v>       0.12500000       0.36111111       0.00000000 </v>
   <v>       0.16666667       0.36111111       0.00000000 </v>
   <v>       0.20833333       0.36111111       0.00000000 </v>
   <v>       0.25000000       0.36111111       0.00000000 </v>
   <v>       0.29166667       0.36111111       0.00000000 </v>
   <v>       0.33333333       0.36111111       0.00000000 </v>
   <v>       0.37500000       0.36111111       0.00000000 </v>
   <v>       0.41666667       0.36111111       0.00000000 </v>
   <v>       0.45833333       0.36111111       0.00000000 </v>
   <v>       0.50000000       0.36111111       0.00000000 </v>
   <v>       0.00000000       0.38888889       0.00000000 </v>
   <v>       0.04166667       0.38888889       0.00000000 </v>
   <v>       0.08333333       0.38888889       0.00000000 </v>
   <v>       0.12500000       0.38888889       0.00000000 </v>
   <v>       0.16666667       0.38888889       0.00000000 </v>
   <v>       0.20833333       0.38888889       0.00000000 </v>
   <v>       0.25000000       0.38888889       0.00000000 </v>
   <v>       0.29166667       0.38888889       0.00000000 </v>
   <v>       0.33333333       0.38888889       0.00000000 </v>
   <v>       0.37500000       0.38888889       0.00000000 </v>
   <v>       0.41666667       0.38888889       0.00000000 </v>
   <v>       0.45833333       0.38888889       0.00000000 </v>
   <v>       0.50000000       0.38888889       0.00000000 </v>
   <v>       0.00000000       0.41666667       0.00000000 </v>
   <v>       0.04166667       0.41666667       0.00000000 </v>
   <v>       0.08333333       0.41666667       0.00000000 </v>
   <v>       0.12500000       0.41666667       0.00000000 </v>
   <v>       0.16666667       0.41666667       0.00000000 </v>
   <v>       0.20833333       0.41666667       0.00000000 </v>
   <v>       0.25000000       0.41666667       0.00000000 </v>
   <v>       0.29166667       0.41666667       0.00000000 </v>
   <v>       0.33333333       0.41666667       0.00000000 </v>
   <v>       0.37500000       0.41666667       0.00000000 </v>
   <v>       0.41666667       0.41666667       0.00000000 </v>
   <v>       0.45833333       0.41666667       0.00000000 </v>
   <v>       0.50000000       0.41666667       0.00000000 </v>
   <v>       0.00000000       0.44444444       0.00000000 </v>
   <v>       0.04166667       0.44444444       0.00000000 </v>
   <v>       0.08333333       0.44444444       0.00000000 </v>
   <v>       0.12500000       0.44444444       0.00000000 </v>
   <v>       0.16666667       0.44444444       0.00000000 </v>
   <v>       0.20833333       0.44444444       0.00000000 </v>
   <v>       0.25000000       0.44444444       0.00000000 </v>
   <v>       0.29166667       0.44444444       0.00000000 </v>
   <v>       0.33333333       0.44444444       0.00000000 </v>
   <v>       0.37500000       0.44444444       0.00000000 </v>
   <v>       0.41666667       0.44444444       0.00000000 </v>
   <v>       0.45833333       0.44444444       0.00000000 </v>
   <v>       0.50000000       0.44444444       0.00000000 </v>
   <v>       0.00000000       0.47222222       0.00000000 </v>
   <v>       0.04166667       0.47222222       0.00000000 </v>
   <v>       0.08333333       0.47222222       0.00000000 </v>
   <v>       0.12500000       0.47222222       0.00000000 </v>
   <v>       0.16666667       0.47222222       0.00000000 </v>
   <v>       0.20833333       0.47222222       0.00000000 </v>
   <v>       0.25000000       0.47222222       0.00000000 </v>
   <v>       0.29166667       0.47222222       0.00000000 </v>
   <v>       0.33333333       0.47222222       0.00000000 </v>
   <v>       0.37500000       0.47222222       0.00000000 </v>
   <v>       0.41666667       0.47222222       0.00000000 </v>
   <v>       0.45833333       0.47222222       0.00000000 </v>
   <v>       0.50000000       0.47222222       0.00000000 </v>
   <v>       0.00000000       0.50000000       0.00000000 </v>
   <v>       0.04166667       0.50000000       0.00000000 </v>
   <v>       0.08333333       0.50000000       0.00000000 </v>
   <v>       0.12500000       0.50000000       0.00000000 </v>
   <v>       0.16666667       0.50000000       0.00000000 </v>
   <v>       0.20833333       0.50000000       0.00000000 </v>
   <v>       0.25000000       0.50000000       0.00000000 </v>
   <v>       0.29166667       0.50000000       0.00000000 </v>
   <v>       0.33333333       0.50000000       0.00000000 </v>
   <v>       0.37500000       0.50000000       0.00000000 </v>
   <v>       0.41666667       0.50000000       0.00000000 </v>
   <v>       0.45833333       0.50000000       0.00000000 </v>
   <v>       0.50000000       0.50000000       0.00000000 </v>
  </varray>
  <varray name="weights" >
   <v>       0.00115741 </v>
   <v>       0.00231481 </v>
   <v>       0.00231481 </v>
   <v>       0.00231481 </v>
   <v>       0.00231481 </v>
   <v>       0.00231481 </v>
   <v>       0.00231481 </v>
   <v>       0.00231481 </v>
   <v>       0.00231481 </v>
   <v>       0.00231481 </v>
   <v>       0.00231481 </v>
   <v>       0.00231481 </v>
   <v>       0.00115741 </v>
   <v>       0.00231481 </v>
   <v>       0.00462963 </v>
   <v>       0.00462963 </v>
   <v>       0.00462963 </v>
   <v>       0.00462963 </v>
   <v>       0.00462963 </v>
   <v>       0.00462963 </v>
   <v>       0.00462963 </v>
   <v>       0.00462963 </v>
   <v>       0.00462963 </v>
   <v>       0.00462963 </v>
   <v>       0.00462963 </v>
   <v>       0.00231481 </v>
   <v>       0.00231481 </v>
   <v>       0.00462963 </v>
   <v>       0.00462963 </v>
   <v>       0.00462963 </v>
   <v>       0.00462963 </v>
   <v>       0.00462963 </v>
   <v>       0.00462963 </v>
   <v>       0.00462963 </v>
   <v>       0.00462963 </v>
   <v>       0.00462963 </v>
   <v>       0.00462963 </v>
   <v>       0.00462963 </v>
   <v>       0.00231481 </v>
   <v>       0.00231481 </v>
   <v>       0.00462963 </v>
   <v>       0.00462963 </v>
   <v>       0.00462963 </v>
   <v>       0.00462963 </v>
   <v>       0.00462963 </v>
   <v>       0.00462963 </v>
   <v>       0.00462963 </v>
   <v>       0.00462963 </v>
   <v>       0.00462963 </v>
   <v>       0.00462963 </v>
   <v>       0.00462963 </v>
   <v>       0.00231481 </v>
   <v>       0.00231481 </v>
   <v>       0.00462963 </v>
   <v>       0.00462963 </v>
   <v>       0.00462963 </v>
   <v>       0.00462963 </v>
   <v>       0.00462963 </v>
   <v>       0.00462963 </v>
   <v>       0.00462963 </v>
   <v>       0.00462963 </v>
   <v>       0.00462963 </v>
   <v>       0.00462963 </v>
   <v>       0.00462963 </v>
   <v>       0.00231481 </v>
   <v>       0.00231481 </v>
   <v>       0.00462963 </v>
   <v>       0.00462963 </v>
   <v>       0.00462963 </v>
   <v>       0.00462963 </v>
   <v>       0.00462963 </v>
   <v>       0.00462963 </v>
   <v>       0.00462963 </v>
   <v>       0.00462963 </v>
   <v>       0.00462963 </v>
   <v>       0.00462963 </v>
   <v>       0.00462963 </v>
   <v>       0.00231481 </v>
   <v>       0.00231481 </v>
   <v>       0.00462963 </v>
   <v>       0.00462963 </v>
   <v>       0.00462963 </v>
   <v>       0.00462963 </v>
   <v>       0.00462963 </v>
   <v>       0.00462963 </v>
   <v>       0.00462963 </v>
   <v>       0.00462963 </v>
   <v>       0.00462963 </v>
   <v>       0.00462963 </v>
   <v>       0.00462963 </v>
   <v>       0.00231481 </v>
   <v>       0.00231481 </v>
   <v>       0.00462963 </v>
   <v>       0.00462963 </v>
   <v>       0.00462963 </v>
   <v>       0.00462963 </v>
   <v>       0.00462963 </v>
   <v>       0.00462963 </v>
   <v>       0.00462963 </v>
   <v>       0.00462963 </v>
   <v>       0.00462963 </v>
   <v>       0.00462963 </v>
   <v>       0.00462963 </v>
   <v>       0.00231481 </v>
   <v>       0.00231481 </v>
   <v>       0.00462963 </v>
   <v>       0.00462963 </v>
   <v>       0.00462963 </v>
   <v>       0.00462963 </v>
   <v>       0.00462963 </v>
   <v>       0.00462963 </v>
   <v>       0.00462963 </v>
   <v>       0.00462963 </v>
   <v>       0.00462963 </v>
   <v>       0.00462963 </v>
   <v>       0.00462963 </v>
   <v>       0.00231481 </v>
   <v>       0.00231481 </v>
   <v>       0.00462963 </v>
   <v>       0.00462963 </v>
   <v>       0.00462963 </v>
   <v>       0.00462963 </v>
   <v>       0.00462963 </v>
   <v>       0.00462963 </v>
   <v>       0.00462963 </v>
   <v>       0.00462963 </v>
   <v>       0.00462963 </v>
   <v>       0.00462963 </v>
   <v>       0.00462963 </v>
   <v>       0.00231481 </v>
   <v>       0.00231481 </v>
   <v>       0.00462963 </v>
   <v>       0.00462963 </v>
   <v>       0.00462963 </v>
   <v>       0.00462963 </v>
   <v>       0.00462963 </v>
   <v>       0.00462963 </v>
   <v>       0.00462963 </v>
   <v>       0.00462963 </v>
   <v>       0.00462963 </v>
   <v>       0.00462963 </v>
   <v>       0.00462963 </v>
   <v>       0.00231481 </v>
   <v>       0.00231481 </v>
   <v>       0.00462963 </v>
   <v>       0.00462963 </v>
   <v>       0.00462963 </v>
   <v>       0.00462963 </v>
   <v>       0.00462963 </v>
   <v>       0.00462963 </v>
   <v>       0.00462963 </v>
   <v>       0.00462963 </v>
   <v>       0.00462963 </v>
   <v>       0.00462963 </v>
   <v>       0.00462963 </v>
   <v>       0.00231481 </v>
   <v>       0.00231481 </v>
   <v>       0.00462963 </v>
   <v>       0.00462963 </v>
   <v>       0.00462963 </v>
   <v>       0.00462963 </v>
   <v>       0.00462963 </v>
   <v>       0.00462963 </v>
   <v>       0.00462963 </v>
   <v>       0.00462963 </v>
   <v>       0.00462963 </v>
   <v>       0.00462963 </v>
   <v>       0.00462963 </v>
   <v>       0.00231481 </v>
   <v>       0.00231481 </v>
   <v>       0.00462963 </v>
   <v>       0.00462963 </v>
   <v>       0.00462963 </v>
   <v>       0.00462963 </v>
   <v>       0.00462963 </v>
   <v>       0.00462963 </v>
   <v>       0.00462963 </v>
   <v>       0.00462963 </v>
   <v>       0.00462963 </v>
   <v>       0.00462963 </v>
   <v>       0.00462963 </v>
   <v>       0.00231481 </v>
   <v>       0.00231481 </v>
   <v>       0.00462963 </v>
   <v>       0.00462963 </v>
   <v>       0.00462963 </v>
   <v>       0.00462963 </v>
   <v>       0.00462963 </v>
   <v>       0.00462963 </v>
   <v>       0.00462963 </v>
   <v>       0.00462963 </v>
   <v>       0.00462963 </v>
   <v>       0.00462963 </v>
   <v>       0.00462963 </v>
   <v>       0.00231481 </v>
   <v>       0.00231481 </v>
   <v>       0.00462963 </v>
   <v>       0.00462963 </v>
   <v>       0.00462963 </v>
   <v>       0.00462963 </v>
   <v>       0.00462963 </v>
   <v>       0.00462963 </v>
   <v>       0.00462963 </v>
   <v>       0.00462963 </v>
   <v>       0.00462963 </v>
   <v>       0.00462963 </v>
   <v>       0.00462963 </v>
   <v>       0.00231481 </v>
   <v>       0.00231481 </v>
   <v>       0.00462963 </v>
   <v>       0.00462963 </v>
   <v>       0.00462963 </v>
   <v>       0.00462963 </v>
   <v>       0.00462963 </v>
   <v>       0.00462963 </v>
   <v>       0.00462963 </v>
   <v>       0.00462963 </v>
   <v>       0.00462963 </v>
   <v>       0.00462963 </v>
   <v>       0.00462963 </v>
   <v>       0.00231481 </v>
   <v>       0.00231481 </v>
   <v>       0.00462963 </v>
   <v>       0.00462963 </v>
   <v>       0.00462963 </v>
   <v>       0.00462963 </v>
   <v>       0.00462963 </v>
   <v>       0.00462963 </v>
   <v>       0.00462963 </v>
   <v>       0.00462963 </v>
   <v>       0.00462963 </v>
   <v>       0.00462963 </v>
   <v>       0.00462963 </v>
   <v>       0.00231481 </v>
   <v>       0.00115741 </v>
   <v>       0.00231481 </v>
   <v>       0.00231481 </v>
   <v>       0.00231481 </v>
   <v>       0.00231481 </v>
   <v>       0.00231481 </v>
   <v>       0.00231481 </v>
   <v>       0.00231481 </v>
   <v>       0.00231481 </v>
   <v>       0.00231481 </v>
   <v>       0.00231481 </v>
   <v>       0.00231481 </v>
   <v>       0.00115741 </v>
  </varray>
 </kpoints>
 <parameters>
  <separator name="general" >
   <i type="string" name="SYSTEM">gr</i>
   <i type="logical" name="LCOMPAT"> F  </i>
  </separator>
  <separator name="electronic" >
   <i type="string" name="PREC">accura</i>
   <i name="ENMAX">   2000.00000000</i>
   <i name="ENAUG">    644.87300000</i>
   <i name="EDIFF">      0.00000000</i>
   <i type="int" name="IALGO">    68</i>
   <i type="int" name="IWAVPR">    11</i>
   <i type="int" name="NBANDS">    12</i>
   <i name="NELECT">     16.00000000</i>
   <i type="int" name="TURBO">     0</i>
   <i type="int" name="IRESTART">     0</i>
   <i type="int" name="NREBOOT">     0</i>
   <i type="int" name="NMIN">     0</i>
   <i name="EREF">      0.00000000</i>
   <separator name="electronic smearing" >
    <i type="int" name="ISMEAR">     0</i>
    <i name="SIGMA">      0.05000000</i>
    <i name="KSPACING">      0.50000000</i>
    <i type="logical" name="KGAMMA"> T  </i>
   </separator>
   <separator name="electronic projectors" >
    <i type="logical" name="LREAL"> F  </i>
    <v name="ROPT">      0.00000000</v>
    <i type="int" name="LMAXPAW">  -100</i>
    <i type="int" name="LMAXMIX">     2</i>
    <i type="logical" name="NLSPLINE"> F  </i>
   </separator>
   <separator name="electronic startup" >
    <i type="int" name="ISTART">     0</i>
    <i type="int" name="ICHARG">     2</i>
    <i type="int" name="INIWAV">     1</i>
   </separator>
   <separator name="electronic spin" >
    <i type="int" name="ISPIN">     1</i>
    <i type="logical" name="LNONCOLLINEAR"> F  </i>
    <v name="MAGMOM">      1.00000000      1.00000000      1.00000000      1.00000000</v>
    <i name="NUPDOWN">     -1.00000000</i>
    <i type="logical" name="LSORBIT"> F  </i>
    <v name="SAXIS">      0.00000000      0.00000000      1.00000000</v>
    <i type="logical" name="LSPIRAL"> F  </i>
    <v name="QSPIRAL">      0.00000000      0.00000000      0.00000000</v>
    <i type="logical" name="LZEROZ"> F  </i>
   </separator>
   <separator name="electronic exchange-correlation" >
    <i type="logical" name="LASPH"> F  </i>
    <i type="logical" name="LMETAGGA"> F  </i>
   </separator>
   <separator name="electronic convergence" >
    <i type="int" name="NELM">   100</i>
    <i type="int" name="NELMDL">    -3</i>
    <i type="int" name="NELMIN">     5</i>
    <i name="ENINI">   2000.00000000</i>
    <separator name="electronic convergence detail" >
     <i type="logical" name="LDIAG"> T  </i>
     <i type="logical" name="LSUBROT"> F  </i>
     <i name="WEIMIN">      0.00100000</i>
     <i name="EBREAK">      0.00000000</i>
     <i name="DEPER">      0.30000000</i>
     <i type="int" name="NRMM">     4</i>
     <i name="TIME">      0.40000000</i>
    </separator>
   </separator>
   <separator name="electronic mixer" >
    <i name="AMIX">      0.40000000</i>
    <i name="BMIX">      1.00000000</i>
    <i name="AMIN">      0.10000000</i>
    <i name="AMIX_MAG">      1.60000000</i>
    <i name="BMIX_MAG">      1.00000000</i>
    <separator name="electronic mixer details" >
     <i type="int" name="IMIX">     4</i>
     <i type="int" name="MAXMIX">   -45</i>
     <i name="WC">    100.00000000</i>
     <i type="int" name="INIMIX">     1</i>
     <i type="int" name="MIXPRE">     1</i>
     <i type="int" name="MREMOVE">     5</i>
    </separator>
   </separator>
   <separator name="electronic dipolcorrection" >
    <i type="logical" name="LDIPOL"> F  </i>
    <i type="logical" name="LMONO"> F  </i>
    <i type="int" name="IDIPOL">     0</i>
    <i name="EPSILON">      1.00000000</i>
    <v name="DIPOL">   -100.00000000   -100.00000000   -100.00000000</v>
    <i name="EFIELD">      0.00000000</i>
   </separator>
  </separator>
  <separator name="grids" >
   <i type="int" name="NGX">    64</i>
   <i type="int" name="NGY">    36</i>
   <i type="int" name="NGZ">   288</i>
   <i type="int" name="NGXF">   128</i>
   <i type="int" name="NGYF">    72</i>
   <i type="int" name="NGZF">   576</i>
   <i type="logical" name="ADDGRID"> F  </i>
  </separator>
  <separator name="ionic" >
   <i type="int" name="NSW">   400</i>
   <i type="int" name="IBRION">     1</i>
   <i type="int" name="ISIF">     2</i>
   <i name="PSTRESS">      0.00000000</i>
   <i name="EDIFFG">     -0.00000100</i>
   <i type="int" name="NFREE">     0</i>
   <i name="POTIM">      0.50000000</i>
   <i name="SMASS">     -3.00000000</i>
   <i name="SCALEE">      1.00000000</i>
  </separator>
  <separator name="ionic md" >
   <i name="TEBEG">      0.00010000</i>
   <i name="TEEND">      0.00010000</i>
   <i type="int" name="NBLOCK">     1</i>
   <i type="int" name="KBLOCK">   400</i>
   <i type="int" name="NPACO">   256</i>
   <i name="APACO">     16.00000000</i>
  </separator>
  <separator name="symmetry" >
   <i type="int" name="ISYM">     2</i>
   <i name="SYMPREC">      0.00001000</i>
  </separator>
  <separator name="dos" >
   <i type="logical" name="LORBIT"> F  </i>
   <v name="RWIGS">     -1.00000000</v>
   <i type="int" name="NEDOS">   301</i>
   <i name="EMIN">     10.00000000</i>
   <i name="EMAX">    -10.00000000</i>
   <i name="EFERMI">      0.00000000</i>
  </separator>
  <separator name="writing" >
   <i type="int" name="NWRITE">     2</i>
   <i type="logical" name="LWAVE"> F  </i>
   <i type="logical" name="LCHARG"> F  </i>
   <i type="logical" name="LPARD"> F  </i>
   <i type="logical" name="LVTOT"> F  </i>
   <i type="logical" name="LVHAR"> F  </i>
   <i type="logical" name="LELF"> F  </i>
   <i type="logical" name="LOPTICS"> F  </i>
   <v name="STM">      0.00000000      0.00000000      0.00000000      0.00000000      0.00000000      0.00000000      0.00000000</v>
  </separator>
  <separator name="performance" >
   <i type="int" name="NPAR">     4</i>
   <i type="int" name="NSIM">     4</i>
   <i type="int" name="NBLK">    -1</i>
   <i type="logical" name="LPLANE"> T  </i>
   <i type="logical" name="LSCALAPACK"> F  </i>
   <i type="logical" name="LSCAAWARE"> F  </i>
   <i type="logical" name="LSCALU"> F  </i>
   <i type="logical" name="LASYNC"> F  </i>
   <i type="logical" name="LORBITALREAL"> F  </i>
  </separator>
  <separator name="miscellaneous" >
   <i type="int" name="IDIOT">     3</i>
   <i type="logical" name="LMUSIC"> F  </i>
   <v name="POMASS">     12.01100000</v>
   <v name="DARWINR">      0.00000000</v>
   <v name="DARWINV">      1.00000000</v>
   <i type="logical" name="LCORR"> T  </i>
  </separator>
  <i type="logical" name="GGA_COMPAT"> T  </i>
  <i type="logical" name="LBERRY"> F  </i>
  <i type="int" name="ICORELEVEL">     0</i>
  <i type="logical" name="LDAU"> F  </i>
  <i type="int" name="I_CONSTRAINED_M">     0</i>
  <separator name="electronic exchange-correlation" >
   <i type="string" name="GGA">--</i>
   <i type="int" name="VOSKOWN">     0</i>
   <i type="logical" name="LHFCALC"> F  </i>
   <i type="string" name="PRECFOCK"></i>
   <i type="logical" name="LSYMGRAD"> F  </i>
   <i type="logical" name="LHFONE"> F  </i>
   <i type="logical" name="LRHFCALC"> F  </i>
   <i type="logical" name="LTHOMAS"> F  </i>
   <i type="logical" name="LMODELHF"> F  </i>
   <i name="ENCUT4O">     -1.00000000</i>
   <i type="int" name="EXXOEP">     0</i>
   <i type="int" name="FOURORBIT">     0</i>
   <i name="AEXX">      0.00000000</i>
   <i name="HFALPHA">      0.00000000</i>
   <i name="MCALPHA">      0.00000000</i>
   <i name="ALDAX">      1.00000000</i>
   <i name="AGGAX">      1.00000000</i>
   <i name="ALDAC">      1.00000000</i>
   <i name="AGGAC">      1.00000000</i>
   <i type="int" name="NKREDX">     1</i>
   <i type="int" name="NKREDY">     1</i>
   <i type="int" name="NKREDZ">     1</i>
   <i type="logical" name="SHIFTRED"> F  </i>
   <i type="logical" name="ODDONLY"> F  </i>
   <i type="logical" name="EVENONLY"> F  </i>
   <i type="int" name="LMAXFOCK">     0</i>
   <i type="int" name="NMAXFOCKAE">     0</i>
   <i type="logical" name="LFOCKAEDFT"> F  </i>
   <i name="HFSCREEN">      0.00000000</i>
   <i name="HFSCREENC">      0.00000000</i>
   <i type="int" name="NBANDSGWLOW">     0</i>
  </separator>
  <separator name="vdW DFT" >
   <i type="logical" name="LUSE_VDW"> F  </i>
   <i name="Zab_VDW">     -0.84910000</i>
   <i name="PARAM1">      0.12340000</i>
   <i name="PARAM2">      1.00000000</i>
   <i name="PARAM3">      0.00000000</i>
  </separator>
  <separator name="model GW" >
   <i type="int" name="MODEL_GW">     0</i>
   <i name="MODEL_EPS0">     31.62568521</i>
   <i name="MODEL_ALPHA">      1.00000000</i>
  </separator>
  <separator name="linear response parameters" >
   <i type="logical" name="LEPSILON"> F  </i>
   <i type="logical" name="LRPA"> F  </i>
   <i type="logical" name="LNABLA"> F  </i>
   <i type="logical" name="LVEL"> F  </i>
   <i type="int" name="KINTER">     0</i>
   <i name="CSHIFT">      0.10000000</i>
   <i name="OMEGAMAX">     -1.00000000</i>
   <i name="DEG_THRESHOLD">      0.00200000</i>
  </separator>
  <separator name="orbital magnetization" >
   <i type="logical" name="NUCIND"> F  </i>
   <v name="MAGPOS">      0.00000000      0.00000000      0.00000000</v>
   <i type="logical" name="LNICSALL"> T  </i>
   <i type="logical" name="ORBITALMAG"> F  </i>
   <i type="logical" name="LMAGBLOCH"> F  </i>
   <i type="logical" name="LCHIMAG"> F  </i>
   <i type="logical" name="LGAUGE"> T  </i>
   <i type="int" name="MAGATOM">     0</i>
   <v name="MAGDIPOL">      0.00000000      0.00000000      0.00000000</v>
   <v name="AVECCONST">      0.00000000      0.00000000      0.00000000</v>
  </separator>
  <separator name="response functions" >
   <i type="logical" name="LADDER"> F  </i>
   <i type="logical" name="LFXC"> F  </i>
   <i type="logical" name="LHARTREE"> T  </i>
   <i type="int" name="IBSE">     0</i>
   <i type="logical" name="LTCTE"> F  </i>
   <i type="logical" name="LTETE"> F  </i>
   <i type="logical" name="LTRIPLET"> F  </i>
   <i type="logical" name="LFXCEPS"> F  </i>
   <i type="logical" name="LFXHEG"> F  </i>
   <i type="logical" name="L2ORDER"> F  </i>
   <i type="logical" name="LUSEW"> F  </i>
   <i name="ENCUTGW">     -2.00000000</i>
   <i name="ENCUTGWSOFT">     -2.00000000</i>
   <i name="ENCUTLF">     -1.00000000</i>
   <i type="int" name="LMAXMP2">    -1</i>
   <i name="SCISSOR">      0.00000000</i>
   <i type="int" name="NOMEGA">     0</i>
   <i type="int" name="NOMEGAR">     0</i>
   <i type="int" name="NBANDSGW">    -1</i>
   <i type="int" name="NBANDSO">    -1</i>
   <i type="int" name="NBANDSV">    -1</i>
   <i type="int" name="NELM">   100</i>
   <i type="int" name="DIM">     3</i>
   <i type="int" name="ANTIRES">     0</i>
   <i name="OMEGAMAX">    -30.00000000</i>
   <i name="OMEGAMIN">    -30.00000000</i>
   <i name="OMEGATL">   -200.00000000</i>
   <i type="int" name="OMEGAGRID">     0</i>
   <i name="CSHIFT">     -0.10000000</i>
   <i type="logical" name="SELFENERGY"> F  </i>
   <i type="logical" name="LSPECTRAL"> F  </i>
   <i type="logical" name="ODDONLYGW"> F  </i>
   <i type="logical" name="EVENONLYGW"> F  </i>
   <i type="int" name="NKREDLFX">     1</i>
   <i type="int" name="NKREDLFY">     1</i>
   <i type="int" name="NKREDLFZ">     1</i>
   <i type="int" name="MAXMEM">  1800</i>
   <i type="int" name="TELESCOPE">     0</i>
   <i type="int" name="TAUPAR">     1</i>
  </separator>
  <separator name="External order field" >
   <i name="OFIELD_KAPPA">      0.00000000</i>
   <v name="OFIELD_K">      0.00000000      0.00000000      0.00000000</v>
   <i name="OFIELD_Q6_NEAR">      0.00000000</i>
   <i name="OFIELD_Q6_FAR">      0.00000000</i>
   <i name="OFIELD_A">      0.00000000</i>
  </separator>
 </parameters>
 <atominfo>
  <atoms>       4 </atoms>
  <types>       1 </types>
  <array name="atoms" >
   <dimension dim="1">ion</dimension>
   <field type="string">element</field>
   <field type="int">atomtype</field>
   <set>
    <rc><c>C </c><c>   1</c></rc>
    <rc><c>C </c><c>   1</c></rc>
    <rc><c>C </c><c>   1</c></rc>
    <rc><c>C </c><c>   1</c></rc>
   </set>
  </array>
  <array name="atomtypes" >
   <dimension dim="1">type</dimension>
   <field type="int">atomspertype</field>
   <field type="string">element</field>
   <field>mass</field>
   <field>valence</field>
   <field type="string">pseudopotential</field>
   <set>
    <rc><c>   4</c><c>C </c><c>     12.01100000</c><c>      4.00000000</c><c> PAW_PBE C 08Apr2002                    </c></rc>
   </set>
  </array>
 </atominfo>
 <structure name="initialpos" >
  <crystal>
   <varray name="basis" >
    <v>       4.35872855       0.00000000       0.00000000 </v>
    <v>       0.00000000       2.45898631       0.00000000 </v>
    <v>       0.00000000       0.00000000      19.67128590 </v>
   </varray>
   <i name="volume">    210.83790140 </i>
   <varray name="rec_basis" >
    <v>       0.22942470       0.00000000       0.00000000 </v>
    <v>       0.00000000       0.40667164       0.00000000 </v>
    <v>       0.00000000       0.00000000       0.05083552 </v>
   </varray>
  </crystal>
  <varray name="positions" >
   <v>       0.99954297       0.00000000       0.00000000 </v>
   <v>       0.16712369       0.50000000       0.00000000 </v>
   <v>       0.49954297       0.50000000       0.00000000 </v>
   <v>       0.66712369       0.00000000       0.00000000 </v>
  </varray>
 </structure>
 <calculation>
  <scstep>
   <time name="dav">  290.84  291.50</time>
   <time name="total">  293.45  294.14</time>
   <energy>
    <i name="alphaZ">      6.18334092 </i>
    <i name="ewald">   2476.35207339 </i>
    <i name="hartreedc">  -2905.04032487 </i>
    <i name="XCdc">     54.87270299 </i>
    <i name="pawpsdc">    151.32577238 </i>
    <i name="pawaedc">   -155.92769107 </i>
    <i name="eentropy">     -0.00153715 </i>
    <i name="bandstr">    -28.69038903 </i>
    <i name="atom">    588.62352690 </i>
    <i name="e_fr_energy">    187.69747447 </i>
    <i name="e_wo_entrp">    187.69901162 </i>
    <i name="e_0_energy">    187.69824304 </i>
   </energy>
  </scstep>
  <scstep>
   <time name="dav">  436.58  438.28</time>
   <time name="total">  436.59  438.37</time>
   <energy>
    <i name="e_fr_energy">     -9.61619887 </i>
    <i name="e_wo_entrp">     -9.61549735 </i>
    <i name="e_0_energy">     -9.61584811 </i>
   </energy>
  </scstep>
  <scstep>
   <time name="dav">  341.34  343.99</time>
   <time name="total">  371.05  374.16</time>
   <energy>
    <i name="e_fr_energy">    -38.17425633 </i>
    <i name="e_wo_entrp">    -38.17425270 </i>
    <i name="e_0_energy">    -38.17425452 </i>
   </energy>
  </scstep>
  <scstep>
   <time name="diag">   77.74   78.57</time>
   <time name="diis">  334.50  336.37</time>
   <time name="orth">    3.10    3.10</time>
   <time name="total">  447.69  450.56</time>
   <energy>
    <i name="e_fr_energy">    -37.61152101 </i>
    <i name="e_wo_entrp">    -37.61152069 </i>
    <i name="e_0_energy">    -37.61152085 </i>
   </energy>
  </scstep>
  <scstep>
   <time name="diag">   78.32   78.51</time>
   <time name="diis">  330.82  333.16</time>
   <time name="orth">    3.09    3.10</time>
   <time name="total">  444.47  447.29</time>
   <energy>
    <i name="e_fr_energy">    -36.89183580 </i>
    <i name="e_wo_entrp">    -36.89183523 </i>
    <i name="e_0_energy">    -36.89183551 </i>
   </energy>
  </scstep>
  <scstep>
   <time name="diag">   77.94   78.55</time>
   <time name="diis">  362.58  364.76</time>
   <time name="orth">    3.09    3.11</time>
   <time name="total">  475.85  479.93</time>
   <energy>
    <i name="e_fr_energy">    -36.89355326 </i>
    <i name="e_wo_entrp">    -36.89355276 </i>
    <i name="e_0_energy">    -36.89355301 </i>
   </energy>
  </scstep>
  <scstep>
   <time name="diag">   77.89   78.51</time>
   <time name="diis">  329.86  331.91</time>
   <time name="orth">    3.08    3.08</time>
   <time name="total">  442.93  446.03</time>
   <energy>
    <i name="e_fr_energy">    -36.88443730 </i>
    <i name="e_wo_entrp">    -36.88443692 </i>
    <i name="e_0_energy">    -36.88443711 </i>
   </energy>
  </scstep>
  <scstep>
   <time name="diag">   77.87   78.61</time>
   <time name="diis">  332.25  334.63</time>
   <time name="orth">    3.08    3.11</time>
   <time name="total">  445.48  448.91</time>
   <energy>
    <i name="e_fr_energy">    -36.87938044 </i>
    <i name="e_wo_entrp">    -36.87938003 </i>
    <i name="e_0_energy">    -36.87938024 </i>
   </energy>
  </scstep>
  <scstep>
   <time name="diag">   78.12   78.51</time>
   <time name="diis">  316.11  316.93</time>
   <time name="orth">    3.08    3.08</time>
   <time name="total">  429.45  430.98</time>
   <energy>
    <i name="e_fr_energy">    -36.87916136 </i>
    <i name="e_wo_entrp">    -36.87916089 </i>
    <i name="e_0_energy">    -36.87916113 </i>
   </energy>
  </scstep>
  <scstep>
   <time name="diag">   77.96   78.54</time>
   <time name="diis">  317.44  318.18</time>
   <time name="orth">    3.10    3.10</time>
   <time name="total">  430.89  432.38</time>
   <energy>
    <i name="e_fr_energy">    -36.87911846 </i>
    <i name="e_wo_entrp">    -36.87911803 </i>
    <i name="e_0_energy">    -36.87911824 </i>
   </energy>
  </scstep>
  <scstep>
   <time name="diag">   77.88   78.54</time>
   <time name="diis">  316.76  319.70</time>
   <time name="orth">    3.08    3.08</time>
   <time name="total">  429.96  433.85</time>
   <energy>
    <i name="e_fr_energy">    -36.88145132 </i>
    <i name="e_wo_entrp">    -36.88145090 </i>
    <i name="e_0_energy">    -36.88145111 </i>
   </energy>
  </scstep>
  <scstep>
   <time name="diag">   78.26   78.58</time>
   <time name="diis">  318.38  319.16</time>
   <time name="orth">    3.08    3.09</time>
   <time name="total">  432.03  433.39</time>
   <energy>
    <i name="e_fr_energy">    -36.88195795 </i>
    <i name="e_wo_entrp">    -36.88195752 </i>
    <i name="e_0_energy">    -36.88195773 </i>
   </energy>
  </scstep>
  <scstep>
   <time name="diag">   77.93   78.51</time>
   <time name="diis">  325.57  327.96</time>
   <time name="orth">    3.10    3.10</time>
   <time name="total">  439.14  442.20</time>
   <energy>
    <i name="e_fr_energy">    -36.88218428 </i>
    <i name="e_wo_entrp">    -36.88218385 </i>
    <i name="e_0_energy">    -36.88218406 </i>
   </energy>
  </scstep>
  <scstep>
   <time name="diag">   78.27   78.52</time>
   <time name="diis">  322.57  325.29</time>
   <time name="orth">    3.08    3.08</time>
   <time name="total">  436.18  439.33</time>
   <energy>
    <i name="e_fr_energy">    -36.88226714 </i>
    <i name="e_wo_entrp">    -36.88226672 </i>
    <i name="e_0_energy">    -36.88226693 </i>
   </energy>
  </scstep>
  <scstep>
   <time name="diag">   77.90   78.45</time>
   <time name="diis">  319.65  322.72</time>
   <time name="orth">    3.08    3.10</time>
   <time name="total">  432.77  436.81</time>
   <energy>
    <i name="e_fr_energy">    -36.88227849 </i>
    <i name="e_wo_entrp">    -36.88227806 </i>
    <i name="e_0_energy">    -36.88227828 </i>
   </energy>
  </scstep>
  <scstep>
   <time name="diag">   77.66   78.44</time>
   <time name="diis">  319.12  319.75</time>
   <time name="orth">    3.10    3.10</time>
   <time name="total">  432.30  433.77</time>
   <energy>
    <i name="e_fr_energy">    -36.88229092 </i>
    <i name="e_wo_entrp">    -36.88229049 </i>
    <i name="e_0_energy">    -36.88229071 </i>
   </energy>
  </scstep>
  <scstep>
   <time name="diag">   78.40   78.44</time>
   <time name="diis">  320.56  320.71</time>
   <time name="orth">    3.10    3.10</time>
   <time name="total">  434.58  434.80</time>
   <energy>
    <i name="e_fr_energy">    -36.88229657 </i>
    <i name="e_wo_entrp">    -36.88229614 </i>
    <i name="e_0_energy">    -36.88229635 </i>
   </energy>
  </scstep>
  <scstep>
   <time name="diag">   78.42   78.45</time>
   <time name="diis">  323.17  323.50</time>
   <time name="orth">    3.08    3.08</time>
   <time name="total">  437.10  458.39</time>
   <energy>
    <i name="e_fr_energy">    -36.88229755 </i>
    <i name="e_wo_entrp">    -36.88229712 </i>
    <i name="e_0_energy">    -36.88229734 </i>
   </energy>
  </scstep>
  <scstep>
   <time name="diag">   78.39   78.45</time>
   <time name="diis">  326.56  327.44</time>
   <time name="orth">    3.08    3.10</time>
   <time name="total">  440.45  441.58</time>
   <energy>
    <i name="e_fr_energy">    -36.88229832 </i>
    <i name="e_wo_entrp">    -36.88229789 </i>
    <i name="e_0_energy">    -36.88229811 </i>
   </energy>
  </scstep>
  <scstep>
   <time name="diag">   78.40   78.53</time>
   <time name="diis">  248.96  249.06</time>
   <time name="orth">    3.08    3.08</time>
   <time name="total">  362.99  363.28</time>
   <energy>
    <i name="e_fr_energy">    -36.88229836 </i>
    <i name="e_wo_entrp">    -36.88229793 </i>
    <i name="e_0_energy">    -36.88229814 </i>
   </energy>
  </scstep>
  <scstep>
   <time name="diag">   78.42   78.49</time>
   <time name="diis">  238.33  238.41</time>
   <time name="orth">    3.10    3.10</time>
   <time name="total">  352.31  352.51</time>
   <energy>
    <i name="e_fr_energy">    -36.88229837 </i>
    <i name="e_wo_entrp">    -36.88229794 </i>
    <i name="e_0_energy">    -36.88229816 </i>
   </energy>
  </scstep>
  <scstep>
   <time name="diag">   78.22   78.52</time>
   <time name="diis">  218.71  219.17</time>
   <time name="orth">    3.08    3.08</time>
   <time name="total">  332.44  333.24</time>
   <energy>
    <i name="e_fr_energy">    -36.88229837 </i>
    <i name="e_wo_entrp">    -36.88229794 </i>
    <i name="e_0_energy">    -36.88229816 </i>
   </energy>
  </scstep>
  <scstep>
   <time name="diag">   78.45   78.48</time>
   <time name="diis">  208.19  208.52</time>
   <time name="orth">    3.15    3.19</time>
   <time name="total">  322.08  322.86</time>
   <energy>
    <i name="e_fr_energy">    -36.88229837 </i>
    <i name="e_wo_entrp">    -36.88229794 </i>
    <i name="e_0_energy">    -36.88229816 </i>
   </energy>
  </scstep>
  <scstep>
   <time name="diag">   78.07   78.50</time>
   <time name="diis">  193.12  194.14</time>
   <time name="orth">    3.09    3.09</time>
   <time name="total">  306.73  308.23</time>
   <energy>
    <i name="e_fr_energy">    -36.88229837 </i>
    <i name="e_wo_entrp">    -36.88229794 </i>
    <i name="e_0_energy">    -36.88229816 </i>
   </energy>
  </scstep>
  <scstep>
   <time name="diag">   78.40   78.49</time>
   <time name="diis">  183.82  184.00</time>
   <time name="orth">    3.08    3.08</time>
   <time name="total">  267.78  268.09</time>
   <energy>
    <i name="alphaZ">      6.18334092 </i>
    <i name="ewald">   2476.35207339 </i>
    <i name="hartreedc">  -2970.57122240 </i>
    <i name="XCdc">     57.21717583 </i>
    <i name="pawpsdc">    270.43417291 </i>
    <i name="pawaedc">   -275.55292445 </i>
    <i name="eentropy">     -0.00000043 </i>
    <i name="bandstr">   -189.56844105 </i>
    <i name="atom">    588.62352690 </i>
    <i name="e_fr_energy">    -36.88229837 </i>
    <i name="e_wo_entrp">    -36.88229794 </i>
    <i name="e_0_energy">    -36.88229816 </i>
   </energy>
  </scstep>
  <structure>
   <crystal>
    <varray name="basis" >
     <v>       4.35872855       0.00000000       0.00000000 </v>
     <v>       0.00000000       2.45898631       0.00000000 </v>
     <v>       0.00000000       0.00000000      19.67128590 </v>
    </varray>
    <i name="volume">    210.83790140 </i>
    <varray name="rec_basis" >
     <v>       0.22942470       0.00000000       0.00000000 </v>
     <v>       0.00000000       0.40667164       0.00000000 </v>
     <v>       0.00000000       0.00000000       0.05083552 </v>
    </varray>
   </crystal>
   <varray name="positions" >
    <v>       0.99954297       0.00000000       0.00000000 </v>
    <v>       0.16712369       0.50000000       0.00000000 </v>
    <v>       0.49954297       0.50000000       0.00000000 </v>
    <v>       0.66712369       0.00000000       0.00000000 </v>
   </varray>
  </structure>
  <varray name="forces" >
   <v>       0.00081624       0.00000000       0.00000000 </v>
   <v>      -0.00081624       0.00000000       0.00000000 </v>
   <v>       0.00081624       0.00000000       0.00000000 </v>
   <v>      -0.00081624      -0.00000000       0.00000000 </v>
  </varray>
  <varray name="stress" >
   <v>     -33.10060470       0.00000000       0.00000000 </v>
   <v>       0.00000000      -0.00666778       0.00000000 </v>
   <v>       0.00000000       0.00000000      -0.01027263 </v>
  </varray>
  <energy>
   <i name="e_fr_energy">    -36.88229837 </i>
   <i name="e_wo_entrp">    -36.88229816 </i>
   <i name="e_0_energy">     -0.00000043 </i>
  </energy>
  <time name="totalsc">10177.4910246.37</time>
 </calculation>
 <calculation>
  <scstep>
   <time name="dav">  306.85  307.98</time>
   <time name="total">  339.28  340.44</time>
   <energy>
    <i name="alphaZ">      6.18334092 </i>
    <i name="ewald">   2476.35274967 </i>
    <i name="hartreedc">  -2970.57152385 </i>
    <i name="XCdc">     57.21719530 </i>
    <i name="pawpsdc">    270.43417777 </i>
    <i name="pawaedc">   -275.55292934 </i>
    <i name="eentropy">     -0.00000041 </i>
    <i name="bandstr">   -189.56883517 </i>
    <i name="atom">    588.62352690 </i>
    <i name="e_fr_energy">    -36.88229819 </i>
    <i name="e_wo_entrp">    -36.88229778 </i>
    <i name="e_0_energy">    -36.88229799 </i>
   </energy>
  </scstep>
  <scstep>
   <time name="diag">   78.16   78.50</time>
   <time name="diis">  318.59  319.45</time>
   <time name="orth">    3.08    3.08</time>
   <time name="total">  432.33  433.58</time>
   <energy>
    <i name="e_fr_energy">    -36.88229820 </i>
    <i name="e_wo_entrp">    -36.88229780 </i>
    <i name="e_0_energy">    -36.88229800 </i>
   </energy>
  </scstep>
  <scstep>
   <time name="diag">   78.41   78.50</time>
   <time name="diis">  319.83  320.19</time>
   <time name="orth">    3.08    3.08</time>
   <time name="total">  433.68  434.52</time>
   <energy>
    <i name="e_fr_energy">    -36.88229820 </i>
    <i name="e_wo_entrp">    -36.88229779 </i>
    <i name="e_0_energy">    -36.88229800 </i>
   </energy>
  </scstep>
  <scstep>
   <time name="diag">   78.38   78.46</time>
   <time name="diis">  324.50  324.85</time>
   <time name="orth">    3.10    3.10</time>
   <time name="total">  438.43  438.89</time>
   <energy>
    <i name="e_fr_energy">    -36.88229820 </i>
    <i name="e_wo_entrp">    -36.88229779 </i>
    <i name="e_0_energy">    -36.88229800 </i>
   </energy>
  </scstep>
  <scstep>
   <time name="diag">   78.39   78.50</time>
   <time name="diis">  227.06  227.38</time>
   <time name="orth">    3.08    3.08</time>
   <time name="total">  340.83  341.55</time>
   <energy>
    <i name="e_fr_energy">    -36.88229820 </i>
    <i name="e_wo_entrp">    -36.88229779 </i>
    <i name="e_0_energy">    -36.88229800 </i>
   </energy>
  </scstep>
  <scstep>
   <time name="diag">   78.40   78.49</time>
   <time name="diis">  210.95  211.16</time>
   <time name="orth">    3.08    3.08</time>
   <time name="total">  324.82  325.18</time>
   <energy>
    <i name="e_fr_energy">    -36.88229820 </i>
    <i name="e_wo_entrp">    -36.88229779 </i>
    <i name="e_0_energy">    -36.88229800 </i>
   </energy>
  </scstep>
  <scstep>
   <time name="diag">   78.38   78.49</time>
   <time name="diis">  210.36  210.71</time>
   <time name="orth">    3.09    3.09</time>
   <time name="total">  324.20  324.72</time>
   <energy>
    <i name="e_fr_energy">    -36.88229820 </i>
    <i name="e_wo_entrp">    -36.88229779 </i>
    <i name="e_0_energy">    -36.88229800 </i>
   </energy>
  </scstep>
  <scstep>
   <time name="diag">   78.37   78.46</time>
   <time name="diis">  197.30  197.51</time>
   <time name="orth">    3.10    3.11</time>
   <time name="total">  311.19  311.70</time>
   <energy>
    <i name="e_fr_energy">    -36.88229820 </i>
    <i name="e_wo_entrp">    -36.88229779 </i>
    <i name="e_0_energy">    -36.88229800 </i>
   </energy>
  </scstep>
  <scstep>
   <time name="diag">   78.06   78.46</time>
   <time name="diis">  186.71  187.75</time>
   <time name="orth">    3.09    3.11</time>
   <time name="total">  300.14  301.79</time>
   <energy>
    <i name="e_fr_energy">    -36.88229820 </i>
    <i name="e_wo_entrp">    -36.88229779 </i>
    <i name="e_0_energy">    -36.88229800 </i>
   </energy>
  </scstep>
  <scstep>
   <time name="diag">   78.40   78.48</time>
   <time name="diis">  181.65  181.83</time>
   <time name="orth">    3.10    3.10</time>
   <time name="total">  295.59  295.88</time>
   <energy>
    <i name="e_fr_energy">    -36.88229820 </i>
    <i name="e_wo_entrp">    -36.88229779 </i>
    <i name="e_0_energy">    -36.88229800 </i>
   </energy>
  </scstep>
  <scstep>
   <time name="diag">   78.36   78.44</time>
   <time name="diis">  174.91  175.12</time>
   <time name="orth">    3.11    3.11</time>
   <time name="total">  258.88  259.20</time>
   <energy>
    <i name="alphaZ">      6.18334092 </i>
    <i name="ewald">   2476.35274967 </i>
    <i name="hartreedc">  -2970.57180581 </i>
    <i name="XCdc">     57.21720667 </i>
    <i name="pawpsdc">    270.43533285 </i>
    <i name="pawaedc">   -275.55408950 </i>
    <i name="eentropy">     -0.00000041 </i>
    <i name="bandstr">   -189.56855949 </i>
    <i name="atom">    588.62352690 </i>
    <i name="e_fr_energy">    -36.88229820 </i>
    <i name="e_wo_entrp">    -36.88229779 </i>
    <i name="e_0_energy">    -36.88229800 </i>
   </energy>
  </scstep>
  <structure>
   <crystal>
    <varray name="basis" >
     <v>       4.35872855       0.00000000       0.00000000 </v>
     <v>       0.00000000       2.45898631       0.00000000 </v>
     <v>       0.00000000       0.00000000      19.67128590 </v>
    </varray>
    <i name="volume">    210.83790140 </i>
    <varray name="rec_basis" >
     <v>       0.22942470       0.00000000       0.00000000 </v>
     <v>       0.00000000       0.40667164       0.00000000 </v>
     <v>       0.00000000       0.00000000       0.05083552 </v>
    </varray>
   </crystal>
   <varray name="positions" >
    <v>       0.99955201       0.00000000       0.00000000 </v>
    <v>       0.16711466       0.50000000       0.00000000 </v>
    <v>       0.49955201       0.50000000       0.00000000 </v>
    <v>       0.66711466      -0.00000000       0.00000000 </v>
   </varray>
  </structure>
  <varray name="forces" >
   <v>      -0.00309985       0.00000000      -0.00000000 </v>
   <v>       0.00309985      -0.00000000       0.00000000 </v>
   <v>      -0.00309985      -0.00000000      -0.00000000 </v>
   <v>       0.00309985       0.00000000       0.00000000 </v>
  </varray>
  <varray name="stress" >
   <v>     -33.10834229       0.00000000       0.00000000 </v>
   <v>       0.00000000       0.00632345       0.00000000 </v>
   <v>       0.00000000       0.00000000      -0.01025538 </v>
  </varray>
  <energy>
   <i name="e_fr_energy">    -36.88229820 </i>
   <i name="e_wo_entrp">    -36.88229800 </i>
   <i name="e_0_energy">     -0.00000041 </i>
  </energy>
  <time name="totalsc"> 3902.25 3910.55</time>
 </calculation>
 <calculation>
  <scstep>
   <time name="dav">  321.82  322.38</time>
   <time name="total">  354.27  354.86</time>
   <energy>
    <i name="alphaZ">      6.18334092 </i>
    <i name="ewald">   2476.35221417 </i>
    <i name="hartreedc">  -2970.57157276 </i>
    <i name="XCdc">     57.21719143 </i>
    <i name="pawpsdc">    270.43533331 </i>
    <i name="pawaedc">   -275.55408997 </i>
    <i name="eentropy">     -0.00000043 </i>
    <i name="bandstr">   -189.56824197 </i>
    <i name="atom">    588.62352690 </i>
    <i name="e_fr_energy">    -36.88229839 </i>
    <i name="e_wo_entrp">    -36.88229797 </i>
    <i name="e_0_energy">    -36.88229818 </i>
   </energy>
  </scstep>
  <scstep>
   <time name="diag">   78.51   78.62</time>
   <time name="diis">  322.29  323.06</time>
   <time name="orth">    3.08    3.10</time>
   <time name="total">  436.27  437.37</time>
   <energy>
    <i name="e_fr_energy">    -36.88229840 </i>
    <i name="e_wo_entrp">    -36.88229797 </i>
    <i name="e_0_energy">    -36.88229818 </i>
   </energy>
  </scstep>
  <scstep>
   <time name="diag">   78.30   78.60</time>
   <time name="diis">  324.97  325.35</time>
   <time name="orth">    3.12    3.13</time>
   <time name="total">  438.75  439.50</time>
   <energy>
    <i name="e_fr_energy">    -36.88229839 </i>
    <i name="e_wo_entrp">    -36.88229796 </i>
    <i name="e_0_energy">    -36.88229818 </i>
   </energy>
  </scstep>
  <scstep>
   <time name="diag">   78.49   78.58</time>
   <time name="diis">  328.26  328.61</time>
   <time name="orth">    3.10    3.10</time>
   <time name="total">  442.25  442.81</time>
   <energy>
    <i name="e_fr_energy">    -36.88229839 </i>
    <i name="e_wo_entrp">    -36.88229796 </i>
    <i name="e_0_energy">    -36.88229818 </i>
   </energy>
  </scstep>
  <scstep>
   <time name="diag">   78.54   78.61</time>
   <time name="diis">  218.48  219.13</time>
   <time name="orth">    3.08    3.08</time>
   <time name="total">  332.37  333.45</time>
   <energy>
    <i name="e_fr_energy">    -36.88229839 </i>
    <i name="e_wo_entrp">    -36.88229796 </i>
    <i name="e_0_energy">    -36.88229817 </i>
   </energy>
  </scstep>
  <scstep>
   <time name="diag">   78.20   78.61</time>
   <time name="diis">  211.64  211.97</time>
   <time name="orth">    3.08    3.08</time>
   <time name="total">  295.43  296.20</time>
   <energy>
    <i name="alphaZ">      6.18334092 </i>
    <i name="ewald">   2476.35221417 </i>
    <i name="hartreedc">  -2970.57137264 </i>
    <i name="XCdc">     57.21718266 </i>
    <i name="pawpsdc">    270.43442080 </i>
    <i name="pawaedc">   -275.55317349 </i>
    <i name="eentropy">     -0.00000042 </i>
    <i name="bandstr">   -189.56843729 </i>
    <i name="atom">    588.62352690 </i>
    <i name="e_fr_energy">    -36.88229839 </i>
    <i name="e_wo_entrp">    -36.88229796 </i>
    <i name="e_0_energy">    -36.88229817 </i>
   </energy>
  </scstep>
  <structure>
   <crystal>
    <varray name="basis" >
     <v>       4.35872855       0.00000000       0.00000000 </v>
     <v>       0.00000000       2.45898631       0.00000000 </v>
     <v>       0.00000000       0.00000000      19.67128590 </v>
    </varray>
    <i name="volume">    210.83790140 </i>
    <varray name="rec_basis" >
     <v>       0.22942470       0.00000000       0.00000000 </v>
     <v>       0.00000000       0.40667164       0.00000000 </v>
     <v>       0.00000000       0.00000000       0.05083552 </v>
    </varray>
   </crystal>
   <varray name="positions" >
    <v>       0.99954485       0.00000000      -0.00000000 </v>
    <v>       0.16712181       0.50000000       0.00000000 </v>
    <v>       0.49954485       0.50000000      -0.00000000 </v>
    <v>       0.66712181       0.00000000       0.00000000 </v>
   </varray>
  </structure>
  <varray name="forces" >
   <v>      -0.00000436      -0.00000000      -0.00000000 </v>
   <v>       0.00000436       0.00000000       0.00000000 </v>
   <v>      -0.00000436      -0.00000000      -0.00000000 </v>
   <v>       0.00000436       0.00000000       0.00000000 </v>
  </varray>
  <varray name="stress" >
   <v>     -33.10229524       0.00000000       0.00000000 </v>
   <v>       0.00000000      -0.00385555       0.00000000 </v>
   <v>       0.00000000       0.00000000      -0.01030961 </v>
  </varray>
  <energy>
   <i name="e_fr_energy">    -36.88229839 </i>
   <i name="e_wo_entrp">    -36.88229817 </i>
   <i name="e_0_energy">     -0.00000042 </i>
  </energy>
  <time name="totalsc"> 2401.64 2408.09</time>
 </calculation>
 <calculation>
  <scstep>
   <time name="dav">  254.38  254.78</time>
   <time name="total">  286.90  287.33</time>
   <energy>
    <i name="alphaZ">      6.18334092 </i>
    <i name="ewald">   2476.35221342 </i>
    <i name="hartreedc">  -2970.57136637 </i>
    <i name="XCdc">     57.21718248 </i>
    <i name="pawpsdc">    270.43441896 </i>
    <i name="pawaedc">   -275.55317160 </i>
    <i name="eentropy">     -0.00000042 </i>
    <i name="bandstr">   -189.56844268 </i>
    <i name="atom">    588.62352690 </i>
    <i name="e_fr_energy">    -36.88229839 </i>
    <i name="e_wo_entrp">    -36.88229796 </i>
    <i name="e_0_energy">    -36.88229817 </i>
   </energy>
  </scstep>
  <scstep>
   <time name="diag">   78.57   78.64</time>
   <time name="diis">  168.35  168.51</time>
   <time name="orth">    3.08    3.09</time>
   <time name="total">  282.47  282.77</time>
   <energy>
    <i name="e_fr_energy">    -36.88229839 </i>
    <i name="e_wo_entrp">    -36.88229796 </i>
    <i name="e_0_energy">    -36.88229818 </i>
   </energy>
  </scstep>
  <scstep>
   <time name="diag">   78.56   78.63</time>
   <time name="diis">  165.60  166.03</time>
   <time name="orth">    3.08    3.09</time>
   <time name="total">  279.66  280.48</time>
   <energy>
    <i name="e_fr_energy">    -36.88229839 </i>
    <i name="e_wo_entrp">    -36.88229796 </i>
    <i name="e_0_energy">    -36.88229817 </i>
   </energy>
  </scstep>
  <scstep>
   <time name="diag">   78.54   78.62</time>
   <time name="diis">  161.63  162.28</time>
   <time name="orth">    3.09    3.11</time>
   <time name="total">  275.62  276.82</time>
   <energy>
    <i name="e_fr_energy">    -36.88229839 </i>
    <i name="e_wo_entrp">    -36.88229796 </i>
    <i name="e_0_energy">    -36.88229818 </i>
   </energy>
  </scstep>
  <scstep>
   <time name="diag">   78.31   78.63</time>
   <time name="diis">  160.68  160.92</time>
   <time name="orth">    3.11    3.11</time>
   <time name="total">  274.54  275.27</time>
   <energy>
    <i name="e_fr_energy">    -36.88229839 </i>
    <i name="e_wo_entrp">    -36.88229796 </i>
    <i name="e_0_energy">    -36.88229817 </i>
   </energy>
  </scstep>
  <scstep>
   <time name="diag">   78.55   78.64</time>
   <time name="diis">  157.83  158.12</time>
   <time name="orth">    3.08    3.08</time>
   <time name="total">  271.84  272.43</time>
   <energy>
    <i name="e_fr_energy">    -36.88229839 </i>
    <i name="e_wo_entrp">    -36.88229796 </i>
    <i name="e_0_energy">    -36.88229817 </i>
   </energy>
  </scstep>
  <scstep>
   <time name="diag">   78.16   78.56</time>
   <time name="diis">  154.86  155.34</time>
   <time name="orth">    3.12    3.12</time>
   <time name="total">  268.52  269.49</time>
   <energy>
    <i name="e_fr_energy">    -36.88229839 </i>
    <i name="e_wo_entrp">    -36.88229796 </i>
    <i name="e_0_energy">    -36.88229818 </i>
   </energy>
  </scstep>
  <scstep>
   <time name="diag">   78.49   78.58</time>
   <time name="diis">  153.05  153.51</time>
   <time name="orth">    3.09    3.11</time>
   <time name="total">  237.16  237.74</time>
   <energy>
    <i name="alphaZ">      6.18334092 </i>
    <i name="ewald">   2476.35221342 </i>
    <i name="hartreedc">  -2970.57134462 </i>
    <i name="XCdc">     57.21718227 </i>
    <i name="pawpsdc">    270.43441502 </i>
    <i name="pawaedc">   -275.55316768 </i>
    <i name="eentropy">     -0.00000042 </i>
    <i name="bandstr">   -189.56846420 </i>
    <i name="atom">    588.62352690 </i>
    <i name="e_fr_energy">    -36.88229839 </i>
    <i name="e_wo_entrp">    -36.88229796 </i>
    <i name="e_0_energy">    -36.88229817 </i>
   </energy>
  </scstep>
  <structure>
   <crystal>
    <varray name="basis" >
     <v>       4.35872855       0.00000000       0.00000000 </v>
     <v>       0.00000000       2.45898631       0.00000000 </v>
     <v>       0.00000000       0.00000000      19.67128590 </v>
    </varray>
    <i name="volume">    210.83790140 </i>
    <varray name="rec_basis" >
     <v>       0.22942470       0.00000000       0.00000000 </v>
     <v>       0.00000000       0.40667164       0.00000000 </v>
     <v>       0.00000000       0.00000000       0.05083552 </v>
    </varray>
   </crystal>
   <varray name="positions" >
    <v>       0.99954484      -0.00000000      -0.00000000 </v>
    <v>       0.16712182       0.50000000       0.00000000 </v>
    <v>       0.49954484       0.50000000      -0.00000000 </v>
    <v>       0.66712182       0.00000000       0.00000000 </v>
   </varray>
  </structure>
  <varray name="forces" >
   <v>       0.00000777       0.00000000      -0.00000000 </v>
   <v>      -0.00000777       0.00000000       0.00000000 </v>
   <v>       0.00000777      -0.00000000      -0.00000000 </v>
   <v>      -0.00000777       0.00000000      -0.00000000 </v>
  </varray>
  <varray name="stress" >
   <v>     -33.10218034       0.00000000       0.00000000 </v>
   <v>       0.00000000      -0.00397705       0.00000000 </v>
   <v>       0.00000000       0.00000000      -0.01028429 </v>
  </varray>
  <energy>
   <i name="e_fr_energy">    -36.88229839 </i>
   <i name="e_wo_entrp">    -36.88229817 </i>
   <i name="e_0_energy">     -0.00000042 </i>
  </energy>
  <time name="totalsc"> 2278.62 2292.69</time>
 </calculation>
 <calculation>
  <scstep>
   <time name="dav">  249.58  250.33</time>
   <time name="total">  281.92  282.86</time>
   <energy>
    <i name="alphaZ">      6.18334092 </i>
    <i name="ewald">   2476.35221390 </i>
    <i name="hartreedc">  -2970.57134477 </i>
    <i name="XCdc">     57.21718228 </i>
    <i name="pawpsdc">    270.43441505 </i>
    <i name="pawaedc">   -275.55316770 </i>
    <i name="eentropy">     -0.00000042 </i>
    <i name="bandstr">   -189.56846455 </i>
    <i name="atom">    588.62352690 </i>
    <i name="e_fr_energy">    -36.88229839 </i>
    <i name="e_wo_entrp">    -36.88229796 </i>
    <i name="e_0_energy">    -36.88229817 </i>
   </energy>
  </scstep>
  <scstep>
   <time name="diag">   78.16   78.51</time>
   <time name="diis">  146.36  146.71</time>
   <time name="orth">    3.08    3.08</time>
   <time name="total">  260.02  260.78</time>
   <energy>
    <i name="e_fr_energy">    -36.88229839 </i>
    <i name="e_wo_entrp">    -36.88229796 </i>
    <i name="e_0_energy">    -36.88229817 </i>
   </energy>
  </scstep>
  <scstep>
   <time name="diag">   78.45   78.57</time>
   <time name="diis">  145.73  146.30</time>
   <time name="orth">    3.08    3.10</time>
   <time name="total">  259.66  260.78</time>
   <energy>
    <i name="e_fr_energy">    -36.88229839 </i>
    <i name="e_wo_entrp">    -36.88229796 </i>
    <i name="e_0_energy">    -36.88229818 </i>
   </energy>
  </scstep>
  <scstep>
   <time name="diag">   78.18   78.60</time>
   <time name="diis">  145.28  146.03</time>
   <time name="orth">    3.08    3.08</time>
   <time name="total">  258.90  263.79</time>
   <energy>
    <i name="e_fr_energy">    -36.88229839 </i>
    <i name="e_wo_entrp">    -36.88229796 </i>
    <i name="e_0_energy">    -36.88229817 </i>
   </energy>
  </scstep>
  <scstep>
   <time name="diag">   78.27   78.63</time>
   <time name="diis">  143.96  144.10</time>
   <time name="orth">    3.09    3.10</time>
   <time name="total">  257.85  258.41</time>
   <energy>
    <i name="e_fr_energy">    -36.88229839 </i>
    <i name="e_wo_entrp">    -36.88229796 </i>
    <i name="e_0_energy">    -36.88229818 </i>
   </energy>
  </scstep>
  <scstep>
   <time name="diag">   78.47   78.55</time>
   <time name="diis">  140.14  140.32</time>
   <time name="orth">    3.10    3.10</time>
   <time name="total">  254.17  254.69</time>
   <energy>
    <i name="e_fr_energy">    -36.88229839 </i>
    <i name="e_wo_entrp">    -36.88229796 </i>
    <i name="e_0_energy">    -36.88229817 </i>
   </energy>
  </scstep>
  <scstep>
   <time name="diag">   78.21   78.52</time>
   <time name="diis">  140.84  141.73</time>
   <time name="orth">    3.09    3.11</time>
   <time name="total">  224.62  228.53</time>
   <energy>
    <i name="alphaZ">      6.18334092 </i>
    <i name="ewald">   2476.35221390 </i>
    <i name="hartreedc">  -2970.57134736 </i>
    <i name="XCdc">     57.21718237 </i>
    <i name="pawpsdc">    270.43441657 </i>
    <i name="pawaedc">   -275.55316924 </i>
    <i name="eentropy">     -0.00000042 </i>
    <i name="bandstr">   -189.56846203 </i>
    <i name="atom">    588.62352690 </i>
    <i name="e_fr_energy">    -36.88229839 </i>
    <i name="e_wo_entrp">    -36.88229796 </i>
    <i name="e_0_energy">    -36.88229817 </i>
   </energy>
  </scstep>
  <structure>
   <crystal>
    <varray name="basis" >
     <v>       4.35872855       0.00000000       0.00000000 </v>
     <v>       0.00000000       2.45898631       0.00000000 </v>
     <v>       0.00000000       0.00000000      19.67128590 </v>
    </varray>
    <i name="volume">    210.83790140 </i>
    <varray name="rec_basis" >
     <v>       0.22942470       0.00000000       0.00000000 </v>
     <v>       0.00000000       0.40667164       0.00000000 </v>
     <v>       0.00000000       0.00000000       0.05083552 </v>
    </varray>
   </crystal>
   <varray name="positions" >
    <v>       0.99954485      -0.00000000      -0.00000000 </v>
    <v>       0.16712182       0.50000000       0.00000000 </v>
    <v>       0.49954485       0.50000000      -0.00000000 </v>
    <v>       0.66712182       0.00000000       0.00000000 </v>
   </varray>
  </structure>
  <varray name="forces" >
   <v>       0.00000035      -0.00000000       0.00000000 </v>
   <v>      -0.00000035      -0.00000000      -0.00000000 </v>
   <v>       0.00000035      -0.00000000       0.00000000 </v>
   <v>      -0.00000035       0.00000000      -0.00000000 </v>
  </varray>
  <varray name="stress" >
   <v>     -33.10221443       0.00000000       0.00000000 </v>
   <v>       0.00000000      -0.00394247       0.00000000 </v>
   <v>       0.00000000       0.00000000      -0.01027004 </v>
  </varray>
  <energy>
   <i name="e_fr_energy">    -36.88229839 </i>
   <i name="e_wo_entrp">    -36.88229817 </i>
   <i name="e_0_energy">     -0.00000042 </i>
  </energy>
  <time name="totalsc"> 1892.41 1905.44</time>
  <eigenvalues>
   <array>
    <dimension dim="1">band</dimension>
    <dimension dim="2">kpoint</dimension>
    <dimension dim="3">spin</dimension>
    <field>eigene</field>
    <field>occ</field>
    <set>
     <set comment="spin 1">
      <set comment="kpoint 1">
       <r>  -22.1153    1.0000 </r>
       <r>  -17.2125    1.0000 </r>
       <r>  -15.8625    1.0000 </r>
       <r>  -10.2521    1.0000 </r>
       <r>   -8.8728    1.0000 </r>
       <r>   -5.9652    1.0000 </r>
       <r>   -5.7375    1.0000 </r>
       <r>   -5.2917    1.0000 </r>
       <r>   -1.1658    0.0000 </r>
       <r>    0.5405    0.0000 </r>
       <r>    1.3392    0.0000 </r>
       <r>    1.7305    0.0000 </r>
      </set>
      <set comment="kpoint 2">
       <r>  -22.1054    1.0000 </r>
       <r>  -17.3384    1.0000 </r>
       <r>  -15.7215    1.0000 </r>
       <r>  -10.2404    1.0000 </r>
       <r>   -8.8632    1.0000 </r>
       <r>   -6.0092    1.0000 </r>
       <r>   -5.7581    1.0000 </r>
       <r>   -5.3519    1.0000 </r>
       <r>   -1.0898    0.0000 </r>
       <r>    0.5539    0.0000 </r>
       <r>    1.3528    0.0000 </r>
       <r>    1.7442    0.0000 </r>
      </set>
      <set comment="kpoint 3">
       <r>  -22.0758    1.0000 </r>
       <r>  -17.6237    1.0000 </r>
       <r>  -15.3912    1.0000 </r>
       <r>  -10.2053    1.0000 </r>
       <r>   -8.8345    1.0000 </r>
       <r>   -6.1391    1.0000 </r>
       <r>   -5.8187    1.0000 </r>
       <r>   -5.5201    1.0000 </r>
       <r>   -0.8744    0.0000 </r>
       <r>    0.5939    0.0000 </r>
       <r>    1.3933    0.0000 </r>
       <r>    1.7853    0.0000 </r>
      </set>
      <set comment="kpoint 4">
       <r>  -22.0266    1.0000 </r>
       <r>  -17.9633    1.0000 </r>
       <r>  -14.9768    1.0000 </r>
       <r>  -10.1468    1.0000 </r>
       <r>   -8.7868    1.0000 </r>
       <r>   -6.3493    1.0000 </r>
       <r>   -5.9162    1.0000 </r>
       <r>   -5.7680    1.0000 </r>
       <r>   -0.5485    0.0000 </r>
       <r>    0.6606    0.0000 </r>
       <r>    1.4609    0.0000 </r>
       <r>    1.8538    0.0000 </r>
      </set>
      <set comment="kpoint 5">
       <r>  -21.9577    1.0000 </r>
       <r>  -18.3152    1.0000 </r>
       <r>  -14.5208    1.0000 </r>
       <r>  -10.0651    1.0000 </r>
       <r>   -8.7204    1.0000 </r>
       <r>   -6.6312    1.0000 </r>
       <r>   -6.0661    1.0000 </r>
       <r>   -6.0461    1.0000 </r>
       <r>   -0.1421    0.0000 </r>
       <r>    0.7540    0.0000 </r>
       <r>    1.5556    0.0000 </r>
       <r>    1.9496    0.0000 </r>
      </set>
      <set comment="kpoint 6">
       <r>  -21.8692    1.0000 </r>
       <r>  -18.6637    1.0000 </r>
       <r>  -14.0393    1.0000 </r>
       <r>   -9.9603    1.0000 </r>
       <r>   -8.6356    1.0000 </r>
       <r>   -6.9750    1.0000 </r>
       <r>   -6.3918    1.0000 </r>
       <r>   -6.2027    1.0000 </r>
       <r>    0.3208    0.0000 </r>
       <r>    0.8742    0.0000 </r>
       <r>    1.6771    0.0000 </r>
       <r>    2.0729    0.0000 </r>
      </set>
      <set comment="kpoint 7">
       <r>  -21.7612    1.0000 </r>
       <r>  -19.0023    1.0000 </r>
       <r>  -13.5397    1.0000 </r>
       <r>   -9.8326    1.0000 </r>
       <r>   -8.5330    1.0000 </r>
       <r>   -7.3706    1.0000 </r>
       <r>   -6.7294    1.0000 </r>
       <r>   -6.3802    1.0000 </r>
       <r>    0.8229    0.0000 </r>
       <r>    1.0210    0.0000 </r>
       <r>    1.8256    0.0000 </r>
       <r>    2.2236    0.0000 </r>
      </set>
      <set comment="kpoint 8">
       <r>  -21.6337    1.0000 </r>
       <r>  -19.3277    1.0000 </r>
       <r>  -13.0263    1.0000 </r>
       <r>   -9.6823    1.0000 </r>
       <r>   -8.4132    1.0000 </r>
       <r>   -7.8081    1.0000 </r>
       <r>   -7.0685    1.0000 </r>
       <r>   -6.5728    1.0000 </r>
       <r>    1.1946    0.0000 </r>
       <r>    1.3517    0.0000 </r>
       <r>    2.0009    0.0000 </r>
       <r>    2.4017    0.0000 </r>
      </set>
      <set comment="kpoint 9">
       <r>  -21.4869    1.0000 </r>
       <r>  -19.6379    1.0000 </r>
       <r>  -12.5023    1.0000 </r>
       <r>   -9.5095    1.0000 </r>
       <r>   -8.2787    1.0000 </r>
       <r>   -8.2770    1.0000 </r>
       <r>   -7.4020    1.0000 </r>
       <r>   -6.7749    1.0000 </r>
       <r>    1.3949    0.0000 </r>
       <r>    1.8974    0.0000 </r>
       <r>    2.2028    0.0000 </r>
       <r>    2.6071    0.0000 </r>
      </set>
      <set comment="kpoint 10">
       <r>  -21.3209    1.0000 </r>
       <r>  -19.9319    1.0000 </r>
       <r>  -11.9702    1.0000 </r>
       <r>   -9.3149    1.0000 </r>
       <r>   -8.7747    1.0000 </r>
       <r>   -8.1254    1.0000 </r>
       <r>   -7.7253    1.0000 </r>
       <r>   -6.9819    1.0000 </r>
       <r>    1.6217    0.0000 </r>
       <r>    2.4311    0.0000 </r>
       <r>    2.4509    0.0000 </r>
       <r>    2.8400    0.0000 </r>
      </set>
      <set comment="kpoint 11">
       <r>  -21.1358    1.0000 </r>
       <r>  -20.2087    1.0000 </r>
       <r>  -11.4326    1.0000 </r>
       <r>   -9.2894    1.0000 </r>
       <r>   -9.0988    1.0000 </r>
       <r>   -8.0350    1.0000 </r>
       <r>   -7.9596    1.0000 </r>
       <r>   -7.1893    1.0000 </r>
       <r>    1.8752    0.0000 </r>
       <r>    2.6849    0.0000 </r>
       <r>    2.9974    0.0000 </r>
       <r>    3.1002    0.0000 </r>
      </set>
      <set comment="kpoint 12">
       <r>  -20.9317    1.0000 </r>
       <r>  -20.4679    1.0000 </r>
       <r>  -10.8925    1.0000 </r>
       <r>   -9.8170    1.0000 </r>
       <r>   -8.8618    1.0000 </r>
       <r>   -8.3287    1.0000 </r>
       <r>   -7.7812    1.0000 </r>
       <r>   -7.3936    1.0000 </r>
       <r>    2.1551    0.0000 </r>
       <r>    2.7939    0.0000 </r>
       <r>    2.9625    0.0000 </r>
       <r>    3.3878    0.0000 </r>
      </set>
      <set comment="kpoint 13">
       <r>  -20.7090    1.0000 </r>
       <r>  -20.7090    1.0000 </r>
       <r>  -10.3527    1.0000 </r>
       <r>  -10.3527    1.0000 </r>
       <r>   -8.6048    1.0000 </r>
       <r>   -8.6048    1.0000 </r>
       <r>   -7.5918    1.0000 </r>
       <r>   -7.5918    1.0000 </r>
       <r>    2.4614    0.0000 </r>
       <r>    2.4614    0.0000 </r>
       <r>    3.2545    0.0000 </r>
       <r>    3.2545    0.0000 </r>
      </set>
      <set comment="kpoint 14">
       <r>  -22.1015    1.0000 </r>
       <r>  -17.2006    1.0000 </r>
       <r>  -15.8507    1.0000 </r>
       <r>  -10.2357    1.0000 </r>
       <r>   -8.9358    1.0000 </r>
       <r>   -5.9921    1.0000 </r>
       <r>   -5.7962    1.0000 </r>
       <r>   -5.2750    1.0000 </r>
       <r>   -1.1685    0.0000 </r>
       <r>    0.5592    0.0000 </r>
       <r>    1.3581    0.0000 </r>
       <r>    1.7496    0.0000 </r>
      </set>
      <set comment="kpoint 15">
       <r>  -22.0916    1.0000 </r>
       <r>  -17.3263    1.0000 </r>
       <r>  -15.7100    1.0000 </r>
       <r>  -10.2240    1.0000 </r>
       <r>   -8.9262    1.0000 </r>
       <r>   -6.0372    1.0000 </r>
       <r>   -5.8150    1.0000 </r>
       <r>   -5.3354    1.0000 </r>
       <r>   -1.0925    0.0000 </r>
       <r>    0.5726    0.0000 </r>
       <r>    1.3717    0.0000 </r>
       <r>    1.7633    0.0000 </r>
      </set>
      <set comment="kpoint 16">
       <r>  -22.0621    1.0000 </r>
       <r>  -17.6114    1.0000 </r>
       <r>  -15.3800    1.0000 </r>
       <r>  -10.1889    1.0000 </r>
       <r>   -8.8974    1.0000 </r>
       <r>   -6.1686    1.0000 </r>
       <r>   -5.8723    1.0000 </r>
       <r>   -5.5039    1.0000 </r>
       <r>   -0.8771    0.0000 </r>
       <r>    0.6126    0.0000 </r>
       <r>    1.4122    0.0000 </r>
       <r>    1.8044    0.0000 </r>
      </set>
      <set comment="kpoint 17">
       <r>  -22.0128    1.0000 </r>
       <r>  -17.9508    1.0000 </r>
       <r>  -14.9660    1.0000 </r>
       <r>  -10.1304    1.0000 </r>
       <r>   -8.8497    1.0000 </r>
       <r>   -6.3784    1.0000 </r>
       <r>   -5.9677    1.0000 </r>
       <r>   -5.7520    1.0000 </r>
       <r>   -0.5514    0.0000 </r>
       <r>    0.6793    0.0000 </r>
       <r>    1.4798    0.0000 </r>
       <r>    1.8729    0.0000 </r>
      </set>
      <set comment="kpoint 18">
       <r>  -21.9439    1.0000 </r>
       <r>  -18.3024    1.0000 </r>
       <r>  -14.5105    1.0000 </r>
       <r>  -10.0488    1.0000 </r>
       <r>   -8.7831    1.0000 </r>
       <r>   -6.6579    1.0000 </r>
       <r>   -6.0968    1.0000 </r>
       <r>   -6.0504    1.0000 </r>
       <r>   -0.1456    0.0000 </r>
       <r>    0.7727    0.0000 </r>
       <r>    1.5744    0.0000 </r>
       <r>    1.9688    0.0000 </r>
      </set>
      <set comment="kpoint 19">
       <r>  -21.8555    1.0000 </r>
       <r>  -18.6508    1.0000 </r>
       <r>  -14.0297    1.0000 </r>
       <r>   -9.9440    1.0000 </r>
       <r>   -8.6982    1.0000 </r>
       <r>   -6.9981    1.0000 </r>
       <r>   -6.3762    1.0000 </r>
       <r>   -6.2539    1.0000 </r>
       <r>    0.3165    0.0000 </r>
       <r>    0.8929    0.0000 </r>
       <r>    1.6960    0.0000 </r>
       <r>    2.0920    0.0000 </r>
      </set>
      <set comment="kpoint 20">
       <r>  -21.7475    1.0000 </r>
       <r>  -18.9893    1.0000 </r>
       <r>  -13.5308    1.0000 </r>
       <r>   -9.8164    1.0000 </r>
       <r>   -8.5954    1.0000 </r>
       <r>   -7.3896    1.0000 </r>
       <r>   -6.7139    1.0000 </r>
       <r>   -6.4325    1.0000 </r>
       <r>    0.8175    0.0000 </r>
       <r>    1.0397    0.0000 </r>
[...]
       <r>   -9.3291    1.0000 </r>
       <r>   -5.5302    1.0000 </r>
       <r>   -5.5302    1.0000 </r>
       <r>   -0.4775    0.0000 </r>
       <r>   -0.4775    0.0000 </r>
       <r>    4.2765    0.0000 </r>
       <r>    4.2765    0.0000 </r>
      </set>
      <set comment="kpoint 209">
       <r>  -18.6657    1.0000 </r>
       <r>  -16.8541    1.0000 </r>
       <r>  -14.1835    1.0000 </r>
       <r>  -12.5241    1.0000 </r>
       <r>  -12.3245    1.0000 </r>
       <r>  -10.8079    1.0000 </r>
       <r>   -6.3044    1.0000 </r>
       <r>   -4.4246    1.0000 </r>
       <r>   -1.1605    0.0000 </r>
       <r>    1.0007    0.0000 </r>
       <r>    5.3022    0.0000 </r>
       <r>    6.0755    0.0000 </r>
      </set>
      <set comment="kpoint 210">
       <r>  -18.6564    1.0000 </r>
       <r>  -16.8469    1.0000 </r>
       <r>  -14.2539    1.0000 </r>
       <r>  -12.5900    1.0000 </r>
       <r>  -12.2464    1.0000 </r>
       <r>  -10.7445    1.0000 </r>
       <r>   -6.2960    1.0000 </r>
       <r>   -4.4284    1.0000 </r>
       <r>   -1.1675    0.0000 </r>
       <r>    0.9775    0.0000 </r>
       <r>    5.3152    0.0000 </r>
       <r>    6.0909    0.0000 </r>
      </set>
      <set comment="kpoint 211">
       <r>  -18.6285    1.0000 </r>
       <r>  -16.8254    1.0000 </r>
       <r>  -14.4357    1.0000 </r>
       <r>  -12.7628    1.0000 </r>
       <r>  -12.0416    1.0000 </r>
       <r>  -10.5797    1.0000 </r>
       <r>   -6.2709    1.0000 </r>
       <r>   -4.4403    1.0000 </r>
       <r>   -1.1869    0.0000 </r>
       <r>    0.9095    0.0000 </r>
       <r>    5.3542    0.0000 </r>
       <r>    6.1364    0.0000 </r>
      </set>
      <set comment="kpoint 212">
       <r>  -18.5820    1.0000 </r>
       <r>  -16.7911    1.0000 </r>
       <r>  -14.6772    1.0000 </r>
       <r>  -12.9983    1.0000 </r>
       <r>  -11.7617    1.0000 </r>
       <r>  -10.3598    1.0000 </r>
       <r>   -6.2293    1.0000 </r>
       <r>   -4.4615    1.0000 </r>
       <r>   -1.2143    0.0000 </r>
       <r>    0.8013    0.0000 </r>
       <r>    5.4184    0.0000 </r>
       <r>    6.2114    0.0000 </r>
      </set>
      <set comment="kpoint 213">
       <r>  -18.5172    1.0000 </r>
       <r>  -16.7469    1.0000 </r>
       <r>  -14.9404    1.0000 </r>
       <r>  -13.2644    1.0000 </r>
       <r>  -11.4440    1.0000 </r>
       <r>  -10.1201    1.0000 </r>
       <r>   -6.1718    1.0000 </r>
       <r>   -4.4941    1.0000 </r>
       <r>   -1.2433    0.0000 </r>
       <r>    0.6593    0.0000 </r>
       <r>    5.5039    0.0000 </r>
       <r>    6.0262    0.0000 </r>
      </set>
      <set comment="kpoint 214">
       <r>  -18.4341    1.0000 </r>
       <r>  -16.6984    1.0000 </r>
       <r>  -15.2003    1.0000 </r>
       <r>  -13.5426    1.0000 </r>
       <r>  -11.1109    1.0000 </r>
       <r>   -9.8833    1.0000 </r>
       <r>   -6.0990    1.0000 </r>
       <r>   -4.5403    1.0000 </r>
       <r>   -1.2663    0.0000 </r>
       <r>    0.4913    0.0000 </r>
       <r>    5.4817    0.0000 </r>
       <r>    5.6793    0.0000 </r>
      </set>
      <set comment="kpoint 215">
       <r>  -18.3332    1.0000 </r>
       <r>  -16.6577    1.0000 </r>
       <r>  -15.4347    1.0000 </r>
       <r>  -13.8227    1.0000 </r>
       <r>  -10.7767    1.0000 </r>
       <r>   -9.6653    1.0000 </r>
       <r>   -6.0117    1.0000 </r>
       <r>   -4.6020    1.0000 </r>
       <r>   -1.2757    0.0000 </r>
       <r>    0.3050    0.0000 </r>
       <r>    5.0832    0.0000 </r>
       <r>    5.7907    0.0000 </r>
      </set>
      <set comment="kpoint 216">
       <r>  -18.2147    1.0000 </r>
       <r>  -16.6475    1.0000 </r>
       <r>  -15.6151    1.0000 </r>
       <r>  -14.0983    1.0000 </r>
       <r>  -10.4526    1.0000 </r>
       <r>   -9.4783    1.0000 </r>
       <r>   -5.9112    1.0000 </r>
       <r>   -4.6803    1.0000 </r>
       <r>   -1.2652    0.0000 </r>
       <r>    0.1080    0.0000 </r>
       <r>    4.7207    0.0000 </r>
       <r>    5.6855    0.0000 </r>
      </set>
      <set comment="kpoint 217">
       <r>  -18.0792    1.0000 </r>
       <r>  -16.6991    1.0000 </r>
       <r>  -15.7065    1.0000 </r>
       <r>  -14.3651    1.0000 </r>
       <r>  -10.1480    1.0000 </r>
       <r>   -9.3329    1.0000 </r>
       <r>   -5.7989    1.0000 </r>
       <r>   -4.7752    1.0000 </r>
       <r>   -1.2300    0.0000 </r>
       <r>   -0.0928    0.0000 </r>
       <r>    4.4305    0.0000 </r>
       <r>    5.2419    0.0000 </r>
      </set>
      <set comment="kpoint 218">
       <r>  -17.9275    1.0000 </r>
       <r>  -16.8239    1.0000 </r>
       <r>  -15.6956    1.0000 </r>
       <r>  -14.6201    1.0000 </r>
       <r>   -9.8720    1.0000 </r>
       <r>   -9.2374    1.0000 </r>
       <r>   -5.6767    1.0000 </r>
       <r>   -4.8850    1.0000 </r>
       <r>   -1.1677    0.0000 </r>
       <r>   -0.2913    0.0000 </r>
       <r>    4.2225    0.0000 </r>
       <r>    4.8566    0.0000 </r>
      </set>
      <set comment="kpoint 219">
       <r>  -17.7606    1.0000 </r>
       <r>  -16.9977    1.0000 </r>
       <r>  -15.6051    1.0000 </r>
       <r>  -14.8606    1.0000 </r>
       <r>   -9.6336    1.0000 </r>
       <r>   -9.1984    1.0000 </r>
       <r>   -5.5466    1.0000 </r>
       <r>   -5.0071    1.0000 </r>
       <r>   -1.0778    0.0000 </r>
       <r>   -0.4820    0.0000 </r>
       <r>    4.1033    0.0000 </r>
       <r>    4.5392    0.0000 </r>
      </set>
      <set comment="kpoint 220">
       <r>  -17.5802    1.0000 </r>
       <r>  -17.1919    1.0000 </r>
       <r>  -15.4630    1.0000 </r>
       <r>  -15.0837    1.0000 </r>
       <r>   -9.4409    1.0000 </r>
       <r>   -9.2194    1.0000 </r>
       <r>   -5.4114    1.0000 </r>
       <r>   -5.1381    1.0000 </r>
       <r>   -0.9615    0.0000 </r>
       <r>   -0.6601    0.0000 </r>
       <r>    4.0765    0.0000 </r>
       <r>    4.2987    0.0000 </r>
      </set>
      <set comment="kpoint 221">
       <r>  -17.3891    1.0000 </r>
       <r>  -17.3891    1.0000 </r>
       <r>  -15.2862    1.0000 </r>
       <r>  -15.2862    1.0000 </r>
       <r>   -9.3011    1.0000 </r>
       <r>   -9.3011    1.0000 </r>
       <r>   -5.2741    1.0000 </r>
       <r>   -5.2741    1.0000 </r>
       <r>   -0.8212    0.0000 </r>
       <r>   -0.8212    0.0000 </r>
       <r>    4.1426    0.0000 </r>
       <r>    4.1426    0.0000 </r>
      </set>
      <set comment="kpoint 222">
       <r>  -18.2382    1.0000 </r>
       <r>  -17.3286    1.0000 </r>
       <r>  -13.7995    1.0000 </r>
       <r>  -12.9690    1.0000 </r>
       <r>  -11.9767    1.0000 </r>
       <r>  -11.2134    1.0000 </r>
       <r>   -5.8451    1.0000 </r>
       <r>   -4.8996    1.0000 </r>
       <r>   -0.6527    0.0000 </r>
       <r>    0.4301    0.0000 </r>
       <r>    5.9074    0.0000 </r>
       <r>    6.6373    0.0000 </r>
      </set>
      <set comment="kpoint 223">
       <r>  -18.2290    1.0000 </r>
       <r>  -17.3203    1.0000 </r>
       <r>  -13.8702    1.0000 </r>
       <r>  -13.0369    1.0000 </r>
       <r>  -11.9011    1.0000 </r>
       <r>  -11.1453    1.0000 </r>
       <r>   -5.8380    1.0000 </r>
       <r>   -4.8977    1.0000 </r>
       <r>   -0.6667    0.0000 </r>
       <r>    0.4089    0.0000 </r>
       <r>    5.9204    0.0000 </r>
       <r>    6.6535    0.0000 </r>
      </set>
      <set comment="kpoint 224">
       <r>  -18.2016    1.0000 </r>
       <r>  -17.2952    1.0000 </r>
       <r>  -14.0535    1.0000 </r>
       <r>  -13.2145    1.0000 </r>
       <r>  -11.7032    1.0000 </r>
       <r>  -10.9680    1.0000 </r>
       <r>   -5.8169    1.0000 </r>
       <r>   -4.8926    1.0000 </r>
       <r>   -0.7069    0.0000 </r>
       <r>    0.3471    0.0000 </r>
       <r>    5.9591    0.0000 </r>
       <r>    6.7017    0.0000 </r>
      </set>
      <set comment="kpoint 225">
       <r>  -18.1560    1.0000 </r>
       <r>  -17.2541    1.0000 </r>
       <r>  -14.2993    1.0000 </r>
       <r>  -13.4551    1.0000 </r>
       <r>  -11.4345    1.0000 </r>
       <r>  -10.7296    1.0000 </r>
       <r>   -5.7822    1.0000 </r>
       <r>   -4.8852    1.0000 </r>
       <r>   -0.7689    0.0000 </r>
       <r>    0.2489    0.0000 </r>
       <r>    6.0222    0.0000 </r>
       <r>    6.7807    0.0000 </r>
      </set>
      <set comment="kpoint 226">
       <r>  -18.0925    1.0000 </r>
       <r>  -17.1976    1.0000 </r>
       <r>  -14.5719    1.0000 </r>
       <r>  -13.7255    1.0000 </r>
       <r>  -11.1320    1.0000 </r>
       <r>  -10.4663    1.0000 </r>
       <r>   -5.7345    1.0000 </r>
       <r>   -4.8773    1.0000 </r>
       <r>   -0.8459    0.0000 </r>
       <r>    0.1209    0.0000 </r>
       <r>    6.0926    0.0000 </r>
       <r>    6.3204    0.0000 </r>
      </set>
      <set comment="kpoint 227">
       <r>  -18.0114    1.0000 </r>
       <r>  -17.1275    1.0000 </r>
       <r>  -14.8507    1.0000 </r>
       <r>  -14.0069    1.0000 </r>
       <r>  -10.8182    1.0000 </r>
       <r>  -10.2008    1.0000 </r>
       <r>   -5.6750    1.0000 </r>
       <r>   -4.8712    1.0000 </r>
       <r>   -0.9297    0.0000 </r>
       <r>   -0.0290    0.0000 </r>
       <r>    5.7646    0.0000 </r>
       <r>    6.2525    0.0000 </r>
      </set>
      <set comment="kpoint 228">
       <r>  -17.9130    1.0000 </r>
       <r>  -17.0467    1.0000 </r>
       <r>  -15.1226    1.0000 </r>
       <r>  -14.2888    1.0000 </r>
       <r>  -10.5079    1.0000 </r>
       <r>   -9.9486    1.0000 </r>
       <r>   -5.6051    1.0000 </r>
       <r>   -4.8698    1.0000 </r>
       <r>   -1.0112    0.0000 </r>
       <r>   -0.1927    0.0000 </r>
       <r>    5.3063    0.0000 </r>
       <r>    5.8556    0.0000 </r>
      </set>
      <set comment="kpoint 229">
       <r>  -17.7982    1.0000 </r>
       <r>  -16.9606    1.0000 </r>
       <r>  -15.3763    1.0000 </r>
       <r>  -14.5646    1.0000 </r>
       <r>  -10.2125    1.0000 </r>
       <r>   -9.7219    1.0000 </r>
       <r>   -5.5265    1.0000 </r>
       <r>   -4.8762    1.0000 </r>
       <r>   -1.0818    0.0000 </r>
       <r>   -0.3623    0.0000 </r>
       <r>    4.9026    0.0000 </r>
       <r>    5.3877    0.0000 </r>
      </set>
      <set comment="kpoint 230">
       <r>  -17.6680    1.0000 </r>
       <r>  -16.8805    1.0000 </r>
       <r>  -15.5972    1.0000 </r>
       <r>  -14.8296    1.0000 </r>
       <r>   -9.9419    1.0000 </r>
       <r>   -9.5311    1.0000 </r>
       <r>   -5.4414    1.0000 </r>
       <r>   -4.8933    1.0000 </r>
       <r>   -1.1334    0.0000 </r>
       <r>   -0.5301    0.0000 </r>
       <r>    4.5667    0.0000 </r>
       <r>    4.9751    0.0000 </r>
      </set>
      <set comment="kpoint 231">
       <r>  -17.5240    1.0000 </r>
       <r>  -16.8280    1.0000 </r>
       <r>  -15.7614    1.0000 </r>
       <r>  -15.0798    1.0000 </r>
       <r>   -9.7056    1.0000 </r>
       <r>   -9.3855    1.0000 </r>
       <r>   -5.3526    1.0000 </r>
       <r>   -4.9233    1.0000 </r>
       <r>   -1.1596    0.0000 </r>
       <r>   -0.6891    0.0000 </r>
       <r>    4.3081    0.0000 </r>
       <r>    4.6276    0.0000 </r>
      </set>
      <set comment="kpoint 232">
       <r>  -17.3691    1.0000 </r>
       <r>  -16.8348    1.0000 </r>
       <r>  -15.8359    1.0000 </r>
       <r>  -15.3110    1.0000 </r>
       <r>   -9.5122    1.0000 </r>
       <r>   -9.2925    1.0000 </r>
       <r>   -5.2632    1.0000 </r>
       <r>   -4.9675    1.0000 </r>
       <r>   -1.1559    0.0000 </r>
       <r>   -0.8329    0.0000 </r>
       <r>    4.1345    0.0000 </r>
       <r>    4.3543    0.0000 </r>
      </set>
      <set comment="kpoint 233">
       <r>  -17.2081    1.0000 </r>
       <r>  -16.9163    1.0000 </r>
       <r>  -15.8043    1.0000 </r>
       <r>  -15.5171    1.0000 </r>
       <r>   -9.3695    1.0000 </r>
       <r>   -9.2577    1.0000 </r>
       <r>   -5.1766    1.0000 </r>
       <r>   -5.0257    1.0000 </r>
       <r>   -1.1203    0.0000 </r>
       <r>   -0.9558    0.0000 </r>
       <r>    4.0514    0.0000 </r>
       <r>    4.1634    0.0000 </r>
      </set>
      <set comment="kpoint 234">
       <r>  -17.0509    1.0000 </r>
       <r>  -17.0509    1.0000 </r>
       <r>  -15.6879    1.0000 </r>
       <r>  -15.6879    1.0000 </r>
       <r>   -9.2835    1.0000 </r>
       <r>   -9.2835    1.0000 </r>
       <r>   -5.0963    1.0000 </r>
       <r>   -5.0963    1.0000 </r>
       <r>   -1.0528    0.0000 </r>
       <r>   -1.0528    0.0000 </r>
       <r>    4.0612    0.0000 </r>
       <r>    4.0612    0.0000 </r>
      </set>
      <set comment="kpoint 235">
       <r>  -17.7915    1.0000 </r>
       <r>  -17.7915    1.0000 </r>
       <r>  -13.3944    1.0000 </r>
       <r>  -13.3944    1.0000 </r>
       <r>  -11.6045    1.0000 </r>
       <r>  -11.6045    1.0000 </r>
       <r>   -5.3751    1.0000 </r>
       <r>   -5.3751    1.0000 </r>
       <r>   -0.1218    0.0000 </r>
       <r>   -0.1218    0.0000 </r>
       <r>    6.5447    0.0000 </r>
       <r>    6.5447    0.0000 </r>
      </set>
      <set comment="kpoint 236">
       <r>  -17.7826    1.0000 </r>
       <r>  -17.7826    1.0000 </r>
       <r>  -13.4640    1.0000 </r>
       <r>  -13.4640    1.0000 </r>
       <r>  -11.5323    1.0000 </r>
       <r>  -11.5323    1.0000 </r>
       <r>   -5.3701    1.0000 </r>
       <r>   -5.3701    1.0000 </r>
       <r>   -0.1401    0.0000 </r>
       <r>   -0.1401    0.0000 </r>
       <r>    6.5576    0.0000 </r>
       <r>    6.5576    0.0000 </r>
      </set>
      <set comment="kpoint 237">
       <r>  -17.7561    1.0000 </r>
       <r>  -17.7561    1.0000 </r>
       <r>  -13.6454    1.0000 </r>
       <r>  -13.6454    1.0000 </r>
       <r>  -11.3438    1.0000 </r>
       <r>  -11.3438    1.0000 </r>
       <r>   -5.3550    1.0000 </r>
       <r>   -5.3550    1.0000 </r>
       <r>   -0.1933    0.0000 </r>
       <r>   -0.1933    0.0000 </r>
       <r>    6.5958    0.0000 </r>
       <r>    6.5958    0.0000 </r>
      </set>
      <set comment="kpoint 238">
       <r>  -17.7120    1.0000 </r>
       <r>  -17.7120    1.0000 </r>
       <r>  -13.8898    1.0000 </r>
       <r>  -13.8898    1.0000 </r>
       <r>  -11.0891    1.0000 </r>
       <r>  -11.0891    1.0000 </r>
       <r>   -5.3308    1.0000 </r>
       <r>   -5.3308    1.0000 </r>
       <r>   -0.2771    0.0000 </r>
       <r>   -0.2771    0.0000 </r>
       <r>    6.6561    0.0000 </r>
       <r>    6.6561    0.0000 </r>
      </set>
      <set comment="kpoint 239">
       <r>  -17.6507    1.0000 </r>
       <r>  -17.6507    1.0000 </r>
       <r>  -14.1630    1.0000 </r>
       <r>  -14.1630    1.0000 </r>
       <r>  -10.8048    1.0000 </r>
       <r>  -10.8048    1.0000 </r>
       <r>   -5.2984    1.0000 </r>
       <r>   -5.2984    1.0000 </r>
       <r>   -0.3847    0.0000 </r>
       <r>   -0.3847    0.0000 </r>
       <r>    6.5686    0.0000 </r>
       <r>    6.5686    0.0000 </r>
      </set>
      <set comment="kpoint 240">
       <r>  -17.5730    1.0000 </r>
       <r>  -17.5730    1.0000 </r>
       <r>  -14.4456    1.0000 </r>
       <r>  -14.4456    1.0000 </r>
       <r>  -10.5136    1.0000 </r>
       <r>  -10.5136    1.0000 </r>
       <r>   -5.2595    1.0000 </r>
       <r>   -5.2595    1.0000 </r>
       <r>   -0.5083    0.0000 </r>
       <r>   -0.5083    0.0000 </r>
       <r>    6.0540    0.0000 </r>
       <r>    6.0540    0.0000 </r>
      </set>
      <set comment="kpoint 241">
       <r>  -17.4798    1.0000 </r>
       <r>  -17.4798    1.0000 </r>
       <r>  -14.7264    1.0000 </r>
       <r>  -14.7264    1.0000 </r>
       <r>  -10.2307    1.0000 </r>
       <r>  -10.2307    1.0000 </r>
       <r>   -5.2163    1.0000 </r>
       <r>   -5.2163    1.0000 </r>
       <r>   -0.6391    0.0000 </r>
       <r>   -0.6391    0.0000 </r>
       <r>    5.5643    0.0000 </r>
       <r>    5.5643    0.0000 </r>
      </set>
      <set comment="kpoint 242">
       <r>  -17.3727    1.0000 </r>
       <r>  -17.3727    1.0000 </r>
       <r>  -14.9980    1.0000 </r>
       <r>  -14.9980    1.0000 </r>
       <r>   -9.9678    1.0000 </r>
       <r>   -9.9678    1.0000 </r>
       <r>   -5.1714    1.0000 </r>
       <r>   -5.1714    1.0000 </r>
       <r>   -0.7686    0.0000 </r>
       <r>   -0.7686    0.0000 </r>
       <r>    5.1257    0.0000 </r>
       <r>    5.1257    0.0000 </r>
      </set>
      <set comment="kpoint 243">
       <r>  -17.2547    1.0000 </r>
       <r>  -17.2547    1.0000 </r>
       <r>  -15.2540    1.0000 </r>
       <r>  -15.2540    1.0000 </r>
       <r>   -9.7352    1.0000 </r>
       <r>   -9.7352    1.0000 </r>
       <r>   -5.1279    1.0000 </r>
       <r>   -5.1279    1.0000 </r>
       <r>   -0.8883    0.0000 </r>
       <r>   -0.8883    0.0000 </r>
       <r>    4.7490    0.0000 </r>
       <r>    4.7490    0.0000 </r>
      </set>
      <set comment="kpoint 244">
       <r>  -17.1309    1.0000 </r>
       <r>  -17.1309    1.0000 </r>
       <r>  -15.4868    1.0000 </r>
       <r>  -15.4868    1.0000 </r>
       <r>   -9.5424    1.0000 </r>
       <r>   -9.5424    1.0000 </r>
       <r>   -5.0891    1.0000 </r>
       <r>   -5.0891    1.0000 </r>
       <r>   -0.9908    0.0000 </r>
       <r>   -0.9908    0.0000 </r>
       <r>    4.4438    0.0000 </r>
       <r>    4.4438    0.0000 </r>
      </set>
      <set comment="kpoint 245">
       <r>  -17.0118    1.0000 </r>
       <r>  -17.0118    1.0000 </r>
       <r>  -15.6847    1.0000 </r>
       <r>  -15.6847    1.0000 </r>
       <r>   -9.3978    1.0000 </r>
       <r>   -9.3978    1.0000 </r>
       <r>   -5.0584    1.0000 </r>
       <r>   -5.0584    1.0000 </r>
       <r>   -1.0693    0.0000 </r>
       <r>   -1.0693    0.0000 </r>
       <r>    4.2187    0.0000 </r>
       <r>    4.2187    0.0000 </r>
      </set>
      <set comment="kpoint 246">
       <r>  -16.9177    1.0000 </r>
       <r>  -16.9177    1.0000 </r>
       <r>  -15.8264    1.0000 </r>
       <r>  -15.8264    1.0000 </r>
       <r>   -9.3080    1.0000 </r>
       <r>   -9.3080    1.0000 </r>
       <r>   -5.0386    1.0000 </r>
       <r>   -5.0386    1.0000 </r>
       <r>   -1.1186    0.0000 </r>
       <r>   -1.1186    0.0000 </r>
       <r>    4.0805    0.0000 </r>
       <r>    4.0805    0.0000 </r>
      </set>
      <set comment="kpoint 247">
       <r>  -16.8800    1.0000 </r>
       <r>  -16.8800    1.0000 </r>
       <r>  -15.8800    1.0000 </r>
       <r>  -15.8800    1.0000 </r>
       <r>   -9.2775    1.0000 </r>
       <r>   -9.2775    1.0000 </r>
       <r>   -5.0318    1.0000 </r>
       <r>   -5.0318    1.0000 </r>
       <r>   -1.1355    0.0000 </r>
       <r>   -1.1355    0.0000 </r>
       <r>    4.0339    0.0000 </r>
       <r>    4.0339    0.0000 </r>
      </set>
     </set>
    </set>
   </array>
  </eigenvalues>
  <separator name="orbital magnetization" >
   <v name="MAGDIPOLOUT">      0.00000000      0.00000000      0.00000000</v>
  </separator>
 </calculation>
 <structure name="finalpos" >
  <crystal>
   <varray name="basis" >
    <v>       4.35872855       0.00000000       0.00000000 </v>
    <v>       0.00000000       2.45898631       0.00000000 </v>
    <v>       0.00000000       0.00000000      19.67128590 </v>
   </varray>
   <i name="volume">    210.83790140 </i>
   <varray name="rec_basis" >
    <v>       0.22942470       0.00000000       0.00000000 </v>
    <v>       0.00000000       0.40667164       0.00000000 </v>
    <v>       0.00000000       0.00000000       0.05083552 </v>
   </varray>
  </crystal>
  <varray name="positions" >
   <v>       0.99954485      -0.00000000      -0.00000000 </v>
   <v>       0.16712182       0.50000000       0.00000000 </v>
   <v>       0.49954485       0.50000000      -0.00000000 </v>
   <v>       0.66712182       0.00000000       0.00000000 </v>
  </varray>
 </structure>
</modeling>
