gr                                      
           1
     4.358729    0.000000    0.000000
     0.000000    2.458986    0.000000
     0.000000    0.000000   19.671286
   C 
   4
Direct configuration=     1
   0.99954297  0.00000000  0.00000000
   0.16712369  0.50000000  0.00000000
   0.49954297  0.50000000  0.00000000
   0.66712369  0.00000000  0.00000000
Direct configuration=     2
   0.99955201  0.00000000  0.00000000
   0.16711466  0.50000000  0.00000000
   0.49955201  0.50000000  0.00000000
   0.66711466 -0.00000000  0.00000000
Direct configuration=     3
   0.99954485  0.00000000 -0.00000000
   0.16712181  0.50000000  0.00000000
   0.49954485  0.50000000 -0.00000000
   0.66712181  0.00000000  0.00000000
Direct configuration=     4
   0.99954484 -0.00000000 -0.00000000
   0.16712182  0.50000000  0.00000000
   0.49954484  0.50000000 -0.00000000
   0.66712182  0.00000000  0.00000000
Direct configuration=     5
   0.99954485 -0.00000000 -0.00000000
   0.16712182  0.50000000  0.00000000
   0.49954485  0.50000000 -0.00000000
   0.66712182  0.00000000  0.00000000
