    4    4  400    1
  0.5270948E+02  0.4269514E-09  0.2479266E-09  0.1991806E-08  0.5000000E-15
  1.000000000000000E-004
  CAR 
 gr                                      
     16    247     12
 
  0.0000000E+00  0.0000000E+00  0.0000000E+00  0.1157407E-02
    1      -22.219800
    2      -16.957793
    3      -15.951091
    4      -10.332796
    5       -9.224845
    6       -5.830344
    7       -5.774487
    8       -5.069471
    9       -1.086635
   10        0.527883
   11        1.328414
   12        1.713350
 
  0.4166667E-01  0.0000000E+00  0.0000000E+00  0.2314815E-02
    1      -22.209525
    2      -17.128381
    3      -15.765286
    4      -10.320537
    5       -9.214612
    6       -5.853148
    7       -5.816739
    8       -5.136671
    9       -1.003671
   10        0.541818
   11        1.342523
   12        1.727631
 
  0.8333333E-01  0.0000000E+00  0.0000000E+00  0.2314815E-02
    1      -22.178705
    2      -17.471259
    3      -15.376837
    4      -10.283778
    5       -9.183964
    6       -5.941796
    7       -5.920288
    8       -5.322896
    9       -0.770325
   10        0.583622
   11        1.384846
   12        1.770473
 
  0.1250000E+00  0.0000000E+00  0.0000000E+00  0.2314815E-02
    1      -22.127361
    2      -17.851110
    3      -14.921328
    4      -10.222578
    5       -9.133054
    6       -6.144841
    7       -6.028163
    8       -5.594120
    9       -0.421145
   10        0.653300
   11        1.455370
   12        1.841878
 
  0.1666667E+00  0.0000000E+00  0.0000000E+00  0.2314815E-02
    1      -22.055526
    2      -18.232435
    3      -14.434709
    4      -10.137032
    5       -9.062143
    6       -6.418670
    7       -6.171418
    8       -5.916880
    9        0.009532
   10        0.750852
   11        1.554074
   12        1.941846
 
  0.2083333E+00  0.0000000E+00  0.0000000E+00  0.2314815E-02
    1      -21.963248
    2      -18.604493
    3      -13.928365
    4      -10.027283
    5       -8.971607
    6       -6.754641
    7       -6.343675
    8       -6.266462
    9        0.495737
   10        0.876274
   11        1.680926
   12        2.070378
 
  0.2500000E+00  0.0000000E+00  0.0000000E+00  0.2314815E-02
    1      -21.850592
    2      -18.962982
    3      -13.407459
    4       -9.893519
    5       -8.861953
    6       -7.143572
    7       -6.626499
    8       -6.538228
    9        1.019440
   10        1.029552
   11        1.835876
   12        2.227472
 
  0.2916667E+00  0.0000000E+00  0.0000000E+00  0.2314815E-02
    1      -21.717636
    2      -19.305767
    3      -12.875216
    4       -9.735983
    5       -8.733829
    6       -7.576431
    7       -6.986415
    8       -6.748566
    9        1.210658
   10        1.567915
   11        2.018849
   12        2.413125
 
  0.3333333E+00  0.0000000E+00  0.0000000E+00  0.2314815E-02
    1      -21.564480
    2      -19.631613
    3      -12.334231
    4       -9.554987
    5       -8.588052
    6       -8.044795
    7       -7.339288
    8       -6.968710
    9        1.419555
   10        2.131402
   11        2.229727
   12        2.627333
 
  0.3750000E+00  0.0000000E+00  0.0000000E+00  0.2314815E-02
    1      -21.391236
    2      -19.939714
    3      -11.786970
    4       -9.350917
    5       -8.541069
    6       -8.425631
    7       -7.680464
    8       -7.193374
    9        1.656189
   10        2.468304
   11        2.700900
   12        2.870084
 
  0.4166667E+00  0.0000000E+00  0.0000000E+00  0.2314815E-02
    1      -21.198040
    2      -20.229497
    3      -11.236017
    4       -9.124261
    5       -9.058567
    6       -8.247805
    7       -8.006711
    8       -7.417999
    9        1.920484
   10        2.734160
   11        3.141362
   12        3.251210
 
  0.4583333E+00  0.0000000E+00  0.0000000E+00  0.2314815E-02
    1      -20.985055
    2      -20.500529
    3      -10.684217
    4       -9.591481
    5       -8.875626
    6       -8.315718
    7       -8.056089
    8       -7.638726
    9        2.212337
   10        2.878037
   11        3.026202
   12        3.441135
 
  0.5000000E+00  0.0000000E+00  0.0000000E+00  0.1157407E-02
    1      -20.752475
    2      -20.752475
    3      -10.134800
    4      -10.134800
    5       -8.605783
    6       -8.605783
    7       -7.852320
    8       -7.852320
    9        2.531600
   10        2.531600
   11        3.339948
   12        3.339948
 
  0.0000000E+00  0.2777778E-01  0.0000000E+00  0.2314815E-02
    1      -22.206266
    2      -16.946168
    3      -15.939733
    4      -10.316648
    5       -9.285750
    6       -5.886468
    7       -5.805108
    8       -5.053018
    9       -1.091027
   10        0.546231
   11        1.347008
   12        1.732170
 
  0.4166667E-01  0.2777778E-01  0.0000000E+00  0.4629630E-02
    1      -22.195992
    2      -17.116595
    3      -15.754142
    4      -10.304394
    5       -9.275498
    6       -5.917441
    7       -5.838505
    8       -5.120369
    9       -1.008032
   10        0.560166
   11        1.361116
   12        1.746451
 
  0.8333333E-01  0.2777778E-01  0.0000000E+00  0.4629630E-02
    1      -22.165176
    2      -17.459224
    3      -15.366104
    4      -10.267648
    5       -9.244790
    6       -6.019697
    7       -5.926509
    8       -5.306940
    9       -0.774706
   10        0.601973
   11        1.403436
   12        1.789293
 
  0.1250000E+00  0.2777778E-01  0.0000000E+00  0.4629630E-02
    1      -22.113839
    2      -17.838852
    3      -14.911093
    4      -10.206469
    5       -9.193777
    6       -6.205768
    7       -6.048496
    8       -5.578516
    9       -0.425782
   10        0.671655
   11        1.473955
   12        1.860699
 
  0.1666667E+00  0.2777778E-01  0.0000000E+00  0.4629630E-02
    1      -22.042014
    2      -18.219985
    3      -14.425063
    4      -10.120953
    5       -9.122712
    6       -6.468027
    7       -6.199936
    8       -5.901533
    9        0.004296
   10        0.769213
   11        1.572654
   12        1.960669
 
  0.2083333E+00  0.2777778E-01  0.0000000E+00  0.4629630E-02
    1      -21.949751
    2      -18.591879
    3      -13.919421
    4      -10.011242
    5       -9.031963
    6       -6.794573
    7       -6.378081
    8       -6.251262
    9        0.489547
   10        0.894644
   11        1.699498
   12        2.089202
 
  0.2500000E+00  0.2777778E-01  0.0000000E+00  0.4629630E-02
    1      -21.837112
    2      -18.950227
    3      -13.399350
    4       -9.877525
    5       -8.922021
    6       -7.175291
    7       -6.611357
    8       -6.577431
    9        1.011965
   10        1.047932
   11        1.854439
   12        2.246299
 
  0.2916667E+00  0.2777778E-01  0.0000000E+00  0.4629630E-02
    1      -21.704179
    2      -19.292891
    3      -12.868106
    4       -9.720045
    5       -8.793518
    6       -7.600974
    7       -6.971266
    8       -6.791822
    9        1.229051
   10        1.558870
   11        2.037404
   12        2.431956
 
  0.3333333E+00  0.2777778E-01  0.0000000E+00  0.4629630E-02
    1      -21.551048
    2      -19.618633
    3      -12.328319
    4       -9.539112
    5       -8.647248
    6       -8.063147
    7       -7.324090
    8       -7.015395
    9        1.437962
   10        2.120578
   11        2.248275
   12        2.646167
 
  0.3750000E+00  0.2777778E-01  0.0000000E+00  0.4629630E-02
    1      -21.377835
    2      -19.926643
    3      -11.782500
    4       -9.335114
    5       -8.554156
    6       -8.484195
    7       -7.665192
    8       -7.242933
    9        1.674611
   10        2.486850
   11        2.688289
   12        2.888924
 
  0.4166667E+00  0.2777778E-01  0.0000000E+00  0.4629630E-02
    1      -21.184676
    2      -20.216349
    3      -11.233285
    4       -9.108537
    5       -9.067228
    6       -8.305566
    7       -7.991352
    8       -7.469940
    9        1.938925
   10        2.752716
   11        3.160210
   12        3.248244
 
  0.4583333E+00  0.2777778E-01  0.0000000E+00  0.4629630E-02
    1      -20.971733
    2      -20.487315
    3      -10.683585
    4       -9.596450
    5       -8.859989
    6       -8.300266
    7       -8.112835
    8       -7.692618
    9        2.230802
   10        2.896597
   11        3.044790
   12        3.459996
 
  0.5000000E+00  0.2777778E-01  0.0000000E+00  0.2314815E-02
    1      -20.739203
    2      -20.739203
    3      -10.136706
    4      -10.136706
    5       -8.590237
    6       -8.590237
    7       -7.907793
    8       -7.907793
    9        2.550100
   10        2.550100
   11        3.358523
   12        3.358523
 
  0.0000000E+00  0.5555556E-01  0.0000000E+00  0.2314815E-02
    1      -22.165673
    2      -16.911298
    3      -15.905821
    4      -10.268239
    5       -9.463565
    6       -6.050396
    7       -5.896176
    8       -5.003677
    9       -1.105027
   10        0.601279
   11        1.402783
   12        1.788631
 
  0.4166667E-01  0.5555556E-01  0.0000000E+00  0.4629630E-02
    1      -22.155403
    2      -17.081253
    3      -15.720865
    4      -10.255997
    5       -9.453249
    6       -6.088338
    7       -5.920598
    8       -5.071497
    9       -1.021934
   10        0.615216
   11        1.416888
   12        1.802912
 
  0.8333333E-01  0.5555556E-01  0.0000000E+00  0.4629630E-02
    1      -22.124600
    2      -17.423141
    3      -15.334064
    4      -10.219290
    5       -9.422348
    6       -6.199482
    7       -5.994042
    8       -5.259132
    9       -0.788655
   10        0.657027
   11        1.459199
   12        1.845756
 
  0.1250000E+00  0.5555556E-01  0.0000000E+00  0.4629630E-02
    1      -22.073285
    2      -17.802101
    3      -14.880571
    4      -10.158176
    5       -9.370998
    6       -6.378811
    7       -6.114340
    8       -5.531787
    9       -0.440510
   10        0.726718
   11        1.529704
   12        1.917164
 
  0.1666667E+00  0.5555556E-01  0.0000000E+00  0.4629630E-02
    1      -22.001493
    2      -18.182659
    3      -14.396349
    4      -10.072751
    5       -9.299430
    6       -6.621852
    7       -6.274974
    8       -5.855589
    9       -0.012255
   10        0.824292
   11        1.628383
   12        2.017136
 
  0.2083333E+00  0.5555556E-01  0.0000000E+00  0.4629630E-02
    1      -21.909272
    2      -18.554060
    3      -13.892863
    4       -9.963157
    5       -9.207979
    6       -6.924099
    7       -6.466893
    8       -6.205763
    9        0.470082
   10        0.949744
   11        1.755203
   12        2.145675
 
  0.2500000E+00  0.5555556E-01  0.0000000E+00  0.4629630E-02
    1      -21.796686
    2      -18.911983
    3      -13.375372
    4       -9.829582
    5       -9.097092
    6       -7.279936
    7       -6.680926
    8       -6.566026
    9        0.988577
   10        1.103059
   11        1.910117
   12        2.302778
 
  0.2916667E+00  0.5555556E-01  0.0000000E+00  0.4629630E-02
    1      -21.663819
    2      -19.254282
    3      -12.847226
    4       -9.672271
    5       -8.967344
    6       -7.682521
    7       -6.925910
    8       -6.909045
    9        1.284209
   10        1.530683
   11        2.093053
   12        2.488443
 
  0.3333333E+00  0.5555556E-01  0.0000000E+00  0.4629630E-02
    1      -21.510767
    2      -19.579710
    3      -12.311173
    4       -9.491533
    5       -8.819455
    6       -8.124383
    7       -7.278584
    8       -7.144619
    9        1.493156
   10        2.086930
   11        2.303900
   12        2.702665
 
  0.3750000E+00  0.5555556E-01  0.0000000E+00  0.4629630E-02
    1      -21.337646
    2      -19.887450
    3      -11.769870
    4       -9.287755
    5       -8.654315
    6       -8.598087
    7       -7.619458
    8       -7.382256
    9        1.729844
   10        2.542468
   11        2.649042
   12        2.945436
 
  0.4166667E+00  0.5555556E-01  0.0000000E+00  0.4629630E-02
    1      -21.144595
    2      -20.176922
    3      -11.226131
    4       -9.096683
    5       -9.061420
    6       -8.473015
    7       -7.945349
    8       -7.617567
    9        1.994203
   10        2.808365
   11        3.205921
   12        3.216742
 
  0.4583333E+00  0.5555556E-01  0.0000000E+00  0.4629630E-02
    1      -20.931781
    2      -20.447686
    3      -10.683089
    4       -9.613923
    5       -8.813134
    6       -8.276885
    7       -8.253977
    8       -7.846975
    9        2.286137
   10        2.952150
   11        3.100540
   12        3.516563
 
  0.5000000E+00  0.5555556E-01  0.0000000E+00  0.2314815E-02
    1      -20.699400
    2      -20.699400
    3      -10.144313
    4      -10.144313
    5       -8.543661
    6       -8.543661
    7       -8.067548
    8       -8.067548
    9        2.605517
   10        2.605517
   11        3.414228
   12        3.414228
 
  0.0000000E+00  0.8333333E-01  0.0000000E+00  0.2314815E-02
    1      -22.098057
    2      -16.853194
    3      -15.849873
    4      -10.187668
    5       -9.744944
    6       -6.310135
    7       -6.045370
    8       -4.921509
    9       -1.131105
   10        0.693043
   11        1.495716
   12        1.882736
 
  0.4166667E-01  0.8333333E-01  0.0000000E+00  0.4629630E-02
    1      -22.087794
    2      -17.022404
    3      -15.665950
    4      -10.175448
    5       -9.734505
    6       -6.352096
    7       -6.062586
    8       -4.990158
    9       -1.047819
   10        0.706979
   11        1.509816
   12        1.897018
 
  0.8333333E-01  0.8333333E-01  0.0000000E+00  0.4629630E-02
    1      -22.057014
    2      -17.363085
    3      -15.281235
    4      -10.138808
    5       -9.703223
    6       -6.469720
    7       -6.120510
    8       -5.179666
    9       -0.814580
   10        0.748793
   11        1.552111
   12        1.939862
 
  0.1250000E+00  0.8333333E-01  0.0000000E+00  0.4629630E-02
    1      -22.005737
    2      -17.740936
    3      -14.830353
    4      -10.077805
    5       -9.651209
    6       -6.648975
    7       -6.227351
    8       -5.454201
    9       -0.467749
   10        0.818490
   11        1.622590
   12        2.011271
 
  0.1666667E+00  0.8333333E-01  0.0000000E+00  0.4629630E-02
    1      -21.933998
    2      -18.120530
    3      -14.349282
    4       -9.992536
    5       -9.578651
    6       -6.880067
    7       -6.383686
    8       -5.779352
    9       -0.042627
   10        0.916076
   11        1.721232
   12        2.111247
 
  0.2083333E+00  0.8333333E-01  0.0000000E+00  0.4629630E-02
    1      -21.841847
    2      -18.491101
    3      -13.849590
    4       -9.883142
    5       -9.485818
    6       -7.157748
    7       -6.582943
    8       -6.130278
    9        0.434696
   10        1.041549
   11        1.848007
   12        2.239791
 
  0.2500000E+00  0.8333333E-01  0.0000000E+00  0.4629630E-02
    1      -21.729352
    2      -18.848311
    3      -13.336678
    4       -9.749813
    5       -9.373066
    6       -7.479615
    7       -6.814096
    8       -6.490816
    9        0.946440
   10        1.194892
   11        2.002868
   12        2.396902
 
  0.2916667E+00  0.8333333E-01  0.0000000E+00  0.4629630E-02
    1      -21.596594
    2      -19.189997
    3      -12.814082
    4       -9.592792
    5       -9.240845
    6       -7.844125
    7       -7.064694
    8       -6.850640
    9        1.376079
   10        1.480278
   11        2.185749
   12        2.582578
 
  0.3333333E+00  0.8333333E-01  0.0000000E+00  0.4629630E-02
    1      -21.443673
    2      -19.514896
    3      -12.284787
    4       -9.412388
    5       -9.089717
    6       -8.248725
    7       -7.323622
    8       -7.203039
    9        1.585067
   10        2.027058
   11        2.396548
   12        2.796814
 
  0.3750000E+00  0.8333333E-01  0.0000000E+00  0.4629630E-02
    1      -21.270707
    2      -19.822181
    3      -11.751748
    4       -9.208987
    5       -8.920361
    6       -8.689027
    7       -7.582554
    8       -7.543511
    9        1.821801
   10        2.579166
   11        2.635094
   12        3.039602
 
  0.4166667E+00  0.8333333E-01  0.0000000E+00  0.4629630E-02
    1      -21.077839
    2      -20.111261
    3      -11.218161
    4       -9.159227
    5       -8.983070
    6       -8.733601
    7       -7.868931
    8       -7.835874
    9        2.086209
   10        2.901036
   11        3.128327
   12        3.310933
 
  0.4583333E+00  0.8333333E-01  0.0000000E+00  0.4629630E-02
    1      -20.865240
    2      -20.381687
    3      -10.687632
    4       -9.653018
    5       -8.735237
    6       -8.530423
    7       -8.177061
    8       -8.079882
    9        2.378202
   10        3.044423
   11        3.193403
   12        3.610793
 
  0.5000000E+00  0.8333333E-01  0.0000000E+00  0.2314815E-02
    1      -20.633109
    2      -20.633109
    3      -10.164317
    4      -10.164317
    5       -8.466246
    6       -8.466246
    7       -8.312026
    8       -8.312026
    9        2.697661
   10        2.697661
   11        3.506977
   12        3.506977
 
  0.0000000E+00  0.1111111E+00  0.0000000E+00  0.2314815E-02
    1      -22.003480
    2      -16.771876
    3      -15.772867
    4      -10.111254
    5      -10.075107
    6       -6.649256
    7       -6.248991
    8       -4.806616
    9       -1.173329
   10        0.821538
   11        1.625771
   12        2.014490
 
  0.4166667E-01  0.1111111E+00  0.0000000E+00  0.4629630E-02
    1      -21.993228
    2      -16.940134
    3      -15.590339
    4      -10.100597
    5      -10.062920
    6       -6.694190
    7       -6.259097
    8       -4.876540
    9       -1.089699
   10        0.835472
   11        1.639862
   12        2.028770
 
  0.8333333E-01  0.1111111E+00  0.0000000E+00  0.4629630E-02
    1      -21.962479
    2      -17.279187
    3      -15.208604
    4      -10.068649
    5      -10.026377
    6       -6.817639
    7       -6.299372
    8       -5.068895
    9       -0.856406
   10        0.877279
   11        1.682131
   12        2.071614
 
  0.1250000E+00  0.1111111E+00  0.0000000E+00  0.4629630E-02
    1      -21.911255
    2      -17.655492
    3      -14.761590
    4      -10.015473
    5       -9.965535
    6       -6.999959
    7       -6.385251
    8       -5.346243
    9       -0.511423
   10        0.946968
   11        1.752567
   12        2.143023
 
  0.1666667E+00  0.1111111E+00  0.0000000E+00  0.4629630E-02
    1      -21.839591
    2      -18.033728
    3      -14.285279
    4       -9.941172
    5       -9.880493
    6       -7.226811
    7       -6.524052
    8       -5.673372
    9       -0.090855
   10        1.044550
   11        1.851149
   12        2.243000
 
  0.2083333E+00  0.1111111E+00  0.0000000E+00  0.4629630E-02
    1      -21.747541
    2      -18.403122
    3      -13.791406
    4       -9.845889
    5       -9.771393
    6       -7.489689
    7       -6.714687
    8       -6.025371
    9        0.379151
   10        1.170027
   11        1.977847
   12        2.371547
 
  0.2500000E+00  0.1111111E+00  0.0000000E+00  0.4629630E-02
    1      -21.635172
    2      -18.759319
    3      -13.285625
    4       -9.729801
    5       -9.638422
    6       -7.784339
    7       -6.949841
    8       -6.386272
    9        0.881048
   10        1.323385
   11        2.132618
   12        2.528664
 
  0.2916667E+00  0.1111111E+00  0.0000000E+00  0.4629630E-02
    1      -21.502567
    2      -19.100133
    3      -12.771810
    4       -9.593111
    5       -9.481827
    6       -8.109744
    7       -7.217813
    8       -6.745970
    9        1.402832
   10        1.504595
   11        2.315400
   12        2.714350
 
  0.3333333E+00  0.1111111E+00  0.0000000E+00  0.4629630E-02
    1      -21.349830
    2      -19.424282
    3      -12.253396
    4       -9.436041
    5       -9.301914
    6       -8.467000
    7       -7.504537
    8       -7.097934
    9        1.713613
   10        1.935744
   11        2.526104
   12        2.928599
 
  0.3750000E+00  0.1111111E+00  0.0000000E+00  0.4629630E-02
    1      -21.177083
    2      -19.730920
    3      -11.733925
    4       -9.258817
    5       -9.099067
    6       -8.857492
    7       -7.796158
    8       -7.437789
    9        1.950379
   10        2.472817
   11        2.764587
   12        3.171404
 
  0.4166667E+00  0.1111111E+00  0.0000000E+00  0.4629630E-02
    1      -20.984474
    2      -20.019445
    3      -11.217352
    4       -9.280862
    5       -9.061661
    6       -8.873765
    7       -8.081564
    8       -7.762498
    9        2.214818
   10        3.007721
   11        3.030573
   12        3.442757
 
  0.4583333E+00  0.1111111E+00  0.0000000E+00  0.4629630E-02
    1      -20.772178
    2      -20.289393
    3      -10.708238
    4       -9.734040
    5       -8.844804
    6       -8.626602
    7       -8.353607
    8       -8.069882
    9        2.506842
   10        3.173156
   11        3.323257
   12        3.530012
 
  0.5000000E+00  0.1111111E+00  0.0000000E+00  0.2314815E-02
    1      -20.540402
    2      -20.540402
    3      -10.211842
    4      -10.211842
    5       -8.608564
    6       -8.608564
    7       -8.358325
    8       -8.358325
    9        2.826337
   10        2.826337
   11        3.636387
   12        3.636387
 
  0.0000000E+00  0.1388889E+00  0.0000000E+00  0.2314815E-02
    1      -21.882031
    2      -16.667372
    3      -15.676468
    4      -10.541862
    5       -9.930803
    6       -7.050219
    7       -6.502218
    8       -4.659143
    9       -1.237233
   10        0.986777
   11        1.792891
   12        2.183895
 
  0.4166667E-01  0.1388889E+00  0.0000000E+00  0.4629630E-02
    1      -21.871792
    2      -16.834582
    3      -15.495645
    4      -10.530838
    5       -9.918659
    6       -7.097834
    7       -6.504809
    8       -4.730935
    9       -1.152991
   10        1.000703
   11        1.806969
   12        2.198174
 
  0.8333333E-01  0.1388889E+00  0.0000000E+00  0.4629630E-02
    1      -21.841084
    2      -17.171657
    3      -15.117894
    4      -10.497757
    5       -9.882248
    6       -7.227122
    7       -6.525346
    8       -4.927394
    9       -0.919362
   10        1.042488
   11        1.849197
   12        2.241015
 
  0.1250000E+00  0.1388889E+00  0.0000000E+00  0.4629630E-02
    1      -21.789928
    2      -17.545988
    3      -14.676323
    4      -10.442591
    5       -9.821627
    6       -7.414294
    7       -6.585068
    8       -5.208695
    9       -0.576702
   10        1.112147
   11        1.919564
   12        2.312419
 
  0.1666667E+00  0.1388889E+00  0.0000000E+00  0.4629630E-02
    1      -21.718364
    2      -17.922453
    3      -14.206908
    4      -10.365282
    5       -9.736894
    6       -7.641681
    7       -6.696977
    8       -5.538525
    9       -0.162205
   10        1.209697
   11        2.018048
   12        2.412392
 
  0.2083333E+00  0.1388889E+00  0.0000000E+00  0.4629630E-02
    1      -21.626443
    2      -18.290304
    3      -13.721667
    4      -10.265720
    5       -9.628193
    6       -7.898315
    7       -6.864995
    8       -5.891929
    9        0.297973
   10        1.335147
   11        2.144619
   12        2.540937
 
  0.2500000E+00  0.1388889E+00  0.0000000E+00  0.4629630E-02
    1      -21.514236
    2      -18.645170
    3      -13.226714
    4      -10.143711
    5       -9.495712
    6       -8.177695
    7       -7.086320
    8       -6.253245
    9        0.786672
   10        1.488488
   11        2.299233
   12        2.698056
 
  0.2916667E+00  0.1388889E+00  0.0000000E+00  0.4629630E-02
    1      -21.381831
    2      -18.984839
    3      -12.726571
    4       -9.998933
    5       -9.339698
    6       -8.476626
    7       -7.353117
    8       -6.612696
    9        1.292349
   10        1.669693
   11        2.481833
   12        2.883748
 
  0.3333333E+00  0.1388889E+00  0.0000000E+00  0.4629630E-02
    1      -21.229332
    2      -19.308003
    3      -12.225556
    4       -9.830872
    5       -9.160457
    6       -8.794798
    7       -7.653758
    8       -6.963999
    9        1.806739
   10        1.878712
   11        2.692341
   12        3.098006
 
  0.3750000E+00  0.1388889E+00  0.0000000E+00  0.4629630E-02
    1      -21.056870
    2      -19.613794
    3      -11.728377
    4       -9.638770
    5       -9.134449
    6       -8.958372
    7       -7.973989
    8       -7.302957
    9        2.115481
   10        2.323473
   11        2.930648
   12        3.340825
 
  0.4166667E+00  0.1388889E+00  0.0000000E+00  0.4629630E-02
    1      -20.864598
    2      -19.901589
    3      -11.240441
    4       -9.499442
    5       -9.421612
    6       -8.733917
    7       -8.298520
    8       -7.626654
    9        2.379919
   10        2.837292
   11        3.196581
   12        3.612195
 
  0.4583333E+00  0.1388889E+00  0.0000000E+00  0.4629630E-02
    1      -20.652697
    2      -20.170912
    3      -10.767872
    4       -9.893328
    5       -9.178325
    6       -8.613381
    7       -8.487679
    8       -7.932987
    9        2.671930
   10        3.338178
   11        3.343383
   12        3.489707
 
  0.5000000E+00  0.1388889E+00  0.0000000E+00  0.2314815E-02
    1      -20.421383
    2      -20.421383
    3      -10.317038
    4      -10.317038
    5       -8.908419
    6       -8.908419
    7       -8.220393
    8       -8.220393
    9        2.991397
   10        2.991397
   11        3.791227
   12        3.791227
 
  0.0000000E+00  0.1666667E+00  0.0000000E+00  0.2314815E-02
    1      -21.733829
    2      -16.539725
    3      -15.563479
    4      -11.016196
    5       -9.755083
    6       -7.496668
    7       -6.799404
    8       -4.479282
    9       -1.329498
   10        1.188752
   11        1.996996
   12        2.390954
 
  0.4166667E-01  0.1666667E+00  0.0000000E+00  0.4629630E-02
    1      -21.723607
    2      -16.705963
    3      -15.384611
    4      -11.004541
    5       -9.742998
    6       -7.546945
    7       -6.794077
    8       -4.553789
    9       -1.244151
   10        1.202666
   11        2.011052
   12        2.405232
 
  0.8333333E-01  0.1666667E+00  0.0000000E+00  0.4629630E-02
    1      -21.692949
    2      -17.040820
    3      -15.012098
    4      -10.969506
    5       -9.706759
    6       -7.682310
    7       -6.793310
    8       -4.756074
    9       -1.009518
   10        1.244414
   11        2.053215
   12        2.448066
 
  0.1250000E+00  0.1666667E+00  0.0000000E+00  0.4629630E-02
    1      -21.641879
    2      -17.412749
    3      -14.578199
    4      -10.910875
    5       -9.646427
    6       -7.875471
    7       -6.823382
    8       -5.042787
    9       -0.669456
   10        1.314016
   11        2.123469
   12        2.519461
 
  0.1666667E+00  0.1666667E+00  0.0000000E+00  0.4629630E-02
    1      -21.570435
    2      -17.787007
    3      -14.118906
    4      -10.828250
    5       -9.562101
    6       -8.106152
    7       -6.902189
    8       -5.376158
    9       -0.262562
   10        1.411497
   11        2.221791
   12        2.619423
 
  0.2083333E+00  0.1666667E+00  0.0000000E+00  0.4629630E-02
    1      -21.478673
    2      -18.152917
    3      -13.646770
    4      -10.720976
    5       -9.453925
    6       -8.361735
    7       -7.037947
    8       -5.731289
    9        0.185157
   10        1.536875
   11        2.348143
   12        2.747958
 
  0.2500000E+00  0.1666667E+00  0.0000000E+00  0.4629630E-02
    1      -21.366667
    2      -18.506103
    3      -13.168818
    4      -10.588053
    5       -9.322091
    6       -8.634354
    7       -7.231763
    8       -6.093001
    9        0.657175
   10        1.690153
   11        2.502473
   12        2.905069
 
  0.2916667E+00  0.1666667E+00  0.0000000E+00  0.4629630E-02
    1      -21.234507
    2      -18.844327
    3      -12.690881
    4      -10.428001
    5       -9.166845
    6       -8.919226
    7       -7.479462
    8       -6.451980
    9        1.142645
   10        1.871305
   11        2.684712
   12        3.090759
 
  0.3333333E+00  0.1666667E+00  0.0000000E+00  0.4629630E-02
    1      -21.082304
    2      -19.166249
    3      -12.219018
    4      -10.238756
    5       -9.213985
    6       -8.988494
    7       -7.772874
    8       -6.802291
    9        1.633964
   10        2.080284
   11        2.894769
   12        3.305021
 
  0.3750000E+00  0.1666667E+00  0.0000000E+00  0.4629630E-02
    1      -20.910196
    2      -19.470976
    3      -11.759983
    4      -10.017746
    5       -9.518545
    6       -8.787421
    7       -8.100808
    8       -7.139971
    9        2.125428
   10        2.317016
   11        3.132515
   12        3.547849
 
  0.4166667E+00  0.1666667E+00  0.0000000E+00  0.4629630E-02
    1      -20.718342
    2      -19.757857
    3      -11.320933
    4       -9.835195
    5       -9.762486
    6       -8.564095
    7       -8.449771
    8       -7.462258
    9        2.581410
   10        2.612485
   11        3.397748
   12        3.819231
 
  0.4583333E+00  0.1666667E+00  0.0000000E+00  0.4629630E-02
    1      -20.506933
    2      -20.026397
    3      -10.908066
    4      -10.168509
    5       -9.472151
    6       -8.804644
    7       -8.319097
    8       -7.767149
    9        2.873357
   10        3.091276
   11        3.539376
   12        3.689702
 
  0.5000000E+00  0.1666667E+00  0.0000000E+00  0.2314815E-02
    1      -20.276196
    2      -20.276196
    3      -10.524434
    4      -10.524434
    5       -9.149936
    6       -9.149936
    7       -8.053147
    8       -8.053147
    9        3.192730
   10        3.192730
   11        3.558071
   12        3.558071
 