<?xml version="1.0" encoding="ISO-8859-1"?>
<modeling>
 <generator>
  <i name="program" type="string">vasp </i>
  <i name="version" type="string">5.3.5  </i>
  <i name="subversion" type="string">31Mar14 (build Mar 02 2015 18:14:16) complex                          parallel </i>
  <i name="platform" type="string">LinuxIFC </i>
  <i name="date" type="string">2018 08 09 </i>
  <i name="time" type="string">18:43:48 </i>
 </generator>
 <incar>
  <i type="string" name="SYSTEM">  gr</i>
  <i type="string" name="PREC">accurate : accuracy</i>
  <i type="string" name="ALGO"> FAST.</i>
  <i type="int" name="NELM">   100</i>
  <i type="int" name="NELMDL">    -3</i>
  <i type="int" name="NELMIN">     5</i>
  <i type="int" name="IBRION">     1</i>
  <i name="EDIFF">      0.00000000</i>
  <i name="EDIFFG">     -0.00000100</i>
  <i type="int" name="NSW">   400</i>
  <i type="int" name="ISIF">     2</i>
  <i name="ENCUT">   2000.00000000</i>
  <i type="int" name="ISMEAR">     0</i>
  <i name="SIGMA">      0.05000000</i>
  <i type="int" name="NWRITE">     2</i>
  <i type="logical" name="LWAVE"> F  </i>
  <i type="logical" name="LCHARG"> F  </i>
  <i type="int" name="NELM">   100</i>
 </incar>
 <kpoints>
  <generation param="Gamma">
   <v type="int" name="divisions">      24       36        1 </v>
   <v name="usershift">      0.00000000       0.00000000       0.00000000 </v>
   <v name="genvec1">      0.04166667       0.00000000       0.00000000 </v>
   <v name="genvec2">      0.00000000       0.02777778       0.00000000 </v>
   <v name="genvec3">      0.00000000       0.00000000       1.00000000 </v>
   <v name="shift">      0.00000000       0.00000000       0.00000000 </v>
  </generation>
  <varray name="kpointlist" >
   <v>       0.00000000       0.00000000       0.00000000 </v>
   <v>       0.04166667       0.00000000       0.00000000 </v>
   <v>       0.08333333       0.00000000       0.00000000 </v>
   <v>       0.12500000       0.00000000       0.00000000 </v>
   <v>       0.16666667       0.00000000       0.00000000 </v>
   <v>       0.20833333       0.00000000       0.00000000 </v>
   <v>       0.25000000       0.00000000       0.00000000 </v>
   <v>       0.29166667       0.00000000       0.00000000 </v>
   <v>       0.33333333       0.00000000       0.00000000 </v>
   <v>       0.37500000       0.00000000       0.00000000 </v>
   <v>       0.41666667       0.00000000       0.00000000 </v>
   <v>       0.45833333       0.00000000       0.00000000 </v>
   <v>       0.50000000       0.00000000       0.00000000 </v>
   <v>       0.00000000       0.02777778       0.00000000 </v>
   <v>       0.04166667       0.02777778       0.00000000 </v>
   <v>       0.08333333       0.02777778       0.00000000 </v>
   <v>       0.12500000       0.02777778       0.00000000 </v>
   <v>       0.16666667       0.02777778       0.00000000 </v>
   <v>       0.20833333       0.02777778       0.00000000 </v>
   <v>       0.25000000       0.02777778       0.00000000 </v>
   <v>       0.29166667       0.02777778       0.00000000 </v>
   <v>       0.33333333       0.02777778       0.00000000 </v>
   <v>       0.37500000       0.02777778       0.00000000 </v>
   <v>       0.41666667       0.02777778       0.00000000 </v>
   <v>       0.45833333       0.02777778       0.00000000 </v>
   <v>       0.50000000       0.02777778       0.00000000 </v>
   <v>       0.00000000       0.05555556       0.00000000 </v>
   <v>       0.04166667       0.05555556       0.00000000 </v>
   <v>       0.08333333       0.05555556       0.00000000 </v>
   <v>       0.12500000       0.05555556       0.00000000 </v>
   <v>       0.16666667       0.05555556       0.00000000 </v>
   <v>       0.20833333       0.05555556       0.00000000 </v>
   <v>       0.25000000       0.05555556       0.00000000 </v>
   <v>       0.29166667       0.05555556       0.00000000 </v>
   <v>       0.33333333       0.05555556       0.00000000 </v>
   <v>       0.37500000       0.05555556       0.00000000 </v>
   <v>       0.41666667       0.05555556       0.00000000 </v>
   <v>       0.45833333       0.05555556       0.00000000 </v>
   <v>       0.50000000       0.05555556       0.00000000 </v>
   <v>       0.00000000       0.08333333       0.00000000 </v>
   <v>       0.04166667       0.08333333       0.00000000 </v>
   <v>       0.08333333       0.08333333       0.00000000 </v>
   <v>       0.12500000       0.08333333       0.00000000 </v>
   <v>       0.16666667       0.08333333       0.00000000 </v>
   <v>       0.20833333       0.08333333       0.00000000 </v>
   <v>       0.25000000       0.08333333       0.00000000 </v>
   <v>       0.29166667       0.08333333       0.00000000 </v>
   <v>       0.33333333       0.08333333       0.00000000 </v>
   <v>       0.37500000       0.08333333       0.00000000 </v>
   <v>       0.41666667       0.08333333       0.00000000 </v>
   <v>       0.45833333       0.08333333       0.00000000 </v>
   <v>       0.50000000       0.08333333       0.00000000 </v>
   <v>       0.00000000       0.11111111       0.00000000 </v>
   <v>       0.04166667       0.11111111       0.00000000 </v>
   <v>       0.08333333       0.11111111       0.00000000 </v>
   <v>       0.12500000       0.11111111       0.00000000 </v>
   <v>       0.16666667       0.11111111       0.00000000 </v>
   <v>       0.20833333       0.11111111       0.00000000 </v>
   <v>       0.25000000       0.11111111       0.00000000 </v>
   <v>       0.29166667       0.11111111       0.00000000 </v>
   <v>       0.33333333       0.11111111       0.00000000 </v>
   <v>       0.37500000       0.11111111       0.00000000 </v>
   <v>       0.41666667       0.11111111       0.00000000 </v>
   <v>       0.45833333       0.11111111       0.00000000 </v>
   <v>       0.50000000       0.11111111       0.00000000 </v>
   <v>       0.00000000       0.13888889       0.00000000 </v>
   <v>       0.04166667       0.13888889       0.00000000 </v>
   <v>       0.08333333       0.13888889       0.00000000 </v>
   <v>       0.12500000       0.13888889       0.00000000 </v>
   <v>       0.16666667       0.13888889       0.00000000 </v>
   <v>       0.20833333       0.13888889       0.00000000 </v>
   <v>       0.25000000       0.13888889       0.00000000 </v>
   <v>       0.29166667       0.13888889       0.00000000 </v>
   <v>       0.33333333       0.13888889       0.00000000 </v>
   <v>       0.37500000       0.13888889       0.00000000 </v>
   <v>       0.41666667       0.13888889       0.00000000 </v>
   <v>       0.45833333       0.13888889       0.00000000 </v>
   <v>       0.50000000       0.13888889       0.00000000 </v>
   <v>       0.00000000       0.16666667       0.00000000 </v>
   <v>       0.04166667       0.16666667       0.00000000 </v>
   <v>       0.08333333       0.16666667       0.00000000 </v>
   <v>       0.12500000       0.16666667       0.00000000 </v>
   <v>       0.16666667       0.16666667       0.00000000 </v>
   <v>       0.20833333       0.16666667       0.00000000 </v>
   <v>       0.25000000       0.16666667       0.00000000 </v>
   <v>       0.29166667       0.16666667       0.00000000 </v>
   <v>       0.33333333       0.16666667       0.00000000 </v>
   <v>       0.37500000       0.16666667       0.00000000 </v>
   <v>       0.41666667       0.16666667       0.00000000 </v>
   <v>       0.45833333       0.16666667       0.00000000 </v>
   <v>       0.50000000       0.16666667       0.00000000 </v>
   <v>       0.00000000       0.19444444       0.00000000 </v>
   <v>       0.04166667       0.19444444       0.00000000 </v>
   <v>       0.08333333       0.19444444       0.00000000 </v>
   <v>       0.12500000       0.19444444       0.00000000 </v>
   <v>       0.16666667       0.19444444       0.00000000 </v>
   <v>       0.20833333       0.19444444       0.00000000 </v>
   <v>       0.25000000       0.19444444       0.00000000 </v>
   <v>       0.29166667       0.19444444       0.00000000 </v>
   <v>       0.33333333       0.19444444       0.00000000 </v>
   <v>       0.37500000       0.19444444       0.00000000 </v>
   <v>       0.41666667       0.19444444       0.00000000 </v>
   <v>       0.45833333       0.19444444       0.00000000 </v>
   <v>       0.50000000       0.19444444       0.00000000 </v>
   <v>       0.00000000       0.22222222       0.00000000 </v>
   <v>       0.04166667       0.22222222       0.00000000 </v>
   <v>       0.08333333       0.22222222       0.00000000 </v>
   <v>       0.12500000       0.22222222       0.00000000 </v>
   <v>       0.16666667       0.22222222       0.00000000 </v>
   <v>       0.20833333       0.22222222       0.00000000 </v>
   <v>       0.25000000       0.22222222       0.00000000 </v>
   <v>       0.29166667       0.22222222       0.00000000 </v>
   <v>       0.33333333       0.22222222       0.00000000 </v>
   <v>       0.37500000       0.22222222       0.00000000 </v>
   <v>       0.41666667       0.22222222       0.00000000 </v>
   <v>       0.45833333       0.22222222       0.00000000 </v>
   <v>       0.50000000       0.22222222       0.00000000 </v>
   <v>       0.00000000       0.25000000       0.00000000 </v>
   <v>       0.04166667       0.25000000       0.00000000 </v>
   <v>       0.08333333       0.25000000       0.00000000 </v>
   <v>       0.12500000       0.25000000       0.00000000 </v>
   <v>       0.16666667       0.25000000       0.00000000 </v>
   <v>       0.20833333       0.25000000       0.00000000 </v>
   <v>       0.25000000       0.25000000       0.00000000 </v>
   <v>       0.29166667       0.25000000       0.00000000 </v>
   <v>       0.33333333       0.25000000       0.00000000 </v>
   <v>       0.37500000       0.25000000       0.00000000 </v>
   <v>       0.41666667       0.25000000       0.00000000 </v>
   <v>       0.45833333       0.25000000       0.00000000 </v>
   <v>       0.50000000       0.25000000       0.00000000 </v>
   <v>       0.00000000       0.27777778       0.00000000 </v>
   <v>       0.04166667       0.27777778       0.00000000 </v>
   <v>       0.08333333       0.27777778       0.00000000 </v>
   <v>       0.12500000       0.27777778       0.00000000 </v>
   <v>       0.16666667       0.27777778       0.00000000 </v>
   <v>       0.20833333       0.27777778       0.00000000 </v>
   <v>       0.25000000       0.27777778       0.00000000 </v>
   <v>       0.29166667       0.27777778       0.00000000 </v>
   <v>       0.33333333       0.27777778       0.00000000 </v>
   <v>       0.37500000       0.27777778       0.00000000 </v>
   <v>       0.41666667       0.27777778       0.00000000 </v>
   <v>       0.45833333       0.27777778       0.00000000 </v>
   <v>       0.50000000       0.27777778       0.00000000 </v>
   <v>       0.00000000       0.30555556       0.00000000 </v>
   <v>       0.04166667       0.30555556       0.00000000 </v>
   <v>       0.08333333       0.30555556       0.00000000 </v>
   <v>       0.12500000       0.30555556       0.00000000 </v>
   <v>       0.16666667       0.30555556       0.00000000 </v>
   <v>       0.20833333       0.30555556       0.00000000 </v>
   <v>       0.25000000       0.30555556       0.00000000 </v>
   <v>       0.29166667       0.30555556       0.00000000 </v>
   <v>       0.33333333       0.30555556       0.00000000 </v>
   <v>       0.37500000       0.30555556       0.00000000 </v>
   <v>       0.41666667       0.30555556       0.00000000 </v>
   <v>       0.45833333       0.30555556       0.00000000 </v>
   <v>       0.50000000       0.30555556       0.00000000 </v>
   <v>       0.00000000       0.33333333       0.00000000 </v>
   <v>       0.04166667       0.33333333       0.00000000 </v>
   <v>       0.08333333       0.33333333       0.00000000 </v>
   <v>       0.12500000       0.33333333       0.00000000 </v>
   <v>       0.16666667       0.33333333       0.00000000 </v>
   <v>       0.20833333       0.33333333       0.00000000 </v>
   <v>       0.25000000       0.33333333       0.00000000 </v>
   <v>       0.29166667       0.33333333       0.00000000 </v>
   <v>       0.33333333       0.33333333       0.00000000 </v>
   <v>       0.37500000       0.33333333       0.00000000 </v>
   <v>       0.41666667       0.33333333       0.00000000 </v>
   <v>       0.45833333       0.33333333       0.00000000 </v>
   <v>       0.50000000       0.33333333       0.00000000 </v>
   <v>       0.00000000       0.36111111       0.00000000 </v>
   <v>       0.04166667       0.36111111       0.00000000 </v>
   <v>       0.08333333       0.36111111       0.00000000 </v>
   <v>       0.12500000       0.36111111       0.00000000 </v>
   <v>       0.16666667       0.36111111       0.00000000 </v>
   <v>       0.20833333       0.36111111       0.00000000 </v>
   <v>       0.25000000       0.36111111       0.00000000 </v>
   <v>       0.29166667       0.36111111       0.00000000 </v>
   <v>       0.33333333       0.36111111       0.00000000 </v>
   <v>       0.37500000       0.36111111       0.00000000 </v>
   <v>       0.41666667       0.36111111       0.00000000 </v>
   <v>       0.45833333       0.36111111       0.00000000 </v>
   <v>       0.50000000       0.36111111       0.00000000 </v>
   <v>       0.00000000       0.38888889       0.00000000 </v>
   <v>       0.04166667       0.38888889       0.00000000 </v>
   <v>       0.08333333       0.38888889       0.00000000 </v>
   <v>       0.12500000       0.38888889       0.00000000 </v>
   <v>       0.16666667       0.38888889       0.00000000 </v>
   <v>       0.20833333       0.38888889       0.00000000 </v>
   <v>       0.25000000       0.38888889       0.00000000 </v>
   <v>       0.29166667       0.38888889       0.00000000 </v>
   <v>       0.33333333       0.38888889       0.00000000 </v>
   <v>       0.37500000       0.38888889       0.00000000 </v>
   <v>       0.41666667       0.38888889       0.00000000 </v>
   <v>       0.45833333       0.38888889       0.00000000 </v>
   <v>       0.50000000       0.38888889       0.00000000 </v>
   <v>       0.00000000       0.41666667       0.00000000 </v>
   <v>       0.04166667       0.41666667       0.00000000 </v>
   <v>       0.08333333       0.41666667       0.00000000 </v>
   <v>       0.12500000       0.41666667       0.00000000 </v>
   <v>       0.16666667       0.41666667       0.00000000 </v>
   <v>       0.20833333       0.41666667       0.00000000 </v>
   <v>       0.25000000       0.41666667       0.00000000 </v>
   <v>       0.29166667       0.41666667       0.00000000 </v>
   <v>       0.33333333       0.41666667       0.00000000 </v>
   <v>       0.37500000       0.41666667       0.00000000 </v>
   <v>       0.41666667       0.41666667       0.00000000 </v>
   <v>       0.45833333       0.41666667       0.00000000 </v>
   <v>       0.50000000       0.41666667       0.00000000 </v>
   <v>       0.00000000       0.44444444       0.00000000 </v>
   <v>       0.04166667       0.44444444       0.00000000 </v>
   <v>       0.08333333       0.44444444       0.00000000 </v>
   <v>       0.12500000       0.44444444       0.00000000 </v>
   <v>       0.16666667       0.44444444       0.00000000 </v>
   <v>       0.20833333       0.44444444       0.00000000 </v>
   <v>       0.25000000       0.44444444       0.00000000 </v>
   <v>       0.29166667       0.44444444       0.00000000 </v>
   <v>       0.33333333       0.44444444       0.00000000 </v>
   <v>       0.37500000       0.44444444       0.00000000 </v>
   <v>       0.41666667       0.44444444       0.00000000 </v>
   <v>       0.45833333       0.44444444       0.00000000 </v>
   <v>       0.50000000       0.44444444       0.00000000 </v>
   <v>       0.00000000       0.47222222       0.00000000 </v>
   <v>       0.04166667       0.47222222       0.00000000 </v>
   <v>       0.08333333       0.47222222       0.00000000 </v>
   <v>       0.12500000       0.47222222       0.00000000 </v>
   <v>       0.16666667       0.47222222       0.00000000 </v>
   <v>       0.20833333       0.47222222       0.00000000 </v>
   <v>       0.25000000       0.47222222       0.00000000 </v>
   <v>       0.29166667       0.47222222       0.00000000 </v>
   <v>       0.33333333       0.47222222       0.00000000 </v>
   <v>       0.37500000       0.47222222       0.00000000 </v>
   <v>       0.41666667       0.47222222       0.00000000 </v>
   <v>       0.45833333       0.47222222       0.00000000 </v>
   <v>       0.50000000       0.47222222       0.00000000 </v>
   <v>       0.00000000       0.50000000       0.00000000 </v>
   <v>       0.04166667       0.50000000       0.00000000 </v>
   <v>       0.08333333       0.50000000       0.00000000 </v>
   <v>       0.12500000       0.50000000       0.00000000 </v>
   <v>       0.16666667       0.50000000       0.00000000 </v>
   <v>       0.20833333       0.50000000       0.00000000 </v>
   <v>       0.25000000       0.50000000       0.00000000 </v>
   <v>       0.29166667       0.50000000       0.00000000 </v>
   <v>       0.33333333       0.50000000       0.00000000 </v>
   <v>       0.37500000       0.50000000       0.00000000 </v>
   <v>       0.41666667       0.50000000       0.00000000 </v>
   <v>       0.45833333       0.50000000       0.00000000 </v>
   <v>       0.50000000       0.50000000       0.00000000 </v>
  </varray>
  <varray name="weights" >
   <v>       0.00115741 </v>
   <v>       0.00231481 </v>
   <v>       0.00231481 </v>
   <v>       0.00231481 </v>
   <v>       0.00231481 </v>
   <v>       0.00231481 </v>
   <v>       0.00231481 </v>
   <v>       0.00231481 </v>
   <v>       0.00231481 </v>
   <v>       0.00231481 </v>
   <v>       0.00231481 </v>
   <v>       0.00231481 </v>
   <v>       0.00115741 </v>
   <v>       0.00231481 </v>
   <v>       0.00462963 </v>
   <v>       0.00462963 </v>
   <v>       0.00462963 </v>
   <v>       0.00462963 </v>
   <v>       0.00462963 </v>
   <v>       0.00462963 </v>
   <v>       0.00462963 </v>
   <v>       0.00462963 </v>
   <v>       0.00462963 </v>
   <v>       0.00462963 </v>
   <v>       0.00462963 </v>
   <v>       0.00231481 </v>
   <v>       0.00231481 </v>
   <v>       0.00462963 </v>
   <v>       0.00462963 </v>
   <v>       0.00462963 </v>
   <v>       0.00462963 </v>
   <v>       0.00462963 </v>
   <v>       0.00462963 </v>
   <v>       0.00462963 </v>
   <v>       0.00462963 </v>
   <v>       0.00462963 </v>
   <v>       0.00462963 </v>
   <v>       0.00462963 </v>
   <v>       0.00231481 </v>
   <v>       0.00231481 </v>
   <v>       0.00462963 </v>
   <v>       0.00462963 </v>
   <v>       0.00462963 </v>
   <v>       0.00462963 </v>
   <v>       0.00462963 </v>
   <v>       0.00462963 </v>
   <v>       0.00462963 </v>
   <v>       0.00462963 </v>
   <v>       0.00462963 </v>
   <v>       0.00462963 </v>
   <v>       0.00462963 </v>
   <v>       0.00231481 </v>
   <v>       0.00231481 </v>
   <v>       0.00462963 </v>
   <v>       0.00462963 </v>
   <v>       0.00462963 </v>
   <v>       0.00462963 </v>
   <v>       0.00462963 </v>
   <v>       0.00462963 </v>
   <v>       0.00462963 </v>
   <v>       0.00462963 </v>
   <v>       0.00462963 </v>
   <v>       0.00462963 </v>
   <v>       0.00462963 </v>
   <v>       0.00231481 </v>
   <v>       0.00231481 </v>
   <v>       0.00462963 </v>
   <v>       0.00462963 </v>
   <v>       0.00462963 </v>
   <v>       0.00462963 </v>
   <v>       0.00462963 </v>
   <v>       0.00462963 </v>
   <v>       0.00462963 </v>
   <v>       0.00462963 </v>
   <v>       0.00462963 </v>
   <v>       0.00462963 </v>
   <v>       0.00462963 </v>
   <v>       0.00231481 </v>
   <v>       0.00231481 </v>
   <v>       0.00462963 </v>
   <v>       0.00462963 </v>
   <v>       0.00462963 </v>
   <v>       0.00462963 </v>
   <v>       0.00462963 </v>
   <v>       0.00462963 </v>
   <v>       0.00462963 </v>
   <v>       0.00462963 </v>
   <v>       0.00462963 </v>
   <v>       0.00462963 </v>
   <v>       0.00462963 </v>
   <v>       0.00231481 </v>
   <v>       0.00231481 </v>
   <v>       0.00462963 </v>
   <v>       0.00462963 </v>
   <v>       0.00462963 </v>
   <v>       0.00462963 </v>
   <v>       0.00462963 </v>
   <v>       0.00462963 </v>
   <v>       0.00462963 </v>
   <v>       0.00462963 </v>
   <v>       0.00462963 </v>
   <v>       0.00462963 </v>
   <v>       0.00462963 </v>
   <v>       0.00231481 </v>
   <v>       0.00231481 </v>
   <v>       0.00462963 </v>
   <v>       0.00462963 </v>
   <v>       0.00462963 </v>
   <v>       0.00462963 </v>
   <v>       0.00462963 </v>
   <v>       0.00462963 </v>
   <v>       0.00462963 </v>
   <v>       0.00462963 </v>
   <v>       0.00462963 </v>
   <v>       0.00462963 </v>
   <v>       0.00462963 </v>
   <v>       0.00231481 </v>
   <v>       0.00231481 </v>
   <v>       0.00462963 </v>
   <v>       0.00462963 </v>
   <v>       0.00462963 </v>
   <v>       0.00462963 </v>
   <v>       0.00462963 </v>
   <v>       0.00462963 </v>
   <v>       0.00462963 </v>
   <v>       0.00462963 </v>
   <v>       0.00462963 </v>
   <v>       0.00462963 </v>
   <v>       0.00462963 </v>
   <v>       0.00231481 </v>
   <v>       0.00231481 </v>
   <v>       0.00462963 </v>
   <v>       0.00462963 </v>
   <v>       0.00462963 </v>
   <v>       0.00462963 </v>
   <v>       0.00462963 </v>
   <v>       0.00462963 </v>
   <v>       0.00462963 </v>
   <v>       0.00462963 </v>
   <v>       0.00462963 </v>
   <v>       0.00462963 </v>
   <v>       0.00462963 </v>
   <v>       0.00231481 </v>
   <v>       0.00231481 </v>
   <v>       0.00462963 </v>
   <v>       0.00462963 </v>
   <v>       0.00462963 </v>
   <v>       0.00462963 </v>
   <v>       0.00462963 </v>
   <v>       0.00462963 </v>
   <v>       0.00462963 </v>
   <v>       0.00462963 </v>
   <v>       0.00462963 </v>
   <v>       0.00462963 </v>
   <v>       0.00462963 </v>
   <v>       0.00231481 </v>
   <v>       0.00231481 </v>
   <v>       0.00462963 </v>
   <v>       0.00462963 </v>
   <v>       0.00462963 </v>
   <v>       0.00462963 </v>
   <v>       0.00462963 </v>
   <v>       0.00462963 </v>
   <v>       0.00462963 </v>
   <v>       0.00462963 </v>
   <v>       0.00462963 </v>
   <v>       0.00462963 </v>
   <v>       0.00462963 </v>
   <v>       0.00231481 </v>
   <v>       0.00231481 </v>
   <v>       0.00462963 </v>
   <v>       0.00462963 </v>
   <v>       0.00462963 </v>
   <v>       0.00462963 </v>
   <v>       0.00462963 </v>
   <v>       0.00462963 </v>
   <v>       0.00462963 </v>
   <v>       0.00462963 </v>
   <v>       0.00462963 </v>
   <v>       0.00462963 </v>
   <v>       0.00462963 </v>
   <v>       0.00231481 </v>
   <v>       0.00231481 </v>
   <v>       0.00462963 </v>
   <v>       0.00462963 </v>
   <v>       0.00462963 </v>
   <v>       0.00462963 </v>
   <v>       0.00462963 </v>
   <v>       0.00462963 </v>
   <v>       0.00462963 </v>
   <v>       0.00462963 </v>
   <v>       0.00462963 </v>
   <v>       0.00462963 </v>
   <v>       0.00462963 </v>
   <v>       0.00231481 </v>
   <v>       0.00231481 </v>
   <v>       0.00462963 </v>
   <v>       0.00462963 </v>
   <v>       0.00462963 </v>
   <v>       0.00462963 </v>
   <v>       0.00462963 </v>
   <v>       0.00462963 </v>
   <v>       0.00462963 </v>
   <v>       0.00462963 </v>
   <v>       0.00462963 </v>
   <v>       0.00462963 </v>
   <v>       0.00462963 </v>
   <v>       0.00231481 </v>
   <v>       0.00231481 </v>
   <v>       0.00462963 </v>
   <v>       0.00462963 </v>
   <v>       0.00462963 </v>
   <v>       0.00462963 </v>
   <v>       0.00462963 </v>
   <v>       0.00462963 </v>
   <v>       0.00462963 </v>
   <v>       0.00462963 </v>
   <v>       0.00462963 </v>
   <v>       0.00462963 </v>
   <v>       0.00462963 </v>
   <v>       0.00231481 </v>
   <v>       0.00231481 </v>
   <v>       0.00462963 </v>
   <v>       0.00462963 </v>
   <v>       0.00462963 </v>
   <v>       0.00462963 </v>
   <v>       0.00462963 </v>
   <v>       0.00462963 </v>
   <v>       0.00462963 </v>
   <v>       0.00462963 </v>
   <v>       0.00462963 </v>
   <v>       0.00462963 </v>
   <v>       0.00462963 </v>
   <v>       0.00231481 </v>
   <v>       0.00115741 </v>
   <v>       0.00231481 </v>
   <v>       0.00231481 </v>
   <v>       0.00231481 </v>
   <v>       0.00231481 </v>
   <v>       0.00231481 </v>
   <v>       0.00231481 </v>
   <v>       0.00231481 </v>
   <v>       0.00231481 </v>
   <v>       0.00231481 </v>
   <v>       0.00231481 </v>
   <v>       0.00231481 </v>
   <v>       0.00115741 </v>
  </varray>
 </kpoints>
 <parameters>
  <separator name="general" >
   <i type="string" name="SYSTEM">gr</i>
   <i type="logical" name="LCOMPAT"> F  </i>
  </separator>
  <separator name="electronic" >
   <i type="string" name="PREC">accura</i>
   <i name="ENMAX">   2000.00000000</i>
   <i name="ENAUG">    644.87300000</i>
   <i name="EDIFF">      0.00000000</i>
   <i type="int" name="IALGO">    68</i>
   <i type="int" name="IWAVPR">    11</i>
   <i type="int" name="NBANDS">    12</i>
   <i name="NELECT">     16.00000000</i>
   <i type="int" name="TURBO">     0</i>
   <i type="int" name="IRESTART">     0</i>
   <i type="int" name="NREBOOT">     0</i>
   <i type="int" name="NMIN">     0</i>
   <i name="EREF">      0.00000000</i>
   <separator name="electronic smearing" >
    <i type="int" name="ISMEAR">     0</i>
    <i name="SIGMA">      0.05000000</i>
    <i name="KSPACING">      0.50000000</i>
    <i type="logical" name="KGAMMA"> T  </i>
   </separator>
   <separator name="electronic projectors" >
    <i type="logical" name="LREAL"> F  </i>
    <v name="ROPT">      0.00000000</v>
    <i type="int" name="LMAXPAW">  -100</i>
    <i type="int" name="LMAXMIX">     2</i>
    <i type="logical" name="NLSPLINE"> F  </i>
   </separator>
   <separator name="electronic startup" >
    <i type="int" name="ISTART">     0</i>
    <i type="int" name="ICHARG">     2</i>
    <i type="int" name="INIWAV">     1</i>
   </separator>
   <separator name="electronic spin" >
    <i type="int" name="ISPIN">     1</i>
    <i type="logical" name="LNONCOLLINEAR"> F  </i>
    <v name="MAGMOM">      1.00000000      1.00000000      1.00000000      1.00000000</v>
    <i name="NUPDOWN">     -1.00000000</i>
    <i type="logical" name="LSORBIT"> F  </i>
    <v name="SAXIS">      0.00000000      0.00000000      1.00000000</v>
    <i type="logical" name="LSPIRAL"> F  </i>
    <v name="QSPIRAL">      0.00000000      0.00000000      0.00000000</v>
    <i type="logical" name="LZEROZ"> F  </i>
   </separator>
   <separator name="electronic exchange-correlation" >
    <i type="logical" name="LASPH"> F  </i>
    <i type="logical" name="LMETAGGA"> F  </i>
   </separator>
   <separator name="electronic convergence" >
    <i type="int" name="NELM">   100</i>
    <i type="int" name="NELMDL">    -3</i>
    <i type="int" name="NELMIN">     5</i>
    <i name="ENINI">   2000.00000000</i>
    <separator name="electronic convergence detail" >
     <i type="logical" name="LDIAG"> T  </i>
     <i type="logical" name="LSUBROT"> F  </i>
     <i name="WEIMIN">      0.00100000</i>
     <i name="EBREAK">      0.00000000</i>
     <i name="DEPER">      0.30000000</i>
     <i type="int" name="NRMM">     4</i>
     <i name="TIME">      0.40000000</i>
    </separator>
   </separator>
   <separator name="electronic mixer" >
    <i name="AMIX">      0.40000000</i>
    <i name="BMIX">      1.00000000</i>
    <i name="AMIN">      0.10000000</i>
    <i name="AMIX_MAG">      1.60000000</i>
    <i name="BMIX_MAG">      1.00000000</i>
    <separator name="electronic mixer details" >
     <i type="int" name="IMIX">     4</i>
     <i type="int" name="MAXMIX">   -45</i>
     <i name="WC">    100.00000000</i>
     <i type="int" name="INIMIX">     1</i>
     <i type="int" name="MIXPRE">     1</i>
     <i type="int" name="MREMOVE">     5</i>
    </separator>
   </separator>
   <separator name="electronic dipolcorrection" >
    <i type="logical" name="LDIPOL"> F  </i>
    <i type="logical" name="LMONO"> F  </i>
    <i type="int" name="IDIPOL">     0</i>
    <i name="EPSILON">      1.00000000</i>
    <v name="DIPOL">   -100.00000000   -100.00000000   -100.00000000</v>
    <i name="EFIELD">      0.00000000</i>
   </separator>
  </separator>
  <separator name="grids" >
   <i type="int" name="NGX">    64</i>
   <i type="int" name="NGY">    36</i>
   <i type="int" name="NGZ">   294</i>
   <i type="int" name="NGXF">   128</i>
   <i type="int" name="NGYF">    72</i>
   <i type="int" name="NGZF">   588</i>
   <i type="logical" name="ADDGRID"> F  </i>
  </separator>
  <separator name="ionic" >
   <i type="int" name="NSW">   400</i>
   <i type="int" name="IBRION">     1</i>
   <i type="int" name="ISIF">     2</i>
   <i name="PSTRESS">      0.00000000</i>
   <i name="EDIFFG">     -0.00000100</i>
   <i type="int" name="NFREE">     0</i>
   <i name="POTIM">      0.50000000</i>
   <i name="SMASS">     -3.00000000</i>
   <i name="SCALEE">      1.00000000</i>
  </separator>
  <separator name="ionic md" >
   <i name="TEBEG">      0.00010000</i>
   <i name="TEEND">      0.00010000</i>
   <i type="int" name="NBLOCK">     1</i>
   <i type="int" name="KBLOCK">   400</i>
   <i type="int" name="NPACO">   256</i>
   <i name="APACO">     16.00000000</i>
  </separator>
  <separator name="symmetry" >
   <i type="int" name="ISYM">     2</i>
   <i name="SYMPREC">      0.00001000</i>
  </separator>
  <separator name="dos" >
   <i type="logical" name="LORBIT"> F  </i>
   <v name="RWIGS">     -1.00000000</v>
   <i type="int" name="NEDOS">   301</i>
   <i name="EMIN">     10.00000000</i>
   <i name="EMAX">    -10.00000000</i>
   <i name="EFERMI">      0.00000000</i>
  </separator>
  <separator name="writing" >
   <i type="int" name="NWRITE">     2</i>
   <i type="logical" name="LWAVE"> F  </i>
   <i type="logical" name="LCHARG"> F  </i>
   <i type="logical" name="LPARD"> F  </i>
   <i type="logical" name="LVTOT"> F  </i>
   <i type="logical" name="LVHAR"> F  </i>
   <i type="logical" name="LELF"> F  </i>
   <i type="logical" name="LOPTICS"> F  </i>
   <v name="STM">      0.00000000      0.00000000      0.00000000      0.00000000      0.00000000      0.00000000      0.00000000</v>
  </separator>
  <separator name="performance" >
   <i type="int" name="NPAR">     4</i>
   <i type="int" name="NSIM">     4</i>
   <i type="int" name="NBLK">    -1</i>
   <i type="logical" name="LPLANE"> T  </i>
   <i type="logical" name="LSCALAPACK"> F  </i>
   <i type="logical" name="LSCAAWARE"> F  </i>
   <i type="logical" name="LSCALU"> F  </i>
   <i type="logical" name="LASYNC"> F  </i>
   <i type="logical" name="LORBITALREAL"> F  </i>
  </separator>
  <separator name="miscellaneous" >
   <i type="int" name="IDIOT">     3</i>
   <i type="logical" name="LMUSIC"> F  </i>
   <v name="POMASS">     12.01100000</v>
   <v name="DARWINR">      0.00000000</v>
   <v name="DARWINV">      1.00000000</v>
   <i type="logical" name="LCORR"> T  </i>
  </separator>
  <i type="logical" name="GGA_COMPAT"> T  </i>
  <i type="logical" name="LBERRY"> F  </i>
  <i type="int" name="ICORELEVEL">     0</i>
  <i type="logical" name="LDAU"> F  </i>
  <i type="int" name="I_CONSTRAINED_M">     0</i>
  <separator name="electronic exchange-correlation" >
   <i type="string" name="GGA">--</i>
   <i type="int" name="VOSKOWN">     0</i>
   <i type="logical" name="LHFCALC"> F  </i>
   <i type="string" name="PRECFOCK"></i>
   <i type="logical" name="LSYMGRAD"> F  </i>
   <i type="logical" name="LHFONE"> F  </i>
   <i type="logical" name="LRHFCALC"> F  </i>
   <i type="logical" name="LTHOMAS"> F  </i>
   <i type="logical" name="LMODELHF"> F  </i>
   <i name="ENCUT4O">     -1.00000000</i>
   <i type="int" name="EXXOEP">     0</i>
   <i type="int" name="FOURORBIT">     0</i>
   <i name="AEXX">      0.00000000</i>
   <i name="HFALPHA">      0.00000000</i>
   <i name="MCALPHA">      0.00000000</i>
   <i name="ALDAX">      1.00000000</i>
   <i name="AGGAX">      1.00000000</i>
   <i name="ALDAC">      1.00000000</i>
   <i name="AGGAC">      1.00000000</i>
   <i type="int" name="NKREDX">     1</i>
   <i type="int" name="NKREDY">     1</i>
   <i type="int" name="NKREDZ">     1</i>
   <i type="logical" name="SHIFTRED"> F  </i>
   <i type="logical" name="ODDONLY"> F  </i>
   <i type="logical" name="EVENONLY"> F  </i>
   <i type="int" name="LMAXFOCK">     0</i>
   <i type="int" name="NMAXFOCKAE">     0</i>
   <i type="logical" name="LFOCKAEDFT"> F  </i>
   <i name="HFSCREEN">      0.00000000</i>
   <i name="HFSCREENC">      0.00000000</i>
   <i type="int" name="NBANDSGWLOW">     0</i>
  </separator>
  <separator name="vdW DFT" >
   <i type="logical" name="LUSE_VDW"> F  </i>
   <i name="Zab_VDW">     -0.84910000</i>
   <i name="PARAM1">      0.12340000</i>
   <i name="PARAM2">      1.00000000</i>
   <i name="PARAM3">      0.00000000</i>
  </separator>
  <separator name="model GW" >
   <i type="int" name="MODEL_GW">     0</i>
   <i name="MODEL_EPS0">     31.62568521</i>
   <i name="MODEL_ALPHA">      1.00000000</i>
  </separator>
  <separator name="linear response parameters" >
   <i type="logical" name="LEPSILON"> F  </i>
   <i type="logical" name="LRPA"> F  </i>
   <i type="logical" name="LNABLA"> F  </i>
   <i type="logical" name="LVEL"> F  </i>
   <i type="int" name="KINTER">     0</i>
   <i name="CSHIFT">      0.10000000</i>
   <i name="OMEGAMAX">     -1.00000000</i>
   <i name="DEG_THRESHOLD">      0.00200000</i>
  </separator>
  <separator name="orbital magnetization" >
   <i type="logical" name="NUCIND"> F  </i>
   <v name="MAGPOS">      0.00000000      0.00000000      0.00000000</v>
   <i type="logical" name="LNICSALL"> T  </i>
   <i type="logical" name="ORBITALMAG"> F  </i>
   <i type="logical" name="LMAGBLOCH"> F  </i>
   <i type="logical" name="LCHIMAG"> F  </i>
   <i type="logical" name="LGAUGE"> T  </i>
   <i type="int" name="MAGATOM">     0</i>
   <v name="MAGDIPOL">      0.00000000      0.00000000      0.00000000</v>
   <v name="AVECCONST">      0.00000000      0.00000000      0.00000000</v>
  </separator>
  <separator name="response functions" >
   <i type="logical" name="LADDER"> F  </i>
   <i type="logical" name="LFXC"> F  </i>
   <i type="logical" name="LHARTREE"> T  </i>
   <i type="int" name="IBSE">     0</i>
   <i type="logical" name="LTCTE"> F  </i>
   <i type="logical" name="LTETE"> F  </i>
   <i type="logical" name="LTRIPLET"> F  </i>
   <i type="logical" name="LFXCEPS"> F  </i>
   <i type="logical" name="LFXHEG"> F  </i>
   <i type="logical" name="L2ORDER"> F  </i>
   <i type="logical" name="LUSEW"> F  </i>
   <i name="ENCUTGW">     -2.00000000</i>
   <i name="ENCUTGWSOFT">     -2.00000000</i>
   <i name="ENCUTLF">     -1.00000000</i>
   <i type="int" name="LMAXMP2">    -1</i>
   <i name="SCISSOR">      0.00000000</i>
   <i type="int" name="NOMEGA">     0</i>
   <i type="int" name="NOMEGAR">     0</i>
   <i type="int" name="NBANDSGW">    -1</i>
   <i type="int" name="NBANDSO">    -1</i>
   <i type="int" name="NBANDSV">    -1</i>
   <i type="int" name="NELM">   100</i>
   <i type="int" name="DIM">     3</i>
   <i type="int" name="ANTIRES">     0</i>
   <i name="OMEGAMAX">    -30.00000000</i>
   <i name="OMEGAMIN">    -30.00000000</i>
   <i name="OMEGATL">   -200.00000000</i>
   <i type="int" name="OMEGAGRID">     0</i>
   <i name="CSHIFT">     -0.10000000</i>
   <i type="logical" name="SELFENERGY"> F  </i>
   <i type="logical" name="LSPECTRAL"> F  </i>
   <i type="logical" name="ODDONLYGW"> F  </i>
   <i type="logical" name="EVENONLYGW"> F  </i>
   <i type="int" name="NKREDLFX">     1</i>
   <i type="int" name="NKREDLFY">     1</i>
   <i type="int" name="NKREDLFZ">     1</i>
   <i type="int" name="MAXMEM">  1800</i>
   <i type="int" name="TELESCOPE">     0</i>
   <i type="int" name="TAUPAR">     1</i>
  </separator>
  <separator name="External order field" >
   <i name="OFIELD_KAPPA">      0.00000000</i>
   <v name="OFIELD_K">      0.00000000      0.00000000      0.00000000</v>
   <i name="OFIELD_Q6_NEAR">      0.00000000</i>
   <i name="OFIELD_Q6_FAR">      0.00000000</i>
   <i name="OFIELD_A">      0.00000000</i>
  </separator>
 </parameters>
 <atominfo>
  <atoms>       4 </atoms>
  <types>       1 </types>
  <array name="atoms" >
   <dimension dim="1">ion</dimension>
   <field type="string">element</field>
   <field type="int">atomtype</field>
   <set>
    <rc><c>C </c><c>   1</c></rc>
    <rc><c>C </c><c>   1</c></rc>
    <rc><c>C </c><c>   1</c></rc>
    <rc><c>C </c><c>   1</c></rc>
   </set>
  </array>
  <array name="atomtypes" >
   <dimension dim="1">type</dimension>
   <field type="int">atomspertype</field>
   <field type="string">element</field>
   <field>mass</field>
   <field>valence</field>
   <field type="string">pseudopotential</field>
   <set>
    <rc><c>   4</c><c>C </c><c>     12.01100000</c><c>      4.00000000</c><c> PAW_PBE C 08Apr2002                    </c></rc>
   </set>
  </array>
 </atominfo>
 <structure name="initialpos" >
  <crystal>
   <varray name="basis" >
    <v>       4.26951375       0.00000000       0.00000000 </v>
    <v>       0.00000000       2.47926626       0.00000000 </v>
    <v>       0.00000000       0.00000000      19.91806278 </v>
   </varray>
   <i name="volume">    210.83790140 </i>
   <varray name="rec_basis" >
    <v>       0.23421871       0.00000000       0.00000000 </v>
    <v>       0.00000000       0.40334514       0.00000000 </v>
    <v>       0.00000000       0.00000000       0.05020569 </v>
   </varray>
  </crystal>
  <varray name="positions" >
   <v>       0.00013158       0.00000000       0.00000000 </v>
   <v>       0.16653509       0.50000000       0.00000000 </v>
   <v>       0.50013158       0.50000000       0.00000000 </v>
   <v>       0.66653509       0.00000000       0.00000000 </v>
  </varray>
 </structure>
 <calculation>
  <scstep>
   <time name="dav">  301.29  302.79</time>
   <time name="total">  303.82  305.41</time>
   <energy>
    <i name="alphaZ">      6.18334092 </i>
    <i name="ewald">   2559.12599547 </i>
    <i name="hartreedc">  -2985.33568964 </i>
    <i name="XCdc">     55.04172772 </i>
    <i name="pawpsdc">    151.32577238 </i>
    <i name="pawaedc">   -155.92769107 </i>
    <i name="eentropy">     -0.00149654 </i>
    <i name="bandstr">    -29.76770888 </i>
    <i name="atom">    588.62352690 </i>
    <i name="e_fr_energy">    189.26777727 </i>
    <i name="e_wo_entrp">    189.26927381 </i>
    <i name="e_0_energy">    189.26852554 </i>
   </energy>
  </scstep>
  <scstep>
   <time name="dav">  452.82  453.76</time>
   <time name="total">  452.82  453.77</time>
   <energy>
    <i name="e_fr_energy">     -9.11863549 </i>
    <i name="e_wo_entrp">     -9.11843289 </i>
    <i name="e_0_energy">     -9.11853419 </i>
   </energy>
  </scstep>
  <scstep>
   <time name="dav">  348.13  349.23</time>
   <time name="total">  379.19  380.49</time>
   <energy>
    <i name="e_fr_energy">    -38.32260995 </i>
    <i name="e_wo_entrp">    -38.32257325 </i>
    <i name="e_0_energy">    -38.32259160 </i>
   </energy>
  </scstep>
  <scstep>
   <time name="diag">   81.38   81.75</time>
   <time name="diis">  350.52  351.14</time>
   <time name="orth">    3.10    3.10</time>
   <time name="total">  468.82  469.84</time>
   <energy>
    <i name="e_fr_energy">    -37.69289336 </i>
    <i name="e_wo_entrp">    -37.69279634 </i>
    <i name="e_0_energy">    -37.69284485 </i>
   </energy>
  </scstep>
  <scstep>
   <time name="diag">   81.75   81.79</time>
   <time name="diis">  348.71  348.79</time>
   <time name="orth">    3.10    3.10</time>
   <time name="total">  467.35  467.50</time>
   <energy>
    <i name="e_fr_energy">    -36.93342533 </i>
    <i name="e_wo_entrp">    -36.93333345 </i>
    <i name="e_0_energy">    -36.93337939 </i>
   </energy>
  </scstep>
  <scstep>
   <time name="diag">   81.79   81.81</time>
   <time name="diis">  378.18  378.54</time>
   <time name="orth">    3.09    3.09</time>
   <time name="total">  496.74  497.78</time>
   <energy>
    <i name="e_fr_energy">    -36.93516390 </i>
    <i name="e_wo_entrp">    -36.93507217 </i>
    <i name="e_0_energy">    -36.93511804 </i>
   </energy>
  </scstep>
  <scstep>
   <time name="diag">   81.73   81.75</time>
   <time name="diis">  349.48  349.57</time>
   <time name="orth">    3.11    3.11</time>
   <time name="total">  468.01  468.16</time>
   <energy>
    <i name="e_fr_energy">    -36.92557061 </i>
    <i name="e_wo_entrp">    -36.92547977 </i>
    <i name="e_0_energy">    -36.92552519 </i>
   </energy>
  </scstep>
  <scstep>
   <time name="diag">   81.66   81.77</time>
   <time name="diis">  349.92  350.43</time>
   <time name="orth">    3.11    3.11</time>
   <time name="total">  468.60  469.27</time>
   <energy>
    <i name="e_fr_energy">    -36.91988291 </i>
    <i name="e_wo_entrp">    -36.91979171 </i>
    <i name="e_0_energy">    -36.91983731 </i>
   </energy>
  </scstep>
  <scstep>
   <time name="diag">   81.59   81.62</time>
   <time name="diis">  332.66  333.17</time>
   <time name="orth">    3.09    3.11</time>
   <time name="total">  451.12  451.88</time>
   <energy>
    <i name="e_fr_energy">    -36.91964154 </i>
    <i name="e_wo_entrp">    -36.91954979 </i>
    <i name="e_0_energy">    -36.91959567 </i>
   </energy>
  </scstep>
  <scstep>
   <time name="diag">   81.29   81.65</time>
   <time name="diis">  330.93  333.75</time>
   <time name="orth">    3.13    3.13</time>
   <time name="total">  448.61  452.26</time>
   <energy>
    <i name="e_fr_energy">    -36.91949125 </i>
    <i name="e_wo_entrp">    -36.91939983 </i>
    <i name="e_0_energy">    -36.91944554 </i>
   </energy>
  </scstep>
  <scstep>
   <time name="diag">   81.17   81.71</time>
   <time name="diis">  333.38  335.97</time>
   <time name="orth">    3.08    3.08</time>
   <time name="total">  451.17  454.61</time>
   <energy>
    <i name="e_fr_energy">    -36.92203752 </i>
    <i name="e_wo_entrp">    -36.92194623 </i>
    <i name="e_0_energy">    -36.92199188 </i>
   </energy>
  </scstep>
  <scstep>
   <time name="diag">   81.65   81.67</time>
   <time name="diis">  334.10  334.17</time>
   <time name="orth">    3.10    3.10</time>
   <time name="total">  452.61  452.74</time>
   <energy>
    <i name="e_fr_energy">    -36.92250338 </i>
    <i name="e_wo_entrp">    -36.92241196 </i>
    <i name="e_0_energy">    -36.92245767 </i>
   </energy>
  </scstep>
  <scstep>
   <time name="diag">   81.61   81.63</time>
   <time name="diis">  339.75  339.84</time>
   <time name="orth">    3.10    3.10</time>
   <time name="total">  458.34  458.48</time>
   <energy>
    <i name="e_fr_energy">    -36.92275442 </i>
    <i name="e_wo_entrp">    -36.92266298 </i>
    <i name="e_0_energy">    -36.92270870 </i>
   </energy>
  </scstep>
  <scstep>
   <time name="diag">   81.84   81.87</time>
   <time name="diis">  335.57  335.65</time>
   <time name="orth">    3.10    3.10</time>
   <time name="total">  454.38  454.49</time>
   <energy>
    <i name="e_fr_energy">    -36.92283960 </i>
    <i name="e_wo_entrp">    -36.92274820 </i>
    <i name="e_0_energy">    -36.92279390 </i>
   </energy>
  </scstep>
  <scstep>
   <time name="diag">   81.80   81.86</time>
   <time name="diis">  337.18  338.85</time>
   <time name="orth">    3.08    3.08</time>
   <time name="total">  455.71  457.95</time>
   <energy>
    <i name="e_fr_energy">    -36.92284700 </i>
    <i name="e_wo_entrp">    -36.92275559 </i>
    <i name="e_0_energy">    -36.92280130 </i>
   </energy>
  </scstep>
  <scstep>
   <time name="diag">   81.82   81.84</time>
   <time name="diis">  342.47  342.55</time>
   <time name="orth">    3.10    3.11</time>
   <time name="total">  461.13  462.22</time>
   <energy>
    <i name="e_fr_energy">    -36.92285889 </i>
    <i name="e_wo_entrp">    -36.92276746 </i>
    <i name="e_0_energy">    -36.92281318 </i>
   </energy>
  </scstep>
  <scstep>
   <time name="diag">   81.80   81.82</time>
   <time name="diis">  343.75  343.84</time>
   <time name="orth">    3.10    3.10</time>
   <time name="total">  462.52  462.71</time>
   <energy>
    <i name="e_fr_energy">    -36.92286229 </i>
    <i name="e_wo_entrp">    -36.92277087 </i>
    <i name="e_0_energy">    -36.92281658 </i>
   </energy>
  </scstep>
  <scstep>
   <time name="diag">   81.78   81.80</time>
   <time name="diis">  333.96  334.04</time>
   <time name="orth">    3.10    3.10</time>
   <time name="total">  452.42  452.66</time>
   <energy>
    <i name="e_fr_energy">    -36.92286429 </i>
    <i name="e_wo_entrp">    -36.92277288 </i>
    <i name="e_0_energy">    -36.92281859 </i>
   </energy>
  </scstep>
  <scstep>
   <time name="diag">   81.94   81.95</time>
   <time name="diis">  341.60  341.67</time>
   <time name="orth">    3.10    3.10</time>
   <time name="total">  460.39  460.55</time>
   <energy>
    <i name="e_fr_energy">    -36.92286466 </i>
    <i name="e_wo_entrp">    -36.92277324 </i>
    <i name="e_0_energy">    -36.92281895 </i>
   </energy>
  </scstep>
  <scstep>
   <time name="diag">   81.91   81.93</time>
   <time name="diis">  265.69  266.22</time>
   <time name="orth">    3.10    3.10</time>
   <time name="total">  384.51  385.07</time>
   <energy>
    <i name="e_fr_energy">    -36.92286470 </i>
    <i name="e_wo_entrp">    -36.92277328 </i>
    <i name="e_0_energy">    -36.92281899 </i>
   </energy>
  </scstep>
  <scstep>
   <time name="diag">   81.88   81.90</time>
   <time name="diis">  255.10  255.19</time>
   <time name="orth">    3.10    3.10</time>
   <time name="total">  373.90  374.04</time>
   <energy>
    <i name="e_fr_energy">    -36.92286472 </i>
    <i name="e_wo_entrp">    -36.92277330 </i>
    <i name="e_0_energy">    -36.92281901 </i>
   </energy>
  </scstep>
  <scstep>
   <time name="diag">   81.86   81.91</time>
   <time name="diis">  230.39  230.55</time>
   <time name="orth">    3.08    3.08</time>
   <time name="total">  317.78  317.98</time>
   <energy>
    <i name="alphaZ">      6.18334092 </i>
    <i name="ewald">   2559.12599547 </i>
    <i name="hartreedc">  -3053.14020577 </i>
    <i name="XCdc">     57.44672224 </i>
    <i name="pawpsdc">    275.41220821 </i>
    <i name="pawaedc">   -280.55347981 </i>
    <i name="eentropy">     -0.00009142 </i>
    <i name="bandstr">   -190.02088146 </i>
    <i name="atom">    588.62352690 </i>
    <i name="e_fr_energy">    -36.92286472 </i>
    <i name="e_wo_entrp">    -36.92277330 </i>
    <i name="e_0_energy">    -36.92281901 </i>
   </energy>
  </scstep>
  <structure>
   <crystal>
    <varray name="basis" >
     <v>       4.26951375       0.00000000       0.00000000 </v>
     <v>       0.00000000       2.47926626       0.00000000 </v>
     <v>       0.00000000       0.00000000      19.91806278 </v>
    </varray>
    <i name="volume">    210.83790140 </i>
    <varray name="rec_basis" >
     <v>       0.23421871       0.00000000       0.00000000 </v>
     <v>       0.00000000       0.40334514       0.00000000 </v>
     <v>       0.00000000       0.00000000       0.05020569 </v>
    </varray>
   </crystal>
   <varray name="positions" >
    <v>       0.00013158       0.00000000       0.00000000 </v>
    <v>       0.16653509       0.50000000       0.00000000 </v>
    <v>       0.50013158       0.50000000       0.00000000 </v>
    <v>       0.66653509       0.00000000       0.00000000 </v>
   </varray>
  </structure>
  <varray name="forces" >
   <v>      -0.00234183       0.00000000       0.00000000 </v>
   <v>       0.00234183       0.00000000       0.00000000 </v>
   <v>      -0.00234183      -0.00000000       0.00000000 </v>
   <v>       0.00234183       0.00000000       0.00000000 </v>
  </varray>
  <varray name="stress" >
   <v>      -0.01507064       0.00000000       0.00000000 </v>
   <v>       0.00000000      -8.16842324       0.00000000 </v>
   <v>       0.00000000       0.00000000      -0.01024085 </v>
  </varray>
  <energy>
   <i name="e_fr_energy">    -36.92286472 </i>
   <i name="e_wo_entrp">    -36.92281901 </i>
   <i name="e_0_energy">     -0.00009142 </i>
  </energy>
  <time name="totalsc"> 9693.94 9714.20</time>
 </calculation>
 <calculation>
  <scstep>
   <time name="dav">  327.15  327.39</time>
   <time name="total">  360.76  361.01</time>
   <energy>
    <i name="alphaZ">      6.18334092 </i>
    <i name="ewald">   2559.12648412 </i>
    <i name="hartreedc">  -3053.14040363 </i>
    <i name="XCdc">     57.44673561 </i>
    <i name="pawpsdc">    275.41221979 </i>
    <i name="pawaedc">   -280.55349123 </i>
    <i name="eentropy">     -0.00008783 </i>
    <i name="bandstr">   -190.02118777 </i>
    <i name="atom">    588.62352690 </i>
    <i name="e_fr_energy">    -36.92286312 </i>
    <i name="e_wo_entrp">    -36.92277528 </i>
    <i name="e_0_energy">    -36.92281920 </i>
   </energy>
  </scstep>
  <scstep>
   <time name="diag">   81.28   81.77</time>
   <time name="diis">  331.88  334.63</time>
   <time name="orth">    3.08    3.10</time>
   <time name="total">  449.81  453.27</time>
   <energy>
    <i name="e_fr_energy">    -36.92286320 </i>
    <i name="e_wo_entrp">    -36.92277525 </i>
    <i name="e_0_energy">    -36.92281922 </i>
   </energy>
  </scstep>
  <scstep>
   <time name="diag">   81.23   81.83</time>
   <time name="diis">  335.53  337.92</time>
   <time name="orth">    3.08    3.08</time>
   <time name="total">  453.33  456.62</time>
   <energy>
    <i name="e_fr_energy">    -36.92286313 </i>
    <i name="e_wo_entrp">    -36.92277496 </i>
    <i name="e_0_energy">    -36.92281905 </i>
   </energy>
  </scstep>
  <scstep>
   <time name="diag">   81.35   81.78</time>
   <time name="diis">  342.18  343.70</time>
   <time name="orth">    3.09    3.10</time>
   <time name="total">  460.42  462.46</time>
   <energy>
    <i name="e_fr_energy">    -36.92286312 </i>
    <i name="e_wo_entrp">    -36.92277501 </i>
    <i name="e_0_energy">    -36.92281906 </i>
   </energy>
  </scstep>
  <scstep>
   <time name="diag">   81.54   81.78</time>
   <time name="diis">  335.00  338.40</time>
   <time name="orth">    3.08    3.08</time>
   <time name="total">  452.74  457.78</time>
   <energy>
    <i name="e_fr_energy">    -36.92286312 </i>
    <i name="e_wo_entrp">    -36.92277501 </i>
    <i name="e_0_energy">    -36.92281907 </i>
   </energy>
  </scstep>
  <scstep>
   <time name="diag">   81.80   81.81</time>
   <time name="diis">  253.35  253.41</time>
   <time name="orth">    3.11    3.11</time>
   <time name="total">  340.64  340.96</time>
   <energy>
    <i name="alphaZ">      6.18334092 </i>
    <i name="ewald">   2559.12648412 </i>
    <i name="hartreedc">  -3053.14062818 </i>
    <i name="XCdc">     57.44674505 </i>
    <i name="pawpsdc">    275.41312254 </i>
    <i name="pawaedc">   -280.55439809 </i>
    <i name="eentropy">     -0.00008812 </i>
    <i name="bandstr">   -190.02096827 </i>
    <i name="atom">    588.62352690 </i>
    <i name="e_fr_energy">    -36.92286312 </i>
    <i name="e_wo_entrp">    -36.92277501 </i>
    <i name="e_0_energy">    -36.92281907 </i>
   </energy>
  </scstep>
  <structure>
   <crystal>
    <varray name="basis" >
     <v>       4.26951375       0.00000000       0.00000000 </v>
     <v>       0.00000000       2.47926626       0.00000000 </v>
     <v>       0.00000000       0.00000000      19.91806278 </v>
    </varray>
    <i name="volume">    210.83790140 </i>
    <varray name="rec_basis" >
     <v>       0.23421871       0.00000000       0.00000000 </v>
     <v>       0.00000000       0.40334514       0.00000000 </v>
     <v>       0.00000000       0.00000000       0.05020569 </v>
    </varray>
   </crystal>
   <varray name="positions" >
    <v>       0.00010512       0.00000000       0.00000000 </v>
    <v>       0.16656155       0.50000000       0.00000000 </v>
    <v>       0.50010512       0.50000000       0.00000000 </v>
    <v>       0.66656155       0.00000000       0.00000000 </v>
   </varray>
  </structure>
  <varray name="forces" >
   <v>       0.00942018       0.00000000      -0.00000000 </v>
   <v>      -0.00942018      -0.00000000       0.00000000 </v>
   <v>       0.00942018       0.00000000      -0.00000000 </v>
   <v>      -0.00942018       0.00000000       0.00000000 </v>
  </varray>
  <varray name="stress" >
   <v>       0.02171055       0.00000000       0.00000000 </v>
   <v>       0.00000000      -8.20135738       0.00000000 </v>
   <v>       0.00000000       0.00000000      -0.01004671 </v>
  </varray>
  <energy>
   <i name="e_fr_energy">    -36.92286312 </i>
   <i name="e_wo_entrp">    -36.92281907 </i>
   <i name="e_0_energy">     -0.00008812 </i>
  </energy>
  <time name="totalsc"> 2621.24 2635.87</time>
 </calculation>
 <calculation>
  <scstep>
   <time name="dav">  322.71  322.87</time>
   <time name="total">  356.53  356.71</time>
   <energy>
    <i name="alphaZ">      6.18334092 </i>
    <i name="ewald">   2559.12609132 </i>
    <i name="hartreedc">  -3053.14046385 </i>
    <i name="XCdc">     57.44673407 </i>
    <i name="pawpsdc">    275.41311751 </i>
    <i name="pawaedc">   -280.55439315 </i>
    <i name="eentropy">     -0.00009099 </i>
    <i name="bandstr">   -190.02072757 </i>
    <i name="atom">    588.62352690 </i>
    <i name="e_fr_energy">    -36.92286484 </i>
    <i name="e_wo_entrp">    -36.92277384 </i>
    <i name="e_0_energy">    -36.92281934 </i>
   </energy>
  </scstep>
  <scstep>
   <time name="diag">   81.84   81.86</time>
   <time name="diis">  336.65  336.74</time>
   <time name="orth">    3.11    3.11</time>
   <time name="total">  455.28  455.40</time>
   <energy>
    <i name="e_fr_energy">    -36.92286488 </i>
    <i name="e_wo_entrp">    -36.92277398 </i>
    <i name="e_0_energy">    -36.92281943 </i>
   </energy>
  </scstep>
  <scstep>
   <time name="diag">   81.81   81.83</time>
   <time name="diis">  338.59  338.66</time>
   <time name="orth">    3.08    3.08</time>
   <time name="total">  457.40  457.64</time>
   <energy>
    <i name="e_fr_energy">    -36.92286483 </i>
    <i name="e_wo_entrp">    -36.92277410 </i>
    <i name="e_0_energy">    -36.92281947 </i>
   </energy>
  </scstep>
  <scstep>
   <time name="diag">   81.81   81.83</time>
   <time name="diis">  343.82  343.91</time>
   <time name="orth">    3.11    3.11</time>
   <time name="total">  462.70  462.84</time>
   <energy>
    <i name="e_fr_energy">    -36.92286483 </i>
    <i name="e_wo_entrp">    -36.92277406 </i>
    <i name="e_0_energy">    -36.92281944 </i>
   </energy>
  </scstep>
  <scstep>
   <time name="diag">   81.81   81.85</time>
   <time name="diis">  320.00  320.07</time>
   <time name="orth">    3.11    3.11</time>
   <time name="total">  438.79  438.97</time>
   <energy>
    <i name="e_fr_energy">    -36.92286483 </i>
    <i name="e_wo_entrp">    -36.92277405 </i>
    <i name="e_0_energy">    -36.92281944 </i>
   </energy>
  </scstep>
  <scstep>
   <time name="diag">   81.62   81.84</time>
   <time name="diis">  233.50  234.63</time>
   <time name="orth">    3.08    3.08</time>
   <time name="total">  320.65  322.02</time>
   <energy>
    <i name="alphaZ">      6.18334092 </i>
    <i name="ewald">   2559.12609132 </i>
    <i name="hartreedc">  -3053.14030793 </i>
    <i name="XCdc">     57.44672744 </i>
    <i name="pawpsdc">    275.41240657 </i>
    <i name="pawaedc">   -280.55367928 </i>
    <i name="eentropy">     -0.00009077 </i>
    <i name="bandstr">   -190.02088001 </i>
    <i name="atom">    588.62352690 </i>
    <i name="e_fr_energy">    -36.92286483 </i>
    <i name="e_wo_entrp">    -36.92277406 </i>
    <i name="e_0_energy">    -36.92281944 </i>
   </energy>
  </scstep>
  <structure>
   <crystal>
    <varray name="basis" >
     <v>       4.26951375       0.00000000       0.00000000 </v>
     <v>       0.00000000       2.47926626       0.00000000 </v>
     <v>       0.00000000       0.00000000      19.91806278 </v>
    </varray>
    <i name="volume">    210.83790140 </i>
    <varray name="rec_basis" >
     <v>       0.23421871       0.00000000       0.00000000 </v>
     <v>       0.00000000       0.40334514       0.00000000 </v>
     <v>       0.00000000       0.00000000       0.05020569 </v>
    </varray>
   </crystal>
   <varray name="positions" >
    <v>       0.00012631       0.00000000      -0.00000000 </v>
    <v>       0.16654036       0.50000000       0.00000000 </v>
    <v>       0.50012631       0.50000000      -0.00000000 </v>
    <v>       0.66654036       0.00000000       0.00000000 </v>
   </varray>
  </structure>
  <varray name="forces" >
   <v>       0.00000766       0.00000000      -0.00000000 </v>
   <v>      -0.00000766      -0.00000000       0.00000000 </v>
   <v>       0.00000766      -0.00000000      -0.00000000 </v>
   <v>      -0.00000766      -0.00000000       0.00000000 </v>
  </varray>
  <varray name="stress" >
   <v>      -0.00762777       0.00000000       0.00000000 </v>
   <v>       0.00000000      -8.17509169       0.00000000 </v>
   <v>       0.00000000       0.00000000      -0.01006890 </v>
  </varray>
  <energy>
   <i name="e_fr_energy">    -36.92286483 </i>
   <i name="e_wo_entrp">    -36.92281944 </i>
   <i name="e_0_energy">     -0.00009077 </i>
  </energy>
  <time name="totalsc"> 2594.93 2597.90</time>
 </calculation>
 <calculation>
  <scstep>
   <time name="dav">  259.14  259.26</time>
   <time name="total">  292.96  293.10</time>
   <energy>
    <i name="alphaZ">      6.18334092 </i>
    <i name="ewald">   2559.12609100 </i>
    <i name="hartreedc">  -3053.14030566 </i>
    <i name="XCdc">     57.44672734 </i>
    <i name="pawpsdc">    275.41241043 </i>
    <i name="pawaedc">   -280.55368308 </i>
    <i name="eentropy">     -0.00009077 </i>
    <i name="bandstr">   -190.02088192 </i>
    <i name="atom">    588.62352690 </i>
    <i name="e_fr_energy">    -36.92286483 </i>
    <i name="e_wo_entrp">    -36.92277406 </i>
    <i name="e_0_energy">    -36.92281944 </i>
   </energy>
  </scstep>
  <scstep>
   <time name="diag">   81.63   81.92</time>
   <time name="diis">  202.66  202.99</time>
   <time name="orth">    3.10    3.10</time>
   <time name="total">  321.15  321.79</time>
   <energy>
    <i name="e_fr_energy">    -36.92286483 </i>
    <i name="e_wo_entrp">    -36.92277406 </i>
    <i name="e_0_energy">    -36.92281944 </i>
   </energy>
  </scstep>
  <scstep>
   <time name="diag">   81.79   81.81</time>
   <time name="diis">  197.37  197.42</time>
   <time name="orth">    3.10    3.10</time>
   <time name="total">  315.89  316.08</time>
   <energy>
    <i name="e_fr_energy">    -36.92286483 </i>
    <i name="e_wo_entrp">    -36.92277406 </i>
    <i name="e_0_energy">    -36.92281944 </i>
   </energy>
  </scstep>
  <scstep>
   <time name="diag">   81.76   81.80</time>
   <time name="diis">  188.27  188.66</time>
   <time name="orth">    3.08    3.10</time>
   <time name="total">  306.50  307.45</time>
   <energy>
    <i name="e_fr_energy">    -36.92286483 </i>
    <i name="e_wo_entrp">    -36.92277406 </i>
    <i name="e_0_energy">    -36.92281944 </i>
   </energy>
  </scstep>
  <scstep>
   <time name="diag">   81.53   81.75</time>
   <time name="diis">  182.00  182.04</time>
   <time name="orth">    3.10    3.10</time>
   <time name="total">  269.07  269.36</time>
   <energy>
    <i name="alphaZ">      6.18334092 </i>
    <i name="ewald">   2559.12609100 </i>
    <i name="hartreedc">  -3053.14030414 </i>
    <i name="XCdc">     57.44672731 </i>
    <i name="pawpsdc">    275.41241756 </i>
    <i name="pawaedc">   -280.55369019 </i>
    <i name="eentropy">     -0.00009077 </i>
    <i name="bandstr">   -190.02088342 </i>
    <i name="atom">    588.62352690 </i>
    <i name="e_fr_energy">    -36.92286483 </i>
    <i name="e_wo_entrp">    -36.92277406 </i>
    <i name="e_0_energy">    -36.92281944 </i>
   </energy>
  </scstep>
  <structure>
   <crystal>
    <varray name="basis" >
     <v>       4.26951375       0.00000000       0.00000000 </v>
     <v>       0.00000000       2.47926626       0.00000000 </v>
     <v>       0.00000000       0.00000000      19.91806278 </v>
    </varray>
    <i name="volume">    210.83790140 </i>
    <varray name="rec_basis" >
     <v>       0.23421871       0.00000000       0.00000000 </v>
     <v>       0.00000000       0.40334514       0.00000000 </v>
     <v>       0.00000000       0.00000000       0.05020569 </v>
    </varray>
   </crystal>
   <varray name="positions" >
    <v>       0.00012633       0.00000000      -0.00000000 </v>
    <v>       0.16654034       0.50000000       0.00000000 </v>
    <v>       0.50012633       0.50000000      -0.00000000 </v>
    <v>       0.66654034       0.00000000       0.00000000 </v>
   </varray>
  </structure>
  <varray name="forces" >
   <v>      -0.00001202       0.00000000      -0.00000000 </v>
   <v>       0.00001202      -0.00000000       0.00000000 </v>
   <v>      -0.00001202      -0.00000000      -0.00000000 </v>
   <v>       0.00001202       0.00000000       0.00000000 </v>
  </varray>
  <varray name="stress" >
   <v>      -0.00776875       0.00000000       0.00000000 </v>
   <v>       0.00000000      -8.17494697       0.00000000 </v>
   <v>       0.00000000       0.00000000      -0.01006526 </v>
  </varray>
  <energy>
   <i name="e_fr_energy">    -36.92286483 </i>
   <i name="e_wo_entrp">    -36.92281944 </i>
   <i name="e_0_energy">     -0.00009077 </i>
  </energy>
  <time name="totalsc"> 1609.18 1611.48</time>
 </calculation>
 <calculation>
  <scstep>
   <time name="dav">  254.27  254.41</time>
   <time name="total">  287.93  288.08</time>
   <energy>
    <i name="alphaZ">      6.18334092 </i>
    <i name="ewald">   2559.12609120 </i>
    <i name="hartreedc">  -3053.14030340 </i>
    <i name="XCdc">     57.44672731 </i>
    <i name="pawpsdc">    275.41241739 </i>
    <i name="pawaedc">   -280.55369003 </i>
    <i name="eentropy">     -0.00009077 </i>
    <i name="bandstr">   -190.02088435 </i>
    <i name="atom">    588.62352690 </i>
    <i name="e_fr_energy">    -36.92286483 </i>
    <i name="e_wo_entrp">    -36.92277406 </i>
    <i name="e_0_energy">    -36.92281944 </i>
   </energy>
  </scstep>
  <scstep>
   <time name="diag">   81.72   81.74</time>
   <time name="diis">  159.85  159.89</time>
   <time name="orth">    3.09    3.09</time>
   <time name="total">  278.20  278.27</time>
   <energy>
    <i name="e_fr_energy">    -36.92286483 </i>
    <i name="e_wo_entrp">    -36.92277406 </i>
    <i name="e_0_energy">    -36.92281944 </i>
   </energy>
  </scstep>
  <scstep>
   <time name="diag">   81.75   81.77</time>
   <time name="diis">  158.26  158.30</time>
   <time name="orth">    3.10    3.11</time>
   <time name="total">  276.67  276.78</time>
   <energy>
    <i name="e_fr_energy">    -36.92286483 </i>
    <i name="e_wo_entrp">    -36.92277406 </i>
    <i name="e_0_energy">    -36.92281944 </i>
   </energy>
  </scstep>
  <scstep>
   <time name="diag">   81.72   81.74</time>
   <time name="diis">  157.05  157.17</time>
   <time name="orth">    3.10    3.10</time>
   <time name="total">  275.78  275.96</time>
   <energy>
    <i name="e_fr_energy">    -36.92286483 </i>
    <i name="e_wo_entrp">    -36.92277406 </i>
    <i name="e_0_energy">    -36.92281944 </i>
   </energy>
  </scstep>
  <scstep>
   <time name="diag">   81.78   81.81</time>
   <time name="diis">  155.70  155.75</time>
   <time name="orth">    3.10    3.10</time>
   <time name="total">  274.18  274.29</time>
   <energy>
    <i name="e_fr_energy">    -36.92286483 </i>
    <i name="e_wo_entrp">    -36.92277406 </i>
    <i name="e_0_energy">    -36.92281944 </i>
   </energy>
  </scstep>
  <scstep>
   <time name="diag">   81.72   81.78</time>
   <time name="diis">  154.94  155.44</time>
   <time name="orth">    3.08    3.10</time>
   <time name="total">  273.42  274.10</time>
   <energy>
    <i name="e_fr_energy">    -36.92286483 </i>
    <i name="e_wo_entrp">    -36.92277406 </i>
    <i name="e_0_energy">    -36.92281944 </i>
   </energy>
  </scstep>
  <scstep>
   <time name="diag">   81.78   81.80</time>
   <time name="diis">  149.22  149.59</time>
   <time name="orth">    3.09    3.09</time>
   <time name="total">  267.75  268.32</time>
   <energy>
    <i name="e_fr_energy">    -36.92286483 </i>
    <i name="e_wo_entrp">    -36.92277406 </i>
    <i name="e_0_energy">    -36.92281944 </i>
   </energy>
  </scstep>
  <scstep>
   <time name="diag">   81.38   81.79</time>
   <time name="diis">  148.18  148.67</time>
   <time name="orth">    3.11    3.11</time>
   <time name="total">  266.32  267.23</time>
   <energy>
    <i name="e_fr_energy">    -36.92286483 </i>
    <i name="e_wo_entrp">    -36.92277406 </i>
    <i name="e_0_energy">    -36.92281944 </i>
   </energy>
  </scstep>
  <scstep>
   <time name="diag">   81.76   81.79</time>
   <time name="diis">  142.21  142.24</time>
   <time name="orth">    3.12    3.13</time>
   <time name="total">  260.72  260.82</time>
   <energy>
    <i name="e_fr_energy">    -36.92286483 </i>
    <i name="e_wo_entrp">    -36.92277406 </i>
    <i name="e_0_energy">    -36.92281944 </i>
   </energy>
  </scstep>
  <scstep>
   <time name="diag">   81.78   81.81</time>
   <time name="diis">  139.57  139.60</time>
   <time name="orth">    3.10    3.11</time>
   <time name="total">  226.94  227.01</time>
   <energy>
    <i name="alphaZ">      6.18334092 </i>
    <i name="ewald">   2559.12609120 </i>
    <i name="hartreedc">  -3053.14030278 </i>
    <i name="XCdc">     57.44672733 </i>
    <i name="pawpsdc">    275.41241832 </i>
    <i name="pawaedc">   -280.55369097 </i>
    <i name="eentropy">     -0.00009077 </i>
    <i name="bandstr">   -190.02088499 </i>
    <i name="atom">    588.62352690 </i>
    <i name="e_fr_energy">    -36.92286483 </i>
    <i name="e_wo_entrp">    -36.92277406 </i>
    <i name="e_0_energy">    -36.92281944 </i>
   </energy>
  </scstep>
  <structure>
   <crystal>
    <varray name="basis" >
     <v>       4.26951375       0.00000000       0.00000000 </v>
     <v>       0.00000000       2.47926626       0.00000000 </v>
     <v>       0.00000000       0.00000000      19.91806278 </v>
    </varray>
    <i name="volume">    210.83790140 </i>
    <varray name="rec_basis" >
     <v>       0.23421871       0.00000000       0.00000000 </v>
     <v>       0.00000000       0.40334514       0.00000000 </v>
     <v>       0.00000000       0.00000000       0.05020569 </v>
    </varray>
   </crystal>
   <varray name="positions" >
    <v>       0.00012632       0.00000000      -0.00000000 </v>
    <v>       0.16654035       0.50000000       0.00000000 </v>
    <v>       0.50012632       0.50000000      -0.00000000 </v>
    <v>       0.66654035       0.00000000       0.00000000 </v>
   </varray>
  </structure>
  <varray name="forces" >
   <v>      -0.00000142      -0.00000000       0.00000000 </v>
   <v>       0.00000142       0.00000000      -0.00000000 </v>
   <v>      -0.00000142      -0.00000000       0.00000000 </v>
   <v>       0.00000142       0.00000000      -0.00000000 </v>
  </varray>
  <varray name="stress" >
   <v>      -0.00772768       0.00000000       0.00000000 </v>
   <v>       0.00000000      -8.17498586       0.00000000 </v>
   <v>       0.00000000       0.00000000      -0.01006188 </v>
  </varray>
  <energy>
   <i name="e_fr_energy">    -36.92286483 </i>
   <i name="e_wo_entrp">    -36.92281944 </i>
   <i name="e_0_energy">     -0.00009077 </i>
  </energy>
  <time name="totalsc"> 2792.50 2795.67</time>
 </calculation>
 <calculation>
  <scstep>
   <time name="dav">  262.34  262.47</time>
   <time name="total">  296.09  296.23</time>
   <energy>
    <i name="alphaZ">      6.18334092 </i>
    <i name="ewald">   2559.12609122 </i>
    <i name="hartreedc">  -3053.14030277 </i>
    <i name="XCdc">     57.44672733 </i>
    <i name="pawpsdc">    275.41241832 </i>
    <i name="pawaedc">   -280.55369097 </i>
    <i name="eentropy">     -0.00009077 </i>
    <i name="bandstr">   -190.02088503 </i>
    <i name="atom">    588.62352690 </i>
    <i name="e_fr_energy">    -36.92286483 </i>
    <i name="e_wo_entrp">    -36.92277406 </i>
    <i name="e_0_energy">    -36.92281944 </i>
   </energy>
  </scstep>
  <scstep>
   <time name="diag">   81.75   81.77</time>
   <time name="diis">  125.10  125.12</time>
   <time name="orth">    3.08    3.08</time>
   <time name="total">  243.58  243.64</time>
   <energy>
    <i name="e_fr_energy">    -36.92286483 </i>
    <i name="e_wo_entrp">    -36.92277406 </i>
    <i name="e_0_energy">    -36.92281944 </i>
   </energy>
  </scstep>
  <scstep>
   <time name="diag">   81.75   81.78</time>
   <time name="diis">  126.81  126.85</time>
   <time name="orth">    3.08    3.08</time>
   <time name="total">  245.46  245.59</time>
   <energy>
    <i name="e_fr_energy">    -36.92286483 </i>
    <i name="e_wo_entrp">    -36.92277406 </i>
    <i name="e_0_energy">    -36.92281944 </i>
   </energy>
  </scstep>
  <scstep>
   <time name="diag">   81.79   81.82</time>
   <time name="diis">  123.72  123.75</time>
   <time name="orth">    3.10    3.10</time>
   <time name="total">  242.35  242.42</time>
   <energy>
    <i name="e_fr_energy">    -36.92286483 </i>
    <i name="e_wo_entrp">    -36.92277406 </i>
    <i name="e_0_energy">    -36.92281944 </i>
   </energy>
  </scstep>
  <scstep>
   <time name="diag">   81.76   81.77</time>
   <time name="diis">  117.88  117.92</time>
   <time name="orth">    3.08    3.08</time>
   <time name="total">  205.16  205.25</time>
   <energy>
    <i name="alphaZ">      6.18334092 </i>
    <i name="ewald">   2559.12609122 </i>
    <i name="hartreedc">  -3053.14030282 </i>
    <i name="XCdc">     57.44672734 </i>
    <i name="pawpsdc">    275.41241829 </i>
    <i name="pawaedc">   -280.55369094 </i>
    <i name="eentropy">     -0.00009077 </i>
    <i name="bandstr">   -190.02088498 </i>
    <i name="atom">    588.62352690 </i>
    <i name="e_fr_energy">    -36.92286483 </i>
    <i name="e_wo_entrp">    -36.92277406 </i>
    <i name="e_0_energy">    -36.92281944 </i>
   </energy>
  </scstep>
  <structure>
   <crystal>
    <varray name="basis" >
     <v>       4.26951375       0.00000000       0.00000000 </v>
     <v>       0.00000000       2.47926626       0.00000000 </v>
     <v>       0.00000000       0.00000000      19.91806278 </v>
    </varray>
    <i name="volume">    210.83790140 </i>
    <varray name="rec_basis" >
     <v>       0.23421871       0.00000000       0.00000000 </v>
     <v>       0.00000000       0.40334514       0.00000000 </v>
     <v>       0.00000000       0.00000000       0.05020569 </v>
    </varray>
   </crystal>
   <varray name="positions" >
    <v>       0.00012632      -0.00000000      -0.00000000 </v>
    <v>       0.16654035       0.50000000       0.00000000 </v>
    <v>       0.50012632       0.50000000      -0.00000000 </v>
    <v>       0.66654035       0.00000000       0.00000000 </v>
   </varray>
  </structure>
  <varray name="forces" >
   <v>      -0.00000170      -0.00000000       0.00000000 </v>
   <v>       0.00000170       0.00000000       0.00000000 </v>
   <v>      -0.00000170      -0.00000000       0.00000000 </v>
   <v>       0.00000170       0.00000000       0.00000000 </v>
  </varray>
  <varray name="stress" >
   <v>      -0.00773373       0.00000000       0.00000000 </v>
   <v>       0.00000000      -8.17497855       0.00000000 </v>
   <v>       0.00000000       0.00000000      -0.01006145 </v>
  </varray>
  <energy>
   <i name="e_fr_energy">    -36.92286483 </i>
   <i name="e_wo_entrp">    -36.92281944 </i>
   <i name="e_0_energy">     -0.00009077 </i>
  </energy>
  <time name="totalsc"> 1337.27 1338.24</time>
 </calculation>
 <calculation>
  <scstep>
   <time name="dav">  232.84  232.93</time>
   <time name="total">  266.68  266.78</time>
   <energy>
    <i name="alphaZ">      6.18334092 </i>
    <i name="ewald">   2559.12609107 </i>
    <i name="hartreedc">  -3053.14030275 </i>
    <i name="XCdc">     57.44672733 </i>
    <i name="pawpsdc">    275.41241829 </i>
    <i name="pawaedc">   -280.55369094 </i>
    <i name="eentropy">     -0.00009077 </i>
    <i name="bandstr">   -190.02088489 </i>
    <i name="atom">    588.62352690 </i>
    <i name="e_fr_energy">    -36.92286483 </i>
    <i name="e_wo_entrp">    -36.92277406 </i>
    <i name="e_0_energy">    -36.92281944 </i>
   </energy>
  </scstep>
  <scstep>
   <time name="diag">   81.79   81.81</time>
   <time name="diis">  114.96  115.00</time>
   <time name="orth">    3.11    3.11</time>
   <time name="total">  233.59  233.66</time>
   <energy>
    <i name="e_fr_energy">    -36.92286483 </i>
    <i name="e_wo_entrp">    -36.92277406 </i>
    <i name="e_0_energy">    -36.92281944 </i>
   </energy>
  </scstep>
  <scstep>
   <time name="diag">   81.71   81.79</time>
   <time name="diis">  117.24  117.33</time>
   <time name="orth">    3.08    3.08</time>
   <time name="total">  235.83  236.04</time>
   <energy>
    <i name="e_fr_energy">    -36.92286483 </i>
    <i name="e_wo_entrp">    -36.92277406 </i>
    <i name="e_0_energy">    -36.92281944 </i>
   </energy>
  </scstep>
  <scstep>
   <time name="diag">   81.80   81.82</time>
   <time name="diis">  124.09  124.11</time>
   <time name="orth">    3.10    3.10</time>
   <time name="total">  242.71  242.76</time>
   <energy>
    <i name="e_fr_energy">    -36.92286483 </i>
    <i name="e_wo_entrp">    -36.92277406 </i>
    <i name="e_0_energy">    -36.92281944 </i>
   </energy>
  </scstep>
  <scstep>
   <time name="diag">   81.78   81.81</time>
   <time name="diis">  122.33  122.36</time>
   <time name="orth">    3.11    3.11</time>
   <time name="total">  240.88  240.97</time>
   <energy>
    <i name="e_fr_energy">    -36.92286483 </i>
    <i name="e_wo_entrp">    -36.92277406 </i>
    <i name="e_0_energy">    -36.92281944 </i>
   </energy>
  </scstep>
  <scstep>
   <time name="diag">   81.78   81.80</time>
   <time name="diis">  122.10  122.13</time>
   <time name="orth">    3.11    3.11</time>
   <time name="total">  240.58  240.65</time>
   <energy>
    <i name="e_fr_energy">    -36.92286483 </i>
    <i name="e_wo_entrp">    -36.92277406 </i>
    <i name="e_0_energy">    -36.92281944 </i>
   </energy>
  </scstep>
  <scstep>
   <time name="diag">   81.77   81.78</time>
   <time name="diis">  125.56  125.59</time>
   <time name="orth">    3.10    3.10</time>
   <time name="total">  212.86  212.95</time>
   <energy>
    <i name="alphaZ">      6.18334092 </i>
    <i name="ewald">   2559.12609107 </i>
    <i name="hartreedc">  -3053.14030261 </i>
    <i name="XCdc">     57.44672733 </i>
    <i name="pawpsdc">    275.41241713 </i>
    <i name="pawaedc">   -280.55368977 </i>
    <i name="eentropy">     -0.00009077 </i>
    <i name="bandstr">   -190.02088502 </i>
    <i name="atom">    588.62352690 </i>
    <i name="e_fr_energy">    -36.92286483 </i>
    <i name="e_wo_entrp">    -36.92277406 </i>
    <i name="e_0_energy">    -36.92281944 </i>
   </energy>
  </scstep>
  <structure>
   <crystal>
    <varray name="basis" >
     <v>       4.26951375       0.00000000       0.00000000 </v>
     <v>       0.00000000       2.47926626       0.00000000 </v>
     <v>       0.00000000       0.00000000      19.91806278 </v>
    </varray>
    <i name="volume">    210.83790140 </i>
    <varray name="rec_basis" >
     <v>       0.23421871       0.00000000       0.00000000 </v>
     <v>       0.00000000       0.40334514       0.00000000 </v>
     <v>       0.00000000       0.00000000       0.05020569 </v>
    </varray>
   </crystal>
   <varray name="positions" >
    <v>       0.00012632       0.00000000      -0.00000000 </v>
    <v>       0.16654034       0.50000000       0.00000000 </v>
    <v>       0.50012632       0.50000000      -0.00000000 </v>
    <v>       0.66654034      -0.00000000       0.00000000 </v>
   </varray>
  </structure>
  <varray name="forces" >
   <v>      -0.00000661       0.00000000       0.00000000 </v>
   <v>       0.00000661      -0.00000000      -0.00000000 </v>
   <v>      -0.00000661      -0.00000000       0.00000000 </v>
   <v>       0.00000661      -0.00000000      -0.00000000 </v>
  </varray>
  <varray name="stress" >
   <v>      -0.00774709       0.00000000       0.00000000 </v>
   <v>       0.00000000      -8.17496420       0.00000000 </v>
   <v>       0.00000000       0.00000000      -0.01006216 </v>
  </varray>
  <energy>
   <i name="e_fr_energy">    -36.92286483 </i>
   <i name="e_wo_entrp">    -36.92281944 </i>
   <i name="e_0_energy">     -0.00009077 </i>
  </energy>
  <time name="totalsc"> 1777.52 1778.44</time>
 </calculation>
 <calculation>
  <scstep>
   <time name="dav">  223.08  223.20</time>
   <time name="total">  256.80  256.94</time>
   <energy>
    <i name="alphaZ">      6.18334092 </i>
    <i name="ewald">   2559.12609128 </i>
    <i name="hartreedc">  -3053.14030270 </i>
    <i name="XCdc">     57.44672733 </i>
    <i name="pawpsdc">    275.41241713 </i>
    <i name="pawaedc">   -280.55368977 </i>
    <i name="eentropy">     -0.00009077 </i>
    <i name="bandstr">   -190.02088515 </i>
    <i name="atom">    588.62352690 </i>
    <i name="e_fr_energy">    -36.92286483 </i>
    <i name="e_wo_entrp">    -36.92277406 </i>
    <i name="e_0_energy">    -36.92281944 </i>
   </energy>
  </scstep>
  <scstep>
   <time name="diag">   81.75   81.77</time>
   <time name="diis">  109.69  109.72</time>
   <time name="orth">    3.10    3.10</time>
   <time name="total">  228.16  228.24</time>
   <energy>
    <i name="e_fr_energy">    -36.92286483 </i>
    <i name="e_wo_entrp">    -36.92277406 </i>
    <i name="e_0_energy">    -36.92281944 </i>
   </energy>
  </scstep>
  <scstep>
   <time name="diag">   81.78   81.80</time>
   <time name="diis">  109.17  109.20</time>
   <time name="orth">    3.08    3.08</time>
   <time name="total">  227.59  227.67</time>
   <energy>
    <i name="e_fr_energy">    -36.92286483 </i>
    <i name="e_wo_entrp">    -36.92277406 </i>
    <i name="e_0_energy">    -36.92281944 </i>
   </energy>
  </scstep>
  <scstep>
   <time name="diag">   81.77   81.81</time>
   <time name="diis">  104.67  104.82</time>
   <time name="orth">    3.09    3.10</time>
   <time name="total">  223.01  223.39</time>
   <energy>
    <i name="e_fr_energy">    -36.92286483 </i>
    <i name="e_wo_entrp">    -36.92277406 </i>
    <i name="e_0_energy">    -36.92281944 </i>
   </energy>
  </scstep>
  <scstep>
   <time name="diag">   81.38   81.79</time>
   <time name="diis">  104.32  104.79</time>
   <time name="orth">    3.08    3.10</time>
   <time name="total">  191.21  192.16</time>
   <energy>
    <i name="alphaZ">      6.18334092 </i>
    <i name="ewald">   2559.12609128 </i>
    <i name="hartreedc">  -3053.14030295 </i>
    <i name="XCdc">     57.44672734 </i>
    <i name="pawpsdc">    275.41241862 </i>
    <i name="pawaedc">   -280.55369127 </i>
    <i name="eentropy">     -0.00009077 </i>
    <i name="bandstr">   -190.02088490 </i>
    <i name="atom">    588.62352690 </i>
    <i name="e_fr_energy">    -36.92286483 </i>
    <i name="e_wo_entrp">    -36.92277406 </i>
    <i name="e_0_energy">    -36.92281944 </i>
   </energy>
  </scstep>
  <structure>
   <crystal>
    <varray name="basis" >
     <v>       4.26951375       0.00000000       0.00000000 </v>
     <v>       0.00000000       2.47926626       0.00000000 </v>
     <v>       0.00000000       0.00000000      19.91806278 </v>
    </varray>
    <i name="volume">    210.83790140 </i>
    <varray name="rec_basis" >
     <v>       0.23421871       0.00000000       0.00000000 </v>
     <v>       0.00000000       0.40334514       0.00000000 </v>
     <v>       0.00000000       0.00000000       0.05020569 </v>
    </varray>
   </crystal>
   <varray name="positions" >
    <v>       0.00012631      -0.00000000      -0.00000000 </v>
    <v>       0.16654035       0.50000000       0.00000000 </v>
    <v>       0.50012631       0.50000000      -0.00000000 </v>
    <v>       0.66654035       0.00000000       0.00000000 </v>
   </varray>
  </structure>
  <varray name="forces" >
   <v>      -0.00000006       0.00000000       0.00000000 </v>
[...]
       <r>   -9.1657    1.0000 </r>
       <r>   -5.6094    1.0000 </r>
       <r>   -5.6094    1.0000 </r>
       <r>   -0.4523    0.0000 </r>
       <r>   -0.4523    0.0000 </r>
       <r>    4.8347    0.0000 </r>
       <r>    4.8347    0.0000 </r>
      </set>
      <set comment="kpoint 209">
       <r>  -18.8400    1.0000 </r>
       <r>  -17.0699    1.0000 </r>
       <r>  -14.0119    1.0000 </r>
       <r>  -12.3987    1.0000 </r>
       <r>  -12.3986    1.0000 </r>
       <r>  -10.8793    1.0000 </r>
       <r>   -6.4359    1.0000 </r>
       <r>   -4.5630    1.0000 </r>
       <r>   -0.9868    0.0000 </r>
       <r>    1.1582    0.0000 </r>
       <r>    5.2053    0.0000 </r>
       <r>    5.9940    0.0000 </r>
      </set>
      <set comment="kpoint 210">
       <r>  -18.8303    1.0000 </r>
       <r>  -17.0621    1.0000 </r>
       <r>  -14.0996    1.0000 </r>
       <r>  -12.4797    1.0000 </r>
       <r>  -12.3031    1.0000 </r>
       <r>  -10.8004    1.0000 </r>
       <r>   -6.4271    1.0000 </r>
       <r>   -4.5657    1.0000 </r>
       <r>   -0.9968    0.0000 </r>
       <r>    1.1325    0.0000 </r>
       <r>    5.2189    0.0000 </r>
       <r>    6.0101    0.0000 </r>
      </set>
      <set comment="kpoint 211">
       <r>  -18.8011    1.0000 </r>
       <r>  -17.0393    1.0000 </r>
       <r>  -14.3164    1.0000 </r>
       <r>  -12.6842    1.0000 </r>
       <r>  -12.0626    1.0000 </r>
       <r>  -10.6031    1.0000 </r>
       <r>   -6.4007    1.0000 </r>
       <r>   -4.5745    1.0000 </r>
       <r>   -1.0249    0.0000 </r>
       <r>    1.0574    0.0000 </r>
       <r>    5.2597    0.0000 </r>
       <r>    6.0580    0.0000 </r>
      </set>
      <set comment="kpoint 212">
       <r>  -18.7526    1.0000 </r>
       <r>  -17.0027    1.0000 </r>
       <r>  -14.5925    1.0000 </r>
       <r>  -12.9518    1.0000 </r>
       <r>  -11.7473    1.0000 </r>
       <r>  -10.3495    1.0000 </r>
       <r>   -6.3571    1.0000 </r>
       <r>   -4.5907    1.0000 </r>
       <r>   -1.0659    0.0000 </r>
       <r>    0.9382    0.0000 </r>
       <r>    5.3273    0.0000 </r>
       <r>    6.1366    0.0000 </r>
      </set>
      <set comment="kpoint 213">
       <r>  -18.6849    1.0000 </r>
       <r>  -16.9548    1.0000 </r>
       <r>  -14.8857    1.0000 </r>
       <r>  -13.2461    1.0000 </r>
       <r>  -11.3991    1.0000 </r>
       <r>  -10.0797    1.0000 </r>
       <r>   -6.2967    1.0000 </r>
       <r>   -4.6168    1.0000 </r>
       <r>   -1.1121    0.0000 </r>
       <r>    0.7826    0.0000 </r>
       <r>    5.4208    0.0000 </r>
       <r>    6.2446    0.0000 </r>
      </set>
      <set comment="kpoint 214">
       <r>  -18.5982    1.0000 </r>
       <r>  -16.9009    1.0000 </r>
       <r>  -15.1721    1.0000 </r>
       <r>  -13.5487    1.0000 </r>
       <r>  -11.0399    1.0000 </r>
       <r>   -9.8165    1.0000 </r>
       <r>   -6.2203    1.0000 </r>
       <r>   -4.6555    1.0000 </r>
       <r>   -1.1544    0.0000 </r>
       <r>    0.5995    0.0000 </r>
       <r>    5.5353    0.0000 </r>
       <r>    6.1746    0.0000 </r>
      </set>
      <set comment="kpoint 215">
       <r>  -18.4929    1.0000 </r>
       <r>  -16.8511    1.0000 </r>
       <r>  -15.4323    1.0000 </r>
       <r>  -13.8501    1.0000 </r>
       <r>  -10.6834    1.0000 </r>
       <r>   -9.5752    1.0000 </r>
       <r>   -6.1289    1.0000 </r>
       <r>   -4.7094    1.0000 </r>
       <r>   -1.1836    0.0000 </r>
       <r>    0.3976    0.0000 </r>
       <r>    5.5979    0.0000 </r>
       <r>    5.8185    0.0000 </r>
      </set>
      <set comment="kpoint 216">
       <r>  -18.3693    1.0000 </r>
       <r>  -16.8254    1.0000 </r>
       <r>  -15.6414    1.0000 </r>
       <r>  -14.1445    1.0000 </r>
       <r>  -10.3400    1.0000 </r>
       <r>   -9.3681    1.0000 </r>
       <r>   -6.0237    1.0000 </r>
       <r>   -4.7805    1.0000 </r>
       <r>   -1.1917    0.0000 </r>
       <r>    0.1856    0.0000 </r>
       <r>    5.3085    0.0000 </r>
       <r>    5.9066    0.0000 </r>
      </set>
      <set comment="kpoint 217">
       <r>  -18.2281    1.0000 </r>
       <r>  -16.8540    1.0000 </r>
       <r>  -15.7662    1.0000 </r>
       <r>  -14.4279    1.0000 </r>
       <r>  -10.0192    1.0000 </r>
       <r>   -9.2055    1.0000 </r>
       <r>   -5.9065    1.0000 </r>
       <r>   -4.8694    1.0000 </r>
       <r>   -1.1727    0.0000 </r>
       <r>   -0.0291    0.0000 </r>
       <r>    5.0140    0.0000 </r>
       <r>    5.8414    0.0000 </r>
      </set>
      <set comment="kpoint 218">
       <r>  -18.0702    1.0000 </r>
       <r>  -16.9573    1.0000 </r>
       <r>  -15.7843    1.0000 </r>
       <r>  -14.6974    1.0000 </r>
       <r>   -9.7302    1.0000 </r>
       <r>   -9.0962    1.0000 </r>
       <r>   -5.7793    1.0000 </r>
       <r>   -4.9752    1.0000 </r>
       <r>   -1.1231    0.0000 </r>
       <r>   -0.2397    0.0000 </r>
       <r>    4.7981    0.0000 </r>
       <r>    5.4435    0.0000 </r>
      </set>
      <set comment="kpoint 219">
       <r>  -17.8968    1.0000 </r>
       <r>  -17.1205    1.0000 </r>
       <r>  -15.7098    1.0000 </r>
       <r>  -14.9503    1.0000 </r>
       <r>   -9.4820    1.0000 </r>
       <r>   -9.0470    1.0000 </r>
       <r>   -5.6445    1.0000 </r>
       <r>   -5.0954    1.0000 </r>
       <r>   -1.0418    0.0000 </r>
       <r>   -0.4401    0.0000 </r>
       <r>    4.6725    0.0000 </r>
       <r>    5.1158    0.0000 </r>
      </set>
      <set comment="kpoint 220">
       <r>  -17.7101    1.0000 </r>
       <r>  -17.3130    1.0000 </r>
       <r>  -15.5722    1.0000 </r>
       <r>  -15.1835    1.0000 </r>
       <r>   -9.2834    1.0000 </r>
       <r>   -9.0619    1.0000 </r>
       <r>   -5.5050    1.0000 </r>
       <r>   -5.2264    1.0000 </r>
       <r>   -0.9298    0.0000 </r>
       <r>   -0.6251    0.0000 </r>
       <r>    4.6422    0.0000 </r>
       <r>    4.8681    0.0000 </r>
      </set>
      <set comment="kpoint 221">
       <r>  -17.5134    1.0000 </r>
       <r>  -17.5134    1.0000 </r>
       <r>  -15.3929    1.0000 </r>
       <r>  -15.3929    1.0000 </r>
       <r>   -9.1415    1.0000 </r>
       <r>   -9.1415    1.0000 </r>
       <r>   -5.3644    1.0000 </r>
       <r>   -5.3644    1.0000 </r>
       <r>   -0.7897    0.0000 </r>
       <r>   -0.7897    0.0000 </r>
       <r>    4.7083    0.0000 </r>
       <r>    4.7083    0.0000 </r>
      </set>
      <set comment="kpoint 222">
       <r>  -18.4219    1.0000 </r>
       <r>  -17.5331    1.0000 </r>
       <r>  -13.6385    1.0000 </r>
       <r>  -12.8311    1.0000 </r>
       <r>  -12.0519    1.0000 </r>
       <r>  -11.2876    1.0000 </r>
       <r>   -5.9802    1.0000 </r>
       <r>   -5.0385    1.0000 </r>
       <r>   -0.4836    0.0000 </r>
       <r>    0.5910    0.0000 </r>
       <r>    5.7992    0.0000 </r>
       <r>    6.5521    0.0000 </r>
      </set>
      <set comment="kpoint 223">
       <r>  -18.4123    1.0000 </r>
       <r>  -17.5243    1.0000 </r>
       <r>  -13.7261    1.0000 </r>
       <r>  -12.9149    1.0000 </r>
       <r>  -11.9590    1.0000 </r>
       <r>  -11.2034    1.0000 </r>
       <r>   -5.9727    1.0000 </r>
       <r>   -5.0360    1.0000 </r>
       <r>   -0.5001    0.0000 </r>
       <r>    0.5674    0.0000 </r>
       <r>    5.8127    0.0000 </r>
       <r>    6.5691    0.0000 </r>
      </set>
      <set comment="kpoint 224">
       <r>  -18.3837    1.0000 </r>
       <r>  -17.4982    1.0000 </r>
       <r>  -13.9439    1.0000 </r>
       <r>  -13.1252    1.0000 </r>
       <r>  -11.7260    1.0000 </r>
       <r>  -10.9924    1.0000 </r>
       <r>   -5.9503    1.0000 </r>
       <r>   -5.0291    1.0000 </r>
       <r>   -0.5479    0.0000 </r>
       <r>    0.4984    0.0000 </r>
       <r>    5.8533    0.0000 </r>
       <r>    6.6194    0.0000 </r>
      </set>
      <set comment="kpoint 225">
       <r>  -18.3361    1.0000 </r>
       <r>  -17.4551    1.0000 </r>
       <r>  -14.2235    1.0000 </r>
       <r>  -13.3986    1.0000 </r>
       <r>  -11.4223    1.0000 </r>
       <r>  -10.7199    1.0000 </r>
       <r>   -5.9134    1.0000 </r>
       <r>   -5.0187    1.0000 </r>
       <r>   -0.6215    0.0000 </r>
       <r>    0.3893    0.0000 </r>
       <r>    5.9205    0.0000 </r>
       <r>    6.7017    0.0000 </r>
      </set>
      <set comment="kpoint 226">
       <r>  -18.2698    1.0000 </r>
       <r>  -17.3959    1.0000 </r>
       <r>  -14.5249    1.0000 </r>
       <r>  -13.6975    1.0000 </r>
       <r>  -11.0895    1.0000 </r>
       <r>  -10.4264    1.0000 </r>
       <r>   -5.8630    1.0000 </r>
       <r>   -5.0067    1.0000 </r>
       <r>   -0.7133    0.0000 </r>
       <r>    0.2477    0.0000 </r>
       <r>    6.0122    0.0000 </r>
       <r>    6.8141    0.0000 </r>
      </set>
      <set comment="kpoint 227">
       <r>  -18.1851    1.0000 </r>
       <r>  -17.3225    1.0000 </r>
       <r>  -14.8280    1.0000 </r>
       <r>  -14.0033    1.0000 </r>
       <r>  -10.7497    1.0000 </r>
       <r>  -10.1347    1.0000 </r>
       <r>   -5.8000    1.0000 </r>
       <r>   -4.9958    1.0000 </r>
       <r>   -0.8138    0.0000 </r>
       <r>    0.0826    0.0000 </r>
       <r>    6.1115    0.0000 </r>
       <r>    6.4521    0.0000 </r>
      </set>
      <set comment="kpoint 228">
       <r>  -18.0826    1.0000 </r>
       <r>  -17.2376    1.0000 </r>
       <r>  -15.1208    1.0000 </r>
       <r>  -14.3062    1.0000 </r>
       <r>  -10.4170    1.0000 </r>
       <r>   -9.8597    1.0000 </r>
       <r>   -5.7260    1.0000 </r>
       <r>   -4.9890    1.0000 </r>
       <r>   -0.9126    0.0000 </r>
       <r>   -0.0967    0.0000 </r>
       <r>    5.9080    0.0000 </r>
       <r>    6.3281    0.0000 </r>
      </set>
      <set comment="kpoint 229">
       <r>  -17.9630    1.0000 </r>
       <r>  -17.1467    1.0000 </r>
       <r>  -15.3926    1.0000 </r>
       <r>  -14.6003    1.0000 </r>
       <r>  -10.1023    1.0000 </r>
       <r>   -9.6132    1.0000 </r>
       <r>   -5.6430    1.0000 </r>
       <r>   -4.9897    1.0000 </r>
       <r>   -1.0000    0.0000 </r>
       <r>   -0.2814    0.0000 </r>
       <r>    5.5053    0.0000 </r>
       <r>    6.0008    0.0000 </r>
      </set>
      <set comment="kpoint 230">
       <r>  -17.8276    1.0000 </r>
       <r>  -17.0605    1.0000 </r>
       <r>  -15.6299    1.0000 </r>
       <r>  -14.8812    1.0000 </r>
       <r>   -9.8155    1.0000 </r>
       <r>   -9.4057    1.0000 </r>
       <r>   -5.5534    1.0000 </r>
       <r>   -5.0015    1.0000 </r>
       <r>   -1.0668    0.0000 </r>
       <r>   -0.4630    0.0000 </r>
       <r>    5.1597    0.0000 </r>
       <r>    5.5752    0.0000 </r>
      </set>
      <set comment="kpoint 231">
       <r>  -17.6783    1.0000 </r>
       <r>  -16.9995    1.0000 </r>
       <r>  -15.8104    1.0000 </r>
       <r>  -15.1449    1.0000 </r>
       <r>   -9.5660    1.0000 </r>
       <r>   -9.2465    1.0000 </r>
       <r>   -5.4603    1.0000 </r>
       <r>   -5.0271    1.0000 </r>
       <r>   -1.1057    0.0000 </r>
       <r>   -0.6338    0.0000 </r>
       <r>    4.8914    0.0000 </r>
       <r>    5.2160    0.0000 </r>
      </set>
      <set comment="kpoint 232">
       <r>  -17.5183    1.0000 </r>
       <r>  -16.9947    1.0000 </r>
       <r>  -15.9019    1.0000 </r>
       <r>  -15.3869    1.0000 </r>
       <r>   -9.3630    1.0000 </r>
       <r>   -9.1436    1.0000 </r>
       <r>   -5.3670    1.0000 </r>
       <r>   -5.0682    1.0000 </r>
       <r>   -1.1113    0.0000 </r>
       <r>   -0.7868    0.0000 </r>
       <r>    4.7102    0.0000 </r>
       <r>    4.9334    0.0000 </r>
      </set>
      <set comment="kpoint 233">
       <r>  -17.3536    1.0000 </r>
       <r>  -17.0656    1.0000 </r>
       <r>  -15.8840    1.0000 </r>
       <r>  -15.6003    1.0000 </r>
       <r>   -9.2144    1.0000 </r>
       <r>   -9.1026    1.0000 </r>
       <r>   -5.2775    1.0000 </r>
       <r>   -5.1248    1.0000 </r>
       <r>   -1.0811    0.0000 </r>
       <r>   -0.9157    0.0000 </r>
       <r>    4.6225    0.0000 </r>
       <r>    4.7363    0.0000 </r>
      </set>
      <set comment="kpoint 234">
       <r>  -17.1956    1.0000 </r>
       <r>  -17.1956    1.0000 </r>
       <r>  -15.7732    1.0000 </r>
       <r>  -15.7732    1.0000 </r>
       <r>   -9.1264    1.0000 </r>
       <r>   -9.1264    1.0000 </r>
       <r>   -5.1955    1.0000 </r>
       <r>   -5.1955    1.0000 </r>
       <r>   -1.0152    0.0000 </r>
       <r>   -1.0152    0.0000 </r>
       <r>    4.6314    0.0000 </r>
       <r>    4.6314    0.0000 </r>
      </set>
      <set comment="kpoint 235">
       <r>  -17.9853    1.0000 </r>
       <r>  -17.9853    1.0000 </r>
       <r>  -13.2446    1.0000 </r>
       <r>  -13.2446    1.0000 </r>
       <r>  -11.6798    1.0000 </r>
       <r>  -11.6798    1.0000 </r>
       <r>   -5.5128    1.0000 </r>
       <r>   -5.5128    1.0000 </r>
       <r>    0.0429    0.0000 </r>
       <r>    0.0429    0.0000 </r>
       <r>    6.4241    0.0000 </r>
       <r>    6.4241    0.0000 </r>
      </set>
      <set comment="kpoint 236">
       <r>  -17.9760    1.0000 </r>
       <r>  -17.9760    1.0000 </r>
       <r>  -13.3308    1.0000 </r>
       <r>  -13.3308    1.0000 </r>
       <r>  -11.5909    1.0000 </r>
       <r>  -11.5909    1.0000 </r>
       <r>   -5.5072    1.0000 </r>
       <r>   -5.5072    1.0000 </r>
       <r>    0.0222    0.0000 </r>
       <r>    0.0222    0.0000 </r>
       <r>    6.4376    0.0000 </r>
       <r>    6.4376    0.0000 </r>
      </set>
      <set comment="kpoint 237">
       <r>  -17.9482    1.0000 </r>
       <r>  -17.9482    1.0000 </r>
       <r>  -13.5458    1.0000 </r>
       <r>  -13.5458    1.0000 </r>
       <r>  -11.3679    1.0000 </r>
       <r>  -11.3679    1.0000 </r>
       <r>   -5.4908    1.0000 </r>
       <r>   -5.4908    1.0000 </r>
       <r>   -0.0382    0.0000 </r>
       <r>   -0.0382    0.0000 </r>
       <r>    6.4779    0.0000 </r>
       <r>    6.4779    0.0000 </r>
      </set>
      <set comment="kpoint 238">
       <r>  -17.9022    1.0000 </r>
       <r>  -17.9022    1.0000 </r>
       <r>  -13.8235    1.0000 </r>
       <r>  -13.8235    1.0000 </r>
       <r>  -11.0786    1.0000 </r>
       <r>  -11.0786    1.0000 </r>
       <r>   -5.4643    1.0000 </r>
       <r>   -5.4643    1.0000 </r>
       <r>   -0.1330    0.0000 </r>
       <r>   -0.1330    0.0000 </r>
       <r>    6.5442    0.0000 </r>
       <r>    6.5442    0.0000 </r>
      </set>
      <set comment="kpoint 239">
       <r>  -17.8383    1.0000 </r>
       <r>  -17.8383    1.0000 </r>
       <r>  -14.1253    1.0000 </r>
       <r>  -14.1253    1.0000 </r>
       <r>  -10.7641    1.0000 </r>
       <r>  -10.7641    1.0000 </r>
       <r>   -5.4288    1.0000 </r>
       <r>   -5.4288    1.0000 </r>
       <r>   -0.2545    0.0000 </r>
       <r>   -0.2545    0.0000 </r>
       <r>    6.6320    0.0000 </r>
       <r>    6.6320    0.0000 </r>
      </set>
      <set comment="kpoint 240">
       <r>  -17.7573    1.0000 </r>
       <r>  -17.7573    1.0000 </r>
       <r>  -14.4322    1.0000 </r>
       <r>  -14.4322    1.0000 </r>
       <r>  -10.4469    1.0000 </r>
       <r>  -10.4469    1.0000 </r>
       <r>   -5.3862    1.0000 </r>
       <r>   -5.3862    1.0000 </r>
       <r>   -0.3935    0.0000 </r>
       <r>   -0.3935    0.0000 </r>
       <r>    6.6311    0.0000 </r>
       <r>    6.6311    0.0000 </r>
      </set>
      <set comment="kpoint 241">
       <r>  -17.6601    1.0000 </r>
       <r>  -17.6601    1.0000 </r>
       <r>  -14.7337    1.0000 </r>
       <r>  -14.7337    1.0000 </r>
       <r>  -10.1413    1.0000 </r>
       <r>  -10.1413    1.0000 </r>
       <r>   -5.3387    1.0000 </r>
       <r>   -5.3387    1.0000 </r>
       <r>   -0.5404    0.0000 </r>
       <r>   -0.5404    0.0000 </r>
       <r>    6.1835    0.0000 </r>
       <r>    6.1835    0.0000 </r>
      </set>
      <set comment="kpoint 242">
       <r>  -17.5487    1.0000 </r>
       <r>  -17.5487    1.0000 </r>
       <r>  -15.0231    1.0000 </r>
       <r>  -15.0231    1.0000 </r>
       <r>   -9.8589    1.0000 </r>
       <r>   -9.8589    1.0000 </r>
       <r>   -5.2892    1.0000 </r>
       <r>   -5.2892    1.0000 </r>
       <r>   -0.6854    0.0000 </r>
       <r>   -0.6854    0.0000 </r>
       <r>    5.7357    0.0000 </r>
       <r>    5.7357    0.0000 </r>
      </set>
      <set comment="kpoint 243">
       <r>  -17.4261    1.0000 </r>
       <r>  -17.4261    1.0000 </r>
       <r>  -15.2942    1.0000 </r>
       <r>  -15.2942    1.0000 </r>
       <r>   -9.6099    1.0000 </r>
       <r>   -9.6099    1.0000 </r>
       <r>   -5.2411    1.0000 </r>
       <r>   -5.2411    1.0000 </r>
       <r>   -0.8193    0.0000 </r>
       <r>   -0.8193    0.0000 </r>
       <r>    5.3472    0.0000 </r>
       <r>    5.3472    0.0000 </r>
      </set>
      <set comment="kpoint 244">
       <r>  -17.2980    1.0000 </r>
       <r>  -17.2980    1.0000 </r>
       <r>  -15.5393    1.0000 </r>
       <r>  -15.5393    1.0000 </r>
       <r>   -9.4039    1.0000 </r>
       <r>   -9.4039    1.0000 </r>
       <r>   -5.1982    1.0000 </r>
       <r>   -5.1982    1.0000 </r>
       <r>   -0.9337    0.0000 </r>
       <r>   -0.9337    0.0000 </r>
       <r>    5.0312    0.0000 </r>
       <r>    5.0312    0.0000 </r>
      </set>
      <set comment="kpoint 245">
       <r>  -17.1756    1.0000 </r>
       <r>  -17.1756    1.0000 </r>
       <r>  -15.7461    1.0000 </r>
       <r>  -15.7461    1.0000 </r>
       <r>   -9.2495    1.0000 </r>
       <r>   -9.2495    1.0000 </r>
       <r>   -5.1641    1.0000 </r>
       <r>   -5.1641    1.0000 </r>
       <r>   -1.0213    0.0000 </r>
       <r>   -1.0213    0.0000 </r>
       <r>    4.7976    0.0000 </r>
       <r>    4.7976    0.0000 </r>
      </set>
      <set comment="kpoint 246">
       <r>  -17.0797    1.0000 </r>
       <r>  -17.0797    1.0000 </r>
       <r>  -15.8929    1.0000 </r>
       <r>  -15.8929    1.0000 </r>
       <r>   -9.1537    1.0000 </r>
       <r>   -9.1537    1.0000 </r>
       <r>   -5.1421    1.0000 </r>
       <r>   -5.1421    1.0000 </r>
       <r>   -1.0764    0.0000 </r>
       <r>   -1.0764    0.0000 </r>
       <r>    4.6540    0.0000 </r>
       <r>    4.6540    0.0000 </r>
      </set>
      <set comment="kpoint 247">
       <r>  -17.0416    1.0000 </r>
       <r>  -17.0416    1.0000 </r>
       <r>  -15.9480    1.0000 </r>
       <r>  -15.9480    1.0000 </r>
       <r>   -9.1212    1.0000 </r>
       <r>   -9.1212    1.0000 </r>
       <r>   -5.1345    1.0000 </r>
       <r>   -5.1345    1.0000 </r>
       <r>   -1.0952    0.0000 </r>
       <r>   -1.0952    0.0000 </r>
       <r>    4.6056    0.0000 </r>
       <r>    4.6056    0.0000 </r>
      </set>
     </set>
    </set>
   </array>
  </eigenvalues>
  <separator name="orbital magnetization" >
   <v name="MAGDIPOLOUT">      0.00000000      0.00000000      0.00000000</v>
  </separator>
 </calculation>
 <structure name="finalpos" >
  <crystal>
   <varray name="basis" >
    <v>       4.26951375       0.00000000       0.00000000 </v>
    <v>       0.00000000       2.47926626       0.00000000 </v>
    <v>       0.00000000       0.00000000      19.91806278 </v>
   </varray>
   <i name="volume">    210.83790140 </i>
   <varray name="rec_basis" >
    <v>       0.23421871       0.00000000       0.00000000 </v>
    <v>       0.00000000       0.40334514       0.00000000 </v>
    <v>       0.00000000       0.00000000       0.05020569 </v>
   </varray>
  </crystal>
  <varray name="positions" >
   <v>       0.00012631      -0.00000000      -0.00000000 </v>
   <v>       0.16654035       0.50000000       0.00000000 </v>
   <v>       0.50012631       0.50000000      -0.00000000 </v>
   <v>       0.66654035       0.00000000       0.00000000 </v>
  </varray>
 </structure>
</modeling>
