gr                                      
           1
     4.269514    0.000000    0.000000
     0.000000    2.479266    0.000000
     0.000000    0.000000   19.918063
   C 
   4
Direct configuration=     1
   0.00013158  0.00000000  0.00000000
   0.16653509  0.50000000  0.00000000
   0.50013158  0.50000000  0.00000000
   0.66653509  0.00000000  0.00000000
Direct configuration=     2
   0.00010512  0.00000000  0.00000000
   0.16656155  0.50000000  0.00000000
   0.50010512  0.50000000  0.00000000
   0.66656155  0.00000000  0.00000000
Direct configuration=     3
   0.00012631  0.00000000 -0.00000000
   0.16654036  0.50000000  0.00000000
   0.50012631  0.50000000 -0.00000000
   0.66654036  0.00000000  0.00000000
Direct configuration=     4
   0.00012633  0.00000000 -0.00000000
   0.16654034  0.50000000  0.00000000
   0.50012633  0.50000000 -0.00000000
   0.66654034  0.00000000  0.00000000
Direct configuration=     5
   0.00012632  0.00000000 -0.00000000
   0.16654035  0.50000000  0.00000000
   0.50012632  0.50000000 -0.00000000
   0.66654035  0.00000000  0.00000000
Direct configuration=     6
   0.00012632 -0.00000000 -0.00000000
   0.16654035  0.50000000  0.00000000
   0.50012632  0.50000000 -0.00000000
   0.66654035  0.00000000  0.00000000
Direct configuration=     7
   0.00012632  0.00000000 -0.00000000
   0.16654034  0.50000000  0.00000000
   0.50012632  0.50000000 -0.00000000
   0.66654034 -0.00000000  0.00000000
Direct configuration=     8
   0.00012631 -0.00000000 -0.00000000
   0.16654035  0.50000000  0.00000000
   0.50012631  0.50000000 -0.00000000
   0.66654035  0.00000000  0.00000000
