    4    4  400    1
  0.5270948E+02  0.4402747E-09  0.2455320E-09  0.1950369E-08  0.5000000E-15
  1.000000000000000E-004
  CAR 
 gr                                      
     16    247     12
 
  0.0000000E+00  0.0000000E+00  0.0000000E+00  0.1157407E-02
    1      -22.043987
    2      -17.304376
    3      -15.799636
    4      -10.197095
    5       -8.733916
    6       -6.048376
    7       -5.717297
    8       -5.381431
    9       -1.205920
   10        0.549368
   11        1.346735
   12        1.742418
 
  0.4166667E-01  0.0000000E+00  0.0000000E+00  0.2314815E-02
    1      -22.034330
    2      -17.415063
    3      -15.674029
    4      -10.185654
    5       -8.724625
    6       -6.092985
    7       -5.736852
    8       -5.438574
    9       -1.133136
   10        0.562420
   11        1.359984
   12        1.755835
 
  0.8333333E-01  0.0000000E+00  0.0000000E+00  0.2314815E-02
    1      -22.005365
    2      -17.676321
    3      -15.368086
    4      -10.151349
    5       -8.696802
    6       -6.224624
    7       -5.794518
    8       -5.598744
    9       -0.926194
   10        0.601587
   11        1.399726
   12        1.796089
 
  0.1250000E+00  0.0000000E+00  0.0000000E+00  0.2314815E-02
    1      -21.957112
    2      -17.996877
    3      -14.973302
    4      -10.094239
    5       -8.650599
    6       -6.437156
    7       -5.887437
    8       -5.835894
    9       -0.611608
   10        0.666894
   11        1.465945
   12        1.863184
 
  0.1666667E+00  0.0000000E+00  0.0000000E+00  0.2314815E-02
    1      -21.889607
    2      -18.334198
    3      -14.532589
    4      -10.014422
    5       -8.586276
    6       -6.721648
    7       -6.122557
    8       -6.011315
    9       -0.217634
   10        0.758371
   11        1.558613
   12        1.957125
 
  0.2083333E+00  0.0000000E+00  0.0000000E+00  0.2314815E-02
    1      -21.802901
    2      -18.671098
    3      -14.063681
    4       -9.912042
    5       -8.504205
    6       -7.067738
    7       -6.436956
    8       -6.160952
    9        0.232808
   10        0.876037
   11        1.677685
   12        2.077918
 
  0.2500000E+00  0.0000000E+00  0.0000000E+00  0.2314815E-02
    1      -21.697061
    2      -18.999903
    3      -13.574976
    4       -9.787289
    5       -8.404887
    6       -7.464826
    7       -6.763800
    8       -6.330775
    9        0.722881
   10        1.019899
   11        1.823088
   12        2.225563
 
  0.2916667E+00  0.0000000E+00  0.0000000E+00  0.2314815E-02
    1      -21.572172
    2      -19.316726
    3      -13.071293
    4       -9.640414
    5       -8.288962
    6       -7.902907
    7       -7.092775
    8       -6.515264
    9        1.189943
   10        1.240230
   11        1.994709
   12        2.400060
 
  0.3333333E+00  0.0000000E+00  0.0000000E+00  0.2314815E-02
    1      -21.428341
    2      -19.619367
    3      -12.555993
    4       -9.471734
    5       -8.373002
    6       -8.157229
    7       -7.416929
    8       -6.709250
    9        1.386138
   10        1.775121
   11        2.192348
   12        2.601404
 
  0.3750000E+00  0.0000000E+00  0.0000000E+00  0.2314815E-02
    1      -21.265693
    2      -19.906462
    3      -12.031873
    4       -9.281648
    5       -8.867308
    6       -8.010675
    7       -7.731500
    8       -6.908070
    9        1.608440
   10        2.318436
   11        2.415627
   12        2.829589
 
  0.4166667E+00  0.0000000E+00  0.0000000E+00  0.2314815E-02
    1      -21.084386
    2      -20.177100
    3      -11.501588
    4       -9.379164
    5       -9.070655
    6       -8.033143
    7       -7.850504
    8       -7.107636
    9        1.856783
   10        2.663682
   11        2.856482
   12        3.084601
 
  0.4583333E+00  0.0000000E+00  0.0000000E+00  0.2314815E-02
    1      -20.884608
    2      -20.430634
    3      -10.967902
    4       -9.902934
    5       -8.839386
    6       -8.319449
    7       -7.678175
    8       -7.304425
    9        2.131082
   10        2.757057
   11        2.933919
   12        3.308694
 
  0.5000000E+00  0.0000000E+00  0.0000000E+00  0.1157407E-02
    1      -20.666594
    2      -20.666594
    3      -10.433860
    4      -10.433860
    5       -8.588643
    6       -8.588643
    7       -7.495444
    8       -7.495444
    9        2.431225
   10        2.431225
   11        3.213119
   12        3.213119
 
  0.0000000E+00  0.2777778E-01  0.0000000E+00  0.2314815E-02
    1      -22.030126
    2      -17.292317
    3      -15.787802
    4      -10.180666
    5       -8.797578
    6       -6.073654
    7       -5.776786
    8       -5.364735
    9       -1.208073
   10        0.568139
   11        1.365687
   12        1.761610
 
  0.4166667E-01  0.2777778E-01  0.0000000E+00  0.4629630E-02
    1      -22.020471
    2      -17.402894
    3      -15.662349
    4      -10.169229
    5       -8.788276
    6       -6.118691
    7       -5.795323
    8       -5.421985
    9       -1.135279
   10        0.581191
   11        1.378935
   12        1.775027
 
  0.8333333E-01  0.2777778E-01  0.0000000E+00  0.4629630E-02
    1      -21.991510
    2      -17.663939
    3      -15.356749
    4      -10.134935
    5       -8.760420
    6       -6.250708
    7       -5.850941
    8       -5.582412
    9       -0.928378
   10        0.620358
   11        1.418675
   12        1.815281
 
  0.1250000E+00  0.2777778E-01  0.0000000E+00  0.4629630E-02
    1      -21.943265
    2      -17.984286
    3      -14.962396
    4      -10.077844
    5       -8.714161
    6       -6.462383
    7       -5.942253
    8       -5.819840
    9       -0.614009
   10        0.685666
   11        1.484891
   12        1.882376
 
  0.1666667E+00  0.2777778E-01  0.0000000E+00  0.4629630E-02
    1      -21.875771
    2      -18.321424
    3      -14.522186
    4       -9.998054
    5       -8.649753
    6       -6.744612
    7       -6.106723
    8       -6.065481
    9       -0.220511
   10        0.777144
   11        1.577555
   12        1.976318
 
  0.2083333E+00  0.2777778E-01  0.0000000E+00  0.4629630E-02
    1      -21.789080
    2      -18.658164
    3      -14.053862
    4       -9.895707
    5       -8.567565
    6       -7.087475
    7       -6.421262
    8       -6.215295
    9        0.229174
   10        0.894813
   11        1.696622
   12        2.097112
 
  0.2500000E+00  0.2777778E-01  0.0000000E+00  0.4629630E-02
    1      -21.683259
    2      -18.986832
    3      -13.565840
    4       -9.770996
    5       -8.468088
    6       -7.480901
    7       -6.748172
    8       -6.385830
    9        0.718223
   10        1.038678
   11        1.842021
   12        2.244758
 
  0.2916667E+00  0.2777778E-01  0.0000000E+00  0.4629630E-02
    1      -21.558393
    2      -19.303536
    3      -13.062956
    4       -9.624170
    5       -8.351955
    6       -7.915277
    7       -7.077158
    8       -6.571309
    9        1.208727
   10        1.234317
   11        2.013638
   12        2.419257
 
  0.3333333E+00  0.2777778E-01  0.0000000E+00  0.4629630E-02
    1      -21.414589
    2      -19.606074
    3      -12.548595
    4       -9.455545
    5       -8.381867
    6       -8.219955
    7       -7.401286
    8       -6.766382
    9        1.404930
   10        1.767783
   11        2.211278
   12        2.620605
 
  0.3750000E+00  0.2777778E-01  0.0000000E+00  0.4629630E-02
    1      -21.251974
    2      -19.893080
    3      -12.025578
    4       -9.265521
    5       -8.872992
    6       -8.073064
    7       -7.715806
    8       -6.966272
    9        1.627239
   10        2.309673
   11        2.434564
   12        2.848793
 
  0.4166667E+00  0.2777778E-01  0.0000000E+00  0.4629630E-02
    1      -21.070704
    2      -20.163639
    3      -11.496591
    4       -9.382036
    5       -9.054596
    6       -8.017383
    7       -7.912470
    8       -7.166825
    9        1.875590
   10        2.682635
   11        2.847035
   12        3.103812
 
  0.4583333E+00  0.2777778E-01  0.0000000E+00  0.4629630E-02
    1      -20.870970
    2      -20.417107
    3      -10.964433
    4       -9.903363
    5       -8.823400
    6       -8.303615
    7       -7.739621
    8       -7.364489
    9        2.149900
   10        2.775913
   11        2.952872
   12        3.308644
 
  0.5000000E+00  0.2777778E-01  0.0000000E+00  0.2314815E-02
    1      -20.653007
    2      -20.653007
    3      -10.432187
    4      -10.432187
    5       -8.572732
    6       -8.572732
    7       -7.556260
    8       -7.556260
    9        2.450058
   10        2.450058
   11        3.231489
   12        3.231489
 
  0.0000000E+00  0.5555556E-01  0.0000000E+00  0.2314815E-02
    1      -21.988554
    2      -17.256144
    3      -15.752440
    4      -10.131414
    5       -8.983387
    6       -6.149162
    7       -5.950328
    8       -5.314669
    9       -1.215328
   10        0.624451
   11        1.422533
   12        1.819186
 
  0.4166667E-01  0.5555556E-01  0.0000000E+00  0.4629630E-02
    1      -21.978903
    2      -17.366394
    3      -15.627445
    4      -10.119988
    5       -8.974049
    6       -6.197355
    7       -5.963964
    8       -5.372251
    9       -1.142504
   10        0.637503
   11        1.435780
   12        1.832604
 
  0.8333333E-01  0.5555556E-01  0.0000000E+00  0.4629630E-02
    1      -21.949956
    2      -17.626807
    3      -15.322878
    4      -10.085729
    5       -8.946083
    6       -6.332870
    7       -6.011156
    8       -5.533465
    9       -0.935722
   10        0.676669
   11        1.475513
   12        1.872857
 
  0.1250000E+00  0.5555556E-01  0.0000000E+00  0.4629630E-02
    1      -21.901735
    2      -17.946530
    3      -14.929828
    4      -10.028696
    5       -8.899633
    6       -6.542853
    7       -6.096849
    8       -5.771748
    9       -0.622013
   10        0.741976
   11        1.541720
   12        1.939953
 
  0.1666667E+00  0.5555556E-01  0.0000000E+00  0.4629630E-02
    1      -21.834275
    2      -18.283117
    3      -14.491149
    4       -9.948986
    5       -8.834940
    6       -6.818253
    7       -6.218223
    8       -6.059302
    9       -0.229969
   10        0.833455
   11        1.634371
   12        2.033896
 
  0.2083333E+00  0.5555556E-01  0.0000000E+00  0.4629630E-02
    1      -21.747630
    2      -18.619380
    3      -14.024613
    4       -9.846742
    5       -8.752357
    6       -7.151007
    7       -6.374263
    8       -6.369033
    9        0.217401
   10        0.951127
   11        1.753423
   12        2.154691
 
  0.2500000E+00  0.5555556E-01  0.0000000E+00  0.4629630E-02
    1      -21.641864
    2      -18.947635
    3      -13.538681
    4       -9.722157
    5       -8.652352
    6       -7.532855
    7       -6.701374
    8       -6.542295
    9        0.703317
   10        1.095000
   11        1.898808
   12        2.302342
 
  0.2916667E+00  0.5555556E-01  0.0000000E+00  0.4629630E-02
    1      -21.517068
    2      -19.263982
    3      -13.038252
    4       -9.575479
    5       -8.535528
    6       -7.955497
    7       -7.030393
    8       -6.731346
    9        1.215559
   10        1.265060
   11        2.070415
   12        2.476847
 
  0.3333333E+00  0.5555556E-01  0.0000000E+00  0.4629630E-02
    1      -21.373346
    2      -19.566209
    3      -12.526780
    4       -9.407024
    5       -8.410994
    6       -8.402643
    7       -7.354438
    8       -6.930228
    9        1.461276
   10        1.744640
   11        2.268056
   12        2.678202
 
  0.3750000E+00  0.5555556E-01  0.0000000E+00  0.4629630E-02
    1      -21.210828
    2      -19.852946
    3      -12.007172
    4       -9.217189
    5       -8.892070
    6       -8.254630
    7       -7.668799
    8       -7.133800
    9        1.683601
   10        2.282056
   11        2.491363
   12        2.906400
 
  0.4166667E+00  0.5555556E-01  0.0000000E+00  0.4629630E-02
    1      -21.029671
    2      -20.123271
    3      -11.482209
    4       -9.392256
    5       -9.006471
    6       -8.092637
    7       -7.970172
    8       -7.337708
    9        1.931971
   10        2.739484
   11        2.816733
   12        3.161437
 
  0.4583333E+00  0.5555556E-01  0.0000000E+00  0.4629630E-02
    1      -20.830069
    2      -20.376536
    3      -10.954802
    4       -9.905908
    5       -8.775498
    6       -8.256178
    7       -7.918059
    8       -7.538315
    9        2.206303
   10        2.832392
   11        3.009722
   12        3.300154
 
  0.5000000E+00  0.5555556E-01  0.0000000E+00  0.2314815E-02
    1      -20.612259
    2      -20.612259
    3      -10.428155
    4      -10.428155
    5       -8.525061
    6       -8.525061
    7       -7.732598
    8       -7.732598
    9        2.506491
   10        2.506491
   11        3.286214
   12        3.286214
 
  0.0000000E+00  0.8333333E-01  0.0000000E+00  0.2314815E-02
    1      -21.919305
    2      -17.195868
    3      -15.693988
    4      -10.049446
    5       -9.277287
    6       -6.273898
    7       -6.224702
    8       -5.231298
    9       -1.230090
   10        0.718301
   11        1.517252
   12        1.915147
 
  0.4166667E-01  0.8333333E-01  0.0000000E+00  0.4629630E-02
    1      -21.909661
    2      -17.305590
    3      -15.569752
    4      -10.038039
    5       -9.267876
    6       -6.344582
    7       -6.213034
    8       -5.289467
    9       -1.157200
   10        0.731351
   11        1.530495
   12        1.928564
 
  0.8333333E-01  0.8333333E-01  0.0000000E+00  0.4629630E-02
    1      -21.880738
    2      -17.564968
    3      -15.266917
    4      -10.003840
    5       -9.239685
    6       -6.492004
    7       -6.240351
    8       -5.452064
    9       -0.950598
   10        0.770512
   11        1.570217
   12        1.968817
 
  0.1250000E+00  0.8333333E-01  0.0000000E+00  0.4629630E-02
    1      -21.832557
    2      -17.883661
    3      -14.876087
    4       -9.946905
    5       -9.192844
    6       -6.698731
    7       -6.317404
    8       -5.691833
    9       -0.638015
   10        0.835811
   11        1.636405
   12        2.035912
 
  0.1666667E+00  0.8333333E-01  0.0000000E+00  0.4629630E-02
    1      -21.765155
    2      -18.219332
    3      -14.440039
    4       -9.867333
    5       -9.127574
    6       -6.960932
    7       -6.437739
    8       -5.980548
    9       -0.248480
   10        0.927282
   11        1.729033
   12        2.129854
 
  0.2083333E+00  0.8333333E-01  0.0000000E+00  0.4629630E-02
    1      -21.678584
    2      -18.554799
    3      -13.976598
    4       -9.765267
    5       -9.044191
    6       -7.274529
    7       -6.592637
    8       -6.296229
    9        0.194889
   10        1.044950
   11        1.848057
   12        2.250651
 
  0.2500000E+00  0.8333333E-01  0.0000000E+00  0.4629630E-02
    1      -21.572914
    2      -18.882363
    3      -13.494312
    4       -9.640898
    5       -8.943120
    6       -7.634509
    7       -6.773034
    8       -6.623675
    9        0.675385
   10        1.188821
   11        1.993414
   12        2.398305
 
  0.2916667E+00  0.8333333E-01  0.0000000E+00  0.4629630E-02
    1      -21.448233
    2      -19.198111
    3      -12.998188
    4       -9.494475
    5       -8.824909
    6       -8.034993
    7       -6.970578
    8       -6.952739
    9        1.180951
   10        1.358885
   11        2.165000
   12        2.572816
 
  0.3333333E+00  0.8333333E-01  0.0000000E+00  0.4629630E-02
    1      -21.304648
    2      -19.499819
    3      -12.491817
    4       -9.326312
    5       -8.690243
    6       -8.469588
    7       -7.276630
    8       -7.178126
    9        1.555108
   10        1.702370
   11        2.362638
   12        2.774180
 
  0.3750000E+00  0.8333333E-01  0.0000000E+00  0.4629630E-02
    1      -21.142292
    2      -19.786104
    3      -11.978262
    4       -9.136803
    5       -8.931822
    6       -8.539974
    7       -7.590710
    8       -7.389821
    9        1.777443
   10        2.231738
   11        2.585982
   12        3.002391
 
  0.4166667E+00  0.8333333E-01  0.0000000E+00  0.4629630E-02
    1      -20.961324
    2      -20.056038
    3      -11.460498
    4       -9.415511
    5       -8.926442
    6       -8.375152
    7       -7.891727
    8       -7.600960
    9        2.025822
   10        2.760187
   11        2.834200
   12        3.257459
 
  0.4583333E+00  0.8333333E-01  0.0000000E+00  0.4629630E-02
    1      -20.761943
    2      -20.308962
    3      -10.941652
    4       -9.914983
    5       -8.695852
    6       -8.197063
    7       -8.177339
    8       -7.807784
    9        2.300164
   10        2.926287
   11        3.104446
   12        3.262211
 
  0.5000000E+00  0.8333333E-01  0.0000000E+00  0.2314815E-02
    1      -20.544389
    2      -20.544389
    3      -10.425180
    4      -10.425180
    5       -8.445816
    6       -8.445816
    7       -8.007290
    8       -8.007290
    9        2.600363
   10        2.600363
   11        3.375319
   12        3.375319
 
  0.0000000E+00  0.1111111E+00  0.0000000E+00  0.2314815E-02
    1      -21.822438
    2      -17.111511
    3      -15.613267
    4       -9.934943
    5       -9.659820
    6       -6.581991
    7       -6.446128
    8       -5.114734
    9       -1.256368
   10        0.849682
   11        1.649804
   12        2.049494
 
  0.4166667E-01  0.1111111E+00  0.0000000E+00  0.4629630E-02
    1      -21.812806
    2      -17.220528
    3      -15.490083
    4       -9.923566
    5       -9.650276
    6       -6.638344
    7       -6.445059
    8       -5.173800
    9       -1.183347
   10        0.862728
   11        1.663040
   12        2.062910
 
  0.8333333E-01  0.1111111E+00  0.0000000E+00  0.4629630E-02
    1      -21.783917
    2      -17.478502
    3      -15.189709
    4       -9.889453
    5       -9.621681
    6       -6.775081
    7       -6.472429
    8       -5.338492
    9       -0.976947
   10        0.901875
   11        1.702744
   12        2.103160
 
  0.1250000E+00  0.1111111E+00  0.0000000E+00  0.4629630E-02
    1      -21.735792
    2      -17.795771
    3      -14.802101
    4       -9.832663
    5       -9.574138
    6       -6.967338
    7       -6.547932
    8       -5.580490
    9       -0.665972
   10        0.967153
   11        1.768902
   12        2.170251
 
  0.1666667E+00  0.1111111E+00  0.0000000E+00  0.4629630E-02
    1      -21.668470
    2      -18.130163
    3      -14.369938
    4       -9.753293
    5       -9.507827
    6       -7.207159
    7       -6.671247
    8       -5.870914
    9       -0.280108
   10        1.058599
   11        1.861489
   12        2.264190
 
  0.2083333E+00  0.1111111E+00  0.0000000E+00  0.4629630E-02
    1      -21.582005
    2      -18.464510
    3      -13.911122
    4       -9.651487
    5       -9.423004
    6       -7.490809
    7       -6.835316
    8       -6.187640
    9        0.157381
   10        1.176240
   11        1.980465
   12        2.384984
 
  0.2500000E+00  0.1111111E+00  0.0000000E+00  0.4629630E-02
    1      -21.476468
    2      -18.791102
    3      -13.434344
    4       -9.527435
    5       -9.320012
    6       -7.815834
    7       -7.030135
    8       -6.515553
    9        0.629906
   10        1.320088
   11        2.125773
   12        2.532638
 
  0.2916667E+00  0.1111111E+00  0.0000000E+00  0.4629630E-02
    1      -21.351947
    2      -19.106005
    3      -12.944796
    4       -9.381385
    5       -9.199290
    6       -8.179715
    7       -7.245075
    8       -6.844658
    9        1.125638
   10        1.490133
   11        2.297317
   12        2.707152
 
  0.3333333E+00  0.1111111E+00  0.0000000E+00  0.4629630E-02
    1      -21.208556
    2      -19.406980
    3      -12.446300
    4       -9.213650
    5       -9.061385
    6       -8.579022
    7       -7.470602
    8       -7.168300
    9        1.635692
   10        1.686342
   11        2.494941
   12        2.908523
 
  0.3750000E+00  0.1111111E+00  0.0000000E+00  0.4629630E-02
    1      -21.046427
    2      -19.692628
    3      -11.942208
    4       -9.024620
    5       -9.009203
    6       -8.906974
    7       -7.699134
    8       -7.481948
    9        1.908662
   10        2.152776
   11        2.718335
   12        3.136743
 
  0.4166667E+00  0.1111111E+00  0.0000000E+00  0.4629630E-02
    1      -20.865726
    2      -19.962010
    3      -11.435842
    4       -9.464924
    5       -8.814787
    6       -8.736894
    7       -7.925062
    8       -7.782426
    9        2.157023
   10        2.669850
   11        2.966719
   12        3.391846
 
  0.4583333E+00  0.1111111E+00  0.0000000E+00  0.4629630E-02
    1      -20.666656
    2      -20.214454
    3      -10.930747
    4       -9.940605
    5       -8.584762
    6       -8.552178
    7       -8.144360
    8       -8.067448
    9        2.431339
   10        3.057384
   11        3.175234
   12        3.236992
 
  0.5000000E+00  0.1111111E+00  0.0000000E+00  0.2314815E-02
    1      -20.449463
    2      -20.449463
    3      -10.430861
    4      -10.430861
    5       -8.354118
    6       -8.354118
    7       -8.335320
    8       -8.335320
    9        2.731503
   10        2.731503
   11        3.486906
   12        3.486907
 
  0.0000000E+00  0.1388889E+00  0.0000000E+00  0.2314815E-02
    1      -21.698040
    2      -17.003103
    3      -15.511659
    4      -10.109700
    5       -9.788169
    6       -7.003304
    7       -6.663345
    8       -4.965138
    9       -1.299730
   10        1.018580
   11        1.820127
   12        2.222226
 
  0.4166667E-01  0.1388889E+00  0.0000000E+00  0.4629630E-02
    1      -21.688422
    2      -17.111278
    3      -15.389819
    4      -10.099928
    5       -9.776831
    6       -7.048969
    7       -6.668505
    8       -5.025504
    9       -1.226449
   10        1.031617
   11        1.833353
   12        2.235640
 
  0.8333333E-01  0.1388889E+00  0.0000000E+00  0.4629630E-02
    1      -21.659576
    2      -17.367526
    3      -15.092692
    4      -10.070635
    5       -9.742837
    6       -7.171741
    7       -6.697051
    8       -5.193203
    9       -1.020167
   10        1.070741
   11        1.873027
   12        2.275886
 
  0.1250000E+00  0.1388889E+00  0.0000000E+00  0.4629630E-02
    1      -21.611524
    2      -17.682999
    3      -14.709484
    4      -10.021880
    5       -9.686243
    6       -7.349958
    7       -6.767102
    8       -5.438338
    9       -0.711267
   10        1.135980
   11        1.939136
   12        2.342969
 
  0.1666667E+00  0.1388889E+00  0.0000000E+00  0.4629630E-02
    1      -21.544307
    2      -18.015752
    3      -14.282756
    4       -9.953766
    5       -9.607149
    6       -7.570156
    7       -6.886096
    8       -5.731121
    9       -0.330345
   10        1.227373
   11        2.031655
   12        2.436898
 
  0.2083333E+00  0.1388889E+00  0.0000000E+00  0.4629630E-02
    1      -21.457979
    2      -18.348653
    3      -13.830534
    4       -9.866433
    5       -9.505698
    6       -7.825226
    7       -7.052701
    8       -6.049246
    9        0.099169
   10        1.344956
   11        2.150550
   12        2.557683
 
  0.2500000E+00  0.1388889E+00  0.0000000E+00  0.4629630E-02
    1      -21.352612
    2      -18.673982
    3      -13.361744
    4       -9.760062
    5       -9.382080
    6       -8.111919
    7       -7.259739
    8       -6.377749
    9        0.560880
   10        1.488745
   11        2.295768
   12        2.705329
 
  0.2916667E+00  0.1388889E+00  0.0000000E+00  0.4629630E-02
    1      -21.228300
    2      -18.987788
    3      -12.881903
    4       -9.634869
    5       -9.236541
    6       -8.429480
    7       -7.496272
    8       -6.706857
    9        1.043278
   10        1.658735
   11        2.467229
   12        2.879839
 
  0.3333333E+00  0.1388889E+00  0.0000000E+00  0.4629630E-02
    1      -21.085158
    2      -19.287808
    3      -12.395255
    4       -9.491107
    5       -9.069392
    6       -8.778333
    7       -7.749768
    8       -7.030112
    9        1.537871
   10        1.854892
   11        2.664804
   12        3.081211
 
  0.3750000E+00  0.1388889E+00  0.0000000E+00  0.4629630E-02
    1      -20.923323
    2      -19.572627
    3      -11.905689
    4       -9.329069
    5       -9.158514
    6       -8.881022
    7       -8.008408
    8       -7.343129
    9        2.037930
   10        2.077158
   11        2.888249
   12        3.309436
 
  0.4166667E+00  0.1388889E+00  0.0000000E+00  0.4629630E-02
    1      -20.742969
    2      -19.841290
    3      -11.417205
    4       -9.568396
    5       -9.149096
    6       -8.671915
    7       -8.262892
    8       -7.642839
    9        2.325459
   10        2.537618
   11        3.136906
   12        3.564631
 
  0.4583333E+00  0.1388889E+00  0.0000000E+00  0.4629630E-02
    1      -20.544303
    2      -20.093111
    3      -10.934172
    4      -10.004371
    5       -8.951617
    6       -8.507036
    7       -8.442673
    8       -7.927029
    9        2.599699
   10        3.030791
   11        3.225516
   12        3.407223
 
  0.5000000E+00  0.1388889E+00  0.0000000E+00  0.2314815E-02
    1      -20.327579
    2      -20.327579
    3      -10.461455
    4      -10.461455
    5       -8.737252
    6       -8.737252
    7       -8.194056
    8       -8.194056
    9        2.899765
   10        2.899765
   11        3.495326
   12        3.495329
 
  0.0000000E+00  0.1666667E+00  0.0000000E+00  0.2314815E-02
    1      -21.546225
    2      -16.870686
    3      -15.391465
    4      -10.606107
    5       -9.609476
    6       -7.471261
    7       -6.922253
    8       -4.782718
    9       -1.367108
   10        1.224968
   11        2.028137
   12        2.433344
 
  0.4166667E-01  0.1666667E+00  0.0000000E+00  0.4629630E-02
    1      -21.536625
    2      -16.977940
    3      -15.271268
    4      -10.595945
    5       -9.598190
    6       -7.514795
    7       -6.924575
    8       -4.844949
    9       -1.293311
   10        1.237994
   11        2.041347
   12        2.446756
 
  0.8333333E-01  0.1666667E+00  0.0000000E+00  0.4629630E-02
    1      -21.507832
    2      -17.232215
    3      -14.978316
    4      -10.565453
    5       -9.564350
    6       -7.633693
    7       -6.942649
    8       -5.016890
    9       -1.086833
   10        1.277082
   11        2.080971
   12        2.486994
 
  0.1250000E+00  0.1666667E+00  0.0000000E+00  0.4629630E-02
    1      -21.459870
    2      -17.545550
    3      -14.601042
    4      -10.514603
    5       -9.508016
    6       -7.806842
    7       -6.995623
    8       -5.266335
    9       -0.780357
   10        1.342261
   11        2.146997
   12        2.554063
 
  0.1666667E+00  0.1666667E+00  0.0000000E+00  0.4629630E-02
    1      -21.392780
    2      -17.876307
    3      -14.181897
    4      -10.443339
    5       -9.429286
    6       -8.018137
    7       -7.095855
    8       -5.562256
    9       -0.405699
   10        1.433570
   11        2.239401
   12        2.647973
 
  0.2083333E+00  0.1666667E+00  0.0000000E+00  0.4629630E-02
    1      -21.306619
    2      -18.207425
    3      -13.739137
    4      -10.351560
    5       -9.328302
    6       -8.257569
    7       -7.247454
    8       -5.882166
    9        0.013575
   10        1.551051
   11        2.358150
   12        2.768736
 
  0.2500000E+00  0.1666667E+00  0.0000000E+00  0.4629630E-02
    1      -21.201463
    2      -18.531190
    3      -13.282121
    4      -10.239096
    5       -9.205257
    6       -8.519367
    7       -7.448109
    8       -6.211354
    9        0.461407
   10        1.694731
   11        2.503194
   12        2.916361
 
  0.2916667E+00  0.1666667E+00  0.0000000E+00  0.4629630E-02
    1      -21.077407
    2      -18.843631
    3      -12.816985
    4      -10.105671
    5       -9.060394
    6       -8.800889
    7       -7.690603
    8       -6.540369
    9        0.926755
   10        1.864612
   11        2.674469
   12        3.090856
 
  0.3333333E+00  0.1666667E+00  0.0000000E+00  0.4629630E-02
    1      -20.934572
    2      -19.142466
    3      -12.348811
    4       -9.950862
    5       -9.102115
    6       -8.894024
    7       -7.964030
    8       -6.863024
    9        1.401629
   10        2.060665
   11        2.871882
   12        3.292218
 
  0.3750000E+00  0.1666667E+00  0.0000000E+00  0.4629630E-02
    1      -20.773102
    2      -19.426255
    3      -11.882582
    4       -9.774065
    5       -9.425134
    6       -8.706531
    7       -8.255108
    8       -7.175135
    9        1.879865
   10        2.282829
   11        3.095285
   12        3.520442
 
  0.4166667E+00  0.1666667E+00  0.0000000E+00  0.4629630E-02
    1      -20.593177
    2      -19.694022
    3      -11.423637
    4       -9.773087
    5       -9.574522
    6       -8.549914
    7       -8.498393
    8       -7.473773
    9        2.356402
   10        2.531017
   11        3.344334
   12        3.775524
 
  0.4583333E+00  0.1666667E+00  0.0000000E+00  0.4629630E-02
    1      -20.395011
    2      -19.945069
    3      -10.977784
    4      -10.148387
    5       -9.351502
    6       -8.836096
    7       -8.270201
    8       -7.756820
    9        2.805124
   10        2.826816
   11        3.430547
   12        3.613466
 
  0.5000000E+00  0.1666667E+00  0.0000000E+00  0.2314815E-02
    1      -20.178868
    2      -20.178868
    3      -10.550975
    4      -10.550975
    5       -9.104852
    6       -9.104852
    7       -8.022698
    8       -8.022698
    9        3.105019
   10        3.105019
   11        3.286768
   12        3.286768
 