gr                                      
           1
     4.402747    0.000000    0.000000
     0.000000    2.455320    0.000000
     0.000000    0.000000   19.503688
   C 
   4
Direct configuration=     1
   0.99938979  0.00000000  0.00000000
   0.16727688  0.50000000  0.00000000
   0.49938979  0.50000000  0.00000000
   0.66727688  0.00000000  0.00000000
Direct configuration=     2
   0.99937802 -0.00000000  0.00000000
   0.16728864  0.50000000  0.00000000
   0.49937802  0.50000000  0.00000000
   0.66728864  0.00000000  0.00000000
Direct configuration=     3
   0.99938722 -0.00000000 -0.00000000
   0.16727945  0.50000000  0.00000000
   0.49938722  0.50000000 -0.00000000
   0.66727945  0.00000000  0.00000000
Direct configuration=     4
   0.99938723  0.00000000  0.00000000
   0.16727943  0.50000000 -0.00000000
   0.49938723  0.50000000  0.00000000
   0.66727943  0.00000000 -0.00000000
Direct configuration=     5
   0.99938722  0.00000000  0.00000000
   0.16727944  0.50000000 -0.00000000
   0.49938722  0.50000000  0.00000000
   0.66727944  0.00000000 -0.00000000
