    4    4  400    1
  0.5270948E+02  0.4252010E-09  0.2540828E-09  0.1951547E-08  0.5000000E-15
  1.000000000000000E-004
  CAR 
 gr                                      
     16    247     12
 
  0.0000000E+00  0.0000000E+00  0.0000000E+00  0.1157407E-02
    1      -22.048862
    2      -16.645094
    3      -15.845703
    4      -10.200860
    5       -9.527130
    6       -6.022801
    7       -5.739301
    8       -4.865932
    9       -1.159687
   10        0.548754
   11        1.346238
   12        1.741681
 
  0.4166667E-01  0.0000000E+00  0.0000000E+00  0.2314815E-02
    1      -22.038467
    2      -16.848440
    3      -15.627404
    4      -10.188540
    5       -9.516676
    6       -6.046770
    7       -5.778985
    8       -4.936868
    9       -1.074192
   10        0.562834
   11        1.360455
   12        1.756079
 
  0.8333333E-01  0.0000000E+00  0.0000000E+00  0.2314815E-02
    1      -22.007289
    2      -17.220648
    3      -15.210428
    4      -10.151597
    5       -9.485360
    6       -6.117280
    7       -5.896640
    8       -5.131996
    9       -0.835561
   10        0.605070
   11        1.403100
   12        1.799274
 
  0.1250000E+00  0.0000000E+00  0.0000000E+00  0.2314815E-02
    1      -21.955346
    2      -17.616459
    3      -14.740323
    4      -10.090089
    5       -9.433334
    6       -6.230395
    7       -6.088266
    8       -5.413310
    9       -0.482337
   10        0.675458
   11        1.474163
   12        1.871266
 
  0.1666667E+00  0.0000000E+00  0.0000000E+00  0.2314815E-02
    1      -21.882674
    2      -18.007920
    3      -14.245527
    4      -10.004113
    5       -9.360853
    6       -6.380300
    7       -6.347797
    8       -5.745050
    9       -0.051180
   10        0.773985
   11        1.573624
   12        1.972053
 
  0.2083333E+00  0.0000000E+00  0.0000000E+00  0.2314815E-02
    1      -21.789323
    2      -18.387368
    3      -13.734406
    4       -9.893808
    5       -9.268286
    6       -6.667808
    7       -6.560125
    8       -6.101917
    9        0.431353
   10        0.900636
   11        1.701455
   12        2.101633
 
  0.2500000E+00  0.0000000E+00  0.0000000E+00  0.2314815E-02
    1      -21.675356
    2      -18.751759
    3      -13.210928
    4       -9.759362
    5       -9.156127
    6       -7.040233
    7       -6.762718
    8       -6.467697
    9        0.947418
   10        1.055385
   11        1.857614
   12        2.260002
 
  0.2916667E+00  0.0000000E+00  0.0000000E+00  0.2314815E-02
    1      -21.540856
    2      -19.099542
    3      -12.677820
    4       -9.601017
    5       -9.025014
    6       -7.456944
    7       -6.981213
    8       -6.832149
    9        1.238198
   10        1.484751
   11        2.042039
   12        2.447154
 
  0.3333333E+00  0.0000000E+00  0.0000000E+00  0.2314815E-02
    1      -21.385918
    2      -19.429775
    3      -12.137479
    4       -9.419078
    5       -8.875748
    6       -7.910167
    7       -7.209365
    8       -7.188660
    9        1.449026
   10        2.034261
   11        2.254641
   12        2.663078
 
  0.3750000E+00  0.0000000E+00  0.0000000E+00  0.2314815E-02
    1      -21.210656
    2      -19.741812
    3      -11.592321
    4       -9.213927
    5       -8.709326
    6       -8.392735
    7       -7.532812
    8       -7.441708
    9        1.687805
   10        2.495270
   11        2.588329
   12        2.907752
 
  0.4166667E+00  0.0000000E+00  0.0000000E+00  0.2314815E-02
    1      -21.015207
    2      -20.035171
    3      -11.044954
    4       -8.986036
    5       -8.898195
    6       -8.526972
    7       -7.861546
    8       -7.673568
    9        1.954440
   10        2.763642
   11        3.138182
   12        3.181129
 
  0.4583333E+00  0.0000000E+00  0.0000000E+00  0.2314815E-02
    1      -20.799729
    2      -20.309473
    3      -10.498296
    4       -9.420838
    5       -8.736000
    6       -8.330184
    7       -8.172669
    8       -7.901019
    9        2.248783
   10        2.919184
   11        3.059011
   12        3.483069
 
  0.5000000E+00  0.0000000E+00  0.0000000E+00  0.1157407E-02
    1      -20.564412
    2      -20.564412
    3       -9.955659
    4       -9.955659
    5       -8.464562
    6       -8.464562
    7       -8.120791
    8       -8.120791
    9        2.570568
   10        2.570568
   11        3.377943
   12        3.377943
 
  0.0000000E+00  0.2777778E-01  0.0000000E+00  0.2314815E-02
    1      -22.035970
    2      -16.633950
    3      -15.835568
    4      -10.185580
    5       -9.584694
    6       -6.075878
    7       -5.771777
    8       -4.850342
    9       -1.166243
   10        0.566178
   11        1.363923
   12        1.759587
 
  0.4166667E-01  0.2777778E-01  0.0000000E+00  0.4629630E-02
    1      -22.025576
    2      -16.837218
    3      -15.617411
    4      -10.173264
    5       -9.574205
    6       -6.102635
    7       -5.807929
    8       -4.921462
    9       -1.080696
   10        0.580260
   11        1.378138
   12        1.773986
 
  0.8333333E-01  0.2777778E-01  0.0000000E+00  0.4629630E-02
    1      -21.994401
    2      -17.209237
    3      -15.200819
    4      -10.136335
    5       -9.542786
    6       -6.182308
    7       -5.914326
    8       -5.117001
    9       -0.842057
   10        0.622501
   11        1.420780
   12        1.817182
 
  0.1250000E+00  0.2777778E-01  0.0000000E+00  0.4629630E-02
    1      -21.942466
    2      -17.604846
    3      -14.731249
    4      -10.074850
    5       -9.490579
    6       -6.314616
    7       -6.083667
    8       -5.398717
    9       -0.489105
   10        0.692897
   11        1.491837
   12        1.889176
 
  0.1666667E+00  0.2777778E-01  0.0000000E+00  0.4629630E-02
    1      -21.869804
    2      -17.996121
    3      -14.237125
    4       -9.988906
    5       -9.417831
    6       -6.505143
    7       -6.298929
    8       -5.730735
    9       -0.058612
   10        0.791436
   11        1.591290
   12        1.989965
 
  0.2083333E+00  0.2777778E-01  0.0000000E+00  0.4629630E-02
    1      -21.776468
    2      -18.375405
    3      -13.726827
    4       -9.878642
    5       -9.324893
    6       -6.768772
    7       -6.531348
    8       -6.087748
    9        0.422855
   10        0.918099
   11        1.719110
   12        2.119547
 
  0.2500000E+00  0.2777778E-01  0.0000000E+00  0.4629630E-02
    1      -21.662518
    2      -18.739654
    3      -13.204352
    4       -9.744247
    5       -9.212240
    6       -7.107314
    7       -6.764196
    8       -6.453574
    9        0.937491
   10        1.072862
   11        1.875256
   12        2.277920
 
  0.2916667E+00  0.2777778E-01  0.0000000E+00  0.4629630E-02
    1      -21.528040
    2      -19.087314
    3      -12.672469
    4       -9.585963
    5       -9.080478
    6       -7.503929
    7       -6.999497
    8       -6.818004
    9        1.255690
   10        1.473077
   11        2.059668
   12        2.465076
 
  0.3333333E+00  0.2777778E-01  0.0000000E+00  0.4629630E-02
    1      -21.373127
    2      -19.417440
    3      -12.133627
    4       -9.404094
    5       -8.930372
    6       -7.943804
    7       -7.238123
    8       -7.174449
    9        1.466535
   10        2.020586
   11        2.272256
   12        2.681006
 
  0.3750000E+00  0.2777778E-01  0.0000000E+00  0.4629630E-02
    1      -21.197897
    2      -19.729386
    3      -11.590311
    4       -9.199021
    5       -8.762865
    6       -8.416734
    7       -7.518510
    8       -7.477645
    9        1.705334
   10        2.512876
   11        2.572520
   12        2.925690
 
  0.4166667E+00  0.2777778E-01  0.0000000E+00  0.4629630E-02
    1      -21.002484
    2      -20.022666
    3      -11.045221
    4       -8.971219
    5       -8.914908
    6       -8.579118
    7       -7.847141
    8       -7.714719
    9        1.971993
   10        2.781250
   11        3.120599
   12        3.199085
 
  0.4583333E+00  0.2777778E-01  0.0000000E+00  0.4629630E-02
    1      -20.787048
    2      -20.296900
    3      -10.501389
    4       -9.431904
    5       -8.721278
    6       -8.380540
    7       -8.158156
    8       -7.946080
    9        2.266375
   10        2.937026
   11        3.076654
   12        3.501073
 
  0.5000000E+00  0.2777778E-01  0.0000000E+00  0.2314815E-02
    1      -20.551781
    2      -20.551781
    3       -9.962282
    4       -9.962282
    5       -8.449942
    6       -8.449942
    7       -8.168840
    8       -8.168840
    9        2.588232
   10        2.588232
   11        3.395639
   12        3.395639
 
  0.0000000E+00  0.5555556E-01  0.0000000E+00  0.2314815E-02
    1      -21.997303
    2      -16.600522
    3      -15.805384
    4      -10.139770
    5       -9.752606
    6       -6.230988
    7       -5.868120
    8       -4.803589
    9       -1.186680
   10        0.618462
   11        1.416970
   12        1.813309
 
  0.4166667E-01  0.5555556E-01  0.0000000E+00  0.4629630E-02
    1      -21.986913
    2      -16.803580
    3      -15.587635
    4      -10.127468
    5       -9.742008
    6       -6.263883
    7       -5.895974
    8       -4.875283
    9       -1.100967
   10        0.632547
   11        1.431181
   12        1.827708
 
  0.8333333E-01  0.5555556E-01  0.0000000E+00  0.4629630E-02
    1      -21.955752
    2      -17.175040
    3      -15.172206
    4      -10.090581
    5       -9.710255
    6       -6.360343
    7       -5.979480
    8       -5.072090
    9       -0.862285
   10        0.674801
   11        1.473811
   12        1.870907
 
  0.1250000E+00  0.5555556E-01  0.0000000E+00  0.4629630E-02
    1      -21.903838
    2      -17.570041
    3      -14.704282
    4      -10.029165
    5       -9.657469
    6       -6.515176
    7       -6.117240
    8       -5.355034
    9       -0.510147
   10        0.745217
   11        1.544850
   12        1.942904
 
  0.1666667E+00  0.5555556E-01  0.0000000E+00  0.4629630E-02
    1      -21.831208
    2      -17.960756
    3      -14.212233
    4       -9.943319
    5       -9.583860
    6       -6.723261
    7       -6.304204
    8       -5.687897
    9       -0.081672
   10        0.843784
   11        1.644277
   12        2.043699
 
  0.2083333E+00  0.5555556E-01  0.0000000E+00  0.4629630E-02
    1      -21.737913
    2      -18.339545
    3      -13.704490
    4       -9.833182
    5       -9.489728
    6       -6.981858
    7       -6.530427
    8       -6.045354
    9        0.396559
   10        0.970480
   11        1.772064
   12        2.173289
 
  0.2500000E+00  0.5555556E-01  0.0000000E+00  0.4629630E-02
    1      -21.624017
    2      -18.703364
    3      -13.185146
    4       -9.698942
    5       -9.375472
    6       -7.290644
    7       -6.782217
    8       -6.411314
    9        0.906852
   10        1.125281
   11        1.928170
   12        2.331671
 
  0.2916667E+00  0.5555556E-01  0.0000000E+00  0.4629630E-02
    1      -21.489603
    2      -19.050652
    3      -12.657104
    4       -9.540841
    5       -9.241601
    6       -7.649013
    7       -7.045910
    8       -6.775669
    9        1.308148
   10        1.437133
   11        2.112537
   12        2.518839
 
  0.3333333E+00  0.5555556E-01  0.0000000E+00  0.4629630E-02
    1      -21.334768
    2      -19.380457
    3      -12.122994
    4       -9.359185
    5       -9.088743
    6       -8.053235
    7       -7.311539
    8       -7.131908
    9        1.519036
   10        1.978557
   11        2.325080
   12        2.734785
 
  0.3750000E+00  0.5555556E-01  0.0000000E+00  0.4629630E-02
    1      -21.159631
    2      -19.692127
    3      -11.585535
    4       -9.154353
    5       -8.917667
    6       -8.496556
    7       -7.573260
    8       -7.475689
    9        1.757884
   10        2.523945
   11        2.565667
   12        2.979492
 
  0.4166667E+00  0.5555556E-01  0.0000000E+00  0.4629630E-02
    1      -20.964327
    2      -19.985170
    3      -11.047735
    4       -8.971158
    5       -8.926818
    6       -8.729294
    7       -7.827648
    8       -7.804001
    9        2.024605
   10        2.834044
   11        3.066150
   12        3.252930
 
  0.4583333E+00  0.5555556E-01  0.0000000E+00  0.4629630E-02
    1      -20.749020
    2      -20.259199
    3      -10.513032
    4       -9.469617
    5       -8.677169
    6       -8.524716
    7       -8.114687
    8       -8.072292
    9        2.319078
   10        2.990287
   11        3.129554
   12        3.555115
 
  0.5000000E+00  0.5555556E-01  0.0000000E+00  0.2314815E-02
    1      -20.513903
    2      -20.513903
    3       -9.985425
    4       -9.985425
    5       -8.406146
    6       -8.406146
    7       -8.305219
    8       -8.305219
    9        2.641103
   10        2.641103
   11        3.448719
   12        3.448719
 
  0.0000000E+00  0.8333333E-01  0.0000000E+00  0.2314815E-02
    1      -21.932899
    2      -16.544822
    3      -15.755857
    4      -10.063527
    5      -10.017810
    6       -6.476974
    7       -6.025201
    8       -4.725731
    9       -1.223291
   10        0.705632
   11        1.505357
   12        1.902850
 
  0.4166667E-01  0.8333333E-01  0.0000000E+00  0.4629630E-02
    1      -21.922517
    2      -16.747609
    3      -15.538736
    4      -10.051248
    5      -10.007004
    6       -6.516298
    7       -6.043244
    8       -4.798445
    9       -1.137255
   10        0.719721
   11        1.519562
   12        1.917251
 
  0.8333333E-01  0.8333333E-01  0.0000000E+00  0.4629630E-02
    1      -21.891377
    2      -17.118173
    3      -15.125288
    4      -10.014433
    5       -9.974615
    6       -6.627980
    7       -6.101920
    8       -4.997484
    9       -0.898431
   10        0.761988
   11        1.562171
   12        1.960452
 
  0.1250000E+00  0.8333333E-01  0.0000000E+00  0.4629630E-02
    1      -21.839501
    2      -17.512157
    3      -14.660245
    4       -9.953136
    5       -9.920725
    6       -6.798956
    7       -6.209153
    8       -5.282567
    9       -0.547640
   10        0.832426
   11        1.633175
   12        2.032454
 
  0.1666667E+00  0.8333333E-01  0.0000000E+00  0.4629630E-02
    1      -21.766925
    2      -17.901927
    3      -14.171877
    4       -9.867458
    5       -9.845469
    6       -7.017269
    7       -6.368637
    8       -5.616880
    9       -0.122595
   10        0.931023
   11        1.732554
   12        2.133255
 
  0.2083333E+00  0.8333333E-01  0.0000000E+00  0.4629630E-02
    1      -21.673699
    2      -18.279878
    3      -13.668713
    4       -9.757537
    5       -9.749037
    6       -7.274737
    7       -6.577734
    8       -5.975080
    9        0.350118
   10        1.057759
   11        1.860278
   12        2.262855
 
  0.2500000E+00  0.8333333E-01  0.0000000E+00  0.4629630E-02
    1      -21.559892
    2      -18.642969
    3      -13.155041
    4       -9.631672
    5       -9.623563
    6       -7.567097
    7       -6.828172
    8       -6.341249
    9        0.853012
   10        1.212605
   11        2.016307
   12        2.421249
 
  0.2916667E+00  0.8333333E-01  0.0000000E+00  0.4629630E-02
    1      -21.425587
    2      -18.989627
    3      -12.634042
    4       -9.493665
    5       -9.465778
    6       -7.893495
    7       -7.107485
    8       -6.705454
    9        1.374266
   10        1.395524
   11        2.200587
   12        2.608432
 
  0.3333333E+00  0.8333333E-01  0.0000000E+00  0.4629630E-02
    1      -21.270883
    2      -19.318891
    3      -12.108719
    4       -9.335351
    5       -9.284486
    6       -8.255182
    7       -7.401190
    8       -7.061323
    9        1.606467
   10        1.905321
   11        2.413039
   12        2.824398
 
  0.3750000E+00  0.8333333E-01  0.0000000E+00  0.4629630E-02
    1      -21.095901
    2      -19.630093
    3      -11.582291
    4       -9.157095
    5       -9.080068
    6       -8.653158
    7       -7.695796
    8       -7.404608
    9        1.845373
   10        2.439423
   11        2.653547
   12        3.069133
 
  0.4166667E+00  0.8333333E-01  0.0000000E+00  0.4629630E-02
    1      -20.900781
    2      -19.922735
    3      -11.058428
    4       -9.085924
    5       -8.959279
    6       -8.852994
    7       -7.981452
    8       -7.732364
    9        2.112163
   10        2.921907
   11        2.970563
   12        3.342618
 
  0.4583333E+00  0.8333333E-01  0.0000000E+00  0.4629630E-02
    1      -20.685691
    2      -20.196421
    3      -10.541425
    4       -9.549036
    5       -8.742289
    6       -8.603850
    7       -8.252558
    8       -8.042474
    9        2.406732
   10        3.078468
   11        3.217593
   12        3.489388
 
  0.5000000E+00  0.8333333E-01  0.0000000E+00  0.2314815E-02
    1      -20.450828
    2      -20.450828
    3      -10.036340
    4      -10.036340
    5       -8.506533
    6       -8.506533
    7       -8.333367
    8       -8.333367
    9        2.728923
   10        2.728923
   11        3.537148
   12        3.537148
 
  0.0000000E+00  0.1111111E+00  0.0000000E+00  0.2314815E-02
    1      -21.842822
    2      -16.466872
    3      -15.688331
    4      -10.361992
    5       -9.957012
    6       -6.798512
    7       -6.238189
    8       -4.616866
    9       -1.279788
   10        0.827724
   11        1.629048
   12        2.028220
 
  0.4166667E-01  0.1111111E+00  0.0000000E+00  0.4629630E-02
    1      -21.832450
    2      -16.669462
    3      -15.471965
    4      -10.350835
    5       -9.944768
    6       -6.843447
    7       -6.246288
    8       -4.691156
    9       -1.193184
   10        0.841814
   11        1.643242
   12        2.042620
 
  0.8333333E-01  0.1111111E+00  0.0000000E+00  0.4629630E-02
    1      -21.801342
    2      -17.038846
    3      -15.061406
    4      -10.317364
    5       -9.908057
    6       -6.967684
    7       -6.280028
    8       -4.893599
    9       -0.953976
   10        0.884084
   11        1.685818
   12        2.085822
 
  0.1250000E+00  0.1111111E+00  0.0000000E+00  0.4629630E-02
    1      -21.749519
    2      -17.431399
    3      -14.600746
    4      -10.261584
    5       -9.846935
    6       -7.151200
    7       -6.355963
    8       -5.181878
    9       -0.605019
   10        0.954530
   11        1.756765
   12        2.157826
 
  0.1666667E+00  0.1111111E+00  0.0000000E+00  0.4629630E-02
    1      -21.677017
    2      -17.819818
    3      -14.118093
    4      -10.183490
    5       -9.761501
    6       -7.377578
    7       -6.484530
    8       -5.518306
    9       -0.184886
   10        1.053145
   11        1.856063
   12        2.258632
 
  0.2083333E+00  0.1111111E+00  0.0000000E+00  0.4629630E-02
    1      -21.583892
    2      -18.196568
    3      -13.622162
    4      -10.083055
    5       -9.651896
    6       -7.635941
    7       -6.668156
    8       -5.877551
    9        0.279884
   10        1.179909
   11        1.983681
   12        2.388239
 
  0.2500000E+00  0.1111111E+00  0.0000000E+00  0.4629630E-02
    1      -21.470211
    2      -18.558612
    3      -13.117604
    4       -9.960208
    5       -9.518311
    6       -7.919683
    7       -6.902895
    8       -6.243972
    9        0.772145
   10        1.334794
   11        2.139578
   12        2.546645
 
  0.2916667E+00  0.1111111E+00  0.0000000E+00  0.4629630E-02
    1      -21.336058
    2      -18.904368
    3      -12.608134
    4       -9.814796
    5       -9.360987
    6       -8.225629
    7       -7.179984
    8       -6.607909
    9        1.280466
   10        1.517758
   11        2.323701
   12        2.733844
 
  0.3333333E+00  0.1111111E+00  0.0000000E+00  0.4629630E-02
    1      -21.181540
    2      -19.232854
    3      -12.097486
    4       -9.646538
    5       -9.180231
    6       -8.553634
    7       -7.487094
    8       -6.963195
    9        1.728749
   10        1.796687
   11        2.535975
   12        2.949829
 
  0.3750000E+00  0.1111111E+00  0.0000000E+00  0.4629630E-02
    1      -21.006778
    2      -19.543388
    3      -11.589851
    4       -9.454971
    5       -8.976420
    6       -8.906063
    7       -7.809629
    8       -7.305723
    9        1.967705
   10        2.314525
   11        2.776305
   12        3.194590
 
  0.4166667E+00  0.1111111E+00  0.0000000E+00  0.4629630E-02
    1      -20.811919
    2      -19.835457
    3      -11.090133
    4       -9.286454
    5       -9.239421
    6       -8.750024
    7       -8.132631
    8       -7.632640
    9        2.234547
   10        2.828779
   11        3.044545
   12        3.468114
 
  0.4583333E+00  0.1111111E+00  0.0000000E+00  0.4629630E-02
    1      -20.597138
    2      -20.108651
    3      -10.604026
    4       -9.697246
    5       -8.999091
    6       -8.501623
    7       -8.443370
    8       -7.941889
    9        2.529179
   10        3.201225
   11        3.334658
   12        3.340408
 
  0.5000000E+00  0.1111111E+00  0.0000000E+00  0.2314815E-02
    1      -20.362636
    2      -20.362636
    3      -10.137766
    4      -10.137766
    5       -8.733471
    6       -8.733471
    7       -8.231941
    8       -8.231941
    9        2.851470
   10        2.851470
   11        3.660703
   12        3.660704
 
  0.0000000E+00  0.1388889E+00  0.0000000E+00  0.2314815E-02
    1      -21.727166
    2      -16.366703
    3      -15.605089
    4      -10.764661
    5       -9.820460
    6       -7.179137
    7       -6.501023
    8       -4.477133
    9       -1.361089
   10        0.984764
   11        1.787987
   12        2.189423
 
  0.4166667E-01  0.1388889E+00  0.0000000E+00  0.4629630E-02
    1      -21.716807
    2      -16.569403
    3      -15.389465
    4      -10.752919
    5       -9.808264
    6       -7.228875
    7       -6.499348
    8       -4.553749
    9       -1.273499
   10        0.998849
   11        1.802163
   12        2.203823
 
  0.8333333E-01  0.1388889E+00  0.0000000E+00  0.4629630E-02
    1      -21.685739
    2      -16.937407
    3      -14.982900
    4      -10.717644
    5       -9.771693
    6       -7.363744
    7       -6.508141
    8       -4.761119
    9       -1.033379
   10        1.041107
   11        1.844686
   12        2.247022
 
  0.1250000E+00  0.1388889E+00  0.0000000E+00  0.4629630E-02
    1      -21.633984
    2      -17.328097
    3      -14.528655
    4      -10.658687
    5       -9.710808
    6       -7.557925
    7       -6.551413
    8       -5.053883
    9       -0.686610
   10        1.111538
   11        1.915542
   12        2.319023
 
  0.1666667E+00  0.1388889E+00  0.0000000E+00  0.4629630E-02
    1      -21.561582
    2      -17.714721
    3      -14.054602
    4      -10.575763
    5       -9.625707
    6       -7.791683
    7       -6.645320
    8       -5.393170
    9       -0.272901
   10        1.210142
   11        2.014709
   12        2.419828
 
  0.2083333E+00  0.1388889E+00  0.0000000E+00  0.4629630E-02
    1      -21.468586
    2      -18.089867
    3      -13.569822
    4      -10.468414
    5       -9.516532
    6       -8.052462
    7       -6.796594
    8       -5.753749
    9        0.181382
   10        1.336906
   11        2.142150
   12        2.549438
 
  0.2500000E+00  0.1388889E+00  0.0000000E+00  0.4629630E-02
    1      -21.355067
    2      -18.450515
    3      -13.079671
    4      -10.335927
    5       -9.383476
    6       -8.332381
    7       -7.004952
    8       -6.120410
    9        0.659649
   10        1.491803
   11        2.297819
   12        2.707850
 
  0.2916667E+00  0.1388889E+00  0.0000000E+00  0.4629630E-02
    1      -21.221116
    2      -18.795066
    3      -12.588881
    4      -10.177246
    5       -9.226783
    6       -8.626742
    7       -7.264965
    8       -6.483886
    9        1.151055
   10        1.674790
   11        2.481652
   12        2.895061
 
  0.3333333E+00  0.1388889E+00  0.0000000E+00  0.4629630E-02
    1      -21.066839
    2      -19.122519
    3      -12.102556
    4       -9.990879
    5       -9.046757
    6       -8.933435
    7       -7.567382
    8       -6.838297
    9        1.647993
   10        1.885809
   11        2.693564
   12        3.111063
 
  0.3750000E+00  0.1388889E+00  0.0000000E+00  0.4629630E-02
    1      -20.892366
    2      -19.432166
    3      -11.626541
    4       -9.774906
    5       -9.252809
    6       -8.843779
    7       -7.900123
    8       -7.179727
    9        2.124792
   10        2.144732
   11        2.933445
   12        3.355846
 
  0.4166667E+00  0.1388889E+00  0.0000000E+00  0.4629630E-02
    1      -20.697851
    2      -19.723475
    3      -11.167333
    4       -9.587620
    5       -9.527295
    6       -8.618316
    7       -8.249057
    8       -7.505451
    9        2.391655
   10        2.636663
   11        3.201137
   12        3.629398
 
  0.4583333E+00  0.1388889E+00  0.0000000E+00  0.4629630E-02
    1      -20.483475
    2      -19.996019
    3      -10.731249
    4       -9.942557
    5       -9.246912
    6       -8.598980
    7       -8.370940
    8       -7.813491
    9        2.686302
   10        3.119852
   11        3.358415
   12        3.496318
 
  0.5000000E+00  0.1388889E+00  0.0000000E+00  0.2314815E-02
    1      -20.249449
    2      -20.249449
    3      -10.322731
    4      -10.322731
    5       -8.935373
    6       -8.935373
    7       -8.102367
    8       -8.102367
    9        3.008610
   10        3.008610
   11        3.590170
   12        3.590170
 
  0.0000000E+00  0.1666667E+00  0.0000000E+00  0.2314815E-02
    1      -21.586051
    2      -16.244356
    3      -15.509963
    4      -11.204958
    5       -9.654184
    6       -7.603423
    7       -6.806911
    8       -4.306713
    9       -1.472915
   10        1.176759
   11        1.982094
   12        2.386466
 
  0.4166667E-01  0.1666667E+00  0.0000000E+00  0.4629630E-02
    1      -21.575709
    2      -16.447870
    3      -15.294848
    4      -11.192223
    5       -9.642049
    6       -7.657406
    7       -6.795677
    8       -4.386754
    9       -1.383588
   10        1.190833
   11        1.996242
   12        2.400863
 
  0.8333333E-01  0.1666667E+00  0.0000000E+00  0.4629630E-02
    1      -21.544692
    2      -16.814418
    3      -14.893819
    4      -11.153871
    5       -9.605664
    6       -7.801713
    7       -6.779608
    8       -4.601156
    9       -1.141485
   10        1.233060
   11        2.038680
   12        2.444056
 
  0.1250000E+00  0.1666667E+00  0.0000000E+00  0.4629630E-02
    1      -21.493023
    2      -17.202771
    3      -14.449089
    4      -11.089435
    5       -9.545088
    6       -8.005567
    7       -6.789162
    8       -4.900034
    9       -0.796957
   10        1.303446
   11        2.109389
   12        2.516049
 
  0.1666667E+00  0.1666667E+00  0.0000000E+00  0.4629630E-02
    1      -21.420742
    2      -17.587086
    3      -13.988247
    4      -10.998061
    5       -9.460423
    6       -8.246530
    7       -6.845448
    8       -5.243016
    9       -0.391119
   10        1.402001
   11        2.208336
   12        2.616844
 
  0.2083333E+00  0.1666667E+00  0.0000000E+00  0.4629630E-02
    1      -21.327907
    2      -17.960160
    3      -13.521131
    4      -10.878393
    5       -9.351814
    6       -8.510867
    7       -6.959037
    8       -5.605166
    9        0.050119
   10        1.528721
   11        2.335471
   12        2.746447
 
  0.2500000E+00  0.1666667E+00  0.0000000E+00  0.4629630E-02
    1      -21.214592
    2      -18.319004
    3      -13.054453
    4      -10.728433
    5       -9.219454
    6       -8.790001
    7       -7.132970
    8       -5.971942
    9        0.511062
   10        1.683587
   11        2.490719
   12        2.904857
 
  0.2916667E+00  0.1666667E+00  0.0000000E+00  0.4629630E-02
    1      -21.080891
    2      -18.662005
    3      -12.594777
    4      -10.545446
    5       -9.078461
    6       -9.063590
    7       -7.364770
    8       -6.334632
    9        0.981734
   10        1.866558
   11        2.673970
   12        3.092071
 
  0.3333333E+00  0.1666667E+00  0.0000000E+00  0.4629630E-02
    1      -20.926917
    2      -18.988131
    3      -12.149210
    4      -10.326140
    5       -9.372984
    6       -8.884531
    7       -7.647860
    8       -6.687744
    9        1.455315
   10        2.077571
   11        2.885040
   12        3.308084
 
  0.3750000E+00  0.1666667E+00  0.0000000E+00  0.4629630E-02
    1      -20.752807
    2      -19.296646
    3      -11.724898
    4      -10.067542
    5       -9.672200
    6       -8.682658
    7       -7.972690
    8       -7.027616
    9        1.926797
   10        2.316548
   11        3.123557
   12        3.552883
 
  0.4166667E+00  0.1666667E+00  0.0000000E+00  0.4629630E-02
    1      -20.558725
    2      -19.586987
    3      -11.327320
    4       -9.976654
    5       -9.768944
    6       -8.458434
    7       -8.327594
    8       -7.351682
    9        2.392227
   10        2.583396
   11        3.388192
   12        3.826457
 
  0.4583333E+00  0.1666667E+00  0.0000000E+00  0.4629630E-02
    1      -20.344859
    2      -19.858706
    3      -10.958059
    4      -10.288983
    5       -9.434298
    6       -8.699280
    7       -8.212431
    8       -7.658066
    9        2.848149
   10        2.878009
   11        3.549984
   12        3.641943
 
  0.5000000E+00  0.1666667E+00  0.0000000E+00  0.2314815E-02
    1      -20.111433
    2      -20.111433
    3      -10.613990
    4      -10.613990
    5       -9.073194
    6       -9.073194
    7       -7.945350
    8       -7.945350
    9        3.200257
   10        3.200257
   11        3.290297
   12        3.290297
 