       N       E                     dE             d eps       ncg     rms          rms(c)
DAV:   1     0.185690696954E+03    0.18569E+03   -0.10607E+04  5928   0.275E+03
DAV:   2    -0.966230464626E+01   -0.19535E+03   -0.17475E+03 10528   0.263E+02
DAV:   3    -0.380439677188E+02   -0.28382E+02   -0.27863E+02  7444   0.118E+02    0.704E+00
RMM:   4    -0.375316244133E+02    0.51234E+00   -0.93513E+00  5928   0.261E+01    0.408E+00
RMM:   5    -0.368396158923E+02    0.69201E+00   -0.26155E+00  5932   0.110E+01    0.697E-01
RMM:   6    -0.368415584453E+02   -0.19426E-02   -0.82276E-02  6385   0.201E+00    0.499E-01
RMM:   7    -0.368329886103E+02    0.85698E-02   -0.31534E-02  5938   0.154E+00    0.323E-01
RMM:   8    -0.368281878692E+02    0.48007E-02   -0.62617E-03  5928   0.526E-01    0.133E-01
RMM:   9    -0.368280387056E+02    0.14916E-03   -0.19399E-02  5928   0.823E-01    0.151E-01
RMM:  10    -0.368279055252E+02    0.13318E-03   -0.20756E-03  5928   0.329E-01    0.258E-02
RMM:  11    -0.368301405303E+02   -0.22350E-02   -0.70414E-04  5928   0.181E-01    0.435E-02
RMM:  12    -0.368306083910E+02   -0.46786E-03   -0.18732E-04  5942   0.915E-02    0.694E-03
RMM:  13    -0.368308921278E+02   -0.28374E-03   -0.60293E-05  6005   0.424E-02    0.350E-03
RMM:  14    -0.368309724392E+02   -0.80311E-04   -0.10378E-05  5972   0.157E-02    0.101E-03
RMM:  15    -0.368309855704E+02   -0.13131E-04   -0.19750E-06  5978   0.772E-03    0.214E-03
RMM:  16    -0.368309998057E+02   -0.14235E-04   -0.17276E-06  5928   0.855E-03    0.117E-03
RMM:  17    -0.368310057737E+02   -0.59681E-05   -0.10772E-07  6054   0.201E-03    0.769E-04
RMM:  18    -0.368310068487E+02   -0.10750E-05   -0.69116E-08  5928   0.195E-03    0.849E-05
RMM:  19    -0.368310075333E+02   -0.68453E-06   -0.93240E-09  5957   0.455E-04    0.154E-05
RMM:  20    -0.368310075879E+02   -0.54651E-07   -0.87192E-10  4484   0.141E-04    0.202E-05
RMM:  21    -0.368310075995E+02   -0.11623E-07   -0.18600E-10  4319   0.810E-05    0.792E-06
RMM:  22    -0.368310075994E+02    0.15598E-09   -0.19402E-11  3886   0.486E-05    0.107E-06
RMM:  23    -0.368310075997E+02   -0.33901E-09   -0.17104E-11  3599   0.387E-05    0.196E-06
RMM:  24    -0.368310076000E+02   -0.29343E-09   -0.74074E-12  3190   0.297E-05    0.655E-07
RMM:  25    -0.368310076000E+02    0.25352E-10   -0.48127E-12  2886   0.256E-05
   1 F= -.36831008E+02 E0= -.36831008E+02  d E =-.368310E+02
       N       E                     dE             d eps       ncg     rms          rms(c)
DAV:   1    -0.368310059045E+02    0.16955E-05   -0.14915E-04  6312   0.115E-01    0.231E-03
RMM:   2    -0.368310060299E+02   -0.12539E-06   -0.25377E-06  5947   0.139E-02    0.171E-03
RMM:   3    -0.368310059856E+02    0.44319E-07   -0.39484E-07  5981   0.509E-03    0.421E-04
RMM:   4    -0.368310059748E+02    0.10718E-07   -0.24030E-08  6066   0.122E-03    0.124E-04
RMM:   5    -0.368310059785E+02   -0.36772E-08   -0.20990E-09  6000   0.324E-04    0.558E-05
RMM:   6    -0.368310059778E+02    0.72987E-09   -0.26883E-10  4238   0.133E-04    0.616E-06
RMM:   7    -0.368310059782E+02   -0.37835E-09   -0.20316E-11  3756   0.632E-05    0.471E-06
RMM:   8    -0.368310059781E+02    0.10573E-09   -0.19193E-11  3497   0.439E-05    0.231E-06
RMM:   9    -0.368310059781E+02   -0.75488E-10   -0.47409E-12  3567   0.351E-05
   2 F= -.36831006E+02 E0= -.36831006E+02  d E =0.162184E-05
       N       E                     dE             d eps       ncg     rms          rms(c)
DAV:   1    -0.368310077250E+02   -0.17469E-05   -0.94977E-05  6612   0.918E-02    0.186E-03
RMM:   2    -0.368310077825E+02   -0.57556E-07   -0.15338E-06  5943   0.110E-02    0.136E-03
RMM:   3    -0.368310077212E+02    0.61342E-07   -0.24285E-07  5991   0.400E-03    0.313E-04
RMM:   4    -0.368310077208E+02    0.41712E-09   -0.13771E-08  6053   0.933E-04    0.994E-05
RMM:   5    -0.368310077181E+02    0.26379E-08   -0.12438E-09  5546   0.253E-04    0.444E-05
RMM:   6    -0.368310077183E+02   -0.19168E-09   -0.16691E-10  3899   0.107E-04    0.495E-06
RMM:   7    -0.368310077183E+02    0.26716E-10   -0.13723E-11  3731   0.573E-05
   3 F= -.36831008E+02 E0= -.36831008E+02  d E =-.174016E-05
       N       E                     dE             d eps       ncg     rms          rms(c)
DAV:   1    -0.368310077181E+02    0.25693E-09    0.58514E-09  4852   0.785E-05    0.203E-06
RMM:   2    -0.368310077186E+02   -0.56627E-09    0.98639E-13  3019   0.276E-05    0.124E-06
RMM:   3    -0.368310077186E+02    0.34788E-10   -0.26716E-12  2897   0.276E-05    0.247E-07
RMM:   4    -0.368310077189E+02   -0.32617E-09   -0.25318E-12  2779   0.260E-05    0.145E-07
RMM:   5    -0.368310077187E+02    0.18088E-09   -0.17956E-12  2764   0.249E-05    0.102E-07
RMM:   6    -0.368310077187E+02    0.15234E-10   -0.22097E-12  2443   0.235E-05
   4 F= -.36831008E+02 E0= -.36831008E+02  d E =-.431328E-09
       N       E                     dE             d eps       ncg     rms          rms(c)
DAV:   1    -0.368310077181E+02    0.65234E-09    0.58880E-09  4500   0.447E-05    0.519E-07
RMM:   2    -0.368310077186E+02   -0.56264E-09   -0.31732E-13  1506   0.134E-05    0.325E-07
RMM:   3    -0.368310077186E+02    0.43997E-10   -0.19227E-13  1474   0.132E-05    0.363E-08
RMM:   4    -0.368310077186E+02    0.41268E-10   -0.20329E-13  1450   0.131E-05    0.146E-08
RMM:   5    -0.368310077185E+02    0.21714E-10   -0.33521E-13  1431   0.131E-05
   5 F= -.36831008E+02 E0= -.36831008E+02  d E =0.181444E-09
       N       E                     dE             d eps       ncg     rms          rms(c)
DAV:   1    -0.368310077179E+02    0.62471E-09    0.59095E-09  5212   0.220E-05    0.492E-07
RMM:   2    -0.368310077185E+02   -0.58094E-09    0.84130E-14  1157   0.681E-06    0.301E-07
RMM:   3    -0.368310077185E+02   -0.22737E-11   -0.28331E-13  1265   0.681E-06    0.102E-08
RMM:   4    -0.368310077185E+02    0.19327E-11   -0.22204E-14   957   0.677E-06    0.528E-09
RMM:   5    -0.368310077185E+02    0.46612E-11   -0.16958E-13  1038   0.682E-06
   6 F= -.36831008E+02 E0= -.36831008E+02  d E =0.263753E-10
       N       E                     dE             d eps       ncg     rms          rms(c)
DAV:   1    -0.368310077179E+02    0.58969E-09    0.58935E-09  4488   0.412E-05    0.730E-07
RMM:   2    -0.368310077185E+02   -0.60004E-09    0.52797E-14   735   0.112E-05    0.452E-07
RMM:   3    -0.368310077185E+02   -0.68212E-12   -0.23027E-14   983   0.110E-05    0.115E-08
RMM:   4    -0.368310077185E+02   -0.19327E-11    0.15954E-14   530   0.110E-05    0.467E-09
RMM:   5    -0.368310077185E+02   -0.64801E-11   -0.70808E-14   671   0.110E-05
   7 F= -.36831008E+02 E0= -.36831008E+02  d E =-.241016E-10
       N       E                     dE             d eps       ncg     rms          rms(c)
DAV:   1    -0.368310077180E+02    0.58014E-09    0.59088E-09  4368   0.190E-05    0.310E-07
RMM:   2    -0.368310077185E+02   -0.59197E-09    0.00000E+00   491   0.537E-06    0.192E-07
RMM:   3    -0.368310077185E+02   -0.13642E-11    0.00000E+00   767   0.521E-06    0.718E-09
RMM:   4    -0.368310077185E+02    0.63665E-11    0.00000E+00   911   0.521E-06    0.205E-09
RMM:   5    -0.368310077186E+02   -0.12619E-10    0.00000E+00   797   0.521E-06
   8 F= -.36831008E+02 E0= -.36831008E+02  d E =-.129603E-10
       N       E                     dE             d eps       ncg     rms          rms(c)
DAV:   1    -0.368310077180E+02    0.58026E-09    0.59132E-09  4364   0.684E-06    0.852E-08
RMM:   2    -0.368310077185E+02   -0.57662E-09    0.00000E+00   349   0.242E-06    0.523E-08
RMM:   3    -0.368310077185E+02    0.32969E-11    0.00000E+00   373   0.243E-06    0.214E-09
RMM:   4    -0.368310077185E+02   -0.79581E-11    0.00000E+00   400   0.243E-06    0.577E-10
RMM:   5    -0.368310077185E+02   -0.11369E-11    0.00000E+00   382   0.243E-06
   9 F= -.36831008E+02 E0= -.36831008E+02  d E =0.104592E-10
       N       E                     dE             d eps       ncg     rms          rms(c)
DAV:   1    -0.368310077179E+02    0.59833E-09    0.59143E-09  4000   0.300E-06    0.658E-08
RMM:   2    -0.368310077185E+02   -0.59742E-09    0.00000E+00   147   0.115E-06    0.406E-08
RMM:   3    -0.368310077185E+02    0.75033E-11    0.00000E+00   232   0.119E-06    0.111E-09
RMM:   4    -0.368310077185E+02   -0.27285E-11    0.00000E+00   124   0.119E-06    0.374E-10
RMM:   5    -0.368310077185E+02   -0.21600E-11    0.00000E+00   124   0.119E-06
  10 F= -.36831008E+02 E0= -.36831008E+02  d E =0.466116E-11
