<?xml version="1.0" encoding="ISO-8859-1"?>
<modeling>
 <generator>
  <i name="program" type="string">vasp </i>
  <i name="version" type="string">5.3.5  </i>
  <i name="subversion" type="string">31Mar14 (build Mar 02 2015 18:14:16) complex                          parallel </i>
  <i name="platform" type="string">LinuxIFC </i>
  <i name="date" type="string">2018 08 10 </i>
  <i name="time" type="string">14:52:16 </i>
 </generator>
 <incar>
  <i type="string" name="SYSTEM">  gr</i>
  <i type="string" name="PREC">accurate : accuracy</i>
  <i type="string" name="ALGO"> FAST.</i>
  <i type="int" name="NELM">   100</i>
  <i type="int" name="NELMDL">    -3</i>
  <i type="int" name="NELMIN">     5</i>
  <i type="int" name="IBRION">     1</i>
  <i name="EDIFF">      0.00000000</i>
  <i name="EDIFFG">     -0.00000100</i>
  <i type="int" name="NSW">   400</i>
  <i type="int" name="ISIF">     2</i>
  <i name="ENCUT">   2000.00000000</i>
  <i type="int" name="ISMEAR">     0</i>
  <i name="SIGMA">      0.05000000</i>
  <i type="int" name="NWRITE">     2</i>
  <i type="logical" name="LWAVE"> F  </i>
  <i type="logical" name="LCHARG"> F  </i>
  <i type="int" name="NELM">   100</i>
 </incar>
 <kpoints>
  <generation param="Gamma">
   <v type="int" name="divisions">      24       36        1 </v>
   <v name="usershift">      0.00000000       0.00000000       0.00000000 </v>
   <v name="genvec1">      0.04166667       0.00000000       0.00000000 </v>
   <v name="genvec2">      0.00000000       0.02777778       0.00000000 </v>
   <v name="genvec3">      0.00000000       0.00000000       1.00000000 </v>
   <v name="shift">      0.00000000       0.00000000       0.00000000 </v>
  </generation>
  <varray name="kpointlist" >
   <v>       0.00000000       0.00000000       0.00000000 </v>
   <v>       0.04166667       0.00000000       0.00000000 </v>
   <v>       0.08333333       0.00000000       0.00000000 </v>
   <v>       0.12500000       0.00000000       0.00000000 </v>
   <v>       0.16666667       0.00000000       0.00000000 </v>
   <v>       0.20833333       0.00000000       0.00000000 </v>
   <v>       0.25000000       0.00000000       0.00000000 </v>
   <v>       0.29166667       0.00000000       0.00000000 </v>
   <v>       0.33333333       0.00000000       0.00000000 </v>
   <v>       0.37500000       0.00000000       0.00000000 </v>
   <v>       0.41666667       0.00000000       0.00000000 </v>
   <v>       0.45833333       0.00000000       0.00000000 </v>
   <v>       0.50000000       0.00000000       0.00000000 </v>
   <v>       0.00000000       0.02777778       0.00000000 </v>
   <v>       0.04166667       0.02777778       0.00000000 </v>
   <v>       0.08333333       0.02777778       0.00000000 </v>
   <v>       0.12500000       0.02777778       0.00000000 </v>
   <v>       0.16666667       0.02777778       0.00000000 </v>
   <v>       0.20833333       0.02777778       0.00000000 </v>
   <v>       0.25000000       0.02777778       0.00000000 </v>
   <v>       0.29166667       0.02777778       0.00000000 </v>
   <v>       0.33333333       0.02777778       0.00000000 </v>
   <v>       0.37500000       0.02777778       0.00000000 </v>
   <v>       0.41666667       0.02777778       0.00000000 </v>
   <v>       0.45833333       0.02777778       0.00000000 </v>
   <v>       0.50000000       0.02777778       0.00000000 </v>
   <v>       0.00000000       0.05555556       0.00000000 </v>
   <v>       0.04166667       0.05555556       0.00000000 </v>
   <v>       0.08333333       0.05555556       0.00000000 </v>
   <v>       0.12500000       0.05555556       0.00000000 </v>
   <v>       0.16666667       0.05555556       0.00000000 </v>
   <v>       0.20833333       0.05555556       0.00000000 </v>
   <v>       0.25000000       0.05555556       0.00000000 </v>
   <v>       0.29166667       0.05555556       0.00000000 </v>
   <v>       0.33333333       0.05555556       0.00000000 </v>
   <v>       0.37500000       0.05555556       0.00000000 </v>
   <v>       0.41666667       0.05555556       0.00000000 </v>
   <v>       0.45833333       0.05555556       0.00000000 </v>
   <v>       0.50000000       0.05555556       0.00000000 </v>
   <v>       0.00000000       0.08333333       0.00000000 </v>
   <v>       0.04166667       0.08333333       0.00000000 </v>
   <v>       0.08333333       0.08333333       0.00000000 </v>
   <v>       0.12500000       0.08333333       0.00000000 </v>
   <v>       0.16666667       0.08333333       0.00000000 </v>
   <v>       0.20833333       0.08333333       0.00000000 </v>
   <v>       0.25000000       0.08333333       0.00000000 </v>
   <v>       0.29166667       0.08333333       0.00000000 </v>
   <v>       0.33333333       0.08333333       0.00000000 </v>
   <v>       0.37500000       0.08333333       0.00000000 </v>
   <v>       0.41666667       0.08333333       0.00000000 </v>
   <v>       0.45833333       0.08333333       0.00000000 </v>
   <v>       0.50000000       0.08333333       0.00000000 </v>
   <v>       0.00000000       0.11111111       0.00000000 </v>
   <v>       0.04166667       0.11111111       0.00000000 </v>
   <v>       0.08333333       0.11111111       0.00000000 </v>
   <v>       0.12500000       0.11111111       0.00000000 </v>
   <v>       0.16666667       0.11111111       0.00000000 </v>
   <v>       0.20833333       0.11111111       0.00000000 </v>
   <v>       0.25000000       0.11111111       0.00000000 </v>
   <v>       0.29166667       0.11111111       0.00000000 </v>
   <v>       0.33333333       0.11111111       0.00000000 </v>
   <v>       0.37500000       0.11111111       0.00000000 </v>
   <v>       0.41666667       0.11111111       0.00000000 </v>
   <v>       0.45833333       0.11111111       0.00000000 </v>
   <v>       0.50000000       0.11111111       0.00000000 </v>
   <v>       0.00000000       0.13888889       0.00000000 </v>
   <v>       0.04166667       0.13888889       0.00000000 </v>
   <v>       0.08333333       0.13888889       0.00000000 </v>
   <v>       0.12500000       0.13888889       0.00000000 </v>
   <v>       0.16666667       0.13888889       0.00000000 </v>
   <v>       0.20833333       0.13888889       0.00000000 </v>
   <v>       0.25000000       0.13888889       0.00000000 </v>
   <v>       0.29166667       0.13888889       0.00000000 </v>
   <v>       0.33333333       0.13888889       0.00000000 </v>
   <v>       0.37500000       0.13888889       0.00000000 </v>
   <v>       0.41666667       0.13888889       0.00000000 </v>
   <v>       0.45833333       0.13888889       0.00000000 </v>
   <v>       0.50000000       0.13888889       0.00000000 </v>
   <v>       0.00000000       0.16666667       0.00000000 </v>
   <v>       0.04166667       0.16666667       0.00000000 </v>
   <v>       0.08333333       0.16666667       0.00000000 </v>
   <v>       0.12500000       0.16666667       0.00000000 </v>
   <v>       0.16666667       0.16666667       0.00000000 </v>
   <v>       0.20833333       0.16666667       0.00000000 </v>
   <v>       0.25000000       0.16666667       0.00000000 </v>
   <v>       0.29166667       0.16666667       0.00000000 </v>
   <v>       0.33333333       0.16666667       0.00000000 </v>
   <v>       0.37500000       0.16666667       0.00000000 </v>
   <v>       0.41666667       0.16666667       0.00000000 </v>
   <v>       0.45833333       0.16666667       0.00000000 </v>
   <v>       0.50000000       0.16666667       0.00000000 </v>
   <v>       0.00000000       0.19444444       0.00000000 </v>
   <v>       0.04166667       0.19444444       0.00000000 </v>
   <v>       0.08333333       0.19444444       0.00000000 </v>
   <v>       0.12500000       0.19444444       0.00000000 </v>
   <v>       0.16666667       0.19444444       0.00000000 </v>
   <v>       0.20833333       0.19444444       0.00000000 </v>
   <v>       0.25000000       0.19444444       0.00000000 </v>
   <v>       0.29166667       0.19444444       0.00000000 </v>
   <v>       0.33333333       0.19444444       0.00000000 </v>
   <v>       0.37500000       0.19444444       0.00000000 </v>
   <v>       0.41666667       0.19444444       0.00000000 </v>
   <v>       0.45833333       0.19444444       0.00000000 </v>
   <v>       0.50000000       0.19444444       0.00000000 </v>
   <v>       0.00000000       0.22222222       0.00000000 </v>
   <v>       0.04166667       0.22222222       0.00000000 </v>
   <v>       0.08333333       0.22222222       0.00000000 </v>
   <v>       0.12500000       0.22222222       0.00000000 </v>
   <v>       0.16666667       0.22222222       0.00000000 </v>
   <v>       0.20833333       0.22222222       0.00000000 </v>
   <v>       0.25000000       0.22222222       0.00000000 </v>
   <v>       0.29166667       0.22222222       0.00000000 </v>
   <v>       0.33333333       0.22222222       0.00000000 </v>
   <v>       0.37500000       0.22222222       0.00000000 </v>
   <v>       0.41666667       0.22222222       0.00000000 </v>
   <v>       0.45833333       0.22222222       0.00000000 </v>
   <v>       0.50000000       0.22222222       0.00000000 </v>
   <v>       0.00000000       0.25000000       0.00000000 </v>
   <v>       0.04166667       0.25000000       0.00000000 </v>
   <v>       0.08333333       0.25000000       0.00000000 </v>
   <v>       0.12500000       0.25000000       0.00000000 </v>
   <v>       0.16666667       0.25000000       0.00000000 </v>
   <v>       0.20833333       0.25000000       0.00000000 </v>
   <v>       0.25000000       0.25000000       0.00000000 </v>
   <v>       0.29166667       0.25000000       0.00000000 </v>
   <v>       0.33333333       0.25000000       0.00000000 </v>
   <v>       0.37500000       0.25000000       0.00000000 </v>
   <v>       0.41666667       0.25000000       0.00000000 </v>
   <v>       0.45833333       0.25000000       0.00000000 </v>
   <v>       0.50000000       0.25000000       0.00000000 </v>
   <v>       0.00000000       0.27777778       0.00000000 </v>
   <v>       0.04166667       0.27777778       0.00000000 </v>
   <v>       0.08333333       0.27777778       0.00000000 </v>
   <v>       0.12500000       0.27777778       0.00000000 </v>
   <v>       0.16666667       0.27777778       0.00000000 </v>
   <v>       0.20833333       0.27777778       0.00000000 </v>
   <v>       0.25000000       0.27777778       0.00000000 </v>
   <v>       0.29166667       0.27777778       0.00000000 </v>
   <v>       0.33333333       0.27777778       0.00000000 </v>
   <v>       0.37500000       0.27777778       0.00000000 </v>
   <v>       0.41666667       0.27777778       0.00000000 </v>
   <v>       0.45833333       0.27777778       0.00000000 </v>
   <v>       0.50000000       0.27777778       0.00000000 </v>
   <v>       0.00000000       0.30555556       0.00000000 </v>
   <v>       0.04166667       0.30555556       0.00000000 </v>
   <v>       0.08333333       0.30555556       0.00000000 </v>
   <v>       0.12500000       0.30555556       0.00000000 </v>
   <v>       0.16666667       0.30555556       0.00000000 </v>
   <v>       0.20833333       0.30555556       0.00000000 </v>
   <v>       0.25000000       0.30555556       0.00000000 </v>
   <v>       0.29166667       0.30555556       0.00000000 </v>
   <v>       0.33333333       0.30555556       0.00000000 </v>
   <v>       0.37500000       0.30555556       0.00000000 </v>
   <v>       0.41666667       0.30555556       0.00000000 </v>
   <v>       0.45833333       0.30555556       0.00000000 </v>
   <v>       0.50000000       0.30555556       0.00000000 </v>
   <v>       0.00000000       0.33333333       0.00000000 </v>
   <v>       0.04166667       0.33333333       0.00000000 </v>
   <v>       0.08333333       0.33333333       0.00000000 </v>
   <v>       0.12500000       0.33333333       0.00000000 </v>
   <v>       0.16666667       0.33333333       0.00000000 </v>
   <v>       0.20833333       0.33333333       0.00000000 </v>
   <v>       0.25000000       0.33333333       0.00000000 </v>
   <v>       0.29166667       0.33333333       0.00000000 </v>
   <v>       0.33333333       0.33333333       0.00000000 </v>
   <v>       0.37500000       0.33333333       0.00000000 </v>
   <v>       0.41666667       0.33333333       0.00000000 </v>
   <v>       0.45833333       0.33333333       0.00000000 </v>
   <v>       0.50000000       0.33333333       0.00000000 </v>
   <v>       0.00000000       0.36111111       0.00000000 </v>
   <v>       0.04166667       0.36111111       0.00000000 </v>
   <v>       0.08333333       0.36111111       0.00000000 </v>
   <v>       0.12500000       0.36111111       0.00000000 </v>
   <v>       0.16666667       0.36111111       0.00000000 </v>
   <v>       0.20833333       0.36111111       0.00000000 </v>
   <v>       0.25000000       0.36111111       0.00000000 </v>
   <v>       0.29166667       0.36111111       0.00000000 </v>
   <v>       0.33333333       0.36111111       0.00000000 </v>
   <v>       0.37500000       0.36111111       0.00000000 </v>
   <v>       0.41666667       0.36111111       0.00000000 </v>
   <v>       0.45833333       0.36111111       0.00000000 </v>
   <v>       0.50000000       0.36111111       0.00000000 </v>
   <v>       0.00000000       0.38888889       0.00000000 </v>
   <v>       0.04166667       0.38888889       0.00000000 </v>
   <v>       0.08333333       0.38888889       0.00000000 </v>
   <v>       0.12500000       0.38888889       0.00000000 </v>
   <v>       0.16666667       0.38888889       0.00000000 </v>
   <v>       0.20833333       0.38888889       0.00000000 </v>
   <v>       0.25000000       0.38888889       0.00000000 </v>
   <v>       0.29166667       0.38888889       0.00000000 </v>
   <v>       0.33333333       0.38888889       0.00000000 </v>
   <v>       0.37500000       0.38888889       0.00000000 </v>
   <v>       0.41666667       0.38888889       0.00000000 </v>
   <v>       0.45833333       0.38888889       0.00000000 </v>
   <v>       0.50000000       0.38888889       0.00000000 </v>
   <v>       0.00000000       0.41666667       0.00000000 </v>
   <v>       0.04166667       0.41666667       0.00000000 </v>
   <v>       0.08333333       0.41666667       0.00000000 </v>
   <v>       0.12500000       0.41666667       0.00000000 </v>
   <v>       0.16666667       0.41666667       0.00000000 </v>
   <v>       0.20833333       0.41666667       0.00000000 </v>
   <v>       0.25000000       0.41666667       0.00000000 </v>
   <v>       0.29166667       0.41666667       0.00000000 </v>
   <v>       0.33333333       0.41666667       0.00000000 </v>
   <v>       0.37500000       0.41666667       0.00000000 </v>
   <v>       0.41666667       0.41666667       0.00000000 </v>
   <v>       0.45833333       0.41666667       0.00000000 </v>
   <v>       0.50000000       0.41666667       0.00000000 </v>
   <v>       0.00000000       0.44444444       0.00000000 </v>
   <v>       0.04166667       0.44444444       0.00000000 </v>
   <v>       0.08333333       0.44444444       0.00000000 </v>
   <v>       0.12500000       0.44444444       0.00000000 </v>
   <v>       0.16666667       0.44444444       0.00000000 </v>
   <v>       0.20833333       0.44444444       0.00000000 </v>
   <v>       0.25000000       0.44444444       0.00000000 </v>
   <v>       0.29166667       0.44444444       0.00000000 </v>
   <v>       0.33333333       0.44444444       0.00000000 </v>
   <v>       0.37500000       0.44444444       0.00000000 </v>
   <v>       0.41666667       0.44444444       0.00000000 </v>
   <v>       0.45833333       0.44444444       0.00000000 </v>
   <v>       0.50000000       0.44444444       0.00000000 </v>
   <v>       0.00000000       0.47222222       0.00000000 </v>
   <v>       0.04166667       0.47222222       0.00000000 </v>
   <v>       0.08333333       0.47222222       0.00000000 </v>
   <v>       0.12500000       0.47222222       0.00000000 </v>
   <v>       0.16666667       0.47222222       0.00000000 </v>
   <v>       0.20833333       0.47222222       0.00000000 </v>
   <v>       0.25000000       0.47222222       0.00000000 </v>
   <v>       0.29166667       0.47222222       0.00000000 </v>
   <v>       0.33333333       0.47222222       0.00000000 </v>
   <v>       0.37500000       0.47222222       0.00000000 </v>
   <v>       0.41666667       0.47222222       0.00000000 </v>
   <v>       0.45833333       0.47222222       0.00000000 </v>
   <v>       0.50000000       0.47222222       0.00000000 </v>
   <v>       0.00000000       0.50000000       0.00000000 </v>
   <v>       0.04166667       0.50000000       0.00000000 </v>
   <v>       0.08333333       0.50000000       0.00000000 </v>
   <v>       0.12500000       0.50000000       0.00000000 </v>
   <v>       0.16666667       0.50000000       0.00000000 </v>
   <v>       0.20833333       0.50000000       0.00000000 </v>
   <v>       0.25000000       0.50000000       0.00000000 </v>
   <v>       0.29166667       0.50000000       0.00000000 </v>
   <v>       0.33333333       0.50000000       0.00000000 </v>
   <v>       0.37500000       0.50000000       0.00000000 </v>
   <v>       0.41666667       0.50000000       0.00000000 </v>
   <v>       0.45833333       0.50000000       0.00000000 </v>
   <v>       0.50000000       0.50000000       0.00000000 </v>
  </varray>
  <varray name="weights" >
   <v>       0.00115741 </v>
   <v>       0.00231481 </v>
   <v>       0.00231481 </v>
   <v>       0.00231481 </v>
   <v>       0.00231481 </v>
   <v>       0.00231481 </v>
   <v>       0.00231481 </v>
   <v>       0.00231481 </v>
   <v>       0.00231481 </v>
   <v>       0.00231481 </v>
   <v>       0.00231481 </v>
   <v>       0.00231481 </v>
   <v>       0.00115741 </v>
   <v>       0.00231481 </v>
   <v>       0.00462963 </v>
   <v>       0.00462963 </v>
   <v>       0.00462963 </v>
   <v>       0.00462963 </v>
   <v>       0.00462963 </v>
   <v>       0.00462963 </v>
   <v>       0.00462963 </v>
   <v>       0.00462963 </v>
   <v>       0.00462963 </v>
   <v>       0.00462963 </v>
   <v>       0.00462963 </v>
   <v>       0.00231481 </v>
   <v>       0.00231481 </v>
   <v>       0.00462963 </v>
   <v>       0.00462963 </v>
   <v>       0.00462963 </v>
   <v>       0.00462963 </v>
   <v>       0.00462963 </v>
   <v>       0.00462963 </v>
   <v>       0.00462963 </v>
   <v>       0.00462963 </v>
   <v>       0.00462963 </v>
   <v>       0.00462963 </v>
   <v>       0.00462963 </v>
   <v>       0.00231481 </v>
   <v>       0.00231481 </v>
   <v>       0.00462963 </v>
   <v>       0.00462963 </v>
   <v>       0.00462963 </v>
   <v>       0.00462963 </v>
   <v>       0.00462963 </v>
   <v>       0.00462963 </v>
   <v>       0.00462963 </v>
   <v>       0.00462963 </v>
   <v>       0.00462963 </v>
   <v>       0.00462963 </v>
   <v>       0.00462963 </v>
   <v>       0.00231481 </v>
   <v>       0.00231481 </v>
   <v>       0.00462963 </v>
   <v>       0.00462963 </v>
   <v>       0.00462963 </v>
   <v>       0.00462963 </v>
   <v>       0.00462963 </v>
   <v>       0.00462963 </v>
   <v>       0.00462963 </v>
   <v>       0.00462963 </v>
   <v>       0.00462963 </v>
   <v>       0.00462963 </v>
   <v>       0.00462963 </v>
   <v>       0.00231481 </v>
   <v>       0.00231481 </v>
   <v>       0.00462963 </v>
   <v>       0.00462963 </v>
   <v>       0.00462963 </v>
   <v>       0.00462963 </v>
   <v>       0.00462963 </v>
   <v>       0.00462963 </v>
   <v>       0.00462963 </v>
   <v>       0.00462963 </v>
   <v>       0.00462963 </v>
   <v>       0.00462963 </v>
   <v>       0.00462963 </v>
   <v>       0.00231481 </v>
   <v>       0.00231481 </v>
   <v>       0.00462963 </v>
   <v>       0.00462963 </v>
   <v>       0.00462963 </v>
   <v>       0.00462963 </v>
   <v>       0.00462963 </v>
   <v>       0.00462963 </v>
   <v>       0.00462963 </v>
   <v>       0.00462963 </v>
   <v>       0.00462963 </v>
   <v>       0.00462963 </v>
   <v>       0.00462963 </v>
   <v>       0.00231481 </v>
   <v>       0.00231481 </v>
   <v>       0.00462963 </v>
   <v>       0.00462963 </v>
   <v>       0.00462963 </v>
   <v>       0.00462963 </v>
   <v>       0.00462963 </v>
   <v>       0.00462963 </v>
   <v>       0.00462963 </v>
   <v>       0.00462963 </v>
   <v>       0.00462963 </v>
   <v>       0.00462963 </v>
   <v>       0.00462963 </v>
   <v>       0.00231481 </v>
   <v>       0.00231481 </v>
   <v>       0.00462963 </v>
   <v>       0.00462963 </v>
   <v>       0.00462963 </v>
   <v>       0.00462963 </v>
   <v>       0.00462963 </v>
   <v>       0.00462963 </v>
   <v>       0.00462963 </v>
   <v>       0.00462963 </v>
   <v>       0.00462963 </v>
   <v>       0.00462963 </v>
   <v>       0.00462963 </v>
   <v>       0.00231481 </v>
   <v>       0.00231481 </v>
   <v>       0.00462963 </v>
   <v>       0.00462963 </v>
   <v>       0.00462963 </v>
   <v>       0.00462963 </v>
   <v>       0.00462963 </v>
   <v>       0.00462963 </v>
   <v>       0.00462963 </v>
   <v>       0.00462963 </v>
   <v>       0.00462963 </v>
   <v>       0.00462963 </v>
   <v>       0.00462963 </v>
   <v>       0.00231481 </v>
   <v>       0.00231481 </v>
   <v>       0.00462963 </v>
   <v>       0.00462963 </v>
   <v>       0.00462963 </v>
   <v>       0.00462963 </v>
   <v>       0.00462963 </v>
   <v>       0.00462963 </v>
   <v>       0.00462963 </v>
   <v>       0.00462963 </v>
   <v>       0.00462963 </v>
   <v>       0.00462963 </v>
   <v>       0.00462963 </v>
   <v>       0.00231481 </v>
   <v>       0.00231481 </v>
   <v>       0.00462963 </v>
   <v>       0.00462963 </v>
   <v>       0.00462963 </v>
   <v>       0.00462963 </v>
   <v>       0.00462963 </v>
   <v>       0.00462963 </v>
   <v>       0.00462963 </v>
   <v>       0.00462963 </v>
   <v>       0.00462963 </v>
   <v>       0.00462963 </v>
   <v>       0.00462963 </v>
   <v>       0.00231481 </v>
   <v>       0.00231481 </v>
   <v>       0.00462963 </v>
   <v>       0.00462963 </v>
   <v>       0.00462963 </v>
   <v>       0.00462963 </v>
   <v>       0.00462963 </v>
   <v>       0.00462963 </v>
   <v>       0.00462963 </v>
   <v>       0.00462963 </v>
   <v>       0.00462963 </v>
   <v>       0.00462963 </v>
   <v>       0.00462963 </v>
   <v>       0.00231481 </v>
   <v>       0.00231481 </v>
   <v>       0.00462963 </v>
   <v>       0.00462963 </v>
   <v>       0.00462963 </v>
   <v>       0.00462963 </v>
   <v>       0.00462963 </v>
   <v>       0.00462963 </v>
   <v>       0.00462963 </v>
   <v>       0.00462963 </v>
   <v>       0.00462963 </v>
   <v>       0.00462963 </v>
   <v>       0.00462963 </v>
   <v>       0.00231481 </v>
   <v>       0.00231481 </v>
   <v>       0.00462963 </v>
   <v>       0.00462963 </v>
   <v>       0.00462963 </v>
   <v>       0.00462963 </v>
   <v>       0.00462963 </v>
   <v>       0.00462963 </v>
   <v>       0.00462963 </v>
   <v>       0.00462963 </v>
   <v>       0.00462963 </v>
   <v>       0.00462963 </v>
   <v>       0.00462963 </v>
   <v>       0.00231481 </v>
   <v>       0.00231481 </v>
   <v>       0.00462963 </v>
   <v>       0.00462963 </v>
   <v>       0.00462963 </v>
   <v>       0.00462963 </v>
   <v>       0.00462963 </v>
   <v>       0.00462963 </v>
   <v>       0.00462963 </v>
   <v>       0.00462963 </v>
   <v>       0.00462963 </v>
   <v>       0.00462963 </v>
   <v>       0.00462963 </v>
   <v>       0.00231481 </v>
   <v>       0.00231481 </v>
   <v>       0.00462963 </v>
   <v>       0.00462963 </v>
   <v>       0.00462963 </v>
   <v>       0.00462963 </v>
   <v>       0.00462963 </v>
   <v>       0.00462963 </v>
   <v>       0.00462963 </v>
   <v>       0.00462963 </v>
   <v>       0.00462963 </v>
   <v>       0.00462963 </v>
   <v>       0.00462963 </v>
   <v>       0.00231481 </v>
   <v>       0.00231481 </v>
   <v>       0.00462963 </v>
   <v>       0.00462963 </v>
   <v>       0.00462963 </v>
   <v>       0.00462963 </v>
   <v>       0.00462963 </v>
   <v>       0.00462963 </v>
   <v>       0.00462963 </v>
   <v>       0.00462963 </v>
   <v>       0.00462963 </v>
   <v>       0.00462963 </v>
   <v>       0.00462963 </v>
   <v>       0.00231481 </v>
   <v>       0.00115741 </v>
   <v>       0.00231481 </v>
   <v>       0.00231481 </v>
   <v>       0.00231481 </v>
   <v>       0.00231481 </v>
   <v>       0.00231481 </v>
   <v>       0.00231481 </v>
   <v>       0.00231481 </v>
   <v>       0.00231481 </v>
   <v>       0.00231481 </v>
   <v>       0.00231481 </v>
   <v>       0.00231481 </v>
   <v>       0.00115741 </v>
  </varray>
 </kpoints>
 <parameters>
  <separator name="general" >
   <i type="string" name="SYSTEM">gr</i>
   <i type="logical" name="LCOMPAT"> F  </i>
  </separator>
  <separator name="electronic" >
   <i type="string" name="PREC">accura</i>
   <i name="ENMAX">   2000.00000000</i>
   <i name="ENAUG">    644.87300000</i>
   <i name="EDIFF">      0.00000000</i>
   <i type="int" name="IALGO">    68</i>
   <i type="int" name="IWAVPR">    11</i>
   <i type="int" name="NBANDS">    12</i>
   <i name="NELECT">     16.00000000</i>
   <i type="int" name="TURBO">     0</i>
   <i type="int" name="IRESTART">     0</i>
   <i type="int" name="NREBOOT">     0</i>
   <i type="int" name="NMIN">     0</i>
   <i name="EREF">      0.00000000</i>
   <separator name="electronic smearing" >
    <i type="int" name="ISMEAR">     0</i>
    <i name="SIGMA">      0.05000000</i>
    <i name="KSPACING">      0.50000000</i>
    <i type="logical" name="KGAMMA"> T  </i>
   </separator>
   <separator name="electronic projectors" >
    <i type="logical" name="LREAL"> F  </i>
    <v name="ROPT">      0.00000000</v>
    <i type="int" name="LMAXPAW">  -100</i>
    <i type="int" name="LMAXMIX">     2</i>
    <i type="logical" name="NLSPLINE"> F  </i>
   </separator>
   <separator name="electronic startup" >
    <i type="int" name="ISTART">     0</i>
    <i type="int" name="ICHARG">     2</i>
    <i type="int" name="INIWAV">     1</i>
   </separator>
   <separator name="electronic spin" >
    <i type="int" name="ISPIN">     1</i>
    <i type="logical" name="LNONCOLLINEAR"> F  </i>
    <v name="MAGMOM">      1.00000000      1.00000000      1.00000000      1.00000000</v>
    <i name="NUPDOWN">     -1.00000000</i>
    <i type="logical" name="LSORBIT"> F  </i>
    <v name="SAXIS">      0.00000000      0.00000000      1.00000000</v>
    <i type="logical" name="LSPIRAL"> F  </i>
    <v name="QSPIRAL">      0.00000000      0.00000000      0.00000000</v>
    <i type="logical" name="LZEROZ"> F  </i>
   </separator>
   <separator name="electronic exchange-correlation" >
    <i type="logical" name="LASPH"> F  </i>
    <i type="logical" name="LMETAGGA"> F  </i>
   </separator>
   <separator name="electronic convergence" >
    <i type="int" name="NELM">   100</i>
    <i type="int" name="NELMDL">    -3</i>
    <i type="int" name="NELMIN">     5</i>
    <i name="ENINI">   2000.00000000</i>
    <separator name="electronic convergence detail" >
     <i type="logical" name="LDIAG"> T  </i>
     <i type="logical" name="LSUBROT"> F  </i>
     <i name="WEIMIN">      0.00100000</i>
     <i name="EBREAK">      0.00000000</i>
     <i name="DEPER">      0.30000000</i>
     <i type="int" name="NRMM">     4</i>
     <i name="TIME">      0.40000000</i>
    </separator>
   </separator>
   <separator name="electronic mixer" >
    <i name="AMIX">      0.40000000</i>
    <i name="BMIX">      1.00000000</i>
    <i name="AMIN">      0.10000000</i>
    <i name="AMIX_MAG">      1.60000000</i>
    <i name="BMIX_MAG">      1.00000000</i>
    <separator name="electronic mixer details" >
     <i type="int" name="IMIX">     4</i>
     <i type="int" name="MAXMIX">   -45</i>
     <i name="WC">    100.00000000</i>
     <i type="int" name="INIMIX">     1</i>
     <i type="int" name="MIXPRE">     1</i>
     <i type="int" name="MREMOVE">     5</i>
    </separator>
   </separator>
   <separator name="electronic dipolcorrection" >
    <i type="logical" name="LDIPOL"> F  </i>
    <i type="logical" name="LMONO"> F  </i>
    <i type="int" name="IDIPOL">     0</i>
    <i name="EPSILON">      1.00000000</i>
    <v name="DIPOL">   -100.00000000   -100.00000000   -100.00000000</v>
    <i name="EFIELD">      0.00000000</i>
   </separator>
  </separator>
  <separator name="grids" >
   <i type="int" name="NGX">    64</i>
   <i type="int" name="NGY">    40</i>
   <i type="int" name="NGZ">   288</i>
   <i type="int" name="NGXF">   128</i>
   <i type="int" name="NGYF">    80</i>
   <i type="int" name="NGZF">   576</i>
   <i type="logical" name="ADDGRID"> F  </i>
  </separator>
  <separator name="ionic" >
   <i type="int" name="NSW">   400</i>
   <i type="int" name="IBRION">     1</i>
   <i type="int" name="ISIF">     2</i>
   <i name="PSTRESS">      0.00000000</i>
   <i name="EDIFFG">     -0.00000100</i>
   <i type="int" name="NFREE">     0</i>
   <i name="POTIM">      0.50000000</i>
   <i name="SMASS">     -3.00000000</i>
   <i name="SCALEE">      1.00000000</i>
  </separator>
  <separator name="ionic md" >
   <i name="TEBEG">      0.00010000</i>
   <i name="TEEND">      0.00010000</i>
   <i type="int" name="NBLOCK">     1</i>
   <i type="int" name="KBLOCK">   400</i>
   <i type="int" name="NPACO">   256</i>
   <i name="APACO">     16.00000000</i>
  </separator>
  <separator name="symmetry" >
   <i type="int" name="ISYM">     2</i>
   <i name="SYMPREC">      0.00001000</i>
  </separator>
  <separator name="dos" >
   <i type="logical" name="LORBIT"> F  </i>
   <v name="RWIGS">     -1.00000000</v>
   <i type="int" name="NEDOS">   301</i>
   <i name="EMIN">     10.00000000</i>
   <i name="EMAX">    -10.00000000</i>
   <i name="EFERMI">      0.00000000</i>
  </separator>
  <separator name="writing" >
   <i type="int" name="NWRITE">     2</i>
   <i type="logical" name="LWAVE"> F  </i>
   <i type="logical" name="LCHARG"> F  </i>
   <i type="logical" name="LPARD"> F  </i>
   <i type="logical" name="LVTOT"> F  </i>
   <i type="logical" name="LVHAR"> F  </i>
   <i type="logical" name="LELF"> F  </i>
   <i type="logical" name="LOPTICS"> F  </i>
   <v name="STM">      0.00000000      0.00000000      0.00000000      0.00000000      0.00000000      0.00000000      0.00000000</v>
  </separator>
  <separator name="performance" >
   <i type="int" name="NPAR">     4</i>
   <i type="int" name="NSIM">     4</i>
   <i type="int" name="NBLK">    -1</i>
   <i type="logical" name="LPLANE"> T  </i>
   <i type="logical" name="LSCALAPACK"> F  </i>
   <i type="logical" name="LSCAAWARE"> F  </i>
   <i type="logical" name="LSCALU"> F  </i>
   <i type="logical" name="LASYNC"> F  </i>
   <i type="logical" name="LORBITALREAL"> F  </i>
  </separator>
  <separator name="miscellaneous" >
   <i type="int" name="IDIOT">     3</i>
   <i type="logical" name="LMUSIC"> F  </i>
   <v name="POMASS">     12.01100000</v>
   <v name="DARWINR">      0.00000000</v>
   <v name="DARWINV">      1.00000000</v>
   <i type="logical" name="LCORR"> T  </i>
  </separator>
  <i type="logical" name="GGA_COMPAT"> T  </i>
  <i type="logical" name="LBERRY"> F  </i>
  <i type="int" name="ICORELEVEL">     0</i>
  <i type="logical" name="LDAU"> F  </i>
  <i type="int" name="I_CONSTRAINED_M">     0</i>
  <separator name="electronic exchange-correlation" >
   <i type="string" name="GGA">--</i>
   <i type="int" name="VOSKOWN">     0</i>
   <i type="logical" name="LHFCALC"> F  </i>
   <i type="string" name="PRECFOCK"></i>
   <i type="logical" name="LSYMGRAD"> F  </i>
   <i type="logical" name="LHFONE"> F  </i>
   <i type="logical" name="LRHFCALC"> F  </i>
   <i type="logical" name="LTHOMAS"> F  </i>
   <i type="logical" name="LMODELHF"> F  </i>
   <i name="ENCUT4O">     -1.00000000</i>
   <i type="int" name="EXXOEP">     0</i>
   <i type="int" name="FOURORBIT">     0</i>
   <i name="AEXX">      0.00000000</i>
   <i name="HFALPHA">      0.00000000</i>
   <i name="MCALPHA">      0.00000000</i>
   <i name="ALDAX">      1.00000000</i>
   <i name="AGGAX">      1.00000000</i>
   <i name="ALDAC">      1.00000000</i>
   <i name="AGGAC">      1.00000000</i>
   <i type="int" name="NKREDX">     1</i>
   <i type="int" name="NKREDY">     1</i>
   <i type="int" name="NKREDZ">     1</i>
   <i type="logical" name="SHIFTRED"> F  </i>
   <i type="logical" name="ODDONLY"> F  </i>
   <i type="logical" name="EVENONLY"> F  </i>
   <i type="int" name="LMAXFOCK">     0</i>
   <i type="int" name="NMAXFOCKAE">     0</i>
   <i type="logical" name="LFOCKAEDFT"> F  </i>
   <i name="HFSCREEN">      0.00000000</i>
   <i name="HFSCREENC">      0.00000000</i>
   <i type="int" name="NBANDSGWLOW">     0</i>
  </separator>
  <separator name="vdW DFT" >
   <i type="logical" name="LUSE_VDW"> F  </i>
   <i name="Zab_VDW">     -0.84910000</i>
   <i name="PARAM1">      0.12340000</i>
   <i name="PARAM2">      1.00000000</i>
   <i name="PARAM3">      0.00000000</i>
  </separator>
  <separator name="model GW" >
   <i type="int" name="MODEL_GW">     0</i>
   <i name="MODEL_EPS0">     31.62568521</i>
   <i name="MODEL_ALPHA">      1.00000000</i>
  </separator>
  <separator name="linear response parameters" >
   <i type="logical" name="LEPSILON"> F  </i>
   <i type="logical" name="LRPA"> F  </i>
   <i type="logical" name="LNABLA"> F  </i>
   <i type="logical" name="LVEL"> F  </i>
   <i type="int" name="KINTER">     0</i>
   <i name="CSHIFT">      0.10000000</i>
   <i name="OMEGAMAX">     -1.00000000</i>
   <i name="DEG_THRESHOLD">      0.00200000</i>
  </separator>
  <separator name="orbital magnetization" >
   <i type="logical" name="NUCIND"> F  </i>
   <v name="MAGPOS">      0.00000000      0.00000000      0.00000000</v>
   <i type="logical" name="LNICSALL"> T  </i>
   <i type="logical" name="ORBITALMAG"> F  </i>
   <i type="logical" name="LMAGBLOCH"> F  </i>
   <i type="logical" name="LCHIMAG"> F  </i>
   <i type="logical" name="LGAUGE"> T  </i>
   <i type="int" name="MAGATOM">     0</i>
   <v name="MAGDIPOL">      0.00000000      0.00000000      0.00000000</v>
   <v name="AVECCONST">      0.00000000      0.00000000      0.00000000</v>
  </separator>
  <separator name="response functions" >
   <i type="logical" name="LADDER"> F  </i>
   <i type="logical" name="LFXC"> F  </i>
   <i type="logical" name="LHARTREE"> T  </i>
   <i type="int" name="IBSE">     0</i>
   <i type="logical" name="LTCTE"> F  </i>
   <i type="logical" name="LTETE"> F  </i>
   <i type="logical" name="LTRIPLET"> F  </i>
   <i type="logical" name="LFXCEPS"> F  </i>
   <i type="logical" name="LFXHEG"> F  </i>
   <i type="logical" name="L2ORDER"> F  </i>
   <i type="logical" name="LUSEW"> F  </i>
   <i name="ENCUTGW">     -2.00000000</i>
   <i name="ENCUTGWSOFT">     -2.00000000</i>
   <i name="ENCUTLF">     -1.00000000</i>
   <i type="int" name="LMAXMP2">    -1</i>
   <i name="SCISSOR">      0.00000000</i>
   <i type="int" name="NOMEGA">     0</i>
   <i type="int" name="NOMEGAR">     0</i>
   <i type="int" name="NBANDSGW">    -1</i>
   <i type="int" name="NBANDSO">    -1</i>
   <i type="int" name="NBANDSV">    -1</i>
   <i type="int" name="NELM">   100</i>
   <i type="int" name="DIM">     3</i>
   <i type="int" name="ANTIRES">     0</i>
   <i name="OMEGAMAX">    -30.00000000</i>
   <i name="OMEGAMIN">    -30.00000000</i>
   <i name="OMEGATL">   -200.00000000</i>
   <i type="int" name="OMEGAGRID">     0</i>
   <i name="CSHIFT">     -0.10000000</i>
   <i type="logical" name="SELFENERGY"> F  </i>
   <i type="logical" name="LSPECTRAL"> F  </i>
   <i type="logical" name="ODDONLYGW"> F  </i>
   <i type="logical" name="EVENONLYGW"> F  </i>
   <i type="int" name="NKREDLFX">     1</i>
   <i type="int" name="NKREDLFY">     1</i>
   <i type="int" name="NKREDLFZ">     1</i>
   <i type="int" name="MAXMEM">  1800</i>
   <i type="int" name="TELESCOPE">     0</i>
   <i type="int" name="TAUPAR">     1</i>
  </separator>
  <separator name="External order field" >
   <i name="OFIELD_KAPPA">      0.00000000</i>
   <v name="OFIELD_K">      0.00000000      0.00000000      0.00000000</v>
   <i name="OFIELD_Q6_NEAR">      0.00000000</i>
   <i name="OFIELD_Q6_FAR">      0.00000000</i>
   <i name="OFIELD_A">      0.00000000</i>
  </separator>
 </parameters>
 <atominfo>
  <atoms>       4 </atoms>
  <types>       1 </types>
  <array name="atoms" >
   <dimension dim="1">ion</dimension>
   <field type="string">element</field>
   <field type="int">atomtype</field>
   <set>
    <rc><c>C </c><c>   1</c></rc>
    <rc><c>C </c><c>   1</c></rc>
    <rc><c>C </c><c>   1</c></rc>
    <rc><c>C </c><c>   1</c></rc>
   </set>
  </array>
  <array name="atomtypes" >
   <dimension dim="1">type</dimension>
   <field type="int">atomspertype</field>
   <field type="string">element</field>
   <field>mass</field>
   <field>valence</field>
   <field type="string">pseudopotential</field>
   <set>
    <rc><c>   4</c><c>C </c><c>     12.01100000</c><c>      4.00000000</c><c> PAW_PBE C 08Apr2002                    </c></rc>
   </set>
  </array>
 </atominfo>
 <structure name="initialpos" >
  <crystal>
   <varray name="basis" >
    <v>       4.25200981       0.00000000       0.00000000 </v>
    <v>       0.00000000       2.54082846       0.00000000 </v>
    <v>       0.00000000       0.00000000      19.51547300 </v>
   </varray>
   <i name="volume">    210.83790140 </i>
   <varray name="rec_basis" >
    <v>       0.23518290       0.00000000       0.00000000 </v>
    <v>       0.00000000       0.39357242       0.00000000 </v>
    <v>       0.00000000       0.00000000       0.05124139 </v>
   </varray>
  </crystal>
  <varray name="positions" >
   <v>       0.00074775       0.00000000       0.00000000 </v>
   <v>       0.16591892       0.50000000       0.00000000 </v>
   <v>       0.50074775       0.50000000       0.00000000 </v>
   <v>       0.66591892       0.00000000       0.00000000 </v>
  </varray>
 </structure>
 <calculation>
  <scstep>
   <time name="dav">  320.79  322.90</time>
   <time name="total">  323.59  325.99</time>
   <energy>
    <i name="alphaZ">      6.18334092 </i>
    <i name="ewald">   2424.68014171 </i>
    <i name="hartreedc">  -2854.92094293 </i>
    <i name="XCdc">     54.76537556 </i>
    <i name="pawpsdc">    151.32577238 </i>
    <i name="pawaedc">   -155.92769107 </i>
    <i name="eentropy">     -0.00180887 </i>
    <i name="bandstr">    -29.03701765 </i>
    <i name="atom">    588.62352690 </i>
    <i name="e_fr_energy">    185.69069695 </i>
    <i name="e_wo_entrp">    185.69250583 </i>
    <i name="e_0_energy">    185.69160139 </i>
   </energy>
  </scstep>
  <scstep>
   <time name="dav">  490.63  492.11</time>
   <time name="total">  490.63  492.13</time>
   <energy>
    <i name="e_fr_energy">     -9.66230465 </i>
    <i name="e_wo_entrp">     -9.66216938 </i>
    <i name="e_0_energy">     -9.66223701 </i>
   </energy>
  </scstep>
  <scstep>
   <time name="dav">  375.40  375.60</time>
   <time name="total">  408.84  409.30</time>
   <energy>
    <i name="e_fr_energy">    -38.04396772 </i>
    <i name="e_wo_entrp">    -38.04396772 </i>
    <i name="e_0_energy">    -38.04396772 </i>
   </energy>
  </scstep>
  <scstep>
   <time name="diag">   87.01   87.25</time>
   <time name="diis">  360.37  360.55</time>
   <time name="orth">    3.08    3.08</time>
   <time name="total">  485.85  486.38</time>
   <energy>
    <i name="e_fr_energy">    -37.53162441 </i>
    <i name="e_wo_entrp">    -37.53162441 </i>
    <i name="e_0_energy">    -37.53162441 </i>
   </energy>
  </scstep>
  <scstep>
   <time name="diag">   87.15   87.18</time>
   <time name="diis">  354.78  355.00</time>
   <time name="orth">    3.07    3.10</time>
   <time name="total">  480.27  480.76</time>
   <energy>
    <i name="e_fr_energy">    -36.83961589 </i>
    <i name="e_wo_entrp">    -36.83961589 </i>
    <i name="e_0_energy">    -36.83961589 </i>
   </energy>
  </scstep>
  <scstep>
   <time name="diag">   86.75   87.20</time>
   <time name="diis">  388.47  389.80</time>
   <time name="orth">    3.10    3.10</time>
   <time name="total">  513.76  515.61</time>
   <energy>
    <i name="e_fr_energy">    -36.84155845 </i>
    <i name="e_wo_entrp">    -36.84155844 </i>
    <i name="e_0_energy">    -36.84155844 </i>
   </energy>
  </scstep>
  <scstep>
   <time name="diag">   86.24   87.22</time>
   <time name="diis">  352.29  353.04</time>
   <time name="orth">    3.08    3.08</time>
   <time name="total">  477.05  478.97</time>
   <energy>
    <i name="e_fr_energy">    -36.83298861 </i>
    <i name="e_wo_entrp">    -36.83298861 </i>
    <i name="e_0_energy">    -36.83298861 </i>
   </energy>
  </scstep>
  <scstep>
   <time name="diag">   86.71   87.15</time>
   <time name="diis">  357.65  358.34</time>
   <time name="orth">    3.08    3.08</time>
   <time name="total">  482.63  483.82</time>
   <energy>
    <i name="e_fr_energy">    -36.82818787 </i>
    <i name="e_wo_entrp">    -36.82818787 </i>
    <i name="e_0_energy">    -36.82818787 </i>
   </energy>
  </scstep>
  <scstep>
   <time name="diag">   87.06   87.09</time>
   <time name="diis">  349.24  350.51</time>
   <time name="orth">    3.08    3.09</time>
   <time name="total">  474.10  475.55</time>
   <energy>
    <i name="e_fr_energy">    -36.82803871 </i>
    <i name="e_wo_entrp">    -36.82803870 </i>
    <i name="e_0_energy">    -36.82803871 </i>
   </energy>
  </scstep>
  <scstep>
   <time name="diag">   87.05   87.08</time>
   <time name="diis">  350.16  351.19</time>
   <time name="orth">    3.08    3.10</time>
   <time name="total">  475.21  476.61</time>
   <energy>
    <i name="e_fr_energy">    -36.82790553 </i>
    <i name="e_wo_entrp">    -36.82790552 </i>
    <i name="e_0_energy">    -36.82790552 </i>
   </energy>
  </scstep>
  <scstep>
   <time name="diag">   86.29   87.14</time>
   <time name="diis">  349.04  353.03</time>
   <time name="orth">    3.08    3.08</time>
   <time name="total">  473.62  478.89</time>
   <energy>
    <i name="e_fr_energy">    -36.83014053 </i>
    <i name="e_wo_entrp">    -36.83014053 </i>
    <i name="e_0_energy">    -36.83014053 </i>
   </energy>
  </scstep>
  <scstep>
   <time name="diag">   86.24   87.16</time>
   <time name="diis">  351.38  353.33</time>
   <time name="orth">    3.08    3.08</time>
   <time name="total">  475.95  478.98</time>
   <energy>
    <i name="e_fr_energy">    -36.83060839 </i>
    <i name="e_wo_entrp">    -36.83060839 </i>
    <i name="e_0_energy">    -36.83060839 </i>
   </energy>
  </scstep>
  <scstep>
   <time name="diag">   86.78   87.11</time>
   <time name="diis">  354.15  357.53</time>
   <time name="orth">    3.07    3.10</time>
   <time name="total">  479.23  483.19</time>
   <energy>
    <i name="e_fr_energy">    -36.83089213 </i>
    <i name="e_wo_entrp">    -36.83089213 </i>
    <i name="e_0_energy">    -36.83089213 </i>
   </energy>
  </scstep>
  <scstep>
   <time name="diag">   86.89   87.12</time>
   <time name="diis">  354.95  355.21</time>
   <time name="orth">    3.10    3.10</time>
   <time name="total">  480.21  480.79</time>
   <energy>
    <i name="e_fr_energy">    -36.83097244 </i>
    <i name="e_wo_entrp">    -36.83097244 </i>
    <i name="e_0_energy">    -36.83097244 </i>
   </energy>
  </scstep>
  <scstep>
   <time name="diag">   86.71   87.08</time>
   <time name="diis">  349.86  353.77</time>
   <time name="orth">    3.08    3.11</time>
   <time name="total">  474.40  479.11</time>
   <energy>
    <i name="e_fr_energy">    -36.83098557 </i>
    <i name="e_wo_entrp">    -36.83098557 </i>
    <i name="e_0_energy">    -36.83098557 </i>
   </energy>
  </scstep>
  <scstep>
   <time name="diag">   86.85   87.04</time>
   <time name="diis">  349.21  351.15</time>
   <time name="orth">    3.08    3.08</time>
   <time name="total">  473.94  476.41</time>
   <energy>
    <i name="e_fr_energy">    -36.83099981 </i>
    <i name="e_wo_entrp">    -36.83099980 </i>
    <i name="e_0_energy">    -36.83099981 </i>
   </energy>
  </scstep>
  <scstep>
   <time name="diag">   86.38   87.09</time>
   <time name="diis">  357.82  360.32</time>
   <time name="orth">    3.08    3.08</time>
   <time name="total">  482.41  486.00</time>
   <energy>
    <i name="e_fr_energy">    -36.83100577 </i>
    <i name="e_wo_entrp">    -36.83100577 </i>
    <i name="e_0_energy">    -36.83100577 </i>
   </energy>
  </scstep>
  <scstep>
   <time name="diag">   86.28   87.07</time>
   <time name="diis">  346.66  349.80</time>
   <time name="orth">    3.08    3.08</time>
   <time name="total">  470.83  475.10</time>
   <energy>
    <i name="e_fr_energy">    -36.83100685 </i>
    <i name="e_wo_entrp">    -36.83100685 </i>
    <i name="e_0_energy">    -36.83100685 </i>
   </energy>
  </scstep>
  <scstep>
   <time name="diag">   86.64   87.06</time>
   <time name="diis">  352.88  356.47</time>
   <time name="orth">    3.09    3.10</time>
   <time name="total">  477.51  481.89</time>
   <energy>
    <i name="e_fr_energy">    -36.83100753 </i>
    <i name="e_wo_entrp">    -36.83100753 </i>
    <i name="e_0_energy">    -36.83100753 </i>
   </energy>
  </scstep>
  <scstep>
   <time name="diag">   86.30   87.01</time>
   <time name="diis">  272.25  273.19</time>
   <time name="orth">    3.10    3.10</time>
   <time name="total">  396.68  398.57</time>
   <energy>
    <i name="e_fr_energy">    -36.83100759 </i>
    <i name="e_wo_entrp">    -36.83100759 </i>
    <i name="e_0_energy">    -36.83100759 </i>
   </energy>
  </scstep>
  <scstep>
   <time name="diag">   86.99   87.03</time>
   <time name="diis">  264.22  264.57</time>
   <time name="orth">    3.09    3.10</time>
   <time name="total">  389.25  389.84</time>
   <energy>
    <i name="e_fr_energy">    -36.83100760 </i>
    <i name="e_wo_entrp">    -36.83100760 </i>
    <i name="e_0_energy">    -36.83100760 </i>
   </energy>
  </scstep>
  <scstep>
   <time name="diag">   86.63   87.05</time>
   <time name="diis">  240.34  241.06</time>
   <time name="orth">    3.09    3.10</time>
   <time name="total">  365.29  366.56</time>
   <energy>
    <i name="e_fr_energy">    -36.83100760 </i>
    <i name="e_wo_entrp">    -36.83100760 </i>
    <i name="e_0_energy">    -36.83100760 </i>
   </energy>
  </scstep>
  <scstep>
   <time name="diag">   86.95   86.99</time>
   <time name="diis">  232.12  232.19</time>
   <time name="orth">    3.08    3.08</time>
   <time name="total">  357.41  357.57</time>
   <energy>
    <i name="e_fr_energy">    -36.83100760 </i>
    <i name="e_wo_entrp">    -36.83100760 </i>
    <i name="e_0_energy">    -36.83100760 </i>
   </energy>
  </scstep>
  <scstep>
   <time name="diag">   86.90   86.94</time>
   <time name="diis">  219.05  219.15</time>
   <time name="orth">    3.08    3.08</time>
   <time name="total">  344.24  344.51</time>
   <energy>
    <i name="e_fr_energy">    -36.83100760 </i>
    <i name="e_wo_entrp">    -36.83100760 </i>
    <i name="e_0_energy">    -36.83100760 </i>
   </energy>
  </scstep>
  <scstep>
   <time name="diag">   86.85   86.88</time>
   <time name="diis">  208.84  209.30</time>
   <time name="orth">    3.08    3.08</time>
   <time name="total">  301.37  301.90</time>
   <energy>
    <i name="alphaZ">      6.18334092 </i>
    <i name="ewald">   2424.68014171 </i>
    <i name="hartreedc">  -2919.02640269 </i>
    <i name="XCdc">     57.07135373 </i>
    <i name="pawpsdc">    267.32790104 </i>
    <i name="pawaedc">   -272.43270492 </i>
    <i name="eentropy">     -0.00000000 </i>
    <i name="bandstr">   -189.25816430 </i>
    <i name="atom">    588.62352690 </i>
    <i name="e_fr_energy">    -36.83100760 </i>
    <i name="e_wo_entrp">    -36.83100760 </i>
    <i name="e_0_energy">    -36.83100760 </i>
   </energy>
  </scstep>
  <structure>
   <crystal>
    <varray name="basis" >
     <v>       4.25200981       0.00000000       0.00000000 </v>
     <v>       0.00000000       2.54082846       0.00000000 </v>
     <v>       0.00000000       0.00000000      19.51547300 </v>
    </varray>
    <i name="volume">    210.83790140 </i>
    <varray name="rec_basis" >
     <v>       0.23518290       0.00000000       0.00000000 </v>
     <v>       0.00000000       0.39357242       0.00000000 </v>
     <v>       0.00000000       0.00000000       0.05124139 </v>
    </varray>
   </crystal>
   <varray name="positions" >
    <v>       0.00074775       0.00000000       0.00000000 </v>
    <v>       0.16591892       0.50000000       0.00000000 </v>
    <v>       0.50074775       0.50000000       0.00000000 </v>
    <v>       0.66591892       0.00000000       0.00000000 </v>
   </varray>
  </structure>
  <varray name="forces" >
   <v>      -0.00240695      -0.00000000      -0.00000000 </v>
   <v>       0.00240695      -0.00000000       0.00000000 </v>
   <v>      -0.00240695       0.00000000      -0.00000000 </v>
   <v>       0.00240695      -0.00000000       0.00000000 </v>
  </varray>
  <varray name="stress" >
   <v>      -0.01802994       0.00000000       0.00000000 </v>
   <v>       0.00000000     -48.37400305       0.00000000 </v>
   <v>       0.00000000       0.00000000      -0.01012062 </v>
  </varray>
  <energy>
   <i name="e_fr_energy">    -36.83100760 </i>
   <i name="e_wo_entrp">    -36.83100760 </i>
   <i name="e_0_energy">     -0.00000000 </i>
  </energy>
  <time name="totalsc">11157.6611208.70</time>
 </calculation>
 <calculation>
  <scstep>
   <time name="dav">  332.83  333.10</time>
   <time name="total">  368.19  368.47</time>
   <energy>
    <i name="alphaZ">      6.18334092 </i>
    <i name="ewald">   2424.68306803 </i>
    <i name="hartreedc">  -2919.02767797 </i>
    <i name="XCdc">     57.07143761 </i>
    <i name="pawpsdc">    267.32790153 </i>
    <i name="pawaedc">   -272.43270538 </i>
    <i name="eentropy">     -0.00000000 </i>
    <i name="bandstr">   -189.25989754 </i>
    <i name="atom">    588.62352690 </i>
    <i name="e_fr_energy">    -36.83100590 </i>
    <i name="e_wo_entrp">    -36.83100590 </i>
    <i name="e_0_energy">    -36.83100590 </i>
   </energy>
  </scstep>
  <scstep>
   <time name="diag">   87.01   87.05</time>
   <time name="diis">  350.76  350.92</time>
   <time name="orth">    3.08    3.08</time>
   <time name="total">  476.01  476.22</time>
   <energy>
    <i name="e_fr_energy">    -36.83100603 </i>
    <i name="e_wo_entrp">    -36.83100603 </i>
    <i name="e_0_energy">    -36.83100603 </i>
   </energy>
  </scstep>
  <scstep>
   <time name="diag">   87.07   87.10</time>
   <time name="diis">  354.21  354.38</time>
   <time name="orth">    3.08    3.08</time>
   <time name="total">  479.79  480.03</time>
   <energy>
    <i name="e_fr_energy">    -36.83100599 </i>
    <i name="e_wo_entrp">    -36.83100598 </i>
    <i name="e_0_energy">    -36.83100599 </i>
   </energy>
  </scstep>
  <scstep>
   <time name="diag">   87.00   87.05</time>
   <time name="diis">  360.17  360.34</time>
   <time name="orth">    3.09    3.10</time>
   <time name="total">  485.46  486.21</time>
   <energy>
    <i name="e_fr_energy">    -36.83100597 </i>
    <i name="e_wo_entrp">    -36.83100597 </i>
    <i name="e_0_energy">    -36.83100597 </i>
   </energy>
  </scstep>
  <scstep>
   <time name="diag">   87.02   87.06</time>
   <time name="diis">  356.53  356.67</time>
   <time name="orth">    3.10    3.10</time>
   <time name="total">  481.81  482.04</time>
   <energy>
    <i name="e_fr_energy">    -36.83100598 </i>
    <i name="e_wo_entrp">    -36.83100598 </i>
    <i name="e_0_energy">    -36.83100598 </i>
   </energy>
  </scstep>
  <scstep>
   <time name="diag">   87.02   87.07</time>
   <time name="diis">  258.74  258.86</time>
   <time name="orth">    3.10    3.10</time>
   <time name="total">  383.98  384.20</time>
   <energy>
    <i name="e_fr_energy">    -36.83100598 </i>
    <i name="e_wo_entrp">    -36.83100598 </i>
    <i name="e_0_energy">    -36.83100598 </i>
   </energy>
  </scstep>
  <scstep>
   <time name="diag">   87.02   87.06</time>
   <time name="diis">  233.50  234.32</time>
   <time name="orth">    3.08    3.10</time>
   <time name="total">  359.07  360.20</time>
   <energy>
    <i name="e_fr_energy">    -36.83100598 </i>
    <i name="e_wo_entrp">    -36.83100598 </i>
    <i name="e_0_energy">    -36.83100598 </i>
   </energy>
  </scstep>
  <scstep>
   <time name="diag">   86.63   87.06</time>
   <time name="diis">  225.03  226.16</time>
   <time name="orth">    3.08    3.08</time>
   <time name="total">  349.86  351.65</time>
   <energy>
    <i name="e_fr_energy">    -36.83100598 </i>
    <i name="e_wo_entrp">    -36.83100598 </i>
    <i name="e_0_energy">    -36.83100598 </i>
   </energy>
  </scstep>
  <scstep>
   <time name="diag">   86.98   87.01</time>
   <time name="diis">  229.04  229.13</time>
   <time name="orth">    3.08    3.08</time>
   <time name="total">  321.73  321.86</time>
   <energy>
    <i name="alphaZ">      6.18334092 </i>
    <i name="ewald">   2424.68306803 </i>
    <i name="hartreedc">  -2919.02888686 </i>
    <i name="XCdc">     57.07148754 </i>
    <i name="pawpsdc">    267.33291006 </i>
    <i name="pawaedc">   -272.43773594 </i>
    <i name="eentropy">     -0.00000000 </i>
    <i name="bandstr">   -189.25871663 </i>
    <i name="atom">    588.62352690 </i>
    <i name="e_fr_energy">    -36.83100598 </i>
    <i name="e_wo_entrp">    -36.83100598 </i>
    <i name="e_0_energy">    -36.83100598 </i>
   </energy>
  </scstep>
  <structure>
   <crystal>
    <varray name="basis" >
     <v>       4.25200981       0.00000000       0.00000000 </v>
     <v>       0.00000000       2.54082846       0.00000000 </v>
     <v>       0.00000000       0.00000000      19.51547300 </v>
    </varray>
    <i name="volume">    210.83790140 </i>
    <varray name="rec_basis" >
     <v>       0.23518290       0.00000000       0.00000000 </v>
     <v>       0.00000000       0.39357242       0.00000000 </v>
     <v>       0.00000000       0.00000000       0.05124139 </v>
    </varray>
   </crystal>
   <varray name="positions" >
    <v>       0.00072044      -0.00000000      -0.00000000 </v>
    <v>       0.16594623       0.50000000       0.00000000 </v>
    <v>       0.50072044       0.50000000      -0.00000000 </v>
    <v>       0.66594623      -0.00000000       0.00000000 </v>
   </varray>
  </structure>
  <varray name="forces" >
   <v>       0.00952602      -0.00000000      -0.00000000 </v>
   <v>      -0.00952602       0.00000000       0.00000000 </v>
   <v>       0.00952602       0.00000000      -0.00000000 </v>
   <v>      -0.00952602      -0.00000000       0.00000000 </v>
  </varray>
  <varray name="stress" >
   <v>       0.03095491       0.00000000       0.00000000 </v>
   <v>       0.00000000     -48.40010322       0.00000000 </v>
   <v>       0.00000000       0.00000000      -0.01004847 </v>
  </varray>
  <energy>
   <i name="e_fr_energy">    -36.83100598 </i>
   <i name="e_wo_entrp">    -36.83100598 </i>
   <i name="e_0_energy">     -0.00000000 </i>
  </energy>
  <time name="totalsc"> 3808.63 3813.66</time>
 </calculation>
 <calculation>
  <scstep>
   <time name="dav">  341.54  341.94</time>
   <time name="total">  377.69  378.10</time>
   <energy>
    <i name="alphaZ">      6.18334092 </i>
    <i name="ewald">   2424.68073047 </i>
    <i name="hartreedc">  -2919.02789202 </i>
    <i name="XCdc">     57.07142074 </i>
    <i name="pawpsdc">    267.33291166 </i>
    <i name="pawaedc">   -272.43773755 </i>
    <i name="eentropy">     -0.00000000 </i>
    <i name="bandstr">   -189.25730885 </i>
    <i name="atom">    588.62352690 </i>
    <i name="e_fr_energy">    -36.83100772 </i>
    <i name="e_wo_entrp">    -36.83100772 </i>
    <i name="e_0_energy">    -36.83100772 </i>
   </energy>
  </scstep>
  <scstep>
   <time name="diag">   87.02   87.05</time>
   <time name="diis">  353.35  353.68</time>
   <time name="orth">    3.10    3.11</time>
   <time name="total">  479.73  480.09</time>
   <energy>
    <i name="e_fr_energy">    -36.83100778 </i>
    <i name="e_wo_entrp">    -36.83100778 </i>
    <i name="e_0_energy">    -36.83100778 </i>
   </energy>
  </scstep>
  <scstep>
   <time name="diag">   87.00   87.08</time>
   <time name="diis">  356.96  358.64</time>
   <time name="orth">    3.10    3.10</time>
   <time name="total">  483.13  485.03</time>
   <energy>
    <i name="e_fr_energy">    -36.83100772 </i>
    <i name="e_wo_entrp">    -36.83100772 </i>
    <i name="e_0_energy">    -36.83100772 </i>
   </energy>
  </scstep>
  <scstep>
   <time name="diag">   87.02   87.04</time>
   <time name="diis">  365.43  365.51</time>
   <time name="orth">    3.10    3.10</time>
   <time name="total">  492.12  492.23</time>
   <energy>
    <i name="e_fr_energy">    -36.83100772 </i>
    <i name="e_wo_entrp">    -36.83100772 </i>
    <i name="e_0_energy">    -36.83100772 </i>
   </energy>
  </scstep>
  <scstep>
   <time name="diag">   87.07   87.10</time>
   <time name="diis">  335.62  335.92</time>
   <time name="orth">    3.10    3.11</time>
   <time name="total">  462.04  462.41</time>
   <energy>
    <i name="e_fr_energy">    -36.83100772 </i>
    <i name="e_wo_entrp">    -36.83100772 </i>
    <i name="e_0_energy">    -36.83100772 </i>
   </energy>
  </scstep>
  <scstep>
   <time name="diag">   87.08   87.11</time>
   <time name="diis">  244.77  244.93</time>
   <time name="orth">    3.10    3.10</time>
   <time name="total">  371.39  371.60</time>
   <energy>
    <i name="e_fr_energy">    -36.83100772 </i>
    <i name="e_wo_entrp">    -36.83100772 </i>
    <i name="e_0_energy">    -36.83100772 </i>
   </energy>
  </scstep>
  <scstep>
   <time name="diag">   87.03   87.06</time>
   <time name="diis">  235.90  235.96</time>
   <time name="orth">    3.08    3.08</time>
   <time name="total">  328.67  328.77</time>
   <energy>
    <i name="alphaZ">      6.18334092 </i>
    <i name="ewald">   2424.68073047 </i>
    <i name="hartreedc">  -2919.02695960 </i>
    <i name="XCdc">     57.07138082 </i>
    <i name="pawpsdc">    267.32889207 </i>
    <i name="pawaedc">   -272.43370020 </i>
    <i name="eentropy">     -0.00000000 </i>
    <i name="bandstr">   -189.25821910 </i>
    <i name="atom">    588.62352690 </i>
    <i name="e_fr_energy">    -36.83100772 </i>
    <i name="e_wo_entrp">    -36.83100772 </i>
    <i name="e_0_energy">    -36.83100772 </i>
   </energy>
  </scstep>
  <structure>
   <crystal>
    <varray name="basis" >
     <v>       4.25200981       0.00000000       0.00000000 </v>
     <v>       0.00000000       2.54082846       0.00000000 </v>
     <v>       0.00000000       0.00000000      19.51547300 </v>
    </varray>
    <i name="volume">    210.83790140 </i>
    <varray name="rec_basis" >
     <v>       0.23518290       0.00000000       0.00000000 </v>
     <v>       0.00000000       0.39357242       0.00000000 </v>
     <v>       0.00000000       0.00000000       0.05124139 </v>
    </varray>
   </crystal>
   <varray name="positions" >
    <v>       0.00074224      -0.00000000      -0.00000000 </v>
    <v>       0.16592443       0.50000000       0.00000000 </v>
    <v>       0.50074224       0.50000000      -0.00000000 </v>
    <v>       0.66592443      -0.00000000       0.00000000 </v>
   </varray>
  </structure>
  <varray name="forces" >
   <v>       0.00000746      -0.00000000       0.00000000 </v>
   <v>      -0.00000746      -0.00000000      -0.00000000 </v>
   <v>       0.00000746       0.00000000       0.00000000 </v>
   <v>      -0.00000746      -0.00000000      -0.00000000 </v>
  </varray>
  <varray name="stress" >
   <v>      -0.00810450       0.00000000       0.00000000 </v>
   <v>       0.00000000     -48.37931133       0.00000000 </v>
   <v>       0.00000000       0.00000000      -0.01018291 </v>
  </varray>
  <energy>
   <i name="e_fr_energy">    -36.83100772 </i>
   <i name="e_wo_entrp">    -36.83100772 </i>
   <i name="e_0_energy">     -0.00000000 </i>
  </energy>
  <time name="totalsc"> 3100.52 3104.36</time>
 </calculation>
 <calculation>
  <scstep>
   <time name="dav">  279.84  280.07</time>
   <time name="total">  315.95  316.18</time>
   <energy>
    <i name="alphaZ">      6.18334092 </i>
    <i name="ewald">   2424.68072864 </i>
    <i name="hartreedc">  -2919.02694911 </i>
    <i name="XCdc">     57.07138073 </i>
    <i name="pawpsdc">    267.32890138 </i>
    <i name="pawaedc">   -272.43370955 </i>
    <i name="eentropy">     -0.00000000 </i>
    <i name="bandstr">   -189.25822762 </i>
    <i name="atom">    588.62352690 </i>
    <i name="e_fr_energy">    -36.83100772 </i>
    <i name="e_wo_entrp">    -36.83100772 </i>
    <i name="e_0_energy">    -36.83100772 </i>
   </energy>
  </scstep>
  <scstep>
   <time name="diag">   86.94   86.96</time>
   <time name="diis">  214.75  215.19</time>
   <time name="orth">    3.08    3.08</time>
   <time name="total">  340.50  341.16</time>
   <energy>
    <i name="e_fr_energy">    -36.83100772 </i>
    <i name="e_wo_entrp">    -36.83100772 </i>
    <i name="e_0_energy">    -36.83100772 </i>
   </energy>
  </scstep>
  <scstep>
   <time name="diag">   86.90   86.92</time>
   <time name="diis">  211.40  211.46</time>
   <time name="orth">    3.10    3.11</time>
   <time name="total">  337.42  337.54</time>
   <energy>
    <i name="e_fr_energy">    -36.83100772 </i>
    <i name="e_wo_entrp">    -36.83100772 </i>
    <i name="e_0_energy">    -36.83100772 </i>
   </energy>
  </scstep>
  <scstep>
   <time name="diag">   86.93   86.96</time>
   <time name="diis">  208.24  208.28</time>
   <time name="orth">    3.10    3.10</time>
   <time name="total">  334.55  334.61</time>
   <energy>
    <i name="e_fr_energy">    -36.83100772 </i>
    <i name="e_wo_entrp">    -36.83100772 </i>
    <i name="e_0_energy">    -36.83100772 </i>
   </energy>
  </scstep>
  <scstep>
   <time name="diag">   87.00   87.03</time>
   <time name="diis">  207.47  207.52</time>
   <time name="orth">    3.10    3.10</time>
   <time name="total">  334.00  334.11</time>
   <energy>
    <i name="e_fr_energy">    -36.83100772 </i>
    <i name="e_wo_entrp">    -36.83100772 </i>
    <i name="e_0_energy">    -36.83100772 </i>
   </energy>
  </scstep>
  <scstep>
   <time name="diag">   86.99   87.00</time>
   <time name="diis">  196.22  196.26</time>
   <time name="orth">    3.10    3.10</time>
   <time name="total">  288.92  289.02</time>
   <energy>
    <i name="alphaZ">      6.18334092 </i>
    <i name="ewald">   2424.68072864 </i>
    <i name="hartreedc">  -2919.02690416 </i>
    <i name="XCdc">     57.07138050 </i>
    <i name="pawpsdc">    267.32890440 </i>
    <i name="pawaedc">   -272.43371268 </i>
    <i name="eentropy">     -0.00000000 </i>
    <i name="bandstr">   -189.25827224 </i>
    <i name="atom">    588.62352690 </i>
    <i name="e_fr_energy">    -36.83100772 </i>
    <i name="e_wo_entrp">    -36.83100772 </i>
    <i name="e_0_energy">    -36.83100772 </i>
   </energy>
  </scstep>
  <structure>
   <crystal>
    <varray name="basis" >
     <v>       4.25200981       0.00000000       0.00000000 </v>
     <v>       0.00000000       2.54082846       0.00000000 </v>
     <v>       0.00000000       0.00000000      19.51547300 </v>
    </varray>
    <i name="volume">    210.83790140 </i>
    <varray name="rec_basis" >
     <v>       0.23518290       0.00000000       0.00000000 </v>
     <v>       0.00000000       0.39357242       0.00000000 </v>
     <v>       0.00000000       0.00000000       0.05124139 </v>
    </varray>
   </crystal>
   <varray name="positions" >
    <v>       0.00074226      -0.00000000      -0.00000000 </v>
    <v>       0.16592441       0.50000000       0.00000000 </v>
    <v>       0.50074226       0.50000000      -0.00000000 </v>
    <v>       0.66592441      -0.00000000       0.00000000 </v>
   </varray>
  </structure>
  <varray name="forces" >
   <v>      -0.00001219       0.00000000      -0.00000000 </v>
   <v>       0.00001219      -0.00000000       0.00000000 </v>
   <v>      -0.00001219       0.00000000      -0.00000000 </v>
   <v>       0.00001219      -0.00000000       0.00000000 </v>
  </varray>
  <varray name="stress" >
   <v>      -0.00818437       0.00000000       0.00000000 </v>
   <v>       0.00000000     -48.37924002       0.00000000 </v>
   <v>       0.00000000       0.00000000      -0.01013368 </v>
  </varray>
  <energy>
   <i name="e_fr_energy">    -36.83100772 </i>
   <i name="e_wo_entrp">    -36.83100772 </i>
   <i name="e_0_energy">     -0.00000000 </i>
  </energy>
  <time name="totalsc"> 2057.61 2059.03</time>
 </calculation>
 <calculation>
  <scstep>
   <time name="dav">  267.82  268.09</time>
   <time name="total">  304.14  304.42</time>
   <energy>
    <i name="alphaZ">      6.18334092 </i>
    <i name="ewald">   2424.68072977 </i>
    <i name="hartreedc">  -2919.02690362 </i>
    <i name="XCdc">     57.07138052 </i>
    <i name="pawpsdc">    267.32890443 </i>
    <i name="pawaedc">   -272.43371271 </i>
    <i name="eentropy">     -0.00000000 </i>
    <i name="bandstr">   -189.25827393 </i>
    <i name="atom">    588.62352690 </i>
    <i name="e_fr_energy">    -36.83100772 </i>
    <i name="e_wo_entrp">    -36.83100772 </i>
    <i name="e_0_energy">    -36.83100772 </i>
   </energy>
  </scstep>
  <scstep>
   <time name="diag">   87.03   87.05</time>
   <time name="diis">  165.49  165.53</time>
   <time name="orth">    3.10    3.10</time>
   <time name="total">  291.54  291.63</time>
   <energy>
    <i name="e_fr_energy">    -36.83100772 </i>
    <i name="e_wo_entrp">    -36.83100772 </i>
    <i name="e_0_energy">    -36.83100772 </i>
   </energy>
  </scstep>
  <scstep>
   <time name="diag">   87.04   87.06</time>
   <time name="diis">  164.38  164.73</time>
   <time name="orth">    3.08    3.08</time>
   <time name="total">  290.30  291.49</time>
   <energy>
    <i name="e_fr_energy">    -36.83100772 </i>
    <i name="e_wo_entrp">    -36.83100772 </i>
    <i name="e_0_energy">    -36.83100772 </i>
   </energy>
  </scstep>
  <scstep>
   <time name="diag">   86.60   87.03</time>
   <time name="diis">  163.29  164.04</time>
   <time name="orth">    3.08    3.08</time>
   <time name="total">  288.58  289.95</time>
   <energy>
    <i name="e_fr_energy">    -36.83100772 </i>
    <i name="e_wo_entrp">    -36.83100772 </i>
    <i name="e_0_energy">    -36.83100772 </i>
   </energy>
  </scstep>
  <scstep>
   <time name="diag">   86.61   87.05</time>
   <time name="diis">  163.08  163.45</time>
   <time name="orth">    3.08    3.08</time>
   <time name="total">  255.35  256.28</time>
   <energy>
    <i name="alphaZ">      6.18334092 </i>
    <i name="ewald">   2424.68072977 </i>
    <i name="hartreedc">  -2919.02690885 </i>
    <i name="XCdc">     57.07138071 </i>
    <i name="pawpsdc">    267.32890976 </i>
    <i name="pawaedc">   -272.43371808 </i>
    <i name="eentropy">     -0.00000000 </i>
    <i name="bandstr">   -189.25826886 </i>
    <i name="atom">    588.62352690 </i>
    <i name="e_fr_energy">    -36.83100772 </i>
    <i name="e_wo_entrp">    -36.83100772 </i>
    <i name="e_0_energy">    -36.83100772 </i>
   </energy>
  </scstep>
  <structure>
   <crystal>
    <varray name="basis" >
     <v>       4.25200981       0.00000000       0.00000000 </v>
     <v>       0.00000000       2.54082846       0.00000000 </v>
     <v>       0.00000000       0.00000000      19.51547300 </v>
    </varray>
    <i name="volume">    210.83790140 </i>
    <varray name="rec_basis" >
     <v>       0.23518290       0.00000000       0.00000000 </v>
     <v>       0.00000000       0.39357242       0.00000000 </v>
     <v>       0.00000000       0.00000000       0.05124139 </v>
    </varray>
   </crystal>
   <varray name="positions" >
    <v>       0.00074225      -0.00000000      -0.00000000 </v>
    <v>       0.16592442       0.50000000       0.00000000 </v>
    <v>       0.50074225       0.50000000      -0.00000000 </v>
    <v>       0.66592442      -0.00000000       0.00000000 </v>
   </varray>
  </structure>
  <varray name="forces" >
   <v>      -0.00000285       0.00000000       0.00000000 </v>
   <v>       0.00000285      -0.00000000      -0.00000000 </v>
   <v>      -0.00000285       0.00000000       0.00000000 </v>
   <v>       0.00000285      -0.00000000      -0.00000000 </v>
  </varray>
  <varray name="stress" >
   <v>      -0.00814804       0.00000000       0.00000000 </v>
   <v>       0.00000000     -48.37927564       0.00000000 </v>
   <v>       0.00000000       0.00000000      -0.01010349 </v>
  </varray>
  <energy>
   <i name="e_fr_energy">    -36.83100772 </i>
   <i name="e_wo_entrp">    -36.83100772 </i>
   <i name="e_0_energy">     -0.00000000 </i>
  </energy>
  <time name="totalsc"> 1536.15 1540.46</time>
 </calculation>
 <calculation>
  <scstep>
   <time name="dav">  293.53  294.25</time>
   <time name="total">  329.19  329.94</time>
   <energy>
    <i name="alphaZ">      6.18334092 </i>
    <i name="ewald">   2424.68073012 </i>
    <i name="hartreedc">  -2919.02690914 </i>
    <i name="XCdc">     57.07138072 </i>
    <i name="pawpsdc">    267.32890975 </i>
    <i name="pawaedc">   -272.43371808 </i>
    <i name="eentropy">     -0.00000000 </i>
    <i name="bandstr">   -189.25826892 </i>
    <i name="atom">    588.62352690 </i>
    <i name="e_fr_energy">    -36.83100772 </i>
    <i name="e_wo_entrp">    -36.83100772 </i>
    <i name="e_0_energy">    -36.83100772 </i>
   </energy>
  </scstep>
  <scstep>
   <time name="diag">   87.05   87.07</time>
   <time name="diis">  146.61  146.64</time>
   <time name="orth">    3.08    3.08</time>
   <time name="total">  271.96  272.06</time>
   <energy>
    <i name="e_fr_energy">    -36.83100772 </i>
    <i name="e_wo_entrp">    -36.83100772 </i>
    <i name="e_0_energy">    -36.83100772 </i>
   </energy>
  </scstep>
  <scstep>
   <time name="diag">   86.77   87.07</time>
   <time name="diis">  152.74  152.95</time>
   <time name="orth">    3.10    3.10</time>
   <time name="total">  277.94  278.51</time>
   <energy>
    <i name="e_fr_energy">    -36.83100772 </i>
    <i name="e_wo_entrp">    -36.83100772 </i>
    <i name="e_0_energy">    -36.83100772 </i>
   </energy>
  </scstep>
  <scstep>
   <time name="diag">   87.10   87.12</time>
   <time name="diis">  137.48  137.52</time>
   <time name="orth">    3.10    3.10</time>
   <time name="total">  263.03  263.11</time>
   <energy>
    <i name="e_fr_energy">    -36.83100772 </i>
    <i name="e_wo_entrp">    -36.83100772 </i>
    <i name="e_0_energy">    -36.83100772 </i>
   </energy>
  </scstep>
  <scstep>
   <time name="diag">   86.85   87.05</time>
   <time name="diis">  140.08  140.72</time>
   <time name="orth">    3.08    3.10</time>
   <time name="total">  232.62  233.65</time>
   <energy>
    <i name="alphaZ">      6.18334092 </i>
    <i name="ewald">   2424.68073012 </i>
    <i name="hartreedc">  -2919.02690819 </i>
    <i name="XCdc">     57.07138069 </i>
    <i name="pawpsdc">    267.32890980 </i>
    <i name="pawaedc">   -272.43371813 </i>
    <i name="eentropy">     -0.00000000 </i>
    <i name="bandstr">   -189.25826983 </i>
    <i name="atom">    588.62352690 </i>
    <i name="e_fr_energy">    -36.83100772 </i>
    <i name="e_wo_entrp">    -36.83100772 </i>
    <i name="e_0_energy">    -36.83100772 </i>
   </energy>
  </scstep>
  <structure>
   <crystal>
    <varray name="basis" >
     <v>       4.25200981       0.00000000       0.00000000 </v>
     <v>       0.00000000       2.54082846       0.00000000 </v>
     <v>       0.00000000       0.00000000      19.51547300 </v>
    </varray>
    <i name="volume">    210.83790140 </i>
    <varray name="rec_basis" >
     <v>       0.23518290       0.00000000       0.00000000 </v>
     <v>       0.00000000       0.39357242       0.00000000 </v>
     <v>       0.00000000       0.00000000       0.05124139 </v>
    </varray>
   </crystal>
   <varray name="positions" >
    <v>       0.00074224       0.00000000       0.00000000 </v>
    <v>       0.16592442       0.50000000      -0.00000000 </v>
    <v>       0.50074224       0.50000000       0.00000000 </v>
    <v>       0.66592442      -0.00000000      -0.00000000 </v>
   </varray>
  </structure>
  <varray name="forces" >
   <v>      -0.00000211      -0.00000000      -0.00000000 </v>
   <v>       0.00000211      -0.00000000       0.00000000 </v>
   <v>      -0.00000211      -0.00000000      -0.00000000 </v>
   <v>       0.00000211       0.00000000       0.00000000 </v>
  </varray>
  <varray name="stress" >
   <v>      -0.00814520       0.00000000       0.00000000 </v>
   <v>       0.00000000     -48.37927046       0.00000000 </v>
   <v>       0.00000000       0.00000000      -0.01011653 </v>
  </varray>
  <energy>
   <i name="e_fr_energy">    -36.83100772 </i>
   <i name="e_wo_entrp">    -36.83100772 </i>
   <i name="e_0_energy">     -0.00000000 </i>
  </energy>
  <time name="totalsc"> 1477.68 1490.91</time>
 </calculation>
 <calculation>
  <scstep>
   <time name="dav">  267.86  268.09</time>
   <time name="total">  303.13  303.38</time>
   <energy>
    <i name="alphaZ">      6.18334092 </i>
    <i name="ewald">   2424.68073111 </i>
    <i name="hartreedc">  -2919.02690862 </i>
    <i name="XCdc">     57.07138072 </i>
    <i name="pawpsdc">    267.32890980 </i>
    <i name="pawaedc">   -272.43371813 </i>
    <i name="eentropy">     -0.00000000 </i>
    <i name="bandstr">   -189.25827043 </i>
    <i name="atom">    588.62352690 </i>
    <i name="e_fr_energy">    -36.83100772 </i>
    <i name="e_wo_entrp">    -36.83100772 </i>
    <i name="e_0_energy">    -36.83100772 </i>
   </energy>
  </scstep>
  <scstep>
   <time name="diag">   86.99   87.04</time>
   <time name="diis">  127.99  128.09</time>
   <time name="orth">    3.10    3.10</time>
   <time name="total">  253.52  253.70</time>
   <energy>
    <i name="e_fr_energy">    -36.83100772 </i>
    <i name="e_wo_entrp">    -36.83100772 </i>
    <i name="e_0_energy">    -36.83100772 </i>
   </energy>
  </scstep>
  <scstep>
   <time name="diag">   87.02   87.07</time>
   <time name="diis">  137.99  138.03</time>
   <time name="orth">    3.08    3.08</time>
   <time name="total">  263.45  263.56</time>
   <energy>
    <i name="e_fr_energy">    -36.83100772 </i>
    <i name="e_wo_entrp">    -36.83100772 </i>
    <i name="e_0_energy">    -36.83100772 </i>
   </energy>
  </scstep>
  <scstep>
   <time name="diag">   87.03   87.07</time>
   <time name="diis">  118.99  119.51</time>
   <time name="orth">    3.08    3.08</time>
   <time name="total">  244.50  245.24</time>
   <energy>
    <i name="e_fr_energy">    -36.83100772 </i>
    <i name="e_wo_entrp">    -36.83100772 </i>
    <i name="e_0_energy">    -36.83100772 </i>
   </energy>
  </scstep>
  <scstep>
   <time name="diag">   87.02   87.12</time>
   <time name="diis">  123.85  123.89</time>
   <time name="orth">    3.08    3.08</time>
   <time name="total">  216.59  216.75</time>
   <energy>
    <i name="alphaZ">      6.18334092 </i>
    <i name="ewald">   2424.68073111 </i>
    <i name="hartreedc">  -2919.02691011 </i>
    <i name="XCdc">     57.07138077 </i>
    <i name="pawpsdc">    267.32891254 </i>
    <i name="pawaedc">   -272.43372088 </i>
    <i name="eentropy">     -0.00000000 </i>
    <i name="bandstr">   -189.25826898 </i>
    <i name="atom">    588.62352690 </i>
    <i name="e_fr_energy">    -36.83100772 </i>
    <i name="e_wo_entrp">    -36.83100772 </i>
    <i name="e_0_energy">    -36.83100772 </i>
   </energy>
  </scstep>
  <structure>
   <crystal>
    <varray name="basis" >
     <v>       4.25200981       0.00000000       0.00000000 </v>
     <v>       0.00000000       2.54082846       0.00000000 </v>
     <v>       0.00000000       0.00000000      19.51547300 </v>
    </varray>
    <i name="volume">    210.83790140 </i>
    <varray name="rec_basis" >
     <v>       0.23518290       0.00000000       0.00000000 </v>
     <v>       0.00000000       0.39357242       0.00000000 </v>
     <v>       0.00000000       0.00000000       0.05124139 </v>
    </varray>
   </crystal>
   <varray name="positions" >
    <v>       0.00074223      -0.00000000       0.00000000 </v>
    <v>       0.16592443       0.50000000      -0.00000000 </v>
    <v>       0.50074223       0.50000000       0.00000000 </v>
    <v>       0.66592443      -0.00000000      -0.00000000 </v>
   </varray>
  </structure>
  <varray name="forces" >
   <v>       0.00000181       0.00000000      -0.00000000 </v>
   <v>      -0.00000181      -0.00000000       0.00000000 </v>
   <v>       0.00000181      -0.00000000      -0.00000000 </v>
   <v>      -0.00000181       0.00000000       0.00000000 </v>
  </varray>
  <varray name="stress" >
   <v>      -0.00813274       0.00000000       0.00000000 </v>
   <v>       0.00000000     -48.37927958       0.00000000 </v>
   <v>       0.00000000       0.00000000      -0.01010550 </v>
  </varray>
  <energy>
   <i name="e_fr_energy">    -36.83100772 </i>
   <i name="e_wo_entrp">    -36.83100772 </i>
   <i name="e_0_energy">     -0.00000000 </i>
  </energy>
  <time name="totalsc"> 1385.85 1390.21</time>
 </calculation>
 <calculation>
  <scstep>
   <time name="dav">  264.75  264.88</time>
   <time name="total">  300.02  300.15</time>
   <energy>
    <i name="alphaZ">      6.18334092 </i>
    <i name="ewald">   2424.68073065 </i>
    <i name="hartreedc">  -2919.02691006 </i>
    <i name="XCdc">     57.07138076 </i>
    <i name="pawpsdc">    267.32891256 </i>
    <i name="pawaedc">   -272.43372089 </i>
    <i name="eentropy">     -0.00000000 </i>
    <i name="bandstr">   -189.25826856 </i>
    <i name="atom">    588.62352690 </i>
    <i name="e_fr_energy">    -36.83100772 </i>
    <i name="e_wo_entrp">    -36.83100772 </i>
    <i name="e_0_energy">    -36.83100772 </i>
   </energy>
  </scstep>
  <scstep>
   <time name="diag">   87.10   87.13</time>
   <time name="diis">  117.69  117.75</time>
   <time name="orth">    3.10    3.10</time>
   <time name="total">  243.06  243.20</time>
   <energy>
    <i name="e_fr_energy">    -36.83100772 </i>
    <i name="e_wo_entrp">    -36.83100772 </i>
    <i name="e_0_energy">    -36.83100772 </i>
   </energy>
  </scstep>
  <scstep>
   <time name="diag">   86.82   86.97</time>
   <time name="diis">  127.54  127.90</time>
   <time name="orth">    3.10    3.10</time>
   <time name="total">  252.80  253.37</time>
   <energy>
    <i name="e_fr_energy">    -36.83100772 </i>
    <i name="e_wo_entrp">    -36.83100772 </i>
    <i name="e_0_energy">    -36.83100772 </i>
   </energy>
  </scstep>
  <scstep>
   <time name="diag">   87.02   87.05</time>
   <time name="diis">  134.88  135.01</time>
   <time name="orth">    3.10    3.10</time>
   <time name="total">  259.96  260.20</time>
   <energy>
    <i name="e_fr_energy">    -36.83100772 </i>
    <i name="e_wo_entrp">    -36.83100772 </i>
    <i name="e_0_energy">    -36.83100772 </i>
   </energy>
  </scstep>
  <scstep>
   <time name="diag">   86.94   87.02</time>
   <time name="diis">  131.50  131.61</time>
   <time name="orth">    3.10    3.10</time>
   <time name="total">  224.19  224.40</time>
   <energy>
    <i name="alphaZ">      6.18334092 </i>
    <i name="ewald">   2424.68073065 </i>
    <i name="hartreedc">  -2919.02690913 </i>
    <i name="XCdc">     57.07138073 </i>
    <i name="pawpsdc">    267.32891068 </i>
    <i name="pawaedc">   -272.43371902 </i>
    <i name="eentropy">     -0.00000000 </i>
    <i name="bandstr">   -189.25826946 </i>
    <i name="atom">    588.62352690 </i>
    <i name="e_fr_energy">    -36.83100772 </i>
    <i name="e_wo_entrp">    -36.83100772 </i>
    <i name="e_0_energy">    -36.83100772 </i>
   </energy>
  </scstep>
  <structure>
   <crystal>
    <varray name="basis" >
     <v>       4.25200981       0.00000000       0.00000000 </v>
     <v>       0.00000000       2.54082846       0.00000000 </v>
     <v>       0.00000000       0.00000000      19.51547300 </v>
    </varray>
    <i name="volume">    210.83790140 </i>
    <varray name="rec_basis" >
     <v>       0.23518290       0.00000000       0.00000000 </v>
     <v>       0.00000000       0.39357242       0.00000000 </v>
     <v>       0.00000000       0.00000000       0.05124139 </v>
    </varray>
   </crystal>
   <varray name="positions" >
[...]
       <r>   -8.9717    1.0000 </r>
       <r>   -5.6756    1.0000 </r>
       <r>   -5.6756    1.0000 </r>
       <r>   -0.5984    0.0000 </r>
       <r>   -0.5984    0.0000 </r>
       <r>    4.8031    0.0000 </r>
       <r>    4.8031    0.0000 </r>
      </set>
      <set comment="kpoint 209">
       <r>  -18.8373    1.0000 </r>
       <r>  -17.1684    1.0000 </r>
       <r>  -13.8233    1.0000 </r>
       <r>  -12.2912    1.0000 </r>
       <r>  -12.2800    1.0000 </r>
       <r>  -10.8415    1.0000 </r>
       <r>   -6.5115    1.0000 </r>
       <r>   -4.7286    1.0000 </r>
       <r>   -0.9977    0.0000 </r>
       <r>    1.0355    0.0000 </r>
       <r>    4.9939    0.0000 </r>
       <r>    5.7831    0.0000 </r>
      </set>
      <set comment="kpoint 210">
       <r>  -18.8275    1.0000 </r>
       <r>  -17.1610    1.0000 </r>
       <r>  -13.9170    1.0000 </r>
       <r>  -12.3692    1.0000 </r>
       <r>  -12.1889    1.0000 </r>
       <r>  -10.7538    1.0000 </r>
       <r>   -6.5026    1.0000 </r>
       <r>   -4.7305    1.0000 </r>
       <r>   -1.0092    0.0000 </r>
       <r>    1.0095    0.0000 </r>
       <r>    5.0077    0.0000 </r>
       <r>    5.7994    0.0000 </r>
      </set>
      <set comment="kpoint 211">
       <r>  -18.7983    1.0000 </r>
       <r>  -17.1393    1.0000 </r>
       <r>  -14.1448    1.0000 </r>
       <r>  -12.5893    1.0000 </r>
       <r>  -11.9352    1.0000 </r>
       <r>  -10.5385    1.0000 </r>
       <r>   -6.4763    1.0000 </r>
       <r>   -4.7367    1.0000 </r>
       <r>   -1.0417    0.0000 </r>
       <r>    0.9332    0.0000 </r>
       <r>    5.0489    0.0000 </r>
       <r>    5.8478    0.0000 </r>
      </set>
      <set comment="kpoint 212">
       <r>  -18.7497    1.0000 </r>
       <r>  -17.1046    1.0000 </r>
       <r>  -14.4297    1.0000 </r>
       <r>  -12.8716    1.0000 </r>
       <r>  -11.6073    1.0000 </r>
       <r>  -10.2666    1.0000 </r>
       <r>   -6.4327    1.0000 </r>
       <r>   -4.7486    1.0000 </r>
       <r>   -1.0898    0.0000 </r>
       <r>    0.8124    0.0000 </r>
       <r>    5.1172    0.0000 </r>
       <r>    5.9272    0.0000 </r>
      </set>
      <set comment="kpoint 213">
       <r>  -18.6819    1.0000 </r>
       <r>  -17.0596    1.0000 </r>
       <r>  -14.7284    1.0000 </r>
       <r>  -13.1779    1.0000 </r>
       <r>  -11.2481    1.0000 </r>
       <r>   -9.9796    1.0000 </r>
       <r>   -6.3725    1.0000 </r>
       <r>   -4.7688    1.0000 </r>
       <r>   -1.1454    0.0000 </r>
       <r>    0.6550    0.0000 </r>
       <r>    5.2119    0.0000 </r>
       <r>    6.0363    0.0000 </r>
      </set>
      <set comment="kpoint 214">
       <r>  -18.5952    1.0000 </r>
       <r>  -17.0094    1.0000 </r>
       <r>  -15.0176    1.0000 </r>
       <r>  -13.4903    1.0000 </r>
       <r>  -10.8792    1.0000 </r>
       <r>   -9.7003    1.0000 </r>
       <r>   -6.2964    1.0000 </r>
       <r>   -4.8001    1.0000 </r>
       <r>   -1.1990    0.0000 </r>
       <r>    0.4701    0.0000 </r>
       <r>    5.3299    0.0000 </r>
       <r>    6.1738    0.0000 </r>
      </set>
      <set comment="kpoint 215">
       <r>  -18.4899    1.0000 </r>
       <r>  -16.9632    1.0000 </r>
       <r>  -15.2794    1.0000 </r>
       <r>  -13.7995    1.0000 </r>
       <r>  -10.5140    1.0000 </r>
       <r>   -9.4438    1.0000 </r>
       <r>   -6.2054    1.0000 </r>
       <r>   -4.8455    1.0000 </r>
       <r>   -1.2408    0.0000 </r>
       <r>    0.2668    0.0000 </r>
       <r>    5.4462    0.0000 </r>
       <r>    5.7716    0.0000 </r>
      </set>
      <set comment="kpoint 216">
       <r>  -18.3668    1.0000 </r>
       <r>  -16.9371    1.0000 </r>
       <r>  -15.4929    1.0000 </r>
       <r>  -14.0999    1.0000 </r>
       <r>  -10.1630    1.0000 </r>
       <r>   -9.2223    1.0000 </r>
       <r>   -6.1010    1.0000 </r>
       <r>   -4.9074    1.0000 </r>
       <r>   -1.2620    0.0000 </r>
       <r>    0.0538    0.0000 </r>
       <r>    5.2933    0.0000 </r>
       <r>    5.7197    0.0000 </r>
      </set>
      <set comment="kpoint 217">
       <r>  -18.2265    1.0000 </r>
       <r>  -16.9541    1.0000 </r>
       <r>  -15.6322    1.0000 </r>
       <r>  -14.3877    1.0000 </r>
       <r>   -9.8357    1.0000 </r>
       <r>   -9.0466    1.0000 </r>
       <r>   -5.9849    1.0000 </r>
       <r>   -4.9871    1.0000 </r>
       <r>   -1.2558    0.0000 </r>
       <r>   -0.1610    0.0000 </r>
       <r>    5.0041    0.0000 </r>
       <r>    5.8206    0.0000 </r>
      </set>
      <set comment="kpoint 218">
       <r>  -18.0702    1.0000 </r>
       <r>  -17.0329    1.0000 </r>
       <r>  -15.6770    1.0000 </r>
       <r>  -14.6597    1.0000 </r>
       <r>   -9.5417    1.0000 </r>
       <r>   -8.9257    1.0000 </r>
       <r>   -5.8592    1.0000 </r>
       <r>   -5.0841    1.0000 </r>
       <r>   -1.2180    0.0000 </r>
       <r>   -0.3708    0.0000 </r>
       <r>    4.7842    0.0000 </r>
       <r>    5.4206    0.0000 </r>
      </set>
      <set comment="kpoint 219">
       <r>  -17.8998    1.0000 </r>
       <r>  -17.1695    1.0000 </r>
       <r>  -15.6302    1.0000 </r>
       <r>  -14.9129    1.0000 </r>
       <r>   -9.2903    1.0000 </r>
       <r>   -8.8671    1.0000 </r>
       <r>   -5.7266    1.0000 </r>
       <r>   -5.1965    1.0000 </r>
       <r>   -1.1471    0.0000 </r>
       <r>   -0.5692    0.0000 </r>
       <r>    4.6538    0.0000 </r>
       <r>    5.0912    0.0000 </r>
      </set>
      <set comment="kpoint 220">
       <r>  -17.7180    1.0000 </r>
       <r>  -17.3420    1.0000 </r>
       <r>  -15.5130    1.0000 </r>
       <r>  -15.1434    1.0000 </r>
       <r>   -9.0906    1.0000 </r>
       <r>   -8.8749    1.0000 </r>
       <r>   -5.5902    1.0000 </r>
       <r>   -5.3211    1.0000 </r>
       <r>   -1.0437    0.0000 </r>
       <r>   -0.7508    0.0000 </r>
       <r>    4.6197    0.0000 </r>
       <r>    4.8426    0.0000 </r>
      </set>
      <set comment="kpoint 221">
       <r>  -17.5294    1.0000 </r>
       <r>  -17.5294    1.0000 </r>
       <r>  -15.3461    1.0000 </r>
       <r>  -15.3461    1.0000 </r>
       <r>   -8.9503    1.0000 </r>
       <r>   -8.9503    1.0000 </r>
       <r>   -5.4537    1.0000 </r>
       <r>   -5.4537    1.0000 </r>
       <r>   -0.9104    0.0000 </r>
       <r>   -0.9104    0.0000 </r>
       <r>    4.6834    0.0000 </r>
       <r>    4.6834    0.0000 </r>
      </set>
      <set comment="kpoint 222">
       <r>  -18.4418    1.0000 </r>
       <r>  -17.6036    1.0000 </r>
       <r>  -13.4659    1.0000 </r>
       <r>  -12.6935    1.0000 </r>
       <r>  -11.9636    1.0000 </r>
       <r>  -11.2342    1.0000 </r>
       <r>   -6.0789    1.0000 </r>
       <r>   -5.1829    1.0000 </r>
       <r>   -0.5208    0.0000 </r>
       <r>    0.4977    0.0000 </r>
       <r>    5.5570    0.0000 </r>
       <r>    6.3160    0.0000 </r>
      </set>
      <set comment="kpoint 223">
       <r>  -18.4322    1.0000 </r>
       <r>  -17.5950    1.0000 </r>
       <r>  -13.5605    1.0000 </r>
       <r>  -12.7853    1.0000 </r>
       <r>  -11.8631    1.0000 </r>
       <r>  -11.1413    1.0000 </r>
       <r>   -6.0714    1.0000 </r>
       <r>   -5.1801    1.0000 </r>
       <r>   -0.5383    0.0000 </r>
       <r>    0.4736    0.0000 </r>
       <r>    5.5707    0.0000 </r>
       <r>    6.3330    0.0000 </r>
      </set>
      <set comment="kpoint 224">
       <r>  -18.4037    1.0000 </r>
       <r>  -17.5695    1.0000 </r>
       <r>  -13.7910    1.0000 </r>
       <r>  -13.0106    1.0000 </r>
       <r>  -11.6154    1.0000 </r>
       <r>  -10.9133    1.0000 </r>
       <r>   -6.0489    1.0000 </r>
       <r>   -5.1722    1.0000 </r>
       <r>   -0.5886    0.0000 </r>
       <r>    0.4033    0.0000 </r>
       <r>    5.6116    0.0000 </r>
       <r>    6.3837    0.0000 </r>
      </set>
      <set comment="kpoint 225">
       <r>  -18.3563    1.0000 </r>
       <r>  -17.5276    1.0000 </r>
       <r>  -14.0813    1.0000 </r>
       <r>  -13.2977    1.0000 </r>
       <r>  -11.2974    1.0000 </r>
       <r>  -10.6237    1.0000 </r>
       <r>   -6.0120    1.0000 </r>
       <r>   -5.1601    1.0000 </r>
       <r>   -0.6664    0.0000 </r>
       <r>    0.2922    0.0000 </r>
       <r>    5.6794    0.0000 </r>
       <r>    6.4665    0.0000 </r>
      </set>
      <set comment="kpoint 226">
       <r>  -18.2903    1.0000 </r>
       <r>  -17.4704    1.0000 </r>
       <r>  -14.3902    1.0000 </r>
       <r>  -13.6074    1.0000 </r>
       <r>  -10.9520    1.0000 </r>
       <r>  -10.3147    1.0000 </r>
       <r>   -5.9615    1.0000 </r>
       <r>   -5.1458    1.0000 </r>
       <r>   -0.7635    0.0000 </r>
       <r>    0.1483    0.0000 </r>
       <r>    5.7726    0.0000 </r>
       <r>    6.5796    0.0000 </r>
      </set>
      <set comment="kpoint 227">
       <r>  -18.2062    1.0000 </r>
       <r>  -17.3999    1.0000 </r>
       <r>  -14.6979    1.0000 </r>
       <r>  -13.9217    1.0000 </r>
       <r>  -10.6010    1.0000 </r>
       <r>  -10.0086    1.0000 </r>
       <r>   -5.8984    1.0000 </r>
       <r>   -5.1319    1.0000 </r>
       <r>   -0.8703    0.0000 </r>
       <r>   -0.0192    0.0000 </r>
       <r>    5.8831    0.0000 </r>
       <r>    6.4509    0.0000 </r>
      </set>
      <set comment="kpoint 228">
       <r>  -18.1047    1.0000 </r>
       <r>  -17.3193    1.0000 </r>
       <r>  -14.9922    1.0000 </r>
       <r>  -14.2309    1.0000 </r>
       <r>  -10.2581    1.0000 </r>
       <r>   -9.7201    1.0000 </r>
       <r>   -5.8245    1.0000 </r>
       <r>   -5.1214    1.0000 </r>
       <r>   -0.9761    0.0000 </r>
       <r>   -0.2009    0.0000 </r>
       <r>    5.8671    0.0000 </r>
       <r>    6.1387    0.0000 </r>
      </set>
      <set comment="kpoint 229">
       <r>  -17.9867    1.0000 </r>
       <r>  -17.2344    1.0000 </r>
       <r>  -15.2628    1.0000 </r>
       <r>  -14.5293    1.0000 </r>
       <r>   -9.9343    1.0000 </r>
       <r>   -9.4610    1.0000 </r>
       <r>   -5.7418    1.0000 </r>
       <r>   -5.1180    1.0000 </r>
       <r>   -1.0708    0.0000 </r>
       <r>   -0.3873    0.0000 </r>
       <r>    5.4985    0.0000 </r>
       <r>    5.9886    0.0000 </r>
      </set>
      <set comment="kpoint 230">
       <r>  -17.8540    1.0000 </r>
       <r>  -17.1555    1.0000 </r>
       <r>  -15.4963    1.0000 </r>
       <r>  -14.8122    1.0000 </r>
       <r>   -9.6395    1.0000 </r>
       <r>   -9.2422    1.0000 </r>
       <r>   -5.6528    1.0000 </r>
       <r>   -5.1252    1.0000 </r>
       <r>   -1.1451    0.0000 </r>
       <r>   -0.5701    0.0000 </r>
       <r>    5.1518    0.0000 </r>
       <r>    5.5613    0.0000 </r>
      </set>
      <set comment="kpoint 231">
       <r>  -17.7089    1.0000 </r>
       <r>  -17.1004    1.0000 </r>
       <r>  -15.6736    1.0000 </r>
       <r>  -15.0753    1.0000 </r>
       <r>   -9.3835    1.0000 </r>
       <r>   -9.0732    1.0000 </r>
       <r>   -5.5606    1.0000 </r>
       <r>   -5.1461    1.0000 </r>
       <r>   -1.1910    0.0000 </r>
       <r>   -0.7412    0.0000 </r>
       <r>    4.8795    0.0000 </r>
       <r>    5.1994    0.0000 </r>
      </set>
      <set comment="kpoint 232">
       <r>  -17.5557    1.0000 </r>
       <r>  -17.0927    1.0000 </r>
       <r>  -15.7696    1.0000 </r>
       <r>  -15.3132    1.0000 </r>
       <r>   -9.1758    1.0000 </r>
       <r>   -8.9625    1.0000 </r>
       <r>   -5.4688    1.0000 </r>
       <r>   -5.1825    1.0000 </r>
       <r>   -1.2031    0.0000 </r>
       <r>   -0.8936    0.0000 </r>
       <r>    4.6943    0.0000 </r>
       <r>    4.9143    0.0000 </r>
      </set>
      <set comment="kpoint 233">
       <r>  -17.4016    1.0000 </r>
       <r>  -17.1483    1.0000 </r>
       <r>  -15.7678    1.0000 </r>
       <r>  -15.5178    1.0000 </r>
       <r>   -9.0248    1.0000 </r>
       <r>   -8.9160    1.0000 </r>
       <r>   -5.3813    1.0000 </r>
       <r>   -5.2350    1.0000 </r>
       <r>   -1.1785    0.0000 </r>
       <r>   -1.0206    0.0000 </r>
       <r>    4.6035    0.0000 </r>
       <r>    4.7157    0.0000 </r>
      </set>
      <set comment="kpoint 234">
       <r>  -17.2591    1.0000 </r>
       <r>  -17.2591    1.0000 </r>
       <r>  -15.6762    1.0000 </r>
       <r>  -15.6762    1.0000 </r>
       <r>   -8.9369    1.0000 </r>
       <r>   -8.9369    1.0000 </r>
       <r>   -5.3022    1.0000 </r>
       <r>   -5.3022    1.0000 </r>
       <r>   -1.1170    0.0000 </r>
       <r>   -1.1170    0.0000 </r>
       <r>    4.6107    0.0000 </r>
       <r>    4.6107    0.0000 </r>
      </set>
      <set comment="kpoint 235">
       <r>  -18.0295    1.0000 </r>
       <r>  -18.0295    1.0000 </r>
       <r>  -13.0891    1.0000 </r>
       <r>  -13.0891    1.0000 </r>
       <r>  -11.6095    1.0000 </r>
       <r>  -11.6095    1.0000 </r>
       <r>   -5.6347    1.0000 </r>
       <r>   -5.6347    1.0000 </r>
       <r>   -0.0218    0.0000 </r>
       <r>   -0.0218    0.0000 </r>
       <r>    6.1483    0.0000 </r>
       <r>    6.1483    0.0000 </r>
      </set>
      <set comment="kpoint 236">
       <r>  -18.0204    1.0000 </r>
       <r>  -18.0204    1.0000 </r>
       <r>  -13.1828    1.0000 </r>
       <r>  -13.1828    1.0000 </r>
       <r>  -11.5124    1.0000 </r>
       <r>  -11.5124    1.0000 </r>
       <r>   -5.6290    1.0000 </r>
       <r>   -5.6290    1.0000 </r>
       <r>   -0.0431    0.0000 </r>
       <r>   -0.0431    0.0000 </r>
       <r>    6.1619    0.0000 </r>
       <r>    6.1619    0.0000 </r>
      </set>
      <set comment="kpoint 237">
       <r>  -17.9929    1.0000 </r>
       <r>  -17.9929    1.0000 </r>
       <r>  -13.4119    1.0000 </r>
       <r>  -13.4119    1.0000 </r>
       <r>  -11.2734    1.0000 </r>
       <r>  -11.2734    1.0000 </r>
       <r>   -5.6123    1.0000 </r>
       <r>   -5.6123    1.0000 </r>
       <r>   -0.1053    0.0000 </r>
       <r>   -0.1053    0.0000 </r>
       <r>    6.2025    0.0000 </r>
       <r>    6.2025    0.0000 </r>
      </set>
      <set comment="kpoint 238">
       <r>  -17.9474    1.0000 </r>
       <r>  -17.9474    1.0000 </r>
       <r>  -13.7020    1.0000 </r>
       <r>  -13.7020    1.0000 </r>
       <r>  -10.9684    1.0000 </r>
       <r>  -10.9684    1.0000 </r>
       <r>   -5.5852    1.0000 </r>
       <r>   -5.5852    1.0000 </r>
       <r>   -0.2027    0.0000 </r>
       <r>   -0.2027    0.0000 </r>
       <r>    6.2695    0.0000 </r>
       <r>    6.2695    0.0000 </r>
      </set>
      <set comment="kpoint 239">
       <r>  -17.8845    1.0000 </r>
       <r>  -17.8845    1.0000 </r>
       <r>  -14.0132    1.0000 </r>
       <r>  -14.0132    1.0000 </r>
       <r>  -10.6398    1.0000 </r>
       <r>  -10.6398    1.0000 </r>
       <r>   -5.5490    1.0000 </r>
       <r>   -5.5490    1.0000 </r>
       <r>   -0.3276    0.0000 </r>
       <r>   -0.3276    0.0000 </r>
       <r>    6.3598    0.0000 </r>
       <r>    6.3598    0.0000 </r>
      </set>
      <set comment="kpoint 240">
       <r>  -17.8050    1.0000 </r>
       <r>  -17.8050    1.0000 </r>
       <r>  -14.3268    1.0000 </r>
       <r>  -14.3268    1.0000 </r>
       <r>  -10.3098    1.0000 </r>
       <r>  -10.3098    1.0000 </r>
       <r>   -5.5054    1.0000 </r>
       <r>   -5.5054    1.0000 </r>
       <r>   -0.4704    0.0000 </r>
       <r>   -0.4704    0.0000 </r>
       <r>    6.4446    0.0000 </r>
       <r>    6.4446    0.0000 </r>
      </set>
      <set comment="kpoint 241">
       <r>  -17.7102    1.0000 </r>
       <r>  -17.7102    1.0000 </r>
       <r>  -14.6326    1.0000 </r>
       <r>  -14.6326    1.0000 </r>
       <r>   -9.9925    1.0000 </r>
       <r>   -9.9925    1.0000 </r>
       <r>   -5.4569    1.0000 </r>
       <r>   -5.4569    1.0000 </r>
       <r>   -0.6211    0.0000 </r>
       <r>   -0.6211    0.0000 </r>
       <r>    6.1685    0.0000 </r>
       <r>    6.1685    0.0000 </r>
      </set>
      <set comment="kpoint 242">
       <r>  -17.6025    1.0000 </r>
       <r>  -17.6025    1.0000 </r>
       <r>  -14.9236    1.0000 </r>
       <r>  -14.9236    1.0000 </r>
       <r>   -9.6993    1.0000 </r>
       <r>   -9.6993    1.0000 </r>
       <r>   -5.4063    1.0000 </r>
       <r>   -5.4063    1.0000 </r>
       <r>   -0.7698    0.0000 </r>
       <r>   -0.7698    0.0000 </r>
       <r>    5.7281    0.0000 </r>
       <r>    5.7281    0.0000 </r>
      </set>
      <set comment="kpoint 243">
       <r>  -17.4854    1.0000 </r>
       <r>  -17.4854    1.0000 </r>
       <r>  -15.1933    1.0000 </r>
       <r>  -15.1933    1.0000 </r>
       <r>   -9.4407    1.0000 </r>
       <r>   -9.4407    1.0000 </r>
       <r>   -5.3571    1.0000 </r>
       <r>   -5.3571    1.0000 </r>
       <r>   -0.9071    0.0000 </r>
       <r>   -0.9071    0.0000 </r>
       <r>    5.3377    0.0000 </r>
       <r>    5.3377    0.0000 </r>
      </set>
      <set comment="kpoint 244">
       <r>  -17.3656    1.0000 </r>
       <r>  -17.3656    1.0000 </r>
       <r>  -15.4333    1.0000 </r>
       <r>  -15.4333    1.0000 </r>
       <r>   -9.2266    1.0000 </r>
       <r>   -9.2266    1.0000 </r>
       <r>   -5.3131    1.0000 </r>
       <r>   -5.3131    1.0000 </r>
       <r>   -1.0243    0.0000 </r>
       <r>   -1.0243    0.0000 </r>
       <r>    5.0183    0.0000 </r>
       <r>    5.0183    0.0000 </r>
      </set>
      <set comment="kpoint 245">
       <r>  -17.2544    1.0000 </r>
       <r>  -17.2544    1.0000 </r>
       <r>  -15.6311    1.0000 </r>
       <r>  -15.6311    1.0000 </r>
       <r>   -9.0659    1.0000 </r>
       <r>   -9.0659    1.0000 </r>
       <r>   -5.2782    1.0000 </r>
       <r>   -5.2782    1.0000 </r>
       <r>   -1.1141    0.0000 </r>
       <r>   -1.1141    0.0000 </r>
       <r>    4.7814    0.0000 </r>
       <r>    4.7814    0.0000 </r>
      </set>
      <set comment="kpoint 246">
       <r>  -17.1709    1.0000 </r>
       <r>  -17.1709    1.0000 </r>
       <r>  -15.7668    1.0000 </r>
       <r>  -15.7668    1.0000 </r>
       <r>   -8.9662    1.0000 </r>
       <r>   -8.9662    1.0000 </r>
       <r>   -5.2556    1.0000 </r>
       <r>   -5.2556    1.0000 </r>
       <r>   -1.1706    0.0000 </r>
       <r>   -1.1706    0.0000 </r>
       <r>    4.6356    0.0000 </r>
       <r>    4.6356    0.0000 </r>
      </set>
      <set comment="kpoint 247">
       <r>  -17.1389    1.0000 </r>
       <r>  -17.1389    1.0000 </r>
       <r>  -15.8163    1.0000 </r>
       <r>  -15.8163    1.0000 </r>
       <r>   -8.9324    1.0000 </r>
       <r>   -8.9324    1.0000 </r>
       <r>   -5.2478    1.0000 </r>
       <r>   -5.2478    1.0000 </r>
       <r>   -1.1898    0.0000 </r>
       <r>   -1.1898    0.0000 </r>
       <r>    4.5864    0.0000 </r>
       <r>    4.5864    0.0000 </r>
      </set>
     </set>
    </set>
   </array>
  </eigenvalues>
  <separator name="orbital magnetization" >
   <v name="MAGDIPOLOUT">      0.00000000      0.00000000      0.00000000</v>
  </separator>
 </calculation>
 <structure name="finalpos" >
  <crystal>
   <varray name="basis" >
    <v>       4.25200981       0.00000000       0.00000000 </v>
    <v>       0.00000000       2.54082846       0.00000000 </v>
    <v>       0.00000000       0.00000000      19.51547300 </v>
   </varray>
   <i name="volume">    210.83790140 </i>
   <varray name="rec_basis" >
    <v>       0.23518290       0.00000000       0.00000000 </v>
    <v>       0.00000000       0.39357242       0.00000000 </v>
    <v>       0.00000000       0.00000000       0.05124139 </v>
   </varray>
  </crystal>
  <varray name="positions" >
   <v>       0.00074224      -0.00000000      -0.00000000 </v>
   <v>       0.16592443       0.50000000       0.00000000 </v>
   <v>       0.50074224       0.50000000      -0.00000000 </v>
   <v>       0.66592443      -0.00000000       0.00000000 </v>
  </varray>
 </structure>
</modeling>
