gr                                      
           1
     4.252010    0.000000    0.000000
     0.000000    2.540828    0.000000
     0.000000    0.000000   19.515473
   C 
   4
Direct configuration=     1
   0.00074775  0.00000000  0.00000000
   0.16591892  0.50000000  0.00000000
   0.50074775  0.50000000  0.00000000
   0.66591892  0.00000000  0.00000000
Direct configuration=     2
   0.00072044 -0.00000000 -0.00000000
   0.16594623  0.50000000  0.00000000
   0.50072044  0.50000000 -0.00000000
   0.66594623 -0.00000000  0.00000000
Direct configuration=     3
   0.00074224 -0.00000000 -0.00000000
   0.16592443  0.50000000  0.00000000
   0.50074224  0.50000000 -0.00000000
   0.66592443 -0.00000000  0.00000000
Direct configuration=     4
   0.00074226 -0.00000000 -0.00000000
   0.16592441  0.50000000  0.00000000
   0.50074226  0.50000000 -0.00000000
   0.66592441 -0.00000000  0.00000000
Direct configuration=     5
   0.00074225 -0.00000000 -0.00000000
   0.16592442  0.50000000  0.00000000
   0.50074225  0.50000000 -0.00000000
   0.66592442 -0.00000000  0.00000000
Direct configuration=     6
   0.00074224  0.00000000  0.00000000
   0.16592442  0.50000000 -0.00000000
   0.50074224  0.50000000  0.00000000
   0.66592442 -0.00000000 -0.00000000
Direct configuration=     7
   0.00074223 -0.00000000  0.00000000
   0.16592443  0.50000000 -0.00000000
   0.50074223  0.50000000  0.00000000
   0.66592443 -0.00000000 -0.00000000
Direct configuration=     8
   0.00074224  0.00000000 -0.00000000
   0.16592443  0.50000000  0.00000000
   0.50074224  0.50000000 -0.00000000
   0.66592443  0.00000000  0.00000000
Direct configuration=     9
   0.00074224 -0.00000000 -0.00000000
   0.16592443  0.50000000  0.00000000
   0.50074224  0.50000000 -0.00000000
   0.66592443 -0.00000000  0.00000000
Direct configuration=    10
   0.00074224 -0.00000000 -0.00000000
   0.16592443  0.50000000  0.00000000
   0.50074224  0.50000000 -0.00000000
   0.66592443 -0.00000000  0.00000000
