    4    4  400    1
  0.5270948E+02  0.4295051E-09  0.2464916E-09  0.1991491E-08  0.5000000E-15
  1.000000000000000E-004
  CAR 
 gr                                      
     16    247     12
 
  0.0000000E+00  0.0000000E+00  0.0000000E+00  0.1157407E-02
    1      -22.218469
    2      -17.071505
    3      -15.945835
    4      -10.331768
    5       -9.083989
    6       -5.832658
    7       -5.773462
    8       -5.158198
    9       -1.098981
   10        0.528042
   11        1.328551
   12        1.713564
 
  0.4166667E-01  0.0000000E+00  0.0000000E+00  0.2314815E-02
    1      -22.208322
    2      -17.225014
    3      -15.777118
    4      -10.319663
    5       -9.073957
    6       -5.875744
    7       -5.795505
    8       -5.223033
    9       -1.018202
   10        0.541797
   11        1.342491
   12        1.727674
 
  0.8333333E-01  0.0000000E+00  0.0000000E+00  0.2314815E-02
    1      -22.177887
    2      -17.548263
    3      -15.408328
    4      -10.283365
    5       -9.043911
    6       -6.003168
    7       -5.860431
    8       -5.403265
    9       -0.790308
   10        0.583065
   11        1.384306
   12        1.770003
 
  0.1250000E+00  0.0000000E+00  0.0000000E+00  0.2314815E-02
    1      -22.127183
    2      -17.915369
    3      -14.965601
    4      -10.222932
    5       -8.994004
    6       -6.209752
    7       -5.964825
    8       -5.666914
    9       -0.447784
   10        0.651855
   11        1.453985
   12        1.840553
 
  0.1666667E+00  0.0000000E+00  0.0000000E+00  0.2314815E-02
    1      -22.056243
    2      -18.287642
    3      -14.488058
    4      -10.138461
    5       -8.924499
    6       -6.487804
    7       -6.103596
    8       -5.981936
    9       -0.023531
   10        0.748175
   11        1.551503
   12        1.939326
 
  0.2083333E+00  0.0000000E+00  0.0000000E+00  0.2314815E-02
    1      -21.965118
    2      -18.652580
    3      -13.988824
    4      -10.030095
    5       -8.835773
    6       -6.828181
    7       -6.324218
    8       -6.270656
    9        0.457106
   10        0.872027
   11        1.676826
   12        2.066323
 
  0.2500000E+00  0.0000000E+00  0.0000000E+00  0.2314815E-02
    1      -21.853870
    2      -19.005081
    3      -13.473819
    4       -9.898022
    5       -8.728331
    6       -7.221266
    7       -6.677549
    8       -6.459566
    9        0.976270
   10        1.023401
   11        1.829900
   12        2.221544
 
  0.2916667E+00  0.0000000E+00  0.0000000E+00  0.2314815E-02
    1      -21.722581
    2      -19.342629
    3      -12.946612
    4       -9.742487
    5       -8.602823
    6       -7.657706
    7       -7.031343
    8       -6.664051
    9        1.202277
   10        1.521218
   11        2.010641
   12        2.404987
 
  0.3333333E+00  0.0000000E+00  0.0000000E+00  0.2314815E-02
    1      -21.571347
    2      -19.663784
    3      -12.409951
    4       -9.563802
    5       -8.460066
    6       -8.128870
    7       -7.378622
    8       -6.878316
    9        1.408617
   10        2.082068
   11        2.218917
   12        2.616646
 
  0.3750000E+00  0.0000000E+00  0.0000000E+00  0.2314815E-02
    1      -21.400285
    2      -19.967626
    3      -11.866357
    4       -9.362359
    5       -8.627056
    6       -8.301066
    7       -7.714674
    8       -7.097211
    9        1.642371
   10        2.454487
   11        2.649500
   12        2.856514
 
  0.4166667E+00  0.0000000E+00  0.0000000E+00  0.2314815E-02
    1      -21.209534
    2      -20.253518
    3      -11.318411
    4       -9.145545
    5       -9.138646
    6       -8.127061
    7       -8.036222
    8       -7.316280
    9        1.903470
   10        2.716855
   11        3.124577
   12        3.207375
 
  0.4583333E+00  0.0000000E+00  0.0000000E+00  0.2314815E-02
    1      -20.999259
    2      -20.520984
    3      -10.768929
    4       -9.678544
    5       -8.893279
    6       -8.340919
    7       -7.939555
    8       -7.531731
    9        2.191817
   10        2.849669
   11        3.004690
   12        3.420810
 
  0.5000000E+00  0.0000000E+00  0.0000000E+00  0.1157407E-02
    1      -20.769663
    2      -20.769663
    3      -10.221089
    4      -10.221089
    5       -8.627037
    6       -8.627037
    7       -7.740376
    8       -7.740376
    9        2.507283
   10        2.507283
   11        3.312452
   12        3.312452
 
  0.0000000E+00  0.2777778E-01  0.0000000E+00  0.2314815E-02
    1      -22.204768
    2      -17.059721
    3      -15.934202
    4      -10.315422
    5       -9.145944
    6       -5.861979
    7       -5.830754
    8       -5.141553
    9       -1.102596
   10        0.546623
   11        1.347364
   12        1.732607
 
  0.4166667E-01  0.2777778E-01  0.0000000E+00  0.4629630E-02
    1      -22.194622
    2      -17.213073
    3      -15.765693
    4      -10.303321
    5       -9.135896
    6       -5.912650
    7       -5.844552
    8       -5.206527
    9       -1.021793
   10        0.560379
   11        1.361303
   12        1.746716
 
  0.8333333E-01  0.2777778E-01  0.0000000E+00  0.4629630E-02
    1      -22.164191
    2      -17.536069
    3      -15.397307
    4      -10.267035
    5       -9.105802
    6       -6.044477
    7       -5.903214
    8       -5.387078
    9       -0.793925
   10        0.601648
   11        1.403116
   12        1.789045
 
  0.1250000E+00  0.2777778E-01  0.0000000E+00  0.4629630E-02
    1      -22.113494
    2      -17.902949
    3      -14.955062
    4      -10.206623
    5       -9.055813
    6       -6.249971
    7       -6.005947
    8       -5.651059
    9       -0.451646
   10        0.670441
   11        1.472790
   12        1.859596
 
  0.1666667E+00  0.2777778E-01  0.0000000E+00  0.4629630E-02
    1      -22.042565
    2      -18.275030
    3      -14.478084
    4      -10.122181
    5       -8.986183
    6       -6.523979
    7       -6.145504
    8       -5.966328
    9       -0.027956
   10        0.766766
   11        1.570303
   12        1.958370
 
  0.2083333E+00  0.2777778E-01  0.0000000E+00  0.4629630E-02
    1      -21.951455
    2      -18.639803
    3      -13.979513
    4      -10.013852
    5       -8.897283
    6       -6.859007
    7       -6.314503
    8       -6.308756
    9        0.451784
   10        0.890625
   11        1.695619
   12        2.085369
 
  0.2500000E+00  0.2777778E-01  0.0000000E+00  0.4629630E-02
    1      -21.840225
    2      -18.992164
    3      -13.465293
    4       -9.881824
    5       -8.789607
    6       -7.246406
    7       -6.662148
    8       -6.505803
    9        0.969737
   10        1.042008
   11        1.848686
   12        2.240592
 
  0.2916667E+00  0.2777778E-01  0.0000000E+00  0.4629630E-02
    1      -21.708958
    2      -19.329591
    3      -12.939018
    4       -9.726343
    5       -8.663791
    6       -7.677371
    7       -7.015941
    8       -6.712738
    9        1.220894
   10        1.513206
   11        2.029420
   12        2.424038
 
  0.3333333E+00  0.2777778E-01  0.0000000E+00  0.4629630E-02
    1      -21.557750
    2      -19.650641
    3      -12.403466
    4       -9.547720
    5       -8.520632
    6       -8.143546
    7       -7.363178
    8       -6.929308
    9        1.427246
   10        2.072385
   11        2.237691
   12        2.635701
 
  0.3750000E+00  0.2777778E-01  0.0000000E+00  0.4629630E-02
    1      -21.386720
    2      -19.954394
    3      -11.861195
    4       -9.346345
    5       -8.637341
    6       -8.361120
    7       -7.699163
    8       -7.150264
    9        1.661015
   10        2.473263
   11        2.638164
   12        2.875574
 
  0.4166667E+00  0.2777778E-01  0.0000000E+00  0.4629630E-02
    1      -21.196005
    2      -20.240207
    3      -11.314834
    4       -9.152048
    5       -9.122708
    6       -8.186464
    7       -8.020630
    8       -7.371113
    9        1.922129
   10        2.735642
   11        3.143643
   12        3.195579
 
  0.4583333E+00  0.2777778E-01  0.0000000E+00  0.4629630E-02
    1      -20.985773
    2      -20.507607
    3      -10.767247
    4       -9.681835
    5       -8.877424
    6       -8.325239
    7       -7.998143
    8       -7.588064
    9        2.210496
   10        2.868420
   11        3.023507
   12        3.439887
 
  0.5000000E+00  0.2777778E-01  0.0000000E+00  0.2314815E-02
    1      -20.756227
    2      -20.756227
    3      -10.221674
    4      -10.221674
    5       -8.611269
    6       -8.611269
    7       -7.797951
    8       -7.797951
    9        2.525989
   10        2.525989
   11        3.331204
   12        3.331204
 
  0.0000000E+00  0.5555556E-01  0.0000000E+00  0.2314815E-02
    1      -22.163674
    2      -17.024373
    3      -15.899453
    4      -10.266418
    5       -9.326837
    6       -5.998038
    7       -5.949284
    8       -5.091638
    9       -1.114268
   10        0.602370
   11        1.403796
   12        1.789734
 
  0.4166667E-01  0.5555556E-01  0.0000000E+00  0.4629630E-02
    1      -22.153533
    2      -17.177260
    3      -15.731561
    4      -10.254329
    5       -9.316738
    6       -6.051999
    7       -5.957861
    8       -5.157041
    9       -1.033387
   10        0.616126
   11        1.417732
   12        1.803844
 
  0.8333333E-01  0.5555556E-01  0.0000000E+00  0.4629630E-02
    1      -22.123115
    2      -17.499505
    3      -15.364390
    4      -10.218081
    5       -9.286486
    6       -6.184478
    7       -6.010403
    8       -5.338576
    9       -0.805588
   10        0.657398
   11        1.459537
   12        1.846174
 
  0.1250000E+00  0.5555556E-01  0.0000000E+00  0.4629630E-02
    1      -22.072440
    2      -17.865711
    3      -14.923613
    4      -10.157732
    5       -9.236221
    6       -6.382799
    7       -6.112183
    8       -5.603573
    9       -0.464055
   10        0.726197
   11        1.529199
   12        1.916726
 
  0.1666667E+00  0.5555556E-01  0.0000000E+00  0.4629630E-02
    1      -22.001545
    2      -18.237214
    3      -14.448359
    4      -10.073378
    5       -9.166180
    6       -6.643059
    7       -6.255823
    8       -5.919598
    9       -0.042083
   10        0.822532
   11        1.626694
   12        2.015503
 
  0.2083333E+00  0.5555556E-01  0.0000000E+00  0.4629630E-02
    1      -21.910477
    2      -18.601493
    3      -13.951824
    4       -9.965162
    5       -9.076707
    6       -6.960603
    7       -6.432149
    8       -6.262467
    9        0.434913
   10        0.946407
   11        1.751989
   12        2.142506
 
  0.2500000E+00  0.5555556E-01  0.0000000E+00  0.4629630E-02
    1      -21.799301
    2      -18.953431
    3      -13.440020
    4       -9.833272
    5       -8.968258
    6       -7.329391
    7       -6.632202
    8       -6.616039
    9        0.949167
   10        1.097812
   11        1.905032
   12        2.297734
 
  0.2916667E+00  0.5555556E-01  0.0000000E+00  0.4629630E-02
    1      -21.668101
    2      -19.290493
    3      -12.916623
    4       -9.677954
    5       -8.841423
    6       -7.742406
    7       -6.969825
    8       -6.848011
    9        1.276724
   10        1.488106
   11        2.085744
   12        2.481187
 
  0.3333333E+00  0.5555556E-01  0.0000000E+00  0.4629630E-02
    1      -21.516973
    2      -19.611230
    3      -12.384513
    4       -9.499518
    5       -8.696943
    6       -8.192267
    7       -7.316931
    8       -7.072823
    9        1.483107
   10        2.042143
   11        2.293998
   12        2.692860
 
  0.3750000E+00  0.5555556E-01  0.0000000E+00  0.4629630E-02
    1      -21.346036
    2      -19.914711
    3      -11.846369
    4       -9.298354
    5       -8.671776
    6       -8.535732
    7       -7.652709
    8       -7.301040
    9        1.716909
   10        2.529571
   11        2.602721
   12        2.932745
 
  0.4166667E+00  0.5555556E-01  0.0000000E+00  0.4629630E-02
    1      -21.155432
    2      -20.200291
    3      -11.304967
    4       -9.174260
    5       -9.074949
    6       -8.358916
    7       -7.973927
    8       -7.528072
    9        1.978061
   10        2.791989
   11        3.157757
   12        3.200832
 
  0.4583333E+00  0.5555556E-01  0.0000000E+00  0.4629630E-02
    1      -20.945329
    2      -20.467488
    3      -10.763347
    4       -9.693736
    5       -8.829916
    6       -8.278268
    7       -8.167869
    8       -7.750170
    9        2.266475
   10        2.924563
   11        3.079948
   12        3.497396
 
  0.5000000E+00  0.5555556E-01  0.0000000E+00  0.2314815E-02
    1      -20.715934
    2      -20.715934
    3      -10.224953
    4      -10.224953
    5       -8.564025
    6       -8.564025
    7       -7.964271
    8       -7.964271
    9        2.582031
   10        2.582031
   11        3.387418
   12        3.387418
 
  0.0000000E+00  0.8333333E-01  0.0000000E+00  0.2314815E-02
    1      -22.095223
    2      -16.965472
    3      -15.842063
    4      -10.184859
    5       -9.613139
    6       -6.262933
    7       -6.092641
    8       -5.008516
    9       -1.136476
   10        0.695292
   11        1.497825
   12        1.884950
 
  0.4166667E-01  0.8333333E-01  0.0000000E+00  0.4629630E-02
    1      -22.085089
    2      -17.117617
    3      -15.675182
    4      -10.172792
    5       -9.602937
    6       -6.309977
    7       -6.105048
    8       -5.074675
    9       -1.055443
   10        0.709047
   11        1.511756
   12        1.899059
 
  0.8333333E-01  0.8333333E-01  0.0000000E+00  0.4629630E-02
    1      -22.054693
    2      -17.438636
    3      -15.310055
    4      -10.136608
    5       -9.572370
    6       -6.436433
    7       -6.154863
    8       -5.257941
    9       -0.827731
   10        0.750318
   11        1.553547
   12        1.941389
 
  0.1250000E+00  0.8333333E-01  0.0000000E+00  0.4629630E-02
    1      -22.004057
    2      -17.803722
    3      -14.871791
    4      -10.076366
    5       -9.521556
    6       -6.624662
    7       -6.253637
    8       -5.524708
    9       -0.487460
   10        0.819118
   11        1.623184
   12        2.011942
 
  0.1666667E+00  0.8333333E-01  0.0000000E+00  0.4629630E-02
    1      -21.933217
    2      -18.174260
    3      -14.399528
    4       -9.992163
    5       -9.450697
    6       -6.866126
    7       -6.400354
    8       -5.842033
    9       -0.068447
   10        0.915459
   11        1.720647
   12        2.110721
 
  0.2083333E+00  0.8333333E-01  0.0000000E+00  0.4629630E-02
    1      -21.842221
    2      -18.537712
    3      -13.906554
    4       -9.884141
    5       -9.360080
    6       -7.156588
    7       -6.587089
    8       -6.185651
    9        0.403817
   10        1.039347
   11        1.845902
   12        2.237728
 
  0.2500000E+00  0.8333333E-01  0.0000000E+00  0.4629630E-02
    1      -21.731137
    2      -18.888938
    3      -13.399008
    4       -9.752488
    5       -9.250092
    6       -7.493244
    7       -6.802953
    8       -6.539518
    9        0.911686
   10        1.190773
   11        1.998900
   12        2.392964
 
  0.2916667E+00  0.8333333E-01  0.0000000E+00  0.4629630E-02
    1      -21.600047
    2      -19.225389
    3      -12.880728
    4       -9.597449
    5       -9.121224
    6       -7.872984
    7       -7.036909
    8       -6.893277
    9        1.369713
   10        1.442796
   11        2.179567
   12        2.576426
 
  0.3333333E+00  0.8333333E-01  0.0000000E+00  0.4629630E-02
    1      -21.449052
    2      -19.545598
    3      -12.354788
    4       -9.419336
    5       -8.974091
    6       -8.291466
    7       -7.279578
    8       -7.240146
    9        1.576129
   10        1.987877
   11        2.387786
   12        2.788111
 
  0.3750000E+00  0.8333333E-01  0.0000000E+00  0.4629630E-02
    1      -21.278272
    2      -19.848625
    3      -11.824115
    4       -9.218534
    5       -8.809451
    6       -8.743143
    7       -7.575558
    8       -7.523822
    9        1.809967
   10        2.539082
   11        2.623354
   12        3.028012
 
  0.4166667E+00  0.8333333E-01  0.0000000E+00  0.4629630E-02
    1      -21.087852
    2      -20.133812
    3      -11.291788
    4       -9.221859
    5       -8.995530
    6       -8.628229
    7       -7.896338
    8       -7.764461
    9        2.071159
   10        2.885838
   11        3.087418
   12        3.296120
 
  0.4583333E+00  0.8333333E-01  0.0000000E+00  0.4629630E-02
    1      -20.877967
    2      -20.400670
    3      -10.761220
    4       -9.721478
    5       -8.750929
    6       -8.431555
    7       -8.200211
    8       -7.997728
    9        2.359617
   10        3.017851
   11        3.173982
   12        3.591839
 
  0.5000000E+00  0.8333333E-01  0.0000000E+00  0.2314815E-02
    1      -20.648823
    2      -20.648823
    3      -10.236297
    4      -10.236297
    5       -8.485497
    6       -8.485497
    7       -8.220816
    8       -8.220816
    9        2.675231
   10        2.675231
   11        3.480910
   12        3.480910
 
  0.0000000E+00  0.1111111E+00  0.0000000E+00  0.2314815E-02
    1      -21.999476
    2      -16.883039
    3      -15.762929
    4      -10.070919
    5       -9.986006
    6       -6.608530
    7       -6.288912
    8       -4.892290
    9       -1.173330
   10        0.825398
   11        1.629413
   12        2.018255
 
  0.4166667E-01  0.1111111E+00  0.0000000E+00  0.4629630E-02
    1      -21.989352
    2      -17.034214
    3      -15.597429
    4      -10.058883
    5       -9.975622
    6       -6.654729
    7       -6.298132
    8       -4.959611
    9       -1.092022
   10        0.839149
   11        1.643336
   12        2.032365
 
  0.8333333E-01  0.1111111E+00  0.0000000E+00  0.4629630E-02
    1      -21.958989
    2      -17.353571
    3      -15.235210
    4      -10.022794
    5       -9.944496
    6       -6.780063
    7       -6.337552
    8       -5.145504
    9       -0.864341
   10        0.880410
   11        1.685103
   12        2.074693
 
  0.1250000E+00  0.1111111E+00  0.0000000E+00  0.4629630E-02
    1      -21.908407
    2      -17.717103
    3      -14.800639
    4       -9.962709
    5       -9.892709
    6       -6.963940
    7       -6.423266
    8       -5.414921
    9       -0.525862
   10        0.949197
   11        1.754702
   12        2.145245
 
  0.1666667E+00  0.1111111E+00  0.0000000E+00  0.4629630E-02
    1      -21.837642
    2      -18.086285
    3      -14.332852
    4       -9.878726
    5       -9.820394
    6       -7.193171
    7       -6.561044
    8       -5.734156
    9       -0.111165
   10        1.045527
   11        1.852111
   12        2.244024
 
  0.2083333E+00  0.1111111E+00  0.0000000E+00  0.4629630E-02
    1      -21.746748
    2      -18.448566
    3      -13.845287
    4       -9.770987
    5       -9.727738
    6       -7.460676
    7       -6.747975
    8       -6.078847
    9        0.354166
   10        1.169410
   11        1.977298
   12        2.371032
 
  0.2500000E+00  0.1111111E+00  0.0000000E+00  0.4629630E-02
    1      -21.635793
    2      -18.798786
    3      -13.344299
    4       -9.639681
    5       -9.614984
    6       -7.763297
    7       -6.975320
    8       -6.433114
    9        0.852686
   10        1.320840
   11        2.130218
   12        2.526273
 
  0.2916667E+00  0.1111111E+00  0.0000000E+00  0.4629630E-02
    1      -21.504858
    2      -19.134370
    3      -12.834008
    4       -9.485053
    5       -9.482431
    6       -8.100418
    7       -7.230767
    8       -6.786799
    9        1.372325
   10        1.499793
   11        2.310803
   12        2.709743
 
  0.3333333E+00  0.1111111E+00  0.0000000E+00  0.4629630E-02
    1      -21.354050
    2      -19.453832
    3      -12.317857
    4       -9.330435
    5       -9.307412
    6       -8.472379
    7       -7.500925
    8       -7.133289
    9        1.706227
   10        1.904202
   11        2.518952
   12        2.921439
 
  0.3750000E+00  0.1111111E+00  0.0000000E+00  0.4629630E-02
    1      -21.183491
    2      -19.756215
    3      -11.799242
    4       -9.159409
    5       -9.107143
    6       -8.878640
    7       -7.773882
    8       -7.468138
    9        1.940086
   10        2.441156
   11        2.754492
   12        3.161355
 
  0.4166667E+00  0.1111111E+00  0.0000000E+00  0.4629630E-02
    1      -20.993332
    2      -20.040847
    3      -11.281839
    4       -9.316579
    5       -8.969835
    6       -8.884729
    7       -8.040875
    8       -7.788258
    9        2.201297
   10        2.976430
   11        3.017061
   12        3.429481
 
  0.4583333E+00  0.1111111E+00  0.0000000E+00  0.4629630E-02
    1      -20.783752
    2      -20.307225
    3      -10.769810
    4       -9.781572
    5       -8.762281
    6       -8.640768
    7       -8.296431
    8       -8.091431
    9        2.489771
   10        3.148042
   11        3.305534
   12        3.497154
 
  0.5000000E+00  0.1111111E+00  0.0000000E+00  0.2314815E-02
    1      -20.554964
    2      -20.554964
    3      -10.267923
    4      -10.267923
    5       -8.537469
    6       -8.537469
    7       -8.376015
    8       -8.376015
    9        2.805399
   10        2.805399
   11        3.610844
   12        3.610844
 
  0.0000000E+00  0.1388889E+00  0.0000000E+00  0.2314815E-02
    1      -21.876520
    2      -16.777103
    3      -15.663571
    4      -10.424650
    5       -9.924850
    6       -7.016837
    7       -6.533920
    8       -4.743109
    9       -1.230461
   10        0.992690
   11        1.798502
   12        2.189655
 
  0.4166667E-01  0.1388889E+00  0.0000000E+00  0.4629630E-02
    1      -21.866410
    2      -16.927160
    3      -15.499788
    4      -10.413955
    5       -9.912856
    6       -7.063886
    7       -6.537548
    8       -4.812127
    9       -1.148656
   10        1.006434
   11        1.812414
   12        2.203762
 
  0.8333333E-01  0.1388889E+00  0.0000000E+00  0.4629630E-02
    1      -21.836088
    2      -17.244488
    3      -15.141430
    4      -10.381874
    5       -9.876895
    6       -7.191327
    7       -6.561231
    8       -5.001802
    9       -0.920797
   10        1.047672
   11        1.854143
   12        2.246088
 
  0.1250000E+00  0.1388889E+00  0.0000000E+00  0.4629630E-02
    1      -21.785575
    2      -17.606040
    3      -14.711994
    4      -10.328412
    5       -9.817023
    6       -7.375857
    7       -6.625429
    8       -5.274946
    9       -0.584595
   10        1.116424
   11        1.923679
   12        2.316634
 
  0.1666667E+00  0.1388889E+00  0.0000000E+00  0.4629630E-02
    1      -21.714912
    2      -17.973465
    3      -14.250606
    4      -10.253573
    5       -9.733340
    6       -7.600827
    7       -6.741698
    8       -5.596797
    9       -0.175682
   10        1.212715
   11        2.021000
   12        2.415408
 
  0.2083333E+00  0.1388889E+00  0.0000000E+00  0.4629630E-02
    1      -21.624150
    2      -18.334220
    3      -13.770948
    4      -10.157346
    5       -9.625988
    6       -7.856237
    7       -6.912544
    8       -5.942903
    9        0.280294
   10        1.336561
   11        2.146074
   12        2.542413
 
  0.2500000E+00  0.1388889E+00  0.0000000E+00  0.4629630E-02
    1      -21.513358
    2      -18.683123
    3      -13.279757
    4      -10.039683
    5       -9.495156
    6       -8.136487
    7       -7.133875
    8       -6.297645
    9        0.766212
   10        1.487962
   11        2.298859
   12        2.697653
 
  0.2916667E+00  0.1388889E+00  0.0000000E+00  0.4629630E-02
    1      -21.382625
    2      -19.017573
    3      -12.781679
    4       -9.900476
    5       -9.341089
    6       -8.439282
    7       -7.396686
    8       -6.651160
    9        1.270424
   10        1.666896
   11        2.479293
   12        2.881126
 
  0.3333333E+00  0.1388889E+00  0.0000000E+00  0.4629630E-02
    1      -21.232058
    2      -19.336059
    3      -12.280866
    4       -9.739514
    5       -9.164096
    6       -8.765119
    7       -7.688415
    8       -6.997071
    9        1.784515
   10        1.873319
   11        2.687291
   12        3.092830
 
  0.3750000E+00  0.1388889E+00  0.0000000E+00  0.4629630E-02
    1      -21.061786
    2      -19.637599
    3      -11.781649
    4       -9.556452
    5       -9.116544
    6       -8.964560
    7       -7.994490
    8       -7.331103
    9        2.107167
   10        2.301945
   11        2.922725
   12        3.332757
 
  0.4166667E+00  0.1388889E+00  0.0000000E+00  0.4629630E-02
    1      -20.871966
    2      -19.921505
    3      -11.288893
    4       -9.496626
    5       -9.350789
    6       -8.742957
    7       -8.300500
    8       -7.650283
    9        2.368362
   10        2.817207
   11        3.185353
   12        3.600898
 
  0.4583333E+00  0.1388889E+00  0.0000000E+00  0.4629630E-02
    1      -20.662784
    2      -20.187259
    3      -10.808145
    4       -9.906813
    5       -9.121954
    6       -8.594702
    7       -8.499881
    8       -7.952469
    9        2.656807
   10        3.314965
   11        3.324880
   12        3.474390
 
  0.5000000E+00  0.1388889E+00  0.0000000E+00  0.2314815E-02
    1      -20.434459
    2      -20.434459
    3      -10.345477
    4      -10.345477
    5       -8.869652
    6       -8.869652
    7       -8.236071
    8       -8.236071
    9        2.972389
   10        2.972389
   11        3.759574
   12        3.759575
 
  0.0000000E+00  0.1666667E+00  0.0000000E+00  0.2314815E-02
    1      -21.726473
    2      -16.647703
    3      -15.546541
    4      -10.908487
    5       -9.746987
    6       -7.471140
    7       -6.822648
    8       -4.561171
    9       -1.314749
   10        1.197159
   11        2.005013
   12        2.399149
 
  0.4166667E-01  0.1666667E+00  0.0000000E+00  0.4629630E-02
    1      -21.716380
    2      -16.796623
    3      -15.384782
    4      -10.897257
    5       -9.735049
    6       -7.519785
    7       -6.819486
    8       -4.632644
    9       -1.232035
   10        1.210889
   11        2.018904
   12        2.413255
 
  0.8333333E-01  0.1666667E+00  0.0000000E+00  0.4629630E-02
    1      -21.686110
    2      -17.111651
    3      -15.031442
    4      -10.863524
    5       -9.699256
    6       -7.651066
    7       -6.824294
    8       -4.827677
    9       -1.003451
   10        1.252090
   11        2.060573
   12        2.455574
 
  0.1250000E+00  0.1666667E+00  0.0000000E+00  0.4629630E-02
    1      -21.635684
    2      -17.470815
    3      -14.609118
    4      -10.807144
    5       -9.639665
    6       -7.839131
    7       -6.861633
    8       -5.105929
    9       -0.669846
   10        1.320783
   11        2.130007
   12        2.526110
 
  0.1666667E+00  0.1666667E+00  0.0000000E+00  0.4629630E-02
    1      -21.565143
    2      -17.836067
    3      -14.156952
    4      -10.727850
    5       -9.556377
    6       -8.064746
    7       -6.947934
    8       -5.431227
    9       -0.268221
   10        1.416998
   11        2.227181
   12        2.624871
 
  0.2083333E+00  0.1666667E+00  0.0000000E+00  0.4629630E-02
    1      -21.474541
    2      -18.194915
    3      -13.689067
    4      -10.625201
    5       -9.449533
    6       -8.315948
    7       -7.090288
    8       -5.779095
    9        0.175825
   10        1.540764
   11        2.352060
   12        2.751864
 
  0.2500000E+00  0.1666667E+00  0.0000000E+00  0.4629630E-02
    1      -21.363952
    2      -18.542167
    3      -13.212939
    4      -10.498516
    5       -9.319326
    6       -8.585369
    7       -7.288866
    8       -6.134328
    9        0.645713
   10        1.692088
   11        2.504597
   12        2.907094
 
  0.2916667E+00  0.1666667E+00  0.0000000E+00  0.4629630E-02
    1      -21.233467
    2      -18.875195
    3      -12.734278
    4      -10.346773
    5       -9.166002
    6       -8.868733
    7       -7.538655
    8       -6.487490
    9        1.130419
   10        1.870955
   11        2.684728
   12        3.090563
 
  0.3333333E+00  0.1666667E+00  0.0000000E+00  0.4629630E-02
    1      -21.083199
    2      -19.192455
    3      -12.258676
    4      -10.168507
    5       -9.164296
    6       -8.989867
    7       -7.830677
    8       -6.832526
    9        1.622146
   10        2.077320
   11        2.892370
   12        3.302267
 
  0.3750000E+00  0.1666667E+00  0.0000000E+00  0.4629630E-02
    1      -20.913283
    2      -19.492942
    3      -11.792268
    4       -9.961790
    5       -9.472742
    6       -8.791304
    7       -8.152928
    8       -7.165389
    9        2.114993
   10        2.311115
   11        3.127414
   12        3.542200
 
  0.4166667E+00  0.1666667E+00  0.0000000E+00  0.4629630E-02
    1      -20.723884
    2      -19.775941
    3      -11.341814
    4       -9.797146
    5       -9.724494
    6       -8.570786
    7       -8.491189
    8       -7.483257
    9        2.572249
   10        2.604218
   11        3.389720
   12        3.810350
 
  0.4583333E+00  0.1666667E+00  0.0000000E+00  0.4629630E-02
    1      -20.515194
    2      -20.040916
    3      -10.914001
    4      -10.142439
    5       -9.455220
    6       -8.830110
    7       -8.328895
    8       -7.784088
    9        2.860614
   10        3.085800
   11        3.518500
   12        3.679089
 
  0.5000000E+00  0.1666667E+00  0.0000000E+00  0.2314815E-02
    1      -20.287446
    2      -20.287446
    3      -10.513780
    4      -10.513780
    5       -9.155145
    6       -9.155145
    7       -8.066357
    8       -8.066357
    9        3.176082
   10        3.176082
   11        3.556156
   12        3.556156
 