       N       E                     dE             d eps       ncg     rms          rms(c)
DAV:   1     0.189183609871E+03    0.18918E+03   -0.10636E+04  5928   0.275E+03
DAV:   2    -0.946271601223E+01   -0.19865E+03   -0.17706E+03 10440   0.261E+02
DAV:   3    -0.383714608265E+02   -0.28909E+02   -0.28345E+02  7344   0.119E+02    0.731E+00
RMM:   4    -0.376924220539E+02    0.67904E+00   -0.92662E+00  5929   0.259E+01    0.423E+00
RMM:   5    -0.369336305467E+02    0.75879E+00   -0.28487E+00  5931   0.116E+01    0.736E-01
RMM:   6    -0.369350624054E+02   -0.14319E-02   -0.84185E-02  6363   0.203E+00    0.526E-01
RMM:   7    -0.369256971379E+02    0.93653E-02   -0.34261E-02  5939   0.161E+00    0.349E-01
RMM:   8    -0.369198068296E+02    0.58903E-02   -0.76957E-03  5930   0.582E-01    0.138E-01
RMM:   9    -0.369194684098E+02    0.33842E-03   -0.21472E-02  5928   0.869E-01    0.163E-01
RMM:  10    -0.369192771137E+02    0.19130E-03   -0.26363E-03  5928   0.371E-01    0.292E-02
RMM:  11    -0.369218493289E+02   -0.25722E-02   -0.81965E-04  5930   0.188E-01    0.478E-02
RMM:  12    -0.369222714284E+02   -0.42210E-03   -0.23967E-04  5938   0.103E-01    0.567E-03
RMM:  13    -0.369225434698E+02   -0.27204E-03   -0.58706E-05  5999   0.437E-02    0.482E-03
RMM:  14    -0.369226282515E+02   -0.84782E-04   -0.12273E-05  5935   0.204E-02    0.236E-03
RMM:  15    -0.369226370481E+02   -0.87966E-05   -0.15700E-06  6019   0.734E-03    0.737E-04
RMM:  16    -0.369226489807E+02   -0.11933E-04   -0.37093E-07  6027   0.347E-03    0.419E-04
RMM:  17    -0.369226524455E+02   -0.34648E-05   -0.26200E-08  6099   0.132E-03    0.693E-04
RMM:  18    -0.369226544896E+02   -0.20441E-05   -0.10086E-07  5928   0.215E-03    0.149E-04
RMM:  19    -0.369226547500E+02   -0.26041E-06   -0.46016E-09  5951   0.456E-04    0.181E-05
RMM:  20    -0.369226548045E+02   -0.54512E-07   -0.47124E-10  4484   0.112E-04    0.968E-06
RMM:  21    -0.369226548148E+02   -0.10269E-07   -0.90186E-11  3931   0.590E-05    0.539E-06
RMM:  22    -0.369226548146E+02    0.16394E-09   -0.17136E-11  3878   0.439E-05    0.584E-07
RMM:  23    -0.369226548149E+02   -0.24500E-09   -0.14290E-11  3608   0.376E-05    0.144E-06
RMM:  24    -0.369226548152E+02   -0.29593E-09   -0.86709E-12  3101   0.300E-05    0.736E-07
RMM:  25    -0.369226548153E+02   -0.14165E-09   -0.44903E-12  2831   0.261E-05    0.110E-06
RMM:  26    -0.369226548150E+02    0.32719E-09   -0.24739E-12  2577   0.228E-05    0.886E-07
RMM:  27    -0.369226548153E+02   -0.31537E-09   -0.17187E-12  2403   0.203E-05    0.381E-07
RMM:  28    -0.369226548151E+02    0.22783E-09   -0.10723E-12  2272   0.187E-05    0.258E-07
RMM:  29    -0.369226548151E+02   -0.45475E-12   -0.10465E-12  2180   0.181E-05
   1 F= -.36922655E+02 E0= -.36922611E+02  d E =-.369227E+02
       N       E                     dE             d eps       ncg     rms          rms(c)
DAV:   1    -0.369226548147E+02    0.37016E-09    0.24517E-09  6252   0.542E-04    0.115E-05
RMM:   2    -0.369226548150E+02   -0.33765E-09   -0.25920E-11  3712   0.663E-05    0.810E-06
RMM:   3    -0.369226548148E+02    0.21669E-09   -0.13894E-11  3687   0.544E-05    0.205E-06
RMM:   4    -0.369226548151E+02   -0.26705E-09   -0.10317E-11  3183   0.388E-05    0.753E-07
RMM:   5    -0.369226548151E+02   -0.67075E-11   -0.61580E-12  2900   0.307E-05
   2 F= -.36922655E+02 E0= -.36922611E+02  d E =-.241016E-10
       N       E                     dE             d eps       ncg     rms          rms(c)
DAV:   1    -0.369226548144E+02    0.66086E-09    0.36471E-09  6380   0.435E-04    0.998E-06
RMM:   2    -0.369226548149E+02   -0.46111E-09   -0.65900E-12  3407   0.495E-05    0.677E-06
RMM:   3    -0.369226548152E+02   -0.33981E-09   -0.67061E-12  3502   0.477E-05    0.137E-06
RMM:   4    -0.369226548152E+02    0.67075E-11   -0.90919E-12  2844   0.368E-05    0.533E-07
RMM:   5    -0.369226548151E+02    0.10186E-09   -0.58048E-12  2446   0.293E-05    0.980E-07
RMM:   6    -0.369226548150E+02    0.11914E-09   -0.33178E-12  2235   0.251E-05    0.815E-07
RMM:   7    -0.369226548151E+02   -0.72532E-10   -0.23274E-12  1898   0.220E-05
   3 F= -.36922655E+02 E0= -.36922611E+02  d E =0.218279E-10
       N       E                     dE             d eps       ncg     rms          rms(c)
DAV:   1    -0.369226548142E+02    0.74726E-09    0.57617E-09  4468   0.247E-05    0.724E-07
RMM:   2    -0.369226548150E+02   -0.77137E-09   -0.22270E-13   857   0.872E-06    0.446E-07
RMM:   3    -0.369226548153E+02   -0.28808E-09   -0.37772E-13  1070   0.892E-06    0.114E-08
RMM:   4    -0.369226548151E+02    0.19872E-09   -0.17052E-13  1082   0.892E-06    0.377E-09
RMM:   5    -0.369226548148E+02    0.26023E-09    0.16699E-13   645   0.881E-06    0.177E-09
RMM:   6    -0.369226548152E+02   -0.33322E-09   -0.36267E-14   668   0.880E-06    0.317E-09
RMM:   7    -0.369226548150E+02    0.12096E-09    0.10769E-13   957   0.875E-06    0.443E-09
RMM:   8    -0.369226548150E+02    0.33197E-10    0.67600E-14   553   0.873E-06
   4 F= -.36922655E+02 E0= -.36922611E+02  d E =0.402451E-10
       N       E                     dE             d eps       ncg     rms          rms(c)
DAV:   1    -0.369226548146E+02    0.41371E-09    0.57642E-09  3884   0.117E-05    0.157E-07
RMM:   2    -0.369226548150E+02   -0.34413E-09    0.00000E+00   610   0.399E-06    0.962E-08
RMM:   3    -0.369226548151E+02   -0.14961E-09    0.00000E+00   484   0.402E-06    0.221E-09
RMM:   4    -0.369226548152E+02   -0.30127E-10    0.00000E+00   498   0.402E-06    0.895E-10
RMM:   5    -0.369226548152E+02   -0.32855E-10    0.00000E+00   341   0.402E-06
   5 F= -.36922655E+02 E0= -.36922611E+02  d E =-.176215E-09
