<?xml version="1.0" encoding="ISO-8859-1"?>
<modeling>
 <generator>
  <i name="program" type="string">vasp </i>
  <i name="version" type="string">5.3.5  </i>
  <i name="subversion" type="string">31Mar14 (build Mar 02 2015 18:14:16) complex                          parallel </i>
  <i name="platform" type="string">LinuxIFC </i>
  <i name="date" type="string">2018 08 07 </i>
  <i name="time" type="string">16:12:10 </i>
 </generator>
 <incar>
  <i type="string" name="SYSTEM">  gr</i>
  <i type="string" name="PREC">accurate : accuracy</i>
  <i type="string" name="ALGO"> FAST.</i>
  <i type="int" name="NELM">   100</i>
  <i type="int" name="NELMDL">    -3</i>
  <i type="int" name="NELMIN">     5</i>
  <i type="int" name="IBRION">     1</i>
  <i name="EDIFF">      0.00000000</i>
  <i name="EDIFFG">     -0.00000100</i>
  <i type="int" name="NSW">   400</i>
  <i type="int" name="ISIF">     2</i>
  <i name="ENCUT">   2000.00000000</i>
  <i type="int" name="ISMEAR">     0</i>
  <i name="SIGMA">      0.05000000</i>
  <i type="int" name="NWRITE">     2</i>
  <i type="logical" name="LWAVE"> F  </i>
  <i type="logical" name="LCHARG"> F  </i>
  <i type="int" name="NELM">   100</i>
 </incar>
 <kpoints>
  <generation param="Gamma">
   <v type="int" name="divisions">      24       36        1 </v>
   <v name="usershift">      0.00000000       0.00000000       0.00000000 </v>
   <v name="genvec1">      0.04166667       0.00000000       0.00000000 </v>
   <v name="genvec2">      0.00000000       0.02777778       0.00000000 </v>
   <v name="genvec3">      0.00000000       0.00000000       1.00000000 </v>
   <v name="shift">      0.00000000       0.00000000       0.00000000 </v>
  </generation>
  <varray name="kpointlist" >
   <v>       0.00000000       0.00000000       0.00000000 </v>
   <v>       0.04166667       0.00000000       0.00000000 </v>
   <v>       0.08333333       0.00000000       0.00000000 </v>
   <v>       0.12500000       0.00000000       0.00000000 </v>
   <v>       0.16666667       0.00000000       0.00000000 </v>
   <v>       0.20833333       0.00000000       0.00000000 </v>
   <v>       0.25000000       0.00000000       0.00000000 </v>
   <v>       0.29166667       0.00000000       0.00000000 </v>
   <v>       0.33333333       0.00000000       0.00000000 </v>
   <v>       0.37500000       0.00000000       0.00000000 </v>
   <v>       0.41666667       0.00000000       0.00000000 </v>
   <v>       0.45833333       0.00000000       0.00000000 </v>
   <v>       0.50000000       0.00000000       0.00000000 </v>
   <v>       0.00000000       0.02777778       0.00000000 </v>
   <v>       0.04166667       0.02777778       0.00000000 </v>
   <v>       0.08333333       0.02777778       0.00000000 </v>
   <v>       0.12500000       0.02777778       0.00000000 </v>
   <v>       0.16666667       0.02777778       0.00000000 </v>
   <v>       0.20833333       0.02777778       0.00000000 </v>
   <v>       0.25000000       0.02777778       0.00000000 </v>
   <v>       0.29166667       0.02777778       0.00000000 </v>
   <v>       0.33333333       0.02777778       0.00000000 </v>
   <v>       0.37500000       0.02777778       0.00000000 </v>
   <v>       0.41666667       0.02777778       0.00000000 </v>
   <v>       0.45833333       0.02777778       0.00000000 </v>
   <v>       0.50000000       0.02777778       0.00000000 </v>
   <v>       0.00000000       0.05555556       0.00000000 </v>
   <v>       0.04166667       0.05555556       0.00000000 </v>
   <v>       0.08333333       0.05555556       0.00000000 </v>
   <v>       0.12500000       0.05555556       0.00000000 </v>
   <v>       0.16666667       0.05555556       0.00000000 </v>
   <v>       0.20833333       0.05555556       0.00000000 </v>
   <v>       0.25000000       0.05555556       0.00000000 </v>
   <v>       0.29166667       0.05555556       0.00000000 </v>
   <v>       0.33333333       0.05555556       0.00000000 </v>
   <v>       0.37500000       0.05555556       0.00000000 </v>
   <v>       0.41666667       0.05555556       0.00000000 </v>
   <v>       0.45833333       0.05555556       0.00000000 </v>
   <v>       0.50000000       0.05555556       0.00000000 </v>
   <v>       0.00000000       0.08333333       0.00000000 </v>
   <v>       0.04166667       0.08333333       0.00000000 </v>
   <v>       0.08333333       0.08333333       0.00000000 </v>
   <v>       0.12500000       0.08333333       0.00000000 </v>
   <v>       0.16666667       0.08333333       0.00000000 </v>
   <v>       0.20833333       0.08333333       0.00000000 </v>
   <v>       0.25000000       0.08333333       0.00000000 </v>
   <v>       0.29166667       0.08333333       0.00000000 </v>
   <v>       0.33333333       0.08333333       0.00000000 </v>
   <v>       0.37500000       0.08333333       0.00000000 </v>
   <v>       0.41666667       0.08333333       0.00000000 </v>
   <v>       0.45833333       0.08333333       0.00000000 </v>
   <v>       0.50000000       0.08333333       0.00000000 </v>
   <v>       0.00000000       0.11111111       0.00000000 </v>
   <v>       0.04166667       0.11111111       0.00000000 </v>
   <v>       0.08333333       0.11111111       0.00000000 </v>
   <v>       0.12500000       0.11111111       0.00000000 </v>
   <v>       0.16666667       0.11111111       0.00000000 </v>
   <v>       0.20833333       0.11111111       0.00000000 </v>
   <v>       0.25000000       0.11111111       0.00000000 </v>
   <v>       0.29166667       0.11111111       0.00000000 </v>
   <v>       0.33333333       0.11111111       0.00000000 </v>
   <v>       0.37500000       0.11111111       0.00000000 </v>
   <v>       0.41666667       0.11111111       0.00000000 </v>
   <v>       0.45833333       0.11111111       0.00000000 </v>
   <v>       0.50000000       0.11111111       0.00000000 </v>
   <v>       0.00000000       0.13888889       0.00000000 </v>
   <v>       0.04166667       0.13888889       0.00000000 </v>
   <v>       0.08333333       0.13888889       0.00000000 </v>
   <v>       0.12500000       0.13888889       0.00000000 </v>
   <v>       0.16666667       0.13888889       0.00000000 </v>
   <v>       0.20833333       0.13888889       0.00000000 </v>
   <v>       0.25000000       0.13888889       0.00000000 </v>
   <v>       0.29166667       0.13888889       0.00000000 </v>
   <v>       0.33333333       0.13888889       0.00000000 </v>
   <v>       0.37500000       0.13888889       0.00000000 </v>
   <v>       0.41666667       0.13888889       0.00000000 </v>
   <v>       0.45833333       0.13888889       0.00000000 </v>
   <v>       0.50000000       0.13888889       0.00000000 </v>
   <v>       0.00000000       0.16666667       0.00000000 </v>
   <v>       0.04166667       0.16666667       0.00000000 </v>
   <v>       0.08333333       0.16666667       0.00000000 </v>
   <v>       0.12500000       0.16666667       0.00000000 </v>
   <v>       0.16666667       0.16666667       0.00000000 </v>
   <v>       0.20833333       0.16666667       0.00000000 </v>
   <v>       0.25000000       0.16666667       0.00000000 </v>
   <v>       0.29166667       0.16666667       0.00000000 </v>
   <v>       0.33333333       0.16666667       0.00000000 </v>
   <v>       0.37500000       0.16666667       0.00000000 </v>
   <v>       0.41666667       0.16666667       0.00000000 </v>
   <v>       0.45833333       0.16666667       0.00000000 </v>
   <v>       0.50000000       0.16666667       0.00000000 </v>
   <v>       0.00000000       0.19444444       0.00000000 </v>
   <v>       0.04166667       0.19444444       0.00000000 </v>
   <v>       0.08333333       0.19444444       0.00000000 </v>
   <v>       0.12500000       0.19444444       0.00000000 </v>
   <v>       0.16666667       0.19444444       0.00000000 </v>
   <v>       0.20833333       0.19444444       0.00000000 </v>
   <v>       0.25000000       0.19444444       0.00000000 </v>
   <v>       0.29166667       0.19444444       0.00000000 </v>
   <v>       0.33333333       0.19444444       0.00000000 </v>
   <v>       0.37500000       0.19444444       0.00000000 </v>
   <v>       0.41666667       0.19444444       0.00000000 </v>
   <v>       0.45833333       0.19444444       0.00000000 </v>
   <v>       0.50000000       0.19444444       0.00000000 </v>
   <v>       0.00000000       0.22222222       0.00000000 </v>
   <v>       0.04166667       0.22222222       0.00000000 </v>
   <v>       0.08333333       0.22222222       0.00000000 </v>
   <v>       0.12500000       0.22222222       0.00000000 </v>
   <v>       0.16666667       0.22222222       0.00000000 </v>
   <v>       0.20833333       0.22222222       0.00000000 </v>
   <v>       0.25000000       0.22222222       0.00000000 </v>
   <v>       0.29166667       0.22222222       0.00000000 </v>
   <v>       0.33333333       0.22222222       0.00000000 </v>
   <v>       0.37500000       0.22222222       0.00000000 </v>
   <v>       0.41666667       0.22222222       0.00000000 </v>
   <v>       0.45833333       0.22222222       0.00000000 </v>
   <v>       0.50000000       0.22222222       0.00000000 </v>
   <v>       0.00000000       0.25000000       0.00000000 </v>
   <v>       0.04166667       0.25000000       0.00000000 </v>
   <v>       0.08333333       0.25000000       0.00000000 </v>
   <v>       0.12500000       0.25000000       0.00000000 </v>
   <v>       0.16666667       0.25000000       0.00000000 </v>
   <v>       0.20833333       0.25000000       0.00000000 </v>
   <v>       0.25000000       0.25000000       0.00000000 </v>
   <v>       0.29166667       0.25000000       0.00000000 </v>
   <v>       0.33333333       0.25000000       0.00000000 </v>
   <v>       0.37500000       0.25000000       0.00000000 </v>
   <v>       0.41666667       0.25000000       0.00000000 </v>
   <v>       0.45833333       0.25000000       0.00000000 </v>
   <v>       0.50000000       0.25000000       0.00000000 </v>
   <v>       0.00000000       0.27777778       0.00000000 </v>
   <v>       0.04166667       0.27777778       0.00000000 </v>
   <v>       0.08333333       0.27777778       0.00000000 </v>
   <v>       0.12500000       0.27777778       0.00000000 </v>
   <v>       0.16666667       0.27777778       0.00000000 </v>
   <v>       0.20833333       0.27777778       0.00000000 </v>
   <v>       0.25000000       0.27777778       0.00000000 </v>
   <v>       0.29166667       0.27777778       0.00000000 </v>
   <v>       0.33333333       0.27777778       0.00000000 </v>
   <v>       0.37500000       0.27777778       0.00000000 </v>
   <v>       0.41666667       0.27777778       0.00000000 </v>
   <v>       0.45833333       0.27777778       0.00000000 </v>
   <v>       0.50000000       0.27777778       0.00000000 </v>
   <v>       0.00000000       0.30555556       0.00000000 </v>
   <v>       0.04166667       0.30555556       0.00000000 </v>
   <v>       0.08333333       0.30555556       0.00000000 </v>
   <v>       0.12500000       0.30555556       0.00000000 </v>
   <v>       0.16666667       0.30555556       0.00000000 </v>
   <v>       0.20833333       0.30555556       0.00000000 </v>
   <v>       0.25000000       0.30555556       0.00000000 </v>
   <v>       0.29166667       0.30555556       0.00000000 </v>
   <v>       0.33333333       0.30555556       0.00000000 </v>
   <v>       0.37500000       0.30555556       0.00000000 </v>
   <v>       0.41666667       0.30555556       0.00000000 </v>
   <v>       0.45833333       0.30555556       0.00000000 </v>
   <v>       0.50000000       0.30555556       0.00000000 </v>
   <v>       0.00000000       0.33333333       0.00000000 </v>
   <v>       0.04166667       0.33333333       0.00000000 </v>
   <v>       0.08333333       0.33333333       0.00000000 </v>
   <v>       0.12500000       0.33333333       0.00000000 </v>
   <v>       0.16666667       0.33333333       0.00000000 </v>
   <v>       0.20833333       0.33333333       0.00000000 </v>
   <v>       0.25000000       0.33333333       0.00000000 </v>
   <v>       0.29166667       0.33333333       0.00000000 </v>
   <v>       0.33333333       0.33333333       0.00000000 </v>
   <v>       0.37500000       0.33333333       0.00000000 </v>
   <v>       0.41666667       0.33333333       0.00000000 </v>
   <v>       0.45833333       0.33333333       0.00000000 </v>
   <v>       0.50000000       0.33333333       0.00000000 </v>
   <v>       0.00000000       0.36111111       0.00000000 </v>
   <v>       0.04166667       0.36111111       0.00000000 </v>
   <v>       0.08333333       0.36111111       0.00000000 </v>
   <v>       0.12500000       0.36111111       0.00000000 </v>
   <v>       0.16666667       0.36111111       0.00000000 </v>
   <v>       0.20833333       0.36111111       0.00000000 </v>
   <v>       0.25000000       0.36111111       0.00000000 </v>
   <v>       0.29166667       0.36111111       0.00000000 </v>
   <v>       0.33333333       0.36111111       0.00000000 </v>
   <v>       0.37500000       0.36111111       0.00000000 </v>
   <v>       0.41666667       0.36111111       0.00000000 </v>
   <v>       0.45833333       0.36111111       0.00000000 </v>
   <v>       0.50000000       0.36111111       0.00000000 </v>
   <v>       0.00000000       0.38888889       0.00000000 </v>
   <v>       0.04166667       0.38888889       0.00000000 </v>
   <v>       0.08333333       0.38888889       0.00000000 </v>
   <v>       0.12500000       0.38888889       0.00000000 </v>
   <v>       0.16666667       0.38888889       0.00000000 </v>
   <v>       0.20833333       0.38888889       0.00000000 </v>
   <v>       0.25000000       0.38888889       0.00000000 </v>
   <v>       0.29166667       0.38888889       0.00000000 </v>
   <v>       0.33333333       0.38888889       0.00000000 </v>
   <v>       0.37500000       0.38888889       0.00000000 </v>
   <v>       0.41666667       0.38888889       0.00000000 </v>
   <v>       0.45833333       0.38888889       0.00000000 </v>
   <v>       0.50000000       0.38888889       0.00000000 </v>
   <v>       0.00000000       0.41666667       0.00000000 </v>
   <v>       0.04166667       0.41666667       0.00000000 </v>
   <v>       0.08333333       0.41666667       0.00000000 </v>
   <v>       0.12500000       0.41666667       0.00000000 </v>
   <v>       0.16666667       0.41666667       0.00000000 </v>
   <v>       0.20833333       0.41666667       0.00000000 </v>
   <v>       0.25000000       0.41666667       0.00000000 </v>
   <v>       0.29166667       0.41666667       0.00000000 </v>
   <v>       0.33333333       0.41666667       0.00000000 </v>
   <v>       0.37500000       0.41666667       0.00000000 </v>
   <v>       0.41666667       0.41666667       0.00000000 </v>
   <v>       0.45833333       0.41666667       0.00000000 </v>
   <v>       0.50000000       0.41666667       0.00000000 </v>
   <v>       0.00000000       0.44444444       0.00000000 </v>
   <v>       0.04166667       0.44444444       0.00000000 </v>
   <v>       0.08333333       0.44444444       0.00000000 </v>
   <v>       0.12500000       0.44444444       0.00000000 </v>
   <v>       0.16666667       0.44444444       0.00000000 </v>
   <v>       0.20833333       0.44444444       0.00000000 </v>
   <v>       0.25000000       0.44444444       0.00000000 </v>
   <v>       0.29166667       0.44444444       0.00000000 </v>
   <v>       0.33333333       0.44444444       0.00000000 </v>
   <v>       0.37500000       0.44444444       0.00000000 </v>
   <v>       0.41666667       0.44444444       0.00000000 </v>
   <v>       0.45833333       0.44444444       0.00000000 </v>
   <v>       0.50000000       0.44444444       0.00000000 </v>
   <v>       0.00000000       0.47222222       0.00000000 </v>
   <v>       0.04166667       0.47222222       0.00000000 </v>
   <v>       0.08333333       0.47222222       0.00000000 </v>
   <v>       0.12500000       0.47222222       0.00000000 </v>
   <v>       0.16666667       0.47222222       0.00000000 </v>
   <v>       0.20833333       0.47222222       0.00000000 </v>
   <v>       0.25000000       0.47222222       0.00000000 </v>
   <v>       0.29166667       0.47222222       0.00000000 </v>
   <v>       0.33333333       0.47222222       0.00000000 </v>
   <v>       0.37500000       0.47222222       0.00000000 </v>
   <v>       0.41666667       0.47222222       0.00000000 </v>
   <v>       0.45833333       0.47222222       0.00000000 </v>
   <v>       0.50000000       0.47222222       0.00000000 </v>
   <v>       0.00000000       0.50000000       0.00000000 </v>
   <v>       0.04166667       0.50000000       0.00000000 </v>
   <v>       0.08333333       0.50000000       0.00000000 </v>
   <v>       0.12500000       0.50000000       0.00000000 </v>
   <v>       0.16666667       0.50000000       0.00000000 </v>
   <v>       0.20833333       0.50000000       0.00000000 </v>
   <v>       0.25000000       0.50000000       0.00000000 </v>
   <v>       0.29166667       0.50000000       0.00000000 </v>
   <v>       0.33333333       0.50000000       0.00000000 </v>
   <v>       0.37500000       0.50000000       0.00000000 </v>
   <v>       0.41666667       0.50000000       0.00000000 </v>
   <v>       0.45833333       0.50000000       0.00000000 </v>
   <v>       0.50000000       0.50000000       0.00000000 </v>
  </varray>
  <varray name="weights" >
   <v>       0.00115741 </v>
   <v>       0.00231481 </v>
   <v>       0.00231481 </v>
   <v>       0.00231481 </v>
   <v>       0.00231481 </v>
   <v>       0.00231481 </v>
   <v>       0.00231481 </v>
   <v>       0.00231481 </v>
   <v>       0.00231481 </v>
   <v>       0.00231481 </v>
   <v>       0.00231481 </v>
   <v>       0.00231481 </v>
   <v>       0.00115741 </v>
   <v>       0.00231481 </v>
   <v>       0.00462963 </v>
   <v>       0.00462963 </v>
   <v>       0.00462963 </v>
   <v>       0.00462963 </v>
   <v>       0.00462963 </v>
   <v>       0.00462963 </v>
   <v>       0.00462963 </v>
   <v>       0.00462963 </v>
   <v>       0.00462963 </v>
   <v>       0.00462963 </v>
   <v>       0.00462963 </v>
   <v>       0.00231481 </v>
   <v>       0.00231481 </v>
   <v>       0.00462963 </v>
   <v>       0.00462963 </v>
   <v>       0.00462963 </v>
   <v>       0.00462963 </v>
   <v>       0.00462963 </v>
   <v>       0.00462963 </v>
   <v>       0.00462963 </v>
   <v>       0.00462963 </v>
   <v>       0.00462963 </v>
   <v>       0.00462963 </v>
   <v>       0.00462963 </v>
   <v>       0.00231481 </v>
   <v>       0.00231481 </v>
   <v>       0.00462963 </v>
   <v>       0.00462963 </v>
   <v>       0.00462963 </v>
   <v>       0.00462963 </v>
   <v>       0.00462963 </v>
   <v>       0.00462963 </v>
   <v>       0.00462963 </v>
   <v>       0.00462963 </v>
   <v>       0.00462963 </v>
   <v>       0.00462963 </v>
   <v>       0.00462963 </v>
   <v>       0.00231481 </v>
   <v>       0.00231481 </v>
   <v>       0.00462963 </v>
   <v>       0.00462963 </v>
   <v>       0.00462963 </v>
   <v>       0.00462963 </v>
   <v>       0.00462963 </v>
   <v>       0.00462963 </v>
   <v>       0.00462963 </v>
   <v>       0.00462963 </v>
   <v>       0.00462963 </v>
   <v>       0.00462963 </v>
   <v>       0.00462963 </v>
   <v>       0.00231481 </v>
   <v>       0.00231481 </v>
   <v>       0.00462963 </v>
   <v>       0.00462963 </v>
   <v>       0.00462963 </v>
   <v>       0.00462963 </v>
   <v>       0.00462963 </v>
   <v>       0.00462963 </v>
   <v>       0.00462963 </v>
   <v>       0.00462963 </v>
   <v>       0.00462963 </v>
   <v>       0.00462963 </v>
   <v>       0.00462963 </v>
   <v>       0.00231481 </v>
   <v>       0.00231481 </v>
   <v>       0.00462963 </v>
   <v>       0.00462963 </v>
   <v>       0.00462963 </v>
   <v>       0.00462963 </v>
   <v>       0.00462963 </v>
   <v>       0.00462963 </v>
   <v>       0.00462963 </v>
   <v>       0.00462963 </v>
   <v>       0.00462963 </v>
   <v>       0.00462963 </v>
   <v>       0.00462963 </v>
   <v>       0.00231481 </v>
   <v>       0.00231481 </v>
   <v>       0.00462963 </v>
   <v>       0.00462963 </v>
   <v>       0.00462963 </v>
   <v>       0.00462963 </v>
   <v>       0.00462963 </v>
   <v>       0.00462963 </v>
   <v>       0.00462963 </v>
   <v>       0.00462963 </v>
   <v>       0.00462963 </v>
   <v>       0.00462963 </v>
   <v>       0.00462963 </v>
   <v>       0.00231481 </v>
   <v>       0.00231481 </v>
   <v>       0.00462963 </v>
   <v>       0.00462963 </v>
   <v>       0.00462963 </v>
   <v>       0.00462963 </v>
   <v>       0.00462963 </v>
   <v>       0.00462963 </v>
   <v>       0.00462963 </v>
   <v>       0.00462963 </v>
   <v>       0.00462963 </v>
   <v>       0.00462963 </v>
   <v>       0.00462963 </v>
   <v>       0.00231481 </v>
   <v>       0.00231481 </v>
   <v>       0.00462963 </v>
   <v>       0.00462963 </v>
   <v>       0.00462963 </v>
   <v>       0.00462963 </v>
   <v>       0.00462963 </v>
   <v>       0.00462963 </v>
   <v>       0.00462963 </v>
   <v>       0.00462963 </v>
   <v>       0.00462963 </v>
   <v>       0.00462963 </v>
   <v>       0.00462963 </v>
   <v>       0.00231481 </v>
   <v>       0.00231481 </v>
   <v>       0.00462963 </v>
   <v>       0.00462963 </v>
   <v>       0.00462963 </v>
   <v>       0.00462963 </v>
   <v>       0.00462963 </v>
   <v>       0.00462963 </v>
   <v>       0.00462963 </v>
   <v>       0.00462963 </v>
   <v>       0.00462963 </v>
   <v>       0.00462963 </v>
   <v>       0.00462963 </v>
   <v>       0.00231481 </v>
   <v>       0.00231481 </v>
   <v>       0.00462963 </v>
   <v>       0.00462963 </v>
   <v>       0.00462963 </v>
   <v>       0.00462963 </v>
   <v>       0.00462963 </v>
   <v>       0.00462963 </v>
   <v>       0.00462963 </v>
   <v>       0.00462963 </v>
   <v>       0.00462963 </v>
   <v>       0.00462963 </v>
   <v>       0.00462963 </v>
   <v>       0.00231481 </v>
   <v>       0.00231481 </v>
   <v>       0.00462963 </v>
   <v>       0.00462963 </v>
   <v>       0.00462963 </v>
   <v>       0.00462963 </v>
   <v>       0.00462963 </v>
   <v>       0.00462963 </v>
   <v>       0.00462963 </v>
   <v>       0.00462963 </v>
   <v>       0.00462963 </v>
   <v>       0.00462963 </v>
   <v>       0.00462963 </v>
   <v>       0.00231481 </v>
   <v>       0.00231481 </v>
   <v>       0.00462963 </v>
   <v>       0.00462963 </v>
   <v>       0.00462963 </v>
   <v>       0.00462963 </v>
   <v>       0.00462963 </v>
   <v>       0.00462963 </v>
   <v>       0.00462963 </v>
   <v>       0.00462963 </v>
   <v>       0.00462963 </v>
   <v>       0.00462963 </v>
   <v>       0.00462963 </v>
   <v>       0.00231481 </v>
   <v>       0.00231481 </v>
   <v>       0.00462963 </v>
   <v>       0.00462963 </v>
   <v>       0.00462963 </v>
   <v>       0.00462963 </v>
   <v>       0.00462963 </v>
   <v>       0.00462963 </v>
   <v>       0.00462963 </v>
   <v>       0.00462963 </v>
   <v>       0.00462963 </v>
   <v>       0.00462963 </v>
   <v>       0.00462963 </v>
   <v>       0.00231481 </v>
   <v>       0.00231481 </v>
   <v>       0.00462963 </v>
   <v>       0.00462963 </v>
   <v>       0.00462963 </v>
   <v>       0.00462963 </v>
   <v>       0.00462963 </v>
   <v>       0.00462963 </v>
   <v>       0.00462963 </v>
   <v>       0.00462963 </v>
   <v>       0.00462963 </v>
   <v>       0.00462963 </v>
   <v>       0.00462963 </v>
   <v>       0.00231481 </v>
   <v>       0.00231481 </v>
   <v>       0.00462963 </v>
   <v>       0.00462963 </v>
   <v>       0.00462963 </v>
   <v>       0.00462963 </v>
   <v>       0.00462963 </v>
   <v>       0.00462963 </v>
   <v>       0.00462963 </v>
   <v>       0.00462963 </v>
   <v>       0.00462963 </v>
   <v>       0.00462963 </v>
   <v>       0.00462963 </v>
   <v>       0.00231481 </v>
   <v>       0.00231481 </v>
   <v>       0.00462963 </v>
   <v>       0.00462963 </v>
   <v>       0.00462963 </v>
   <v>       0.00462963 </v>
   <v>       0.00462963 </v>
   <v>       0.00462963 </v>
   <v>       0.00462963 </v>
   <v>       0.00462963 </v>
   <v>       0.00462963 </v>
   <v>       0.00462963 </v>
   <v>       0.00462963 </v>
   <v>       0.00231481 </v>
   <v>       0.00115741 </v>
   <v>       0.00231481 </v>
   <v>       0.00231481 </v>
   <v>       0.00231481 </v>
   <v>       0.00231481 </v>
   <v>       0.00231481 </v>
   <v>       0.00231481 </v>
   <v>       0.00231481 </v>
   <v>       0.00231481 </v>
   <v>       0.00231481 </v>
   <v>       0.00231481 </v>
   <v>       0.00231481 </v>
   <v>       0.00115741 </v>
  </varray>
 </kpoints>
 <parameters>
  <separator name="general" >
   <i type="string" name="SYSTEM">gr</i>
   <i type="logical" name="LCOMPAT"> F  </i>
  </separator>
  <separator name="electronic" >
   <i type="string" name="PREC">accura</i>
   <i name="ENMAX">   2000.00000000</i>
   <i name="ENAUG">    644.87300000</i>
   <i name="EDIFF">      0.00000000</i>
   <i type="int" name="IALGO">    68</i>
   <i type="int" name="IWAVPR">    11</i>
   <i type="int" name="NBANDS">    12</i>
   <i name="NELECT">     16.00000000</i>
   <i type="int" name="TURBO">     0</i>
   <i type="int" name="IRESTART">     0</i>
   <i type="int" name="NREBOOT">     0</i>
   <i type="int" name="NMIN">     0</i>
   <i name="EREF">      0.00000000</i>
   <separator name="electronic smearing" >
    <i type="int" name="ISMEAR">     0</i>
    <i name="SIGMA">      0.05000000</i>
    <i name="KSPACING">      0.50000000</i>
    <i type="logical" name="KGAMMA"> T  </i>
   </separator>
   <separator name="electronic projectors" >
    <i type="logical" name="LREAL"> F  </i>
    <v name="ROPT">      0.00000000</v>
    <i type="int" name="LMAXPAW">  -100</i>
    <i type="int" name="LMAXMIX">     2</i>
    <i type="logical" name="NLSPLINE"> F  </i>
   </separator>
   <separator name="electronic startup" >
    <i type="int" name="ISTART">     0</i>
    <i type="int" name="ICHARG">     2</i>
    <i type="int" name="INIWAV">     1</i>
   </separator>
   <separator name="electronic spin" >
    <i type="int" name="ISPIN">     1</i>
    <i type="logical" name="LNONCOLLINEAR"> F  </i>
    <v name="MAGMOM">      1.00000000      1.00000000      1.00000000      1.00000000</v>
    <i name="NUPDOWN">     -1.00000000</i>
    <i type="logical" name="LSORBIT"> F  </i>
    <v name="SAXIS">      0.00000000      0.00000000      1.00000000</v>
    <i type="logical" name="LSPIRAL"> F  </i>
    <v name="QSPIRAL">      0.00000000      0.00000000      0.00000000</v>
    <i type="logical" name="LZEROZ"> F  </i>
   </separator>
   <separator name="electronic exchange-correlation" >
    <i type="logical" name="LASPH"> F  </i>
    <i type="logical" name="LMETAGGA"> F  </i>
   </separator>
   <separator name="electronic convergence" >
    <i type="int" name="NELM">   100</i>
    <i type="int" name="NELMDL">    -3</i>
    <i type="int" name="NELMIN">     5</i>
    <i name="ENINI">   2000.00000000</i>
    <separator name="electronic convergence detail" >
     <i type="logical" name="LDIAG"> T  </i>
     <i type="logical" name="LSUBROT"> F  </i>
     <i name="WEIMIN">      0.00100000</i>
     <i name="EBREAK">      0.00000000</i>
     <i name="DEPER">      0.30000000</i>
     <i type="int" name="NRMM">     4</i>
     <i name="TIME">      0.40000000</i>
    </separator>
   </separator>
   <separator name="electronic mixer" >
    <i name="AMIX">      0.40000000</i>
    <i name="BMIX">      1.00000000</i>
    <i name="AMIN">      0.10000000</i>
    <i name="AMIX_MAG">      1.60000000</i>
    <i name="BMIX_MAG">      1.00000000</i>
    <separator name="electronic mixer details" >
     <i type="int" name="IMIX">     4</i>
     <i type="int" name="MAXMIX">   -45</i>
     <i name="WC">    100.00000000</i>
     <i type="int" name="INIMIX">     1</i>
     <i type="int" name="MIXPRE">     1</i>
     <i type="int" name="MREMOVE">     5</i>
    </separator>
   </separator>
   <separator name="electronic dipolcorrection" >
    <i type="logical" name="LDIPOL"> F  </i>
    <i type="logical" name="LMONO"> F  </i>
    <i type="int" name="IDIPOL">     0</i>
    <i name="EPSILON">      1.00000000</i>
    <v name="DIPOL">   -100.00000000   -100.00000000   -100.00000000</v>
    <i name="EFIELD">      0.00000000</i>
   </separator>
  </separator>
  <separator name="grids" >
   <i type="int" name="NGX">    64</i>
   <i type="int" name="NGY">    36</i>
   <i type="int" name="NGZ">   294</i>
   <i type="int" name="NGXF">   128</i>
   <i type="int" name="NGYF">    72</i>
   <i type="int" name="NGZF">   588</i>
   <i type="logical" name="ADDGRID"> F  </i>
  </separator>
  <separator name="ionic" >
   <i type="int" name="NSW">   400</i>
   <i type="int" name="IBRION">     1</i>
   <i type="int" name="ISIF">     2</i>
   <i name="PSTRESS">      0.00000000</i>
   <i name="EDIFFG">     -0.00000100</i>
   <i type="int" name="NFREE">     0</i>
   <i name="POTIM">      0.50000000</i>
   <i name="SMASS">     -3.00000000</i>
   <i name="SCALEE">      1.00000000</i>
  </separator>
  <separator name="ionic md" >
   <i name="TEBEG">      0.00010000</i>
   <i name="TEEND">      0.00010000</i>
   <i type="int" name="NBLOCK">     1</i>
   <i type="int" name="KBLOCK">   400</i>
   <i type="int" name="NPACO">   256</i>
   <i name="APACO">     16.00000000</i>
  </separator>
  <separator name="symmetry" >
   <i type="int" name="ISYM">     2</i>
   <i name="SYMPREC">      0.00001000</i>
  </separator>
  <separator name="dos" >
   <i type="logical" name="LORBIT"> F  </i>
   <v name="RWIGS">     -1.00000000</v>
   <i type="int" name="NEDOS">   301</i>
   <i name="EMIN">     10.00000000</i>
   <i name="EMAX">    -10.00000000</i>
   <i name="EFERMI">      0.00000000</i>
  </separator>
  <separator name="writing" >
   <i type="int" name="NWRITE">     2</i>
   <i type="logical" name="LWAVE"> F  </i>
   <i type="logical" name="LCHARG"> F  </i>
   <i type="logical" name="LPARD"> F  </i>
   <i type="logical" name="LVTOT"> F  </i>
   <i type="logical" name="LVHAR"> F  </i>
   <i type="logical" name="LELF"> F  </i>
   <i type="logical" name="LOPTICS"> F  </i>
   <v name="STM">      0.00000000      0.00000000      0.00000000      0.00000000      0.00000000      0.00000000      0.00000000</v>
  </separator>
  <separator name="performance" >
   <i type="int" name="NPAR">     4</i>
   <i type="int" name="NSIM">     4</i>
   <i type="int" name="NBLK">    -1</i>
   <i type="logical" name="LPLANE"> T  </i>
   <i type="logical" name="LSCALAPACK"> F  </i>
   <i type="logical" name="LSCAAWARE"> F  </i>
   <i type="logical" name="LSCALU"> F  </i>
   <i type="logical" name="LASYNC"> F  </i>
   <i type="logical" name="LORBITALREAL"> F  </i>
  </separator>
  <separator name="miscellaneous" >
   <i type="int" name="IDIOT">     3</i>
   <i type="logical" name="LMUSIC"> F  </i>
   <v name="POMASS">     12.01100000</v>
   <v name="DARWINR">      0.00000000</v>
   <v name="DARWINV">      1.00000000</v>
   <i type="logical" name="LCORR"> T  </i>
  </separator>
  <i type="logical" name="GGA_COMPAT"> T  </i>
  <i type="logical" name="LBERRY"> F  </i>
  <i type="int" name="ICORELEVEL">     0</i>
  <i type="logical" name="LDAU"> F  </i>
  <i type="int" name="I_CONSTRAINED_M">     0</i>
  <separator name="electronic exchange-correlation" >
   <i type="string" name="GGA">--</i>
   <i type="int" name="VOSKOWN">     0</i>
   <i type="logical" name="LHFCALC"> F  </i>
   <i type="string" name="PRECFOCK"></i>
   <i type="logical" name="LSYMGRAD"> F  </i>
   <i type="logical" name="LHFONE"> F  </i>
   <i type="logical" name="LRHFCALC"> F  </i>
   <i type="logical" name="LTHOMAS"> F  </i>
   <i type="logical" name="LMODELHF"> F  </i>
   <i name="ENCUT4O">     -1.00000000</i>
   <i type="int" name="EXXOEP">     0</i>
   <i type="int" name="FOURORBIT">     0</i>
   <i name="AEXX">      0.00000000</i>
   <i name="HFALPHA">      0.00000000</i>
   <i name="MCALPHA">      0.00000000</i>
   <i name="ALDAX">      1.00000000</i>
   <i name="AGGAX">      1.00000000</i>
   <i name="ALDAC">      1.00000000</i>
   <i name="AGGAC">      1.00000000</i>
   <i type="int" name="NKREDX">     1</i>
   <i type="int" name="NKREDY">     1</i>
   <i type="int" name="NKREDZ">     1</i>
   <i type="logical" name="SHIFTRED"> F  </i>
   <i type="logical" name="ODDONLY"> F  </i>
   <i type="logical" name="EVENONLY"> F  </i>
   <i type="int" name="LMAXFOCK">     0</i>
   <i type="int" name="NMAXFOCKAE">     0</i>
   <i type="logical" name="LFOCKAEDFT"> F  </i>
   <i name="HFSCREEN">      0.00000000</i>
   <i name="HFSCREENC">      0.00000000</i>
   <i type="int" name="NBANDSGWLOW">     0</i>
  </separator>
  <separator name="vdW DFT" >
   <i type="logical" name="LUSE_VDW"> F  </i>
   <i name="Zab_VDW">     -0.84910000</i>
   <i name="PARAM1">      0.12340000</i>
   <i name="PARAM2">      1.00000000</i>
   <i name="PARAM3">      0.00000000</i>
  </separator>
  <separator name="model GW" >
   <i type="int" name="MODEL_GW">     0</i>
   <i name="MODEL_EPS0">     31.62568521</i>
   <i name="MODEL_ALPHA">      1.00000000</i>
  </separator>
  <separator name="linear response parameters" >
   <i type="logical" name="LEPSILON"> F  </i>
   <i type="logical" name="LRPA"> F  </i>
   <i type="logical" name="LNABLA"> F  </i>
   <i type="logical" name="LVEL"> F  </i>
   <i type="int" name="KINTER">     0</i>
   <i name="CSHIFT">      0.10000000</i>
   <i name="OMEGAMAX">     -1.00000000</i>
   <i name="DEG_THRESHOLD">      0.00200000</i>
  </separator>
  <separator name="orbital magnetization" >
   <i type="logical" name="NUCIND"> F  </i>
   <v name="MAGPOS">      0.00000000      0.00000000      0.00000000</v>
   <i type="logical" name="LNICSALL"> T  </i>
   <i type="logical" name="ORBITALMAG"> F  </i>
   <i type="logical" name="LMAGBLOCH"> F  </i>
   <i type="logical" name="LCHIMAG"> F  </i>
   <i type="logical" name="LGAUGE"> T  </i>
   <i type="int" name="MAGATOM">     0</i>
   <v name="MAGDIPOL">      0.00000000      0.00000000      0.00000000</v>
   <v name="AVECCONST">      0.00000000      0.00000000      0.00000000</v>
  </separator>
  <separator name="response functions" >
   <i type="logical" name="LADDER"> F  </i>
   <i type="logical" name="LFXC"> F  </i>
   <i type="logical" name="LHARTREE"> T  </i>
   <i type="int" name="IBSE">     0</i>
   <i type="logical" name="LTCTE"> F  </i>
   <i type="logical" name="LTETE"> F  </i>
   <i type="logical" name="LTRIPLET"> F  </i>
   <i type="logical" name="LFXCEPS"> F  </i>
   <i type="logical" name="LFXHEG"> F  </i>
   <i type="logical" name="L2ORDER"> F  </i>
   <i type="logical" name="LUSEW"> F  </i>
   <i name="ENCUTGW">     -2.00000000</i>
   <i name="ENCUTGWSOFT">     -2.00000000</i>
   <i name="ENCUTLF">     -1.00000000</i>
   <i type="int" name="LMAXMP2">    -1</i>
   <i name="SCISSOR">      0.00000000</i>
   <i type="int" name="NOMEGA">     0</i>
   <i type="int" name="NOMEGAR">     0</i>
   <i type="int" name="NBANDSGW">    -1</i>
   <i type="int" name="NBANDSO">    -1</i>
   <i type="int" name="NBANDSV">    -1</i>
   <i type="int" name="NELM">   100</i>
   <i type="int" name="DIM">     3</i>
   <i type="int" name="ANTIRES">     0</i>
   <i name="OMEGAMAX">    -30.00000000</i>
   <i name="OMEGAMIN">    -30.00000000</i>
   <i name="OMEGATL">   -200.00000000</i>
   <i type="int" name="OMEGAGRID">     0</i>
   <i name="CSHIFT">     -0.10000000</i>
   <i type="logical" name="SELFENERGY"> F  </i>
   <i type="logical" name="LSPECTRAL"> F  </i>
   <i type="logical" name="ODDONLYGW"> F  </i>
   <i type="logical" name="EVENONLYGW"> F  </i>
   <i type="int" name="NKREDLFX">     1</i>
   <i type="int" name="NKREDLFY">     1</i>
   <i type="int" name="NKREDLFZ">     1</i>
   <i type="int" name="MAXMEM">  1800</i>
   <i type="int" name="TELESCOPE">     0</i>
   <i type="int" name="TAUPAR">     1</i>
  </separator>
  <separator name="External order field" >
   <i name="OFIELD_KAPPA">      0.00000000</i>
   <v name="OFIELD_K">      0.00000000      0.00000000      0.00000000</v>
   <i name="OFIELD_Q6_NEAR">      0.00000000</i>
   <i name="OFIELD_Q6_FAR">      0.00000000</i>
   <i name="OFIELD_A">      0.00000000</i>
  </separator>
 </parameters>
 <atominfo>
  <atoms>       4 </atoms>
  <types>       1 </types>
  <array name="atoms" >
   <dimension dim="1">ion</dimension>
   <field type="string">element</field>
   <field type="int">atomtype</field>
   <set>
    <rc><c>C </c><c>   1</c></rc>
    <rc><c>C </c><c>   1</c></rc>
    <rc><c>C </c><c>   1</c></rc>
    <rc><c>C </c><c>   1</c></rc>
   </set>
  </array>
  <array name="atomtypes" >
   <dimension dim="1">type</dimension>
   <field type="int">atomspertype</field>
   <field type="string">element</field>
   <field>mass</field>
   <field>valence</field>
   <field type="string">pseudopotential</field>
   <set>
    <rc><c>   4</c><c>C </c><c>     12.01100000</c><c>      4.00000000</c><c> PAW_PBE C 08Apr2002                    </c></rc>
   </set>
  </array>
 </atominfo>
 <structure name="initialpos" >
  <crystal>
   <varray name="basis" >
    <v>       4.29505069       0.00000000       0.00000000 </v>
    <v>       0.00000000       2.46491561       0.00000000 </v>
    <v>       0.00000000       0.00000000      19.91490945 </v>
   </varray>
   <i name="volume">    210.83790140 </i>
   <varray name="rec_basis" >
    <v>       0.23282612       0.00000000       0.00000000 </v>
    <v>       0.00000000       0.40569340       0.00000000 </v>
    <v>       0.00000000       0.00000000       0.05021364 </v>
   </varray>
  </crystal>
  <varray name="positions" >
   <v>       0.99987391       0.00000000       0.00000000 </v>
   <v>       0.16679275       0.50000000       0.00000000 </v>
   <v>       0.49987391       0.50000000       0.00000000 </v>
   <v>       0.66679275       0.00000000       0.00000000 </v>
  </varray>
 </structure>
 <calculation>
  <scstep>
   <time name="dav">  294.79  653.53</time>
   <time name="total">  297.28  656.07</time>
   <energy>
    <i name="alphaZ">      6.18334092 </i>
    <i name="ewald">   2558.06117958 </i>
    <i name="hartreedc">  -2984.30261213 </i>
    <i name="XCdc">     55.03957710 </i>
    <i name="pawpsdc">    151.32577238 </i>
    <i name="pawaedc">   -155.92769107 </i>
    <i name="eentropy">     -0.00167512 </i>
    <i name="bandstr">    -29.81780870 </i>
    <i name="atom">    588.62352690 </i>
    <i name="e_fr_energy">    189.18360987 </i>
    <i name="e_wo_entrp">    189.18528499 </i>
    <i name="e_0_energy">    189.18444743 </i>
   </energy>
  </scstep>
  <scstep>
   <time name="dav">  446.42  487.03</time>
   <time name="total">  446.42  487.06</time>
   <energy>
    <i name="e_fr_energy">     -9.46271601 </i>
    <i name="e_wo_entrp">     -9.46254367 </i>
    <i name="e_0_energy">     -9.46262984 </i>
   </energy>
  </scstep>
  <scstep>
   <time name="dav">  341.72  342.23</time>
   <time name="total">  372.38  372.92</time>
   <energy>
    <i name="e_fr_energy">    -38.37146083 </i>
    <i name="e_wo_entrp">    -38.37145035 </i>
    <i name="e_0_energy">    -38.37145559 </i>
   </energy>
  </scstep>
  <scstep>
   <time name="diag">   79.87   79.88</time>
   <time name="diis">  352.62  352.76</time>
   <time name="orth">    3.11    3.11</time>
   <time name="total">  468.59  595.18</time>
   <energy>
    <i name="e_fr_energy">    -37.69242205 </i>
    <i name="e_wo_entrp">    -37.69231132 </i>
    <i name="e_0_energy">    -37.69236669 </i>
   </energy>
  </scstep>
  <scstep>
   <time name="diag">   79.82   79.85</time>
   <time name="diis">  340.24  340.57</time>
   <time name="orth">    3.13    3.13</time>
   <time name="total">  456.16  478.01</time>
   <energy>
    <i name="e_fr_energy">    -36.93363055 </i>
    <i name="e_wo_entrp">    -36.93354184 </i>
    <i name="e_0_energy">    -36.93358619 </i>
   </energy>
  </scstep>
  <scstep>
   <time name="diag">   79.74   79.81</time>
   <time name="diis">  371.16  371.38</time>
   <time name="orth">    3.12    3.13</time>
   <time name="total">  487.03  497.67</time>
   <energy>
    <i name="e_fr_energy">    -36.93506241 </i>
    <i name="e_wo_entrp">    -36.93497343 </i>
    <i name="e_0_energy">    -36.93501792 </i>
   </energy>
  </scstep>
  <scstep>
   <time name="diag">   79.48   79.89</time>
   <time name="diis">  338.92  339.09</time>
   <time name="orth">    3.11    3.11</time>
   <time name="total">  454.46  456.11</time>
   <energy>
    <i name="e_fr_energy">    -36.92569714 </i>
    <i name="e_wo_entrp">    -36.92560968 </i>
    <i name="e_0_energy">    -36.92565341 </i>
   </energy>
  </scstep>
  <scstep>
   <time name="diag">   79.80   79.88</time>
   <time name="diis">  346.54  346.73</time>
   <time name="orth">    3.09    3.10</time>
   <time name="total">  462.47  462.77</time>
   <energy>
    <i name="e_fr_energy">    -36.91980683 </i>
    <i name="e_wo_entrp">    -36.91971897 </i>
    <i name="e_0_energy">    -36.91976290 </i>
   </energy>
  </scstep>
  <scstep>
   <time name="diag">   79.84   79.85</time>
   <time name="diis">  328.36  329.63</time>
   <time name="orth">    3.09    3.10</time>
   <time name="total">  444.08  463.17</time>
   <energy>
    <i name="e_fr_energy">    -36.91946841 </i>
    <i name="e_wo_entrp">    -36.91938004 </i>
    <i name="e_0_energy">    -36.91942422 </i>
   </energy>
  </scstep>
  <scstep>
   <time name="diag">   79.47   79.86</time>
   <time name="diis">  329.77  330.19</time>
   <time name="orth">    3.21    3.21</time>
   <time name="total">  445.44  446.32</time>
   <energy>
    <i name="e_fr_energy">    -36.91927711 </i>
    <i name="e_wo_entrp">    -36.91918907 </i>
    <i name="e_0_energy">    -36.91923309 </i>
   </energy>
  </scstep>
  <scstep>
   <time name="diag">   79.87   79.90</time>
   <time name="diis">  331.42  331.59</time>
   <time name="orth">    3.08    3.09</time>
   <time name="total">  447.32  447.58</time>
   <energy>
    <i name="e_fr_energy">    -36.92184933 </i>
    <i name="e_wo_entrp">    -36.92176140 </i>
    <i name="e_0_energy">    -36.92180536 </i>
   </energy>
  </scstep>
  <scstep>
   <time name="diag">   79.87   79.92</time>
   <time name="diis">  331.09  331.20</time>
   <time name="orth">    3.10    3.10</time>
   <time name="total">  447.09  447.29</time>
   <energy>
    <i name="e_fr_energy">    -36.92227143 </i>
    <i name="e_wo_entrp">    -36.92218339 </i>
    <i name="e_0_energy">    -36.92222741 </i>
   </energy>
  </scstep>
  <scstep>
   <time name="diag">   79.82   79.88</time>
   <time name="diis">  338.10  338.42</time>
   <time name="orth">    3.08    3.08</time>
   <time name="total">  454.01  454.42</time>
   <energy>
    <i name="e_fr_energy">    -36.92254347 </i>
    <i name="e_wo_entrp">    -36.92245541 </i>
    <i name="e_0_energy">    -36.92249944 </i>
   </energy>
  </scstep>
  <scstep>
   <time name="diag">   79.79   79.80</time>
   <time name="diis">  331.66  331.75</time>
   <time name="orth">    3.19    3.19</time>
   <time name="total">  447.66  454.41</time>
   <energy>
    <i name="e_fr_energy">    -36.92262825 </i>
    <i name="e_wo_entrp">    -36.92254022 </i>
    <i name="e_0_energy">    -36.92258424 </i>
   </energy>
  </scstep>
  <scstep>
   <time name="diag">   79.47   79.81</time>
   <time name="diis">  338.94  339.96</time>
   <time name="orth">    3.10    3.10</time>
   <time name="total">  454.53  455.89</time>
   <energy>
    <i name="e_fr_energy">    -36.92263705 </i>
    <i name="e_wo_entrp">    -36.92254901 </i>
    <i name="e_0_energy">    -36.92259303 </i>
   </energy>
  </scstep>
  <scstep>
   <time name="diag">   79.77   79.82</time>
   <time name="diis">  341.09  341.16</time>
   <time name="orth">    3.11    3.11</time>
   <time name="total">  456.92  457.08</time>
   <energy>
    <i name="e_fr_energy">    -36.92264898 </i>
    <i name="e_wo_entrp">    -36.92256093 </i>
    <i name="e_0_energy">    -36.92260496 </i>
   </energy>
  </scstep>
  <scstep>
   <time name="diag">   79.78   79.80</time>
   <time name="diis">  346.73  346.83</time>
   <time name="orth">    3.11    3.11</time>
   <time name="total">  462.65  462.79</time>
   <energy>
    <i name="e_fr_energy">    -36.92265245 </i>
    <i name="e_wo_entrp">    -36.92256440 </i>
    <i name="e_0_energy">    -36.92260843 </i>
   </energy>
  </scstep>
  <scstep>
   <time name="diag">   79.60   79.78</time>
   <time name="diis">  330.00  330.25</time>
   <time name="orth">    3.11    3.11</time>
   <time name="total">  445.73  446.19</time>
   <energy>
    <i name="e_fr_energy">    -36.92265449 </i>
    <i name="e_wo_entrp">    -36.92256645 </i>
    <i name="e_0_energy">    -36.92261047 </i>
   </energy>
  </scstep>
  <scstep>
   <time name="diag">   79.85   79.91</time>
   <time name="diis">  329.93  330.25</time>
   <time name="orth">    3.10    3.11</time>
   <time name="total">  445.89  446.29</time>
   <energy>
    <i name="e_fr_energy">    -36.92265475 </i>
    <i name="e_wo_entrp">    -36.92256671 </i>
    <i name="e_0_energy">    -36.92261073 </i>
   </energy>
  </scstep>
  <scstep>
   <time name="diag">   79.92   79.97</time>
   <time name="diis">  264.30  264.47</time>
   <time name="orth">    3.08    3.09</time>
   <time name="total">  380.31  386.58</time>
   <energy>
    <i name="e_fr_energy">    -36.92265480 </i>
    <i name="e_wo_entrp">    -36.92256676 </i>
    <i name="e_0_energy">    -36.92261078 </i>
   </energy>
  </scstep>
  <scstep>
   <time name="diag">   79.89   79.94</time>
   <time name="diis">  232.75  232.92</time>
   <time name="orth">    3.09    3.09</time>
   <time name="total">  348.76  348.99</time>
   <energy>
    <i name="e_fr_energy">    -36.92265481 </i>
    <i name="e_wo_entrp">    -36.92256677 </i>
    <i name="e_0_energy">    -36.92261079 </i>
   </energy>
  </scstep>
  <scstep>
   <time name="diag">   79.83   79.92</time>
   <time name="diis">  227.03  227.74</time>
   <time name="orth">    3.15    3.16</time>
   <time name="total">  343.08  343.91</time>
   <energy>
    <i name="e_fr_energy">    -36.92265481 </i>
    <i name="e_wo_entrp">    -36.92256677 </i>
    <i name="e_0_energy">    -36.92261079 </i>
   </energy>
  </scstep>
  <scstep>
   <time name="diag">   79.91   79.93</time>
   <time name="diis">  220.08  220.17</time>
   <time name="orth">    3.09    3.09</time>
   <time name="total">  336.06  336.22</time>
   <energy>
    <i name="e_fr_energy">    -36.92265481 </i>
    <i name="e_wo_entrp">    -36.92256677 </i>
    <i name="e_0_energy">    -36.92261079 </i>
   </energy>
  </scstep>
  <scstep>
   <time name="diag">   79.74   79.77</time>
   <time name="diis">  202.72  202.76</time>
   <time name="orth">    3.11    3.11</time>
   <time name="total">  318.60  318.70</time>
   <energy>
    <i name="e_fr_energy">    -36.92265482 </i>
    <i name="e_wo_entrp">    -36.92256677 </i>
    <i name="e_0_energy">    -36.92261079 </i>
   </energy>
  </scstep>
  <scstep>
   <time name="diag">   79.74   79.77</time>
   <time name="diis">  194.85  194.94</time>
   <time name="orth">    3.11    3.11</time>
   <time name="total">  310.73  310.89</time>
   <energy>
    <i name="e_fr_energy">    -36.92265482 </i>
    <i name="e_wo_entrp">    -36.92256677 </i>
    <i name="e_0_energy">    -36.92261079 </i>
   </energy>
  </scstep>
  <scstep>
   <time name="diag">   79.75   79.77</time>
   <time name="diis">  187.52  187.55</time>
   <time name="orth">    3.10    3.10</time>
   <time name="total">  303.38  303.51</time>
   <energy>
    <i name="e_fr_energy">    -36.92265481 </i>
    <i name="e_wo_entrp">    -36.92256677 </i>
    <i name="e_0_energy">    -36.92261079 </i>
   </energy>
  </scstep>
  <scstep>
   <time name="diag">   79.52   79.79</time>
   <time name="diis">  181.76  182.69</time>
   <time name="orth">    3.08    3.09</time>
   <time name="total">  297.25  298.66</time>
   <energy>
    <i name="e_fr_energy">    -36.92265482 </i>
    <i name="e_wo_entrp">    -36.92256677 </i>
    <i name="e_0_energy">    -36.92261079 </i>
   </energy>
  </scstep>
  <scstep>
   <time name="diag">   79.75   79.77</time>
   <time name="diis">  179.13  179.16</time>
   <time name="orth">    3.10    3.10</time>
   <time name="total">  295.03  295.11</time>
   <energy>
    <i name="e_fr_energy">    -36.92265482 </i>
    <i name="e_wo_entrp">    -36.92256677 </i>
    <i name="e_0_energy">    -36.92261079 </i>
   </energy>
  </scstep>
  <scstep>
   <time name="diag">   79.10   79.69</time>
   <time name="diis">  175.01  175.87</time>
   <time name="orth">    3.09    3.10</time>
   <time name="total">  259.60  261.08</time>
   <energy>
    <i name="alphaZ">      6.18334092 </i>
    <i name="ewald">   2558.06117958 </i>
    <i name="hartreedc">  -3052.07801630 </i>
    <i name="XCdc">     57.44380520 </i>
    <i name="pawpsdc">    275.34841943 </i>
    <i name="pawaedc">   -280.48940109 </i>
    <i name="eentropy">     -0.00008804 </i>
    <i name="bandstr">   -190.01542141 </i>
    <i name="atom">    588.62352690 </i>
    <i name="e_fr_energy">    -36.92265482 </i>
    <i name="e_wo_entrp">    -36.92256677 </i>
    <i name="e_0_energy">    -36.92261079 </i>
   </energy>
  </scstep>
  <structure>
   <crystal>
    <varray name="basis" >
     <v>       4.29505069       0.00000000       0.00000000 </v>
     <v>       0.00000000       2.46491561       0.00000000 </v>
     <v>       0.00000000       0.00000000      19.91490945 </v>
    </varray>
    <i name="volume">    210.83790140 </i>
    <varray name="rec_basis" >
     <v>       0.23282612       0.00000000       0.00000000 </v>
     <v>       0.00000000       0.40569340       0.00000000 </v>
     <v>       0.00000000       0.00000000       0.05021364 </v>
    </varray>
   </crystal>
   <varray name="positions" >
    <v>       0.99987391       0.00000000       0.00000000 </v>
    <v>       0.16679275       0.50000000       0.00000000 </v>
    <v>       0.49987391       0.50000000       0.00000000 </v>
    <v>       0.66679275       0.00000000       0.00000000 </v>
   </varray>
  </structure>
  <varray name="forces" >
   <v>      -0.00001131       0.00000000      -0.00000000 </v>
   <v>       0.00001131      -0.00000000       0.00000000 </v>
   <v>      -0.00001131      -0.00000000      -0.00000000 </v>
   <v>       0.00001131       0.00000000       0.00000000 </v>
  </varray>
  <varray name="stress" >
   <v>      -8.50516051       0.00000000       0.00000000 </v>
   <v>       0.00000000      -0.00099354       0.00000000 </v>
   <v>       0.00000000       0.00000000      -0.01001035 </v>
  </varray>
  <energy>
   <i name="e_fr_energy">    -36.92265482 </i>
   <i name="e_wo_entrp">    -36.92261079 </i>
   <i name="e_0_energy">     -0.00008804 </i>
  </energy>
  <time name="totalsc">11689.9512322.98</time>
 </calculation>
 <calculation>
  <scstep>
   <time name="dav">  303.17  305.58</time>
   <time name="total">  335.63  338.32</time>
   <energy>
    <i name="alphaZ">      6.18334092 </i>
    <i name="ewald">   2558.06117714 </i>
    <i name="hartreedc">  -3052.07801544 </i>
    <i name="XCdc">     57.44380514 </i>
    <i name="pawpsdc">    275.34841967 </i>
    <i name="pawaedc">   -280.48940134 </i>
    <i name="eentropy">     -0.00008806 </i>
    <i name="bandstr">   -190.01541975 </i>
    <i name="atom">    588.62352690 </i>
    <i name="e_fr_energy">    -36.92265481 </i>
    <i name="e_wo_entrp">    -36.92256676 </i>
    <i name="e_0_energy">    -36.92261078 </i>
   </energy>
  </scstep>
  <scstep>
   <time name="diag">   79.52   79.74</time>
   <time name="diis">  216.70  217.28</time>
   <time name="orth">    3.09    3.10</time>
   <time name="total">  331.90  332.87</time>
   <energy>
    <i name="e_fr_energy">    -36.92265482 </i>
    <i name="e_wo_entrp">    -36.92256676 </i>
    <i name="e_0_energy">    -36.92261079 </i>
   </energy>
  </scstep>
  <scstep>
   <time name="diag">   78.91   79.65</time>
   <time name="diis">  213.62  215.34</time>
   <time name="orth">    3.11    3.11</time>
   <time name="total">  328.30  330.85</time>
   <energy>
    <i name="e_fr_energy">    -36.92265481 </i>
    <i name="e_wo_entrp">    -36.92256676 </i>
    <i name="e_0_energy">    -36.92261079 </i>
   </energy>
  </scstep>
  <scstep>
   <time name="diag">   79.52   79.66</time>
   <time name="diis">  198.53  198.81</time>
   <time name="orth">    3.09    3.10</time>
   <time name="total">  313.77  314.26</time>
   <energy>
    <i name="e_fr_energy">    -36.92265482 </i>
    <i name="e_wo_entrp">    -36.92256676 </i>
    <i name="e_0_energy">    -36.92261079 </i>
   </energy>
  </scstep>
  <scstep>
   <time name="diag">   79.19   79.64</time>
   <time name="diis">  188.97  190.71</time>
   <time name="orth">    3.08    3.09</time>
   <time name="total">  273.60  275.87</time>
   <energy>
    <i name="alphaZ">      6.18334092 </i>
    <i name="ewald">   2558.06117714 </i>
    <i name="hartreedc">  -3052.07801467 </i>
    <i name="XCdc">     57.44380512 </i>
    <i name="pawpsdc">    275.34842009 </i>
    <i name="pawaedc">   -280.48940183 </i>
    <i name="eentropy">     -0.00008806 </i>
    <i name="bandstr">   -190.01542042 </i>
    <i name="atom">    588.62352690 </i>
    <i name="e_fr_energy">    -36.92265482 </i>
    <i name="e_wo_entrp">    -36.92256676 </i>
    <i name="e_0_energy">    -36.92261079 </i>
   </energy>
  </scstep>
  <structure>
   <crystal>
    <varray name="basis" >
     <v>       4.29505069       0.00000000       0.00000000 </v>
     <v>       0.00000000       2.46491561       0.00000000 </v>
     <v>       0.00000000       0.00000000      19.91490945 </v>
    </varray>
    <i name="volume">    210.83790140 </i>
    <varray name="rec_basis" >
     <v>       0.23282612       0.00000000       0.00000000 </v>
     <v>       0.00000000       0.40569340       0.00000000 </v>
     <v>       0.00000000       0.00000000       0.05021364 </v>
    </varray>
   </crystal>
   <varray name="positions" >
    <v>       0.99987378       0.00000000      -0.00000000 </v>
    <v>       0.16679288       0.50000000       0.00000000 </v>
    <v>       0.49987378       0.50000000      -0.00000000 </v>
    <v>       0.66679288       0.00000000       0.00000000 </v>
   </varray>
  </structure>
  <varray name="forces" >
   <v>       0.00004306      -0.00000000      -0.00000000 </v>
   <v>      -0.00004306       0.00000000       0.00000000 </v>
   <v>       0.00004306      -0.00000000      -0.00000000 </v>
   <v>      -0.00004306       0.00000000       0.00000000 </v>
  </varray>
  <varray name="stress" >
   <v>      -8.50499863       0.00000000       0.00000000 </v>
   <v>       0.00000000      -0.00115238       0.00000000 </v>
   <v>       0.00000000       0.00000000      -0.01001959 </v>
  </varray>
  <energy>
   <i name="e_fr_energy">    -36.92265482 </i>
   <i name="e_wo_entrp">    -36.92261079 </i>
   <i name="e_0_energy">     -0.00008806 </i>
  </energy>
  <time name="totalsc"> 1684.49 1696.35</time>
 </calculation>
 <calculation>
  <scstep>
   <time name="dav">  310.73  310.87</time>
   <time name="total">  343.50  343.65</time>
   <energy>
    <i name="alphaZ">      6.18334092 </i>
    <i name="ewald">   2558.06117907 </i>
    <i name="hartreedc">  -3052.07801524 </i>
    <i name="XCdc">     57.44380517 </i>
    <i name="pawpsdc">    275.34841912 </i>
    <i name="pawaedc">   -280.48940085 </i>
    <i name="eentropy">     -0.00008804 </i>
    <i name="bandstr">   -190.01542186 </i>
    <i name="atom">    588.62352690 </i>
    <i name="e_fr_energy">    -36.92265481 </i>
    <i name="e_wo_entrp">    -36.92256677 </i>
    <i name="e_0_energy">    -36.92261079 </i>
   </energy>
  </scstep>
  <scstep>
   <time name="diag">   79.70   79.73</time>
   <time name="diis">  202.29  202.33</time>
   <time name="orth">    3.08    3.08</time>
   <time name="total">  317.93  318.01</time>
   <energy>
    <i name="e_fr_energy">    -36.92265481 </i>
    <i name="e_wo_entrp">    -36.92256677 </i>
    <i name="e_0_energy">    -36.92261079 </i>
   </energy>
  </scstep>
  <scstep>
   <time name="diag">   79.68   79.71</time>
   <time name="diis">  204.55  204.59</time>
   <time name="orth">    3.11    3.11</time>
   <time name="total">  320.07  320.23</time>
   <energy>
    <i name="e_fr_energy">    -36.92265482 </i>
    <i name="e_wo_entrp">    -36.92256677 </i>
    <i name="e_0_energy">    -36.92261079 </i>
   </energy>
  </scstep>
  <scstep>
   <time name="diag">   79.83   79.88</time>
   <time name="diis">  183.00  183.69</time>
   <time name="orth">    3.08    3.09</time>
   <time name="total">  298.48  299.72</time>
   <energy>
    <i name="e_fr_energy">    -36.92265482 </i>
    <i name="e_wo_entrp">    -36.92256677 </i>
    <i name="e_0_energy">    -36.92261079 </i>
   </energy>
  </scstep>
  <scstep>
   <time name="diag">   79.19   79.64</time>
   <time name="diis">  171.17  171.91</time>
   <time name="orth">    3.08    3.11</time>
   <time name="total">  286.05  287.44</time>
   <energy>
    <i name="e_fr_energy">    -36.92265482 </i>
    <i name="e_wo_entrp">    -36.92256677 </i>
    <i name="e_0_energy">    -36.92261079 </i>
   </energy>
  </scstep>
  <scstep>
   <time name="diag">   79.63   79.75</time>
   <time name="diis">  165.63  166.53</time>
   <time name="orth">    3.08    3.08</time>
   <time name="total">  280.76  282.14</time>
   <energy>
    <i name="e_fr_energy">    -36.92265481 </i>
    <i name="e_wo_entrp">    -36.92256677 </i>
    <i name="e_0_energy">    -36.92261079 </i>
   </energy>
  </scstep>
  <scstep>
   <time name="diag">   78.90   79.63</time>
   <time name="diis">  153.46  155.15</time>
   <time name="orth">    3.09    3.11</time>
   <time name="total">  237.84  240.32</time>
   <energy>
    <i name="alphaZ">      6.18334092 </i>
    <i name="ewald">   2558.06117907 </i>
    <i name="hartreedc">  -3052.07801553 </i>
    <i name="XCdc">     57.44380519 </i>
    <i name="pawpsdc">    275.34841709 </i>
    <i name="pawaedc">   -280.48939881 </i>
    <i name="eentropy">     -0.00008805 </i>
    <i name="bandstr">   -190.01542161 </i>
    <i name="atom">    588.62352690 </i>
    <i name="e_fr_energy">    -36.92265482 </i>
    <i name="e_wo_entrp">    -36.92256677 </i>
    <i name="e_0_energy">    -36.92261079 </i>
   </energy>
  </scstep>
  <structure>
   <crystal>
    <varray name="basis" >
     <v>       4.29505069       0.00000000       0.00000000 </v>
     <v>       0.00000000       2.46491561       0.00000000 </v>
     <v>       0.00000000       0.00000000      19.91490945 </v>
    </varray>
    <i name="volume">    210.83790140 </i>
    <varray name="rec_basis" >
     <v>       0.23282612       0.00000000       0.00000000 </v>
     <v>       0.00000000       0.40569340       0.00000000 </v>
     <v>       0.00000000       0.00000000       0.05021364 </v>
    </varray>
   </crystal>
   <varray name="positions" >
    <v>       0.99987389       0.00000000      -0.00000000 </v>
    <v>       0.16679278       0.50000000       0.00000000 </v>
    <v>       0.49987389       0.50000000      -0.00000000 </v>
    <v>       0.66679278       0.00000000       0.00000000 </v>
   </varray>
  </structure>
  <varray name="forces" >
   <v>       0.00000157      -0.00000000       0.00000000 </v>
   <v>      -0.00000157       0.00000000       0.00000000 </v>
   <v>       0.00000157       0.00000000       0.00000000 </v>
   <v>      -0.00000157      -0.00000000       0.00000000 </v>
  </varray>
  <varray name="stress" >
   <v>      -8.50511895       0.00000000       0.00000000 </v>
   <v>       0.00000000      -0.00102159       0.00000000 </v>
   <v>       0.00000000       0.00000000      -0.01001698 </v>
  </varray>
  <energy>
   <i name="e_fr_energy">    -36.92265482 </i>
   <i name="e_wo_entrp">    -36.92261079 </i>
   <i name="e_0_energy">     -0.00008805 </i>
  </energy>
  <time name="totalsc"> 2185.65 2202.55</time>
 </calculation>
 <calculation>
  <scstep>
   <time name="dav">  244.36  245.17</time>
   <time name="total">  277.13  278.04</time>
   <energy>
    <i name="alphaZ">      6.18334092 </i>
    <i name="ewald">   2558.06117914 </i>
    <i name="hartreedc">  -3052.07801556 </i>
    <i name="XCdc">     57.44380520 </i>
    <i name="pawpsdc">    275.34841720 </i>
    <i name="pawaedc">   -280.48939891 </i>
    <i name="eentropy">     -0.00008804 </i>
    <i name="bandstr">   -190.01542165 </i>
    <i name="atom">    588.62352690 </i>
    <i name="e_fr_energy">    -36.92265481 </i>
    <i name="e_wo_entrp">    -36.92256677 </i>
    <i name="e_0_energy">    -36.92261079 </i>
   </energy>
  </scstep>
  <scstep>
   <time name="diag">   79.52   79.66</time>
   <time name="diis">  123.53  123.79</time>
   <time name="orth">    3.10    3.11</time>
   <time name="total">  238.76  239.43</time>
   <energy>
    <i name="e_fr_energy">    -36.92265482 </i>
    <i name="e_wo_entrp">    -36.92256677 </i>
    <i name="e_0_energy">    -36.92261079 </i>
   </energy>
  </scstep>
  <scstep>
   <time name="diag">   79.16   79.75</time>
   <time name="diis">  133.15  133.52</time>
   <time name="orth">    3.12    3.13</time>
   <time name="total">  248.21  249.24</time>
   <energy>
    <i name="e_fr_energy">    -36.92265482 </i>
    <i name="e_wo_entrp">    -36.92256677 </i>
    <i name="e_0_energy">    -36.92261079 </i>
   </energy>
  </scstep>
  <scstep>
   <time name="diag">   79.09   79.62</time>
   <time name="diis">  133.02  133.74</time>
   <time name="orth">    3.09    3.10</time>
   <time name="total">  247.71  249.24</time>
   <energy>
    <i name="e_fr_energy">    -36.92265482 </i>
    <i name="e_wo_entrp">    -36.92256677 </i>
    <i name="e_0_energy">    -36.92261079 </i>
   </energy>
  </scstep>
  <scstep>
   <time name="diag">   79.28   79.63</time>
   <time name="diis">  115.64  115.78</time>
   <time name="orth">    3.12    3.12</time>
   <time name="total">  230.85  231.40</time>
   <energy>
    <i name="e_fr_energy">    -36.92265481 </i>
    <i name="e_wo_entrp">    -36.92256677 </i>
    <i name="e_0_energy">    -36.92261079 </i>
   </energy>
  </scstep>
  <scstep>
   <time name="diag">   79.57   79.70</time>
   <time name="diis">  116.63  116.67</time>
   <time name="orth">    3.08    3.08</time>
   <time name="total">  232.03  232.31</time>
   <energy>
    <i name="e_fr_energy">    -36.92265482 </i>
    <i name="e_wo_entrp">    -36.92256677 </i>
    <i name="e_0_energy">    -36.92261079 </i>
   </energy>
  </scstep>
  <scstep>
   <time name="diag">   79.74   79.77</time>
   <time name="diis">  127.34  127.37</time>
   <time name="orth">    3.10    3.10</time>
   <time name="total">  241.98  242.06</time>
   <energy>
    <i name="e_fr_energy">    -36.92265482 </i>
    <i name="e_wo_entrp">    -36.92256677 </i>
    <i name="e_0_energy">    -36.92261079 </i>
   </energy>
  </scstep>
  <scstep>
   <time name="diag">   79.78   79.81</time>
   <time name="diis">  113.03  113.06</time>
   <time name="orth">    3.08    3.08</time>
   <time name="total">  198.29  198.37</time>
   <energy>
    <i name="alphaZ">      6.18334092 </i>
    <i name="ewald">   2558.06117914 </i>
    <i name="hartreedc">  -3052.07801563 </i>
    <i name="XCdc">     57.44380520 </i>
    <i name="pawpsdc">    275.34841920 </i>
    <i name="pawaedc">   -280.48940094 </i>
    <i name="eentropy">     -0.00008804 </i>
    <i name="bandstr">   -190.01542157 </i>
    <i name="atom">    588.62352690 </i>
    <i name="e_fr_energy">    -36.92265482 </i>
    <i name="e_wo_entrp">    -36.92256677 </i>
    <i name="e_0_energy">    -36.92261079 </i>
   </energy>
  </scstep>
  <structure>
   <crystal>
    <varray name="basis" >
     <v>       4.29505069       0.00000000       0.00000000 </v>
     <v>       0.00000000       2.46491561       0.00000000 </v>
     <v>       0.00000000       0.00000000      19.91490945 </v>
    </varray>
    <i name="volume">    210.83790140 </i>
    <varray name="rec_basis" >
     <v>       0.23282612       0.00000000       0.00000000 </v>
     <v>       0.00000000       0.40569340       0.00000000 </v>
     <v>       0.00000000       0.00000000       0.05021364 </v>
    </varray>
   </crystal>
   <varray name="positions" >
    <v>       0.99987389       0.00000000      -0.00000000 </v>
    <v>       0.16679278       0.50000000       0.00000000 </v>
    <v>       0.49987389       0.50000000      -0.00000000 </v>
    <v>       0.66679278       0.00000000       0.00000000 </v>
   </varray>
  </structure>
  <varray name="forces" >
   <v>      -0.00000260      -0.00000000       0.00000000 </v>
   <v>       0.00000260       0.00000000      -0.00000000 </v>
   <v>      -0.00000260      -0.00000000       0.00000000 </v>
   <v>       0.00000260       0.00000000      -0.00000000 </v>
  </varray>
  <varray name="stress" >
   <v>      -8.50513473       0.00000000       0.00000000 </v>
   <v>       0.00000000      -0.00100187       0.00000000 </v>
   <v>       0.00000000       0.00000000      -0.01001793 </v>
  </varray>
  <energy>
   <i name="e_fr_energy">    -36.92265482 </i>
   <i name="e_wo_entrp">    -36.92261079 </i>
   <i name="e_0_energy">     -0.00008804 </i>
  </energy>
  <time name="totalsc"> 2015.39 2027.38</time>
 </calculation>
 <calculation>
  <scstep>
   <time name="dav">  228.73  229.33</time>
   <time name="total">  261.21  261.84</time>
   <energy>
    <i name="alphaZ">      6.18334092 </i>
    <i name="ewald">   2558.06117910 </i>
    <i name="hartreedc">  -3052.07801561 </i>
    <i name="XCdc">     57.44380520 </i>
    <i name="pawpsdc">    275.34841920 </i>
    <i name="pawaedc">   -280.48940094 </i>
    <i name="eentropy">     -0.00008805 </i>
    <i name="bandstr">   -190.01542154 </i>
    <i name="atom">    588.62352690 </i>
    <i name="e_fr_energy">    -36.92265481 </i>
    <i name="e_wo_entrp">    -36.92256677 </i>
    <i name="e_0_energy">    -36.92261079 </i>
   </energy>
  </scstep>
  <scstep>
   <time name="diag">   79.76   79.81</time>
   <time name="diis">  114.11  114.31</time>
   <time name="orth">    3.08    3.10</time>
   <time name="total">  229.00  229.41</time>
   <energy>
    <i name="e_fr_energy">    -36.92265481 </i>
    <i name="e_wo_entrp">    -36.92256677 </i>
    <i name="e_0_energy">    -36.92261079 </i>
   </energy>
  </scstep>
  <scstep>
   <time name="diag">   79.72   79.83</time>
   <time name="diis">  108.72  108.74</time>
   <time name="orth">    3.08    3.08</time>
   <time name="total">  223.36  223.51</time>
   <energy>
    <i name="e_fr_energy">    -36.92265482 </i>
    <i name="e_wo_entrp">    -36.92256677 </i>
    <i name="e_0_energy">    -36.92261079 </i>
   </energy>
  </scstep>
  <scstep>
   <time name="diag">   79.82   79.84</time>
   <time name="diis">  109.11  109.13</time>
   <time name="orth">    3.08    3.08</time>
   <time name="total">  223.62  223.68</time>
   <energy>
    <i name="e_fr_energy">    -36.92265482 </i>
    <i name="e_wo_entrp">    -36.92256677 </i>
    <i name="e_0_energy">    -36.92261079 </i>
   </energy>
  </scstep>
  <scstep>
   <time name="diag">   79.64   79.86</time>
   <time name="diis">  103.23  103.78</time>
   <time name="orth">    3.08    3.10</time>
   <time name="total">  188.34  189.16</time>
   <energy>
    <i name="alphaZ">      6.18334092 </i>
    <i name="ewald">   2558.06117910 </i>
    <i name="hartreedc">  -3052.07801552 </i>
    <i name="XCdc">     57.44380519 </i>
    <i name="pawpsdc">    275.34841942 </i>
    <i name="pawaedc">   -280.48940115 </i>
    <i name="eentropy">     -0.00008805 </i>
    <i name="bandstr">   -190.01542163 </i>
    <i name="atom">    588.62352690 </i>
    <i name="e_fr_energy">    -36.92265482 </i>
    <i name="e_wo_entrp">    -36.92256677 </i>
    <i name="e_0_energy">    -36.92261079 </i>
   </energy>
  </scstep>
  <structure>
   <crystal>
    <varray name="basis" >
     <v>       4.29505069       0.00000000       0.00000000 </v>
     <v>       0.00000000       2.46491561       0.00000000 </v>
     <v>       0.00000000       0.00000000      19.91490945 </v>
    </varray>
    <i name="volume">    210.83790140 </i>
    <varray name="rec_basis" >
     <v>       0.23282612       0.00000000       0.00000000 </v>
     <v>       0.00000000       0.40569340       0.00000000 </v>
     <v>       0.00000000       0.00000000       0.05021364 </v>
    </varray>
   </crystal>
   <varray name="positions" >
    <v>       0.99987389       0.00000000      -0.00000000 </v>
    <v>       0.16679278       0.50000000       0.00000000 </v>
    <v>       0.49987389       0.50000000      -0.00000000 </v>
    <v>       0.66679278       0.00000000       0.00000000 </v>
   </varray>
  </structure>
  <varray name="forces" >
   <v>       0.00000018       0.00000000      -0.00000000 </v>
   <v>      -0.00000018      -0.00000000       0.00000000 </v>
   <v>       0.00000018      -0.00000000      -0.00000000 </v>
   <v>      -0.00000018      -0.00000000       0.00000000 </v>
  </varray>
  <varray name="stress" >
   <v>      -8.50512048       0.00000000       0.00000000 </v>
   <v>       0.00000000      -0.00101890       0.00000000 </v>
   <v>       0.00000000       0.00000000      -0.01001919 </v>
  </varray>
  <energy>
   <i name="e_fr_energy">    -36.92265482 </i>
   <i name="e_wo_entrp">    -36.92261079 </i>
   <i name="e_0_energy">     -0.00008805 </i>
  </energy>
  <time name="totalsc"> 1219.15 1230.51</time>
  <eigenvalues>
   <array>
    <dimension dim="1">band</dimension>
    <dimension dim="2">kpoint</dimension>
    <dimension dim="3">spin</dimension>
    <field>eigene</field>
    <field>occ</field>
    <set>
     <set comment="spin 1">
      <set comment="kpoint 1">
       <r>  -22.2185    1.0000 </r>
       <r>  -17.0715    1.0000 </r>
       <r>  -15.9458    1.0000 </r>
       <r>  -10.3318    1.0000 </r>
       <r>   -9.0840    1.0000 </r>
       <r>   -5.8327    1.0000 </r>
       <r>   -5.7735    1.0000 </r>
       <r>   -5.1582    1.0000 </r>
       <r>   -1.0990    0.0000 </r>
       <r>    0.5280    0.0000 </r>
       <r>    1.3286    0.0000 </r>
       <r>    1.7136    0.0000 </r>
      </set>
      <set comment="kpoint 2">
       <r>  -22.2083    1.0000 </r>
       <r>  -17.2250    1.0000 </r>
       <r>  -15.7771    1.0000 </r>
       <r>  -10.3197    1.0000 </r>
       <r>   -9.0740    1.0000 </r>
       <r>   -5.8757    1.0000 </r>
       <r>   -5.7955    1.0000 </r>
       <r>   -5.2230    1.0000 </r>
       <r>   -1.0182    0.0000 </r>
       <r>    0.5418    0.0000 </r>
       <r>    1.3425    0.0000 </r>
       <r>    1.7277    0.0000 </r>
      </set>
      <set comment="kpoint 3">
       <r>  -22.1779    1.0000 </r>
       <r>  -17.5483    1.0000 </r>
       <r>  -15.4083    1.0000 </r>
       <r>  -10.2834    1.0000 </r>
       <r>   -9.0439    1.0000 </r>
       <r>   -6.0032    1.0000 </r>
       <r>   -5.8604    1.0000 </r>
       <r>   -5.4033    1.0000 </r>
       <r>   -0.7903    0.0000 </r>
       <r>    0.5831    0.0000 </r>
       <r>    1.3843    0.0000 </r>
       <r>    1.7700    0.0000 </r>
      </set>
      <set comment="kpoint 4">
       <r>  -22.1272    1.0000 </r>
       <r>  -17.9154    1.0000 </r>
       <r>  -14.9656    1.0000 </r>
       <r>  -10.2229    1.0000 </r>
       <r>   -8.9940    1.0000 </r>
       <r>   -6.2098    1.0000 </r>
       <r>   -5.9648    1.0000 </r>
       <r>   -5.6669    1.0000 </r>
       <r>   -0.4478    0.0000 </r>
       <r>    0.6519    0.0000 </r>
       <r>    1.4540    0.0000 </r>
       <r>    1.8406    0.0000 </r>
      </set>
      <set comment="kpoint 5">
       <r>  -22.0562    1.0000 </r>
       <r>  -18.2876    1.0000 </r>
       <r>  -14.4881    1.0000 </r>
       <r>  -10.1385    1.0000 </r>
       <r>   -8.9245    1.0000 </r>
       <r>   -6.4878    1.0000 </r>
       <r>   -6.1036    1.0000 </r>
       <r>   -5.9819    1.0000 </r>
       <r>   -0.0235    0.0000 </r>
       <r>    0.7482    0.0000 </r>
       <r>    1.5515    0.0000 </r>
       <r>    1.9393    0.0000 </r>
      </set>
      <set comment="kpoint 6">
       <r>  -21.9651    1.0000 </r>
       <r>  -18.6526    1.0000 </r>
       <r>  -13.9888    1.0000 </r>
       <r>  -10.0301    1.0000 </r>
       <r>   -8.8358    1.0000 </r>
       <r>   -6.8282    1.0000 </r>
       <r>   -6.3242    1.0000 </r>
       <r>   -6.2707    1.0000 </r>
       <r>    0.4571    0.0000 </r>
       <r>    0.8720    0.0000 </r>
       <r>    1.6768    0.0000 </r>
       <r>    2.0663    0.0000 </r>
      </set>
      <set comment="kpoint 7">
       <r>  -21.8539    1.0000 </r>
       <r>  -19.0051    1.0000 </r>
       <r>  -13.4738    1.0000 </r>
       <r>   -9.8980    1.0000 </r>
       <r>   -8.7283    1.0000 </r>
       <r>   -7.2213    1.0000 </r>
       <r>   -6.6775    1.0000 </r>
       <r>   -6.4596    1.0000 </r>
       <r>    0.9763    0.0000 </r>
       <r>    1.0234    0.0000 </r>
       <r>    1.8299    0.0000 </r>
       <r>    2.2215    0.0000 </r>
      </set>
      <set comment="kpoint 8">
       <r>  -21.7226    1.0000 </r>
       <r>  -19.3426    1.0000 </r>
       <r>  -12.9466    1.0000 </r>
       <r>   -9.7425    1.0000 </r>
       <r>   -8.6028    1.0000 </r>
       <r>   -7.6577    1.0000 </r>
       <r>   -7.0313    1.0000 </r>
       <r>   -6.6641    1.0000 </r>
       <r>    1.2023    0.0000 </r>
       <r>    1.5212    0.0000 </r>
       <r>    2.0106    0.0000 </r>
       <r>    2.4050    0.0000 </r>
      </set>
      <set comment="kpoint 9">
       <r>  -21.5713    1.0000 </r>
       <r>  -19.6638    1.0000 </r>
       <r>  -12.4100    1.0000 </r>
       <r>   -9.5638    1.0000 </r>
       <r>   -8.4601    1.0000 </r>
       <r>   -8.1289    1.0000 </r>
       <r>   -7.3786    1.0000 </r>
       <r>   -6.8783    1.0000 </r>
       <r>    1.4086    0.0000 </r>
       <r>    2.0821    0.0000 </r>
       <r>    2.2189    0.0000 </r>
       <r>    2.6166    0.0000 </r>
      </set>
      <set comment="kpoint 10">
       <r>  -21.4003    1.0000 </r>
       <r>  -19.9676    1.0000 </r>
       <r>  -11.8664    1.0000 </r>
       <r>   -9.3624    1.0000 </r>
       <r>   -8.6271    1.0000 </r>
       <r>   -8.3011    1.0000 </r>
       <r>   -7.7147    1.0000 </r>
       <r>   -7.0972    1.0000 </r>
       <r>    1.6424    0.0000 </r>
       <r>    2.4545    0.0000 </r>
       <r>    2.6495    0.0000 </r>
       <r>    2.8565    0.0000 </r>
      </set>
      <set comment="kpoint 11">
       <r>  -21.2095    1.0000 </r>
       <r>  -20.2535    1.0000 </r>
       <r>  -11.3184    1.0000 </r>
       <r>   -9.1455    1.0000 </r>
       <r>   -9.1386    1.0000 </r>
       <r>   -8.1271    1.0000 </r>
       <r>   -8.0362    1.0000 </r>
       <r>   -7.3163    1.0000 </r>
       <r>    1.9035    0.0000 </r>
       <r>    2.7169    0.0000 </r>
       <r>    3.1246    0.0000 </r>
       <r>    3.2074    0.0000 </r>
      </set>
      <set comment="kpoint 12">
       <r>  -20.9993    1.0000 </r>
       <r>  -20.5210    1.0000 </r>
       <r>  -10.7689    1.0000 </r>
       <r>   -9.6785    1.0000 </r>
       <r>   -8.8933    1.0000 </r>
       <r>   -8.3409    1.0000 </r>
       <r>   -7.9396    1.0000 </r>
       <r>   -7.5317    1.0000 </r>
       <r>    2.1918    0.0000 </r>
       <r>    2.8497    0.0000 </r>
       <r>    3.0047    0.0000 </r>
       <r>    3.4208    0.0000 </r>
      </set>
      <set comment="kpoint 13">
       <r>  -20.7697    1.0000 </r>
       <r>  -20.7697    1.0000 </r>
       <r>  -10.2211    1.0000 </r>
       <r>  -10.2211    1.0000 </r>
       <r>   -8.6270    1.0000 </r>
       <r>   -8.6270    1.0000 </r>
       <r>   -7.7404    1.0000 </r>
       <r>   -7.7404    1.0000 </r>
       <r>    2.5073    0.0000 </r>
       <r>    2.5073    0.0000 </r>
       <r>    3.3125    0.0000 </r>
       <r>    3.3125    0.0000 </r>
      </set>
      <set comment="kpoint 14">
       <r>  -22.2048    1.0000 </r>
       <r>  -17.0597    1.0000 </r>
       <r>  -15.9342    1.0000 </r>
       <r>  -10.3154    1.0000 </r>
       <r>   -9.1459    1.0000 </r>
       <r>   -5.8620    1.0000 </r>
       <r>   -5.8308    1.0000 </r>
       <r>   -5.1416    1.0000 </r>
       <r>   -1.1026    0.0000 </r>
       <r>    0.5466    0.0000 </r>
       <r>    1.3474    0.0000 </r>
       <r>    1.7326    0.0000 </r>
      </set>
      <set comment="kpoint 15">
       <r>  -22.1946    1.0000 </r>
       <r>  -17.2131    1.0000 </r>
       <r>  -15.7657    1.0000 </r>
       <r>  -10.3033    1.0000 </r>
       <r>   -9.1359    1.0000 </r>
       <r>   -5.9127    1.0000 </r>
       <r>   -5.8446    1.0000 </r>
       <r>   -5.2065    1.0000 </r>
       <r>   -1.0218    0.0000 </r>
       <r>    0.5604    0.0000 </r>
       <r>    1.3613    0.0000 </r>
       <r>    1.7467    0.0000 </r>
      </set>
      <set comment="kpoint 16">
       <r>  -22.1642    1.0000 </r>
       <r>  -17.5361    1.0000 </r>
       <r>  -15.3973    1.0000 </r>
       <r>  -10.2670    1.0000 </r>
       <r>   -9.1058    1.0000 </r>
       <r>   -6.0445    1.0000 </r>
       <r>   -5.9032    1.0000 </r>
       <r>   -5.3871    1.0000 </r>
       <r>   -0.7939    0.0000 </r>
       <r>    0.6016    0.0000 </r>
       <r>    1.4031    0.0000 </r>
       <r>    1.7890    0.0000 </r>
      </set>
      <set comment="kpoint 17">
       <r>  -22.1135    1.0000 </r>
       <r>  -17.9029    1.0000 </r>
       <r>  -14.9551    1.0000 </r>
       <r>  -10.2066    1.0000 </r>
       <r>   -9.0558    1.0000 </r>
       <r>   -6.2500    1.0000 </r>
       <r>   -6.0059    1.0000 </r>
       <r>   -5.6511    1.0000 </r>
       <r>   -0.4516    0.0000 </r>
       <r>    0.6704    0.0000 </r>
       <r>    1.4728    0.0000 </r>
       <r>    1.8596    0.0000 </r>
      </set>
      <set comment="kpoint 18">
       <r>  -22.0426    1.0000 </r>
       <r>  -18.2750    1.0000 </r>
       <r>  -14.4781    1.0000 </r>
       <r>  -10.1222    1.0000 </r>
       <r>   -8.9862    1.0000 </r>
       <r>   -6.5240    1.0000 </r>
       <r>   -6.1455    1.0000 </r>
       <r>   -5.9663    1.0000 </r>
       <r>   -0.0280    0.0000 </r>
       <r>    0.7668    0.0000 </r>
       <r>    1.5703    0.0000 </r>
       <r>    1.9584    0.0000 </r>
      </set>
      <set comment="kpoint 19">
       <r>  -21.9515    1.0000 </r>
       <r>  -18.6398    1.0000 </r>
       <r>  -13.9795    1.0000 </r>
       <r>  -10.0139    1.0000 </r>
       <r>   -8.8973    1.0000 </r>
       <r>   -6.8590    1.0000 </r>
       <r>   -6.3145    1.0000 </r>
       <r>   -6.3088    1.0000 </r>
       <r>    0.4518    0.0000 </r>
       <r>    0.8906    0.0000 </r>
       <r>    1.6956    0.0000 </r>
       <r>    2.0854    0.0000 </r>
      </set>
      <set comment="kpoint 20">
       <r>  -21.8402    1.0000 </r>
       <r>  -18.9922    1.0000 </r>
       <r>  -13.4653    1.0000 </r>
       <r>   -9.8818    1.0000 </r>
       <r>   -8.7896    1.0000 </r>
       <r>   -7.2464    1.0000 </r>
       <r>   -6.6621    1.0000 </r>
       <r>   -6.5058    1.0000 </r>
       <r>    0.9697    0.0000 </r>
       <r>    1.0420    0.0000 </r>
       <r>    1.8487    0.0000 </r>
       <r>    2.2406    0.0000 </r>
      </set>
      <set comment="kpoint 21">
       <r>  -21.7090    1.0000 </r>
       <r>  -19.3296    1.0000 </r>
       <r>  -12.9390    1.0000 </r>
       <r>   -9.7263    1.0000 </r>
       <r>   -8.6638    1.0000 </r>
       <r>   -7.6774    1.0000 </r>
       <r>   -7.0159    1.0000 </r>
       <r>   -6.7127    1.0000 </r>
       <r>    1.2209    0.0000 </r>
       <r>    1.5132    0.0000 </r>
       <r>    2.0294    0.0000 </r>
       <r>    2.4240    0.0000 </r>
      </set>
      <set comment="kpoint 22">
       <r>  -21.5578    1.0000 </r>
       <r>  -19.6506    1.0000 </r>
       <r>  -12.4035    1.0000 </r>
       <r>   -9.5477    1.0000 </r>
       <r>   -8.5206    1.0000 </r>
       <r>   -8.1435    1.0000 </r>
       <r>   -7.3632    1.0000 </r>
       <r>   -6.9293    1.0000 </r>
       <r>    1.4272    0.0000 </r>
       <r>    2.0724    0.0000 </r>
       <r>    2.2377    0.0000 </r>
       <r>    2.6357    0.0000 </r>
      </set>
      <set comment="kpoint 23">
       <r>  -21.3867    1.0000 </r>
[...]
       <r>   -9.2386    1.0000 </r>
       <r>   -5.5786    1.0000 </r>
       <r>   -5.5786    1.0000 </r>
       <r>   -0.4353    0.0000 </r>
       <r>   -0.4353    0.0000 </r>
       <r>    4.6934    0.0000 </r>
       <r>    4.6934    0.0000 </r>
      </set>
      <set comment="kpoint 209">
       <r>  -18.7948    1.0000 </r>
       <r>  -16.9983    1.0000 </r>
       <r>  -14.0848    1.0000 </r>
       <r>  -12.4486    1.0000 </r>
       <r>  -12.3956    1.0000 </r>
       <r>  -10.8667    1.0000 </r>
       <r>   -6.3898    1.0000 </r>
       <r>   -4.5013    1.0000 </r>
       <r>   -1.0299    0.0000 </r>
       <r>    1.1366    0.0000 </r>
       <r>    5.2630    0.0000 </r>
       <r>    6.0477    0.0000 </r>
      </set>
      <set comment="kpoint 210">
       <r>  -18.7852    1.0000 </r>
       <r>  -16.9907    1.0000 </r>
       <r>  -14.1667    1.0000 </r>
       <r>  -12.5243    1.0000 </r>
       <r>  -12.3060    1.0000 </r>
       <r>  -10.7934    1.0000 </r>
       <r>   -6.3810    1.0000 </r>
       <r>   -4.5045    1.0000 </r>
       <r>   -1.0389    0.0000 </r>
       <r>    1.1116    0.0000 </r>
       <r>    5.2765    0.0000 </r>
       <r>    6.0636    0.0000 </r>
      </set>
      <set comment="kpoint 211">
       <r>  -18.7564    1.0000 </r>
       <r>  -16.9680    1.0000 </r>
       <r>  -14.3723    1.0000 </r>
       <r>  -12.7179    1.0000 </r>
       <r>  -12.0773    1.0000 </r>
       <r>  -10.6075    1.0000 </r>
       <r>   -6.3550    1.0000 </r>
       <r>   -4.5144    1.0000 </r>
       <r>   -1.0639    0.0000 </r>
       <r>    1.0386    0.0000 </r>
       <r>    5.3167    0.0000 </r>
       <r>    6.1108    0.0000 </r>
      </set>
      <set comment="kpoint 212">
       <r>  -18.7085    1.0000 </r>
       <r>  -16.9317    1.0000 </r>
       <r>  -14.6380    1.0000 </r>
       <r>  -12.9748    1.0000 </r>
       <r>  -11.7733    1.0000 </r>
       <r>  -10.3656    1.0000 </r>
       <r>   -6.3119    1.0000 </r>
       <r>   -4.5327    1.0000 </r>
       <r>   -1.1002    0.0000 </r>
       <r>    0.9225    0.0000 </r>
       <r>    5.3834    0.0000 </r>
       <r>    6.1883    0.0000 </r>
      </set>
      <set comment="kpoint 213">
       <r>  -18.6416    1.0000 </r>
       <r>  -16.8843    1.0000 </r>
       <r>  -14.9225    1.0000 </r>
       <r>  -13.2598    1.0000 </r>
       <r>  -11.4347    1.0000 </r>
       <r>  -10.1062    1.0000 </r>
       <r>   -6.2522    1.0000 </r>
       <r>   -4.5614    1.0000 </r>
       <r>   -1.1404    0.0000 </r>
       <r>    0.7708    0.0000 </r>
       <r>    5.4750    0.0000 </r>
       <r>    6.2949    0.0000 </r>
      </set>
      <set comment="kpoint 214">
       <r>  -18.5559    1.0000 </r>
       <r>  -16.8312    1.0000 </r>
       <r>  -15.2017    1.0000 </r>
       <r>  -13.5546    1.0000 </r>
       <r>  -11.0837    1.0000 </r>
       <r>   -9.8524    1.0000 </r>
       <r>   -6.1767    1.0000 </r>
       <r>   -4.6032    1.0000 </r>
       <r>   -1.1758    0.0000 </r>
       <r>    0.5919    0.0000 </r>
       <r>    5.5825    0.0000 </r>
       <r>    6.0138    0.0000 </r>
      </set>
      <set comment="kpoint 215">
       <r>  -18.4517    1.0000 </r>
       <r>  -16.7830    1.0000 </r>
       <r>  -15.4552    1.0000 </r>
       <r>  -13.8492    1.0000 </r>
       <r>  -10.7343    1.0000 </r>
       <r>   -9.6195    1.0000 </r>
       <r>   -6.0864    1.0000 </r>
       <r>   -4.6605    1.0000 </r>
       <r>   -1.1979    0.0000 </r>
       <r>    0.3945    0.0000 </r>
       <r>    5.5059    0.0000 </r>
       <r>    5.7988    0.0000 </r>
      </set>
      <set comment="kpoint 216">
       <r>  -18.3294    1.0000 </r>
       <r>  -16.7613    1.0000 </r>
       <r>  -15.6563    1.0000 </r>
       <r>  -14.1377    1.0000 </r>
       <r>  -10.3971    1.0000 </r>
       <r>   -9.4198    1.0000 </r>
       <r>   -5.9824    1.0000 </r>
       <r>   -4.7349    1.0000 </r>
       <r>   -1.1991    0.0000 </r>
       <r>    0.1866    0.0000 </r>
       <r>    5.1578    0.0000 </r>
       <r>    5.9477    0.0000 </r>
      </set>
      <set comment="kpoint 217">
       <r>  -18.1896    1.0000 </r>
       <r>  -16.7980    1.0000 </r>
       <r>  -15.7698    1.0000 </r>
       <r>  -14.4161    1.0000 </r>
       <r>  -10.0815    1.0000 </r>
       <r>   -9.2637    1.0000 </r>
       <r>   -5.8663    1.0000 </r>
       <r>   -4.8268    1.0000 </r>
       <r>   -1.1738    0.0000 </r>
       <r>   -0.0245    0.0000 </r>
       <r>    4.8631    0.0000 </r>
       <r>    5.6873    0.0000 </r>
      </set>
      <set comment="kpoint 218">
       <r>  -18.0332    1.0000 </r>
       <r>  -16.9115    1.0000 </r>
       <r>  -15.7755    1.0000 </r>
       <r>  -14.6814    1.0000 </r>
       <r>   -9.7966    1.0000 </r>
       <r>   -9.1597    1.0000 </r>
       <r>   -5.7401    1.0000 </r>
       <r>   -4.9350    1.0000 </r>
       <r>   -1.1190    0.0000 </r>
       <r>   -0.2320    0.0000 </r>
       <r>    4.6497    0.0000 </r>
       <r>    5.2932    0.0000 </r>
      </set>
      <set comment="kpoint 219">
       <r>  -17.8612    1.0000 </r>
       <r>  -17.0819    1.0000 </r>
       <r>  -15.6922    1.0000 </r>
       <r>  -14.9308    1.0000 </r>
       <r>   -9.5515    1.0000 </r>
       <r>   -9.1146    1.0000 </r>
       <r>   -5.6062    1.0000 </r>
       <r>   -5.0568    1.0000 </r>
       <r>   -1.0339    0.0000 </r>
       <r>   -0.4302    0.0000 </r>
       <r>    4.5264    0.0000 </r>
       <r>    4.9685    0.0000 </r>
      </set>
      <set comment="kpoint 220">
       <r>  -17.6755    1.0000 </r>
       <r>  -17.2779    1.0000 </r>
       <r>  -15.5504    1.0000 </r>
       <r>  -15.1616    1.0000 </r>
       <r>   -9.3545    1.0000 </r>
       <r>   -9.1322    1.0000 </r>
       <r>   -5.4675    1.0000 </r>
       <r>   -5.1889    1.0000 </r>
       <r>   -0.9194    0.0000 </r>
       <r>   -0.6138    0.0000 </r>
       <r>    4.4975    0.0000 </r>
       <r>    4.7228    0.0000 </r>
      </set>
      <set comment="kpoint 221">
       <r>  -17.4792    1.0000 </r>
       <r>  -17.4792    1.0000 </r>
       <r>  -15.3701    1.0000 </r>
       <r>  -15.3701    1.0000 </r>
       <r>   -9.2130    1.0000 </r>
       <r>   -9.2130    1.0000 </r>
       <r>   -5.3271    1.0000 </r>
       <r>   -5.3271    1.0000 </r>
       <r>   -0.7783    0.0000 </r>
       <r>   -0.7783    0.0000 </r>
       <r>    4.5639    0.0000 </r>
       <r>    4.5639    0.0000 </r>
      </set>
      <set comment="kpoint 222">
       <r>  -18.3708    1.0000 </r>
       <r>  -17.4689    1.0000 </r>
       <r>  -13.7061    1.0000 </r>
       <r>  -12.8872    1.0000 </r>
       <r>  -12.0457    1.0000 </r>
       <r>  -11.2765    1.0000 </r>
       <r>   -5.9296    1.0000 </r>
       <r>   -4.9799    1.0000 </r>
       <r>   -0.5215    0.0000 </r>
       <r>    0.5639    0.0000 </r>
       <r>    5.8646    0.0000 </r>
       <r>    6.6107    0.0000 </r>
      </set>
      <set comment="kpoint 223">
       <r>  -18.3614    1.0000 </r>
       <r>  -17.4602    1.0000 </r>
       <r>  -13.7880    1.0000 </r>
       <r>  -12.9655    1.0000 </r>
       <r>  -11.9588    1.0000 </r>
       <r>  -11.1980    1.0000 </r>
       <r>   -5.9222    1.0000 </r>
       <r>   -4.9777    1.0000 </r>
       <r>   -0.5371    0.0000 </r>
       <r>    0.5410    0.0000 </r>
       <r>    5.8780    0.0000 </r>
       <r>    6.6274    0.0000 </r>
      </set>
      <set comment="kpoint 224">
       <r>  -18.3331    1.0000 </r>
       <r>  -17.4342    1.0000 </r>
       <r>  -13.9945    1.0000 </r>
       <r>  -13.1646    1.0000 </r>
       <r>  -11.7376    1.0000 </r>
       <r>  -10.9987    1.0000 </r>
       <r>   -5.9001    1.0000 </r>
       <r>   -4.9713    1.0000 </r>
       <r>   -0.5825    0.0000 </r>
       <r>    0.4741    0.0000 </r>
       <r>    5.9180    0.0000 </r>
       <r>    6.6772    0.0000 </r>
      </set>
      <set comment="kpoint 225">
       <r>  -18.2860    1.0000 </r>
       <r>  -17.3914    1.0000 </r>
       <r>  -14.2635    1.0000 </r>
       <r>  -13.4273    1.0000 </r>
       <r>  -11.4453    1.0000 </r>
       <r>  -10.7378    1.0000 </r>
       <r>   -5.8638    1.0000 </r>
       <r>   -4.9620    1.0000 </r>
       <r>   -0.6524    0.0000 </r>
       <r>    0.3682    0.0000 </r>
       <r>    5.9841    0.0000 </r>
       <r>    6.7585    0.0000 </r>
      </set>
      <set comment="kpoint 226">
       <r>  -18.2204    1.0000 </r>
       <r>  -17.3327    1.0000 </r>
       <r>  -14.5562    1.0000 </r>
       <r>  -13.7171    1.0000 </r>
       <r>  -11.1223    1.0000 </r>
       <r>  -10.4546    1.0000 </r>
       <r>   -5.8141    1.0000 </r>
       <r>   -4.9515    1.0000 </r>
       <r>   -0.7394    0.0000 </r>
       <r>    0.2307    0.0000 </r>
       <r>    6.0731    0.0000 </r>
       <r>    6.7830    0.0000 </r>
      </set>
      <set comment="kpoint 227">
       <r>  -18.1366    1.0000 </r>
       <r>  -17.2597    1.0000 </r>
       <r>  -14.8523    1.0000 </r>
       <r>  -14.0152    1.0000 </r>
       <r>  -10.7910    1.0000 </r>
       <r>  -10.1719    1.0000 </r>
       <r>   -5.7521    1.0000 </r>
       <r>   -4.9423    1.0000 </r>
       <r>   -0.8345    0.0000 </r>
       <r>    0.0700    0.0000 </r>
       <r>    6.1298    0.0000 </r>
       <r>    6.3256    0.0000 </r>
      </set>
      <set comment="kpoint 228">
       <r>  -18.0351    1.0000 </r>
       <r>  -17.1752    1.0000 </r>
       <r>  -15.1394    1.0000 </r>
       <r>  -14.3117    1.0000 </r>
       <r>  -10.4657    1.0000 </r>
       <r>   -9.9049    1.0000 </r>
       <r>   -5.6791    1.0000 </r>
       <r>   -4.9375    1.0000 </r>
       <r>   -0.9277    0.0000 </r>
       <r>   -0.1049    0.0000 </r>
       <r>    5.7564    0.0000 </r>
       <r>    6.3192    0.0000 </r>
      </set>
      <set comment="kpoint 229">
       <r>  -17.9165    1.0000 </r>
       <r>  -17.0847    1.0000 </r>
       <r>  -15.4068    1.0000 </r>
       <r>  -14.6003    1.0000 </r>
       <r>  -10.1573    1.0000 </r>
       <r>   -9.6655    1.0000 </r>
       <r>   -5.5973    1.0000 </r>
       <r>   -4.9404    1.0000 </r>
       <r>   -1.0095    0.0000 </r>
       <r>   -0.2853    0.0000 </r>
       <r>    5.3487    0.0000 </r>
       <r>    5.8419    0.0000 </r>
      </set>
      <set comment="kpoint 230">
       <r>  -17.7822    1.0000 </r>
       <r>  -16.9989    1.0000 </r>
       <r>  -15.6405    1.0000 </r>
       <r>  -14.8766    1.0000 </r>
       <r>   -9.8760    1.0000 </r>
       <r>   -9.4640    1.0000 </r>
       <r>   -5.5088    1.0000 </r>
       <r>   -4.9542    1.0000 </r>
       <r>   -1.0711    0.0000 </r>
       <r>   -0.4630    0.0000 </r>
       <r>    5.0056    0.0000 </r>
       <r>    5.4200    0.0000 </r>
      </set>
      <set comment="kpoint 231">
       <r>  -17.6337    1.0000 </r>
       <r>  -16.9390    1.0000 </r>
       <r>  -15.8174    1.0000 </r>
       <r>  -15.1368    1.0000 </r>
       <r>   -9.6310    1.0000 </r>
       <r>   -9.3099    1.0000 </r>
       <r>   -5.4167    1.0000 </r>
       <r>   -4.9817    1.0000 </r>
       <r>   -1.1055    0.0000 </r>
       <r>   -0.6307    0.0000 </r>
       <r>    4.7404    0.0000 </r>
       <r>    5.0643    0.0000 </r>
      </set>
      <set comment="kpoint 232">
       <r>  -17.4741    1.0000 </r>
       <r>  -16.9378    1.0000 </r>
       <r>  -15.9037    1.0000 </r>
       <r>  -15.3765    1.0000 </r>
       <r>   -9.4312    1.0000 </r>
       <r>   -9.2108    1.0000 </r>
       <r>   -5.3243    1.0000 </r>
       <r>   -5.0243    1.0000 </r>
       <r>   -1.1077    0.0000 </r>
       <r>   -0.7813    0.0000 </r>
       <r>    4.5619    0.0000 </r>
       <r>    4.7846    0.0000 </r>
      </set>
      <set comment="kpoint 233">
       <r>  -17.3089    1.0000 </r>
       <r>  -17.0143    1.0000 </r>
       <r>  -15.8793    1.0000 </r>
       <r>  -15.5892    1.0000 </r>
       <r>   -9.2844    1.0000 </r>
       <r>   -9.1722    1.0000 </r>
       <r>   -5.2351    1.0000 </r>
       <r>   -5.0820    1.0000 </r>
       <r>   -1.0753    0.0000 </r>
       <r>   -0.9089    0.0000 </r>
       <r>    4.4758    0.0000 </r>
       <r>    4.5894    0.0000 </r>
      </set>
      <set comment="kpoint 234">
       <r>  -17.1487    1.0000 </r>
       <r>  -17.1487    1.0000 </r>
       <r>  -15.7638    1.0000 </r>
       <r>  -15.7638    1.0000 </r>
       <r>   -9.1969    1.0000 </r>
       <r>   -9.1969    1.0000 </r>
       <r>   -5.1532    1.0000 </r>
       <r>   -5.1532    1.0000 </r>
       <r>   -1.0082    0.0000 </r>
       <r>   -1.0082    0.0000 </r>
       <r>    4.4852    0.0000 </r>
       <r>    4.4852    0.0000 </r>
      </set>
      <set comment="kpoint 235">
       <r>  -17.9279    1.0000 </r>
       <r>  -17.9279    1.0000 </r>
       <r>  -13.3067    1.0000 </r>
       <r>  -13.3067    1.0000 </r>
       <r>  -11.6709    1.0000 </r>
       <r>  -11.6709    1.0000 </r>
       <r>   -5.4580    1.0000 </r>
       <r>   -5.4580    1.0000 </r>
       <r>    0.0105    0.0000 </r>
       <r>    0.0105    0.0000 </r>
       <r>    6.4978    0.0000 </r>
       <r>    6.4978    0.0000 </r>
      </set>
      <set comment="kpoint 236">
       <r>  -17.9187    1.0000 </r>
       <r>  -17.9187    1.0000 </r>
       <r>  -13.3871    1.0000 </r>
       <r>  -13.3871    1.0000 </r>
       <r>  -11.5879    1.0000 </r>
       <r>  -11.5879    1.0000 </r>
       <r>   -5.4525    1.0000 </r>
       <r>   -5.4525    1.0000 </r>
       <r>   -0.0095    0.0000 </r>
       <r>   -0.0095    0.0000 </r>
       <r>    6.5111    0.0000 </r>
       <r>    6.5111    0.0000 </r>
      </set>
      <set comment="kpoint 237">
       <r>  -17.8912    1.0000 </r>
       <r>  -17.8912    1.0000 </r>
       <r>  -13.5909    1.0000 </r>
       <r>  -13.5909    1.0000 </r>
       <r>  -11.3767    1.0000 </r>
       <r>  -11.3767    1.0000 </r>
       <r>   -5.4366    1.0000 </r>
       <r>   -5.4366    1.0000 </r>
       <r>   -0.0677    0.0000 </r>
       <r>   -0.0677    0.0000 </r>
       <r>    6.5509    0.0000 </r>
       <r>    6.5509    0.0000 </r>
      </set>
      <set comment="kpoint 238">
       <r>  -17.8456    1.0000 </r>
       <r>  -17.8456    1.0000 </r>
       <r>  -13.8579    1.0000 </r>
       <r>  -13.8579    1.0000 </r>
       <r>  -11.0989    1.0000 </r>
       <r>  -11.0989    1.0000 </r>
       <r>   -5.4107    1.0000 </r>
       <r>   -5.4107    1.0000 </r>
       <r>   -0.1591    0.0000 </r>
       <r>   -0.1591    0.0000 </r>
       <r>    6.6159    0.0000 </r>
       <r>    6.6159    0.0000 </r>
      </set>
      <set comment="kpoint 239">
       <r>  -17.7823    1.0000 </r>
       <r>  -17.7823    1.0000 </r>
       <r>  -14.1508    1.0000 </r>
       <r>  -14.1508    1.0000 </r>
       <r>  -10.7944    1.0000 </r>
       <r>  -10.7944    1.0000 </r>
       <r>   -5.3762    1.0000 </r>
       <r>   -5.3762    1.0000 </r>
       <r>   -0.2764    0.0000 </r>
       <r>   -0.2764    0.0000 </r>
       <r>    6.6972    0.0000 </r>
       <r>    6.6972    0.0000 </r>
      </set>
      <set comment="kpoint 240">
       <r>  -17.7019    1.0000 </r>
       <r>  -17.7019    1.0000 </r>
       <r>  -14.4502    1.0000 </r>
       <r>  -14.4502    1.0000 </r>
       <r>  -10.4859    1.0000 </r>
       <r>  -10.4859    1.0000 </r>
       <r>   -5.3347    1.0000 </r>
       <r>   -5.3347    1.0000 </r>
       <r>   -0.4108    0.0000 </r>
       <r>   -0.4108    0.0000 </r>
       <r>    6.5096    0.0000 </r>
       <r>    6.5096    0.0000 </r>
      </set>
      <set comment="kpoint 241">
       <r>  -17.6055    1.0000 </r>
       <r>  -17.6055    1.0000 </r>
       <r>  -14.7457    1.0000 </r>
       <r>  -14.7457    1.0000 </r>
       <r>  -10.1881    1.0000 </r>
       <r>  -10.1881    1.0000 </r>
       <r>   -5.2885    1.0000 </r>
       <r>   -5.2885    1.0000 </r>
       <r>   -0.5528    0.0000 </r>
       <r>   -0.5528    0.0000 </r>
       <r>    6.0234    0.0000 </r>
       <r>    6.0234    0.0000 </r>
      </set>
      <set comment="kpoint 242">
       <r>  -17.4947    1.0000 </r>
       <r>  -17.4947    1.0000 </r>
       <r>  -15.0302    1.0000 </r>
       <r>  -15.0302    1.0000 </r>
       <r>   -9.9124    1.0000 </r>
       <r>   -9.9124    1.0000 </r>
       <r>   -5.2404    1.0000 </r>
       <r>   -5.2404    1.0000 </r>
       <r>   -0.6932    0.0000 </r>
       <r>   -0.6932    0.0000 </r>
       <r>    5.5770    0.0000 </r>
       <r>    5.5770    0.0000 </r>
      </set>
      <set comment="kpoint 243">
       <r>  -17.3725    1.0000 </r>
       <r>  -17.3725    1.0000 </r>
       <r>  -15.2975    1.0000 </r>
       <r>  -15.2975    1.0000 </r>
       <r>   -9.6691    1.0000 </r>
       <r>   -9.6691    1.0000 </r>
       <r>   -5.1937    1.0000 </r>
       <r>   -5.1937    1.0000 </r>
       <r>   -0.8228    0.0000 </r>
       <r>   -0.8228    0.0000 </r>
       <r>    5.1919    0.0000 </r>
       <r>    5.1919    0.0000 </r>
      </set>
      <set comment="kpoint 244">
       <r>  -17.2443    1.0000 </r>
       <r>  -17.2443    1.0000 </r>
       <r>  -15.5401    1.0000 </r>
       <r>  -15.5401    1.0000 </r>
       <r>   -9.4678    1.0000 </r>
       <r>   -9.4678    1.0000 </r>
       <r>   -5.1520    1.0000 </r>
       <r>   -5.1520    1.0000 </r>
       <r>   -0.9336    0.0000 </r>
       <r>   -0.9336    0.0000 </r>
       <r>    4.8793    0.0000 </r>
       <r>    4.8793    0.0000 </r>
      </set>
      <set comment="kpoint 245">
       <r>  -17.1210    1.0000 </r>
       <r>  -17.1210    1.0000 </r>
       <r>  -15.7461    1.0000 </r>
       <r>  -15.7461    1.0000 </r>
       <r>   -9.3168    1.0000 </r>
       <r>   -9.3168    1.0000 </r>
       <r>   -5.1190    1.0000 </r>
       <r>   -5.1190    1.0000 </r>
       <r>   -1.0185    0.0000 </r>
       <r>   -1.0185    0.0000 </r>
       <r>    4.6484    0.0000 </r>
       <r>    4.6484    0.0000 </r>
      </set>
      <set comment="kpoint 246">
       <r>  -17.0234    1.0000 </r>
       <r>  -17.0234    1.0000 </r>
       <r>  -15.8935    1.0000 </r>
       <r>  -15.8935    1.0000 </r>
       <r>   -9.2232    1.0000 </r>
       <r>   -9.2232    1.0000 </r>
       <r>   -5.0976    1.0000 </r>
       <r>   -5.0976    1.0000 </r>
       <r>   -1.0719    0.0000 </r>
       <r>   -1.0719    0.0000 </r>
       <r>    4.5066    0.0000 </r>
       <r>    4.5066    0.0000 </r>
      </set>
      <set comment="kpoint 247">
       <r>  -16.9844    1.0000 </r>
       <r>  -16.9844    1.0000 </r>
       <r>  -15.9492    1.0000 </r>
       <r>  -15.9492    1.0000 </r>
       <r>   -9.1915    1.0000 </r>
       <r>   -9.1915    1.0000 </r>
       <r>   -5.0903    1.0000 </r>
       <r>   -5.0903    1.0000 </r>
       <r>   -1.0901    0.0000 </r>
       <r>   -1.0901    0.0000 </r>
       <r>    4.4588    0.0000 </r>
       <r>    4.4588    0.0000 </r>
      </set>
     </set>
    </set>
   </array>
  </eigenvalues>
  <separator name="orbital magnetization" >
   <v name="MAGDIPOLOUT">      0.00000000      0.00000000      0.00000000</v>
  </separator>
 </calculation>
 <structure name="finalpos" >
  <crystal>
   <varray name="basis" >
    <v>       4.29505069       0.00000000       0.00000000 </v>
    <v>       0.00000000       2.46491561       0.00000000 </v>
    <v>       0.00000000       0.00000000      19.91490945 </v>
   </varray>
   <i name="volume">    210.83790140 </i>
   <varray name="rec_basis" >
    <v>       0.23282612       0.00000000       0.00000000 </v>
    <v>       0.00000000       0.40569340       0.00000000 </v>
    <v>       0.00000000       0.00000000       0.05021364 </v>
   </varray>
  </crystal>
  <varray name="positions" >
   <v>       0.99987389       0.00000000      -0.00000000 </v>
   <v>       0.16679278       0.50000000       0.00000000 </v>
   <v>       0.49987389       0.50000000      -0.00000000 </v>
   <v>       0.66679278       0.00000000       0.00000000 </v>
  </varray>
 </structure>
</modeling>
