gr                                      
           1
     4.295051    0.000000    0.000000
     0.000000    2.464916    0.000000
     0.000000    0.000000   19.914909
   C 
   4
Direct configuration=     1
   0.99987391  0.00000000  0.00000000
   0.16679275  0.50000000  0.00000000
   0.49987391  0.50000000  0.00000000
   0.66679275  0.00000000  0.00000000
Direct configuration=     2
   0.99987378  0.00000000 -0.00000000
   0.16679288  0.50000000  0.00000000
   0.49987378  0.50000000 -0.00000000
   0.66679288  0.00000000  0.00000000
Direct configuration=     3
   0.99987389  0.00000000 -0.00000000
   0.16679278  0.50000000  0.00000000
   0.49987389  0.50000000 -0.00000000
   0.66679278  0.00000000  0.00000000
Direct configuration=     4
   0.99987389  0.00000000 -0.00000000
   0.16679278  0.50000000  0.00000000
   0.49987389  0.50000000 -0.00000000
   0.66679278  0.00000000  0.00000000
Direct configuration=     5
   0.99987389  0.00000000 -0.00000000
   0.16679278  0.50000000  0.00000000
   0.49987389  0.50000000 -0.00000000
   0.66679278  0.00000000  0.00000000
