    4    4  400    1
  0.5270948E+02  0.4358515E-09  0.2459008E-09  0.1967208E-08  0.5000000E-15
  1.000000000000000E-004
  CAR 
 gr                                      
     16    247     12
 
  0.0000000E+00  0.0000000E+00  0.0000000E+00  0.1157407E-02
    1      -22.115591
    2      -17.212045
    3      -15.862737
    4      -10.252335
    5       -8.873498
    6       -5.964788
    7       -5.737659
    8       -5.291264
    9       -1.165581
   10        0.540526
   11        1.339466
   12        1.729132
 
  0.4166667E-01  0.0000000E+00  0.0000000E+00  0.2314815E-02
    1      -22.105737
    2      -17.337995
    3      -15.721751
    4      -10.240625
    5       -8.863906
    6       -6.008775
    7       -5.758217
    8       -5.351490
    9       -1.089572
   10        0.553863
   11        1.352993
   12        1.742828
 
  0.8333333E-01  0.0000000E+00  0.0000000E+00  0.2314815E-02
    1      -22.076177
    2      -17.623449
    3      -15.391262
    4      -10.205514
    5       -8.835180
    6       -6.138694
    7       -5.818808
    8       -5.519738
    9       -0.874133
   10        0.593880
   11        1.393570
   12        1.783917
 
  0.1250000E+00  0.0000000E+00  0.0000000E+00  0.2314815E-02
    1      -22.026933
    2      -17.963149
    3      -14.976763
    4      -10.147060
    5       -8.787471
    6       -6.348814
    7       -5.916356
    8       -5.767620
    9       -0.548132
   10        0.660595
   11        1.461182
   12        1.852404
 
  0.1666667E+00  0.0000000E+00  0.0000000E+00  0.2314815E-02
    1      -21.958038
    2      -18.315054
    3      -14.520696
    4      -10.065359
    5       -8.721041
    6       -6.630718
    7       -6.065820
    8       -6.046247
    9       -0.141702
   10        0.754027
   11        1.555803
   12        1.948290
 
  0.2083333E+00  0.0000000E+00  0.0000000E+00  0.2314815E-02
    1      -21.869544
    2      -18.663657
    3      -14.039144
    4       -9.960556
    5       -8.636265
    6       -6.974545
    7       -6.391590
    8       -6.202927
    9        0.321231
   10        0.874188
   11        1.677393
   12        2.071580
 
  0.2500000E+00  0.0000000E+00  0.0000000E+00  0.2314815E-02
    1      -21.761514
    2      -19.002317
    3      -13.539511
    4       -9.832839
    5       -8.533645
    6       -7.370094
    7       -6.729245
    8       -6.380476
    9        0.823396
   10        1.021075
   11        1.825888
   12        2.222273
 
  0.2916667E+00  0.0000000E+00  0.0000000E+00  0.2314815E-02
    1      -21.634033
    2      -19.327720
    3      -13.026089
    4       -9.682457
    5       -8.413824
    6       -7.807616
    7       -7.068347
    8       -6.573067
    9        1.194674
   10        1.352271
   11        2.001189
   12        2.400371
 
  0.3333333E+00  0.0000000E+00  0.0000000E+00  0.2314815E-02
    1      -21.487201
    2      -19.637993
    3      -12.501970
    4       -9.509723
    5       -8.278265
    6       -8.277609
    7       -7.401932
    8       -6.775277
    9        1.394950
   10        1.898051
   11        2.203128
   12        2.605863
 
  0.3750000E+00  0.0000000E+00  0.0000000E+00  0.2314815E-02
    1      -21.321140
    2      -19.931968
    3      -11.969823
    4       -9.315033
    5       -8.774269
    6       -8.125995
    7       -7.725255
    8       -6.982245
    9        1.621857
   10        2.431391
   11        2.451526
   12        2.838747
 
  0.4166667E+00  0.0000000E+00  0.0000000E+00  0.2314815E-02
    1      -21.135998
    2      -20.208853
    3      -11.432262
    4       -9.288937
    5       -9.098882
    6       -8.035000
    7       -7.960200
    8       -7.189732
    9        1.875329
   10        2.685290
   11        2.998110
   12        3.099016
 
  0.4583333E+00  0.0000000E+00  0.0000000E+00  0.2314815E-02
    1      -20.931953
    2      -20.468080
    3      -10.892062
    4       -9.816567
    5       -8.861893
    6       -8.328786
    7       -7.781701
    8       -7.394102
    9        2.155276
   10        2.794076
   11        2.962858
   12        3.386763
 
  0.5000000E+00  0.0000000E+00  0.0000000E+00  0.1157407E-02
    1      -20.709224
    2      -20.709224
    3      -10.352316
    4      -10.352316
    5       -8.604856
    6       -8.604856
    7       -7.592285
    8       -7.592285
    9        2.461582
   10        2.461582
   11        3.254892
   12        3.254893
 
  0.0000000E+00  0.2777778E-01  0.0000000E+00  0.2314815E-02
    1      -22.101793
    2      -17.200094
    3      -15.850986
    4      -10.235939
    5       -8.936485
    6       -5.991673
    7       -5.796292
    8       -5.274586
    9       -1.168304
   10        0.559225
   11        1.358364
   12        1.748266
 
  0.4166667E-01  0.2777778E-01  0.0000000E+00  0.4629630E-02
    1      -22.091939
    2      -17.325916
    3      -15.710172
    4      -10.224232
    5       -8.926880
    6       -6.036820
    7       -5.815072
    8       -5.334931
    9       -1.092279
   10        0.572562
   11        1.371891
   12        1.761963
 
  0.8333333E-01  0.2777778E-01  0.0000000E+00  0.4629630E-02
    1      -22.062384
    2      -17.611141
    3      -15.380050
    4      -10.189133
    5       -8.898115
    6       -6.168215
    7       -5.872445
    8       -5.503460
    9       -0.876874
   10        0.612580
   11        1.412465
   12        1.803055
 
  0.1250000E+00  0.2777778E-01  0.0000000E+00  0.4629630E-02
    1      -22.013147
    2      -17.950626
    3      -14.966003
    4      -10.130698
    5       -8.850341
    6       -6.377941
    7       -5.967808
    8       -5.751643
    9       -0.551100
   10        0.679296
   11        1.480073
   12        1.871539
 
  0.1666667E+00  0.2777778E-01  0.0000000E+00  0.4629630E-02
    1      -21.944264
    2      -18.302343
    3      -14.510463
    4      -10.049025
    5       -8.783812
    6       -6.657481
    7       -6.097016
    8       -6.050074
    9       -0.145179
   10        0.772730
   11        1.574690
   12        1.967426
 
  0.2083333E+00  0.2777778E-01  0.0000000E+00  0.4629630E-02
    1      -21.855784
    2      -18.650785
    3      -14.029525
    4       -9.944257
    5       -8.698899
    6       -6.997695
    7       -6.375987
    8       -6.254119
    9        0.316944
   10        0.892895
   11        1.696274
   12        2.090717
 
  0.2500000E+00  0.2777778E-01  0.0000000E+00  0.4629630E-02
    1      -21.747773
    2      -18.989306
    3      -13.530614
    4       -9.816583
    5       -8.596093
    6       -7.389094
    7       -6.713706
    8       -6.432729
    9        0.818015
   10        1.039788
   11        1.844764
   12        2.241413
 
  0.2916667E+00  0.2777778E-01  0.0000000E+00  0.4629630E-02
    1      -21.620315
    2      -19.314589
    3      -13.018040
    4       -9.666251
    5       -8.476028
    6       -7.822424
    7       -7.052815
    8       -6.626675
    9        1.213394
   10        1.345548
   11        2.020061
   12        2.419511
 
  0.3333333E+00  0.2777778E-01  0.0000000E+00  0.4629630E-02
    1      -21.473510
    2      -19.624759
    3      -12.494923
    4       -9.493576
    5       -8.339499
    6       -8.289125
    7       -7.386368
    8       -6.830308
    9        1.413679
   10        1.889810
   11        2.221997
   12        2.625008
 
  0.3750000E+00  0.2777778E-01  0.0000000E+00  0.4629630E-02
    1      -21.307481
    2      -19.918644
    3      -11.963960
    4       -9.298950
    5       -8.781567
    6       -8.187487
    7       -7.709633
    8       -7.038638
    9        1.640596
   10        2.441773
   11        2.450265
   12        2.857897
 
  0.4166667E+00  0.2777778E-01  0.0000000E+00  0.4629630E-02
    1      -21.122376
    2      -20.195451
    3      -11.427800
    4       -9.293107
    5       -9.082871
    6       -8.021190
    7       -8.019306
    8       -7.247356
    9        1.894079
   10        2.704180
   11        2.987737
   12        3.118164
 
  0.4583333E+00  0.2777778E-01  0.0000000E+00  0.4629630E-02
    1      -20.918375
    2      -20.454610
    3      -10.889259
    4       -9.818035
    5       -8.845958
    6       -8.313012
    7       -7.842071
    8       -7.452801
    9        2.174040
   10        2.812890
   11        2.981767
   12        3.418709
 
  0.5000000E+00  0.2777778E-01  0.0000000E+00  0.2314815E-02
    1      -20.695697
    2      -20.695697
    3      -10.351475
    4      -10.351475
    5       -8.589002
    6       -8.589002
    7       -7.651896
    8       -7.651896
    9        2.480365
   10        2.480365
   11        3.273515
   12        3.273515
 
  0.0000000E+00  0.5555556E-01  0.0000000E+00  0.2314815E-02
    1      -22.060408
    2      -17.164245
    3      -15.815874
    4      -10.186782
    5       -9.120351
    6       -6.071876
    7       -5.967397
    8       -5.224572
    9       -1.177282
   10        0.615323
   11        1.415051
   12        1.805671
 
  0.4166667E-01  0.5555556E-01  0.0000000E+00  0.4629630E-02
    1      -22.050559
    2      -17.289692
    3      -15.675575
    4      -10.175088
    5       -9.110705
    6       -6.125025
    7       -5.976357
    8       -5.285288
    9       -1.101208
   10        0.628659
   11        1.428575
   12        1.819368
 
  0.8333333E-01  0.5555556E-01  0.0000000E+00  0.4629630E-02
    1      -22.021017
    2      -17.574236
    3      -15.346559
    4      -10.140025
    5       -9.081813
    6       -6.263965
    7       -6.021048
    8       -5.454681
    9       -0.885901
   10        0.668677
   11        1.469142
   12        1.860457
 
  0.1250000E+00  0.5555556E-01  0.0000000E+00  0.4629630E-02
    1      -21.971803
    2      -17.913075
    3      -14.933880
    4      -10.081649
    5       -9.033817
    6       -6.472697
    7       -6.109777
    8       -5.703783
    9       -0.560816
   10        0.735394
   11        1.536740
   12        1.928945
 
  0.1666667E+00  0.5555556E-01  0.0000000E+00  0.4629630E-02
    1      -21.902954
    2      -18.264230
    3      -14.479945
    4      -10.000060
    5       -8.966959
    6       -6.744489
    7       -6.237666
    8       -6.002921
    9       -0.156447
   10        0.828832
   11        1.631342
   12        2.024833
 
  0.2083333E+00  0.5555556E-01  0.0000000E+00  0.4629630E-02
    1      -21.814519
    2      -18.612188
    3      -14.000889
    4       -9.895399
    5       -8.881586
    6       -7.072989
    7       -6.396957
    8       -6.329266
    9        0.303200
   10        0.949005
   11        1.752909
   12        2.148127
 
  0.2500000E+00  0.5555556E-01  0.0000000E+00  0.4629630E-02
    1      -21.706562
    2      -18.950291
    3      -13.504191
    4       -9.767856
    5       -8.778165
    6       -7.451004
    7       -6.667179
    8       -6.579702
    9        0.800922
   10        1.095911
   11        1.901381
   12        2.298827
 
  0.2916667E+00  0.5555556E-01  0.0000000E+00  0.4629630E-02
    1      -21.579173
    2      -19.275215
    3      -12.994229
    4       -9.617678
    5       -8.657294
    6       -7.870854
    7       -7.006306
    8       -6.778600
    9        1.269533
   10        1.324345
   11        2.076662
   12        2.476932
 
  0.3333333E+00  0.5555556E-01  0.0000000E+00  0.4629630E-02
    1      -21.432449
    2      -19.585073
    3      -12.474204
    4       -9.445179
    5       -8.519726
    6       -8.324904
    7       -7.339757
    8       -6.987283
    9        1.469838
   10        1.863932
   11        2.278592
   12        2.682437
 
  0.3750000E+00  0.5555556E-01  0.0000000E+00  0.4629630E-02
    1      -21.266516
    2      -19.878687
    3      -11.946910
    4       -9.250753
    5       -8.805976
    6       -8.366392
    7       -7.662845
    8       -7.200351
    9        1.696778
   10        2.411145
   11        2.506874
   12        2.915336
 
  0.4166667E+00  0.5555556E-01  0.0000000E+00  0.4629630E-02
    1      -21.081523
    2      -20.155260
    3      -11.415110
    4       -9.307570
    5       -9.034890
    6       -8.198434
    7       -7.972296
    8       -7.413292
    9        1.950286
   10        2.760839
   11        2.954506
   12        3.175622
 
  0.4583333E+00  0.5555556E-01  0.0000000E+00  0.4629630E-02
    1      -20.877652
    2      -20.414216
    3      -10.881749
    4       -9.823947
    5       -8.798211
    6       -8.265759
    7       -8.017250
    8       -7.622379
    9        2.230279
   10        2.869237
   11        3.038488
   12        3.429529
 
  0.5000000E+00  0.5555556E-01  0.0000000E+00  0.2314815E-02
    1      -20.655127
    2      -20.655127
    3      -10.350113
    4      -10.350113
    5       -8.541500
    6       -8.541500
    7       -7.824540
    8       -7.824540
    9        2.536646
   10        2.536646
   11        3.329214
   12        3.329215
 
  0.0000000E+00  0.8333333E-01  0.0000000E+00  0.2314815E-02
    1      -21.991470
    2      -17.104510
    3      -15.757853
    4      -10.104972
    5       -9.411252
    6       -6.238083
    7       -6.204042
    8       -5.141288
    9       -1.194948
   10        0.708819
   11        1.509503
   12        1.901346
 
  0.4166667E-01  0.8333333E-01  0.0000000E+00  0.4629630E-02
    1      -21.981628
    2      -17.229352
    3      -15.618405
    4      -10.093299
    5       -9.401521
    6       -6.311621
    7       -6.189694
    8       -5.202655
    9       -1.118774
   10        0.722154
   11        1.523023
   12        1.915044
 
  0.8333333E-01  0.8333333E-01  0.0000000E+00  0.4629630E-02
    1      -21.952110
    2      -17.512783
    3      -15.291245
    4      -10.058297
    5       -9.372372
    6       -6.456824
    7       -6.219848
    8       -5.373568
    9       -0.903608
   10        0.762167
   11        1.563578
   12        1.956132
 
  0.1250000E+00  0.8333333E-01  0.0000000E+00  0.4629630E-02
    1      -21.902936
    2      -17.850554
    3      -14.880900
    4      -10.000024
    5       -9.323929
    6       -6.658927
    7       -6.302840
    8       -5.624271
    9       -0.579696
   10        0.828880
   11        1.631155
   12        2.024619
 
  0.1666667E+00  0.8333333E-01  0.0000000E+00  0.4629630E-02
    1      -21.834143
    2      -18.200773
    3      -14.429734
    4       -9.918578
    5       -9.256406
    6       -6.914665
    7       -6.431960
    8       -5.924629
    9       -0.178002
   10        0.922315
   11        1.725729
   12        2.120509
 
  0.2083333E+00  0.8333333E-01  0.0000000E+00  0.4629630E-02
    1      -21.745781
    2      -18.547921
    3      -13.953948
    4       -9.814100
    5       -9.170111
    6       -7.220773
    7       -6.597940
    8       -6.251708
    9        0.277368
   10        1.042488
   11        1.847264
   12        2.243805
 
  0.2500000E+00  0.8333333E-01  0.0000000E+00  0.4629630E-02
    1      -21.637919
    2      -18.885326
    3      -13.461123
    4       -9.686782
    5       -9.065455
    6       -7.573308
    7       -6.790800
    8       -6.589943
    9        0.769302
   10        1.189401
   11        1.995701
   12        2.394511
 
  0.2916667E+00  0.8333333E-01  0.0000000E+00  0.4629630E-02
    1      -21.510642
    2      -19.209645
    3      -12.955765
    4       -9.536870
    5       -8.942969
    6       -7.967361
    7       -7.001244
    8       -6.929089
    9        1.285607
   10        1.363036
   11        2.170951
   12        2.572622
 
  0.3333333E+00  0.8333333E-01  0.0000000E+00  0.4629630E-02
    1      -21.364054
    2      -19.518980
    3      -12.441230
    4       -9.364675
    5       -8.803317
    6       -8.397172
    7       -7.262353
    8       -7.221413
    9        1.563358
   10        1.817035
   11        2.372867
   12        2.778137
 
  0.3750000E+00  0.8333333E-01  0.0000000E+00  0.4629630E-02
    1      -21.198281
    2      -19.812142
    3      -11.920499
    4       -9.170589
    5       -8.856540
    6       -8.647323
    7       -7.585127
    8       -7.445025
    9        1.790318
   10        2.355693
   11        2.601170
   12        3.011050
 
  0.4166667E+00  0.8333333E-01  0.0000000E+00  0.4629630E-02
    1      -21.013476
    2      -20.088323
    3      -11.396560
    4       -9.339295
    5       -8.955101
    6       -8.476000
    7       -7.894190
    8       -7.667175
    9        2.043847
   10        2.855227
   11        2.892646
   12        3.271351
 
  0.4583333E+00  0.8333333E-01  0.0000000E+00  0.4629630E-02
    1      -20.809825
    2      -20.346939
    3      -10.872626
    4       -9.839630
    5       -8.718825
    6       -8.290595
    7       -8.187230
    8       -7.884045
    9        2.323862
   10        2.962895
   11        3.133004
   12        3.397450
 
  0.5000000E+00  0.8333333E-01  0.0000000E+00  0.2314815E-02
    1      -20.587554
    2      -20.587554
    3      -10.352290
    4      -10.352290
    5       -8.462538
    6       -8.462538
    7       -8.092643
    8       -8.092643
    9        2.630258
   10        2.630258
   11        3.421153
   12        3.421156
 
  0.0000000E+00  0.1111111E+00  0.0000000E+00  0.2314815E-02
    1      -21.895040
    2      -17.020909
    3      -15.677775
    4       -9.990688
    5       -9.789975
    6       -6.590831
    7       -6.385898
    8       -5.024841
    9       -1.225353
   10        0.839714
   11        1.641683
   12        2.035294
 
  0.4166667E-01  0.1111111E+00  0.0000000E+00  0.4629630E-02
    1      -21.885210
    2      -17.144951
    3      -15.539499
    4       -9.979044
    5       -9.780095
    6       -6.641407
    7       -6.390663
    8       -5.087207
    9       -1.148992
   10        0.853044
   11        1.655196
   12        2.048990
 
  0.8333333E-01  0.1111111E+00  0.0000000E+00  0.4629630E-02
    1      -21.855724
    2      -17.426873
    3      -15.214975
    4       -9.944132
    5       -9.750484
    6       -6.772512
    7       -6.423934
    8       -5.260424
    9       -0.933958
   10        0.893045
   11        1.695730
   12        2.090078
 
  0.1250000E+00  0.1111111E+00  0.0000000E+00  0.4629630E-02
    1      -21.806606
    2      -17.763165
    3      -14.808035
    4       -9.886008
    5       -9.701241
    6       -6.960801
    7       -6.504169
    8       -5.513525
    9       -0.611716
   10        0.959738
   11        1.763273
   12        2.158562
 
  0.1666667E+00  0.1111111E+00  0.0000000E+00  0.4629630E-02
    1      -21.737892
    2      -18.112073
    3      -14.360977
    4       -9.804772
    5       -9.632528
    6       -7.195663
    7       -6.634063
    8       -5.815678
    9       -0.213932
   10        1.053152
   11        1.857801
   12        2.254449
 
  0.2083333E+00  0.1111111E+00  0.0000000E+00  0.4629630E-02
    1      -21.649635
    2      -18.458082
    3      -13.890107
    4       -9.700564
    5       -9.544580
    6       -7.472189
    7       -6.808059
    8       -6.143818
    9        0.235158
   10        1.173307
   11        1.979280
   12        2.377746
 
  0.2500000E+00  0.1111111E+00  0.0000000E+00  0.4629630E-02
    1      -21.541904
    2      -18.794500
    3      -13.403176
    4       -9.573575
    5       -9.437705
    6       -7.788050
    7       -7.016250
    8       -6.482497
    9        0.718593
   10        1.320207
   11        2.127656
   12        2.528452
 
  0.2916667E+00  0.1111111E+00  0.0000000E+00  0.4629630E-02
    1      -21.414786
    2      -19.117966
    3      -12.904907
    4       -9.424051
    5       -9.312297
    6       -8.141820
    7       -7.246999
    8       -6.821640
    9        1.224433
   10        1.493835
   11        2.302848
   12        2.706568
 
  0.3333333E+00  0.1111111E+00  0.0000000E+00  0.4629630E-02
    1      -21.268388
    2      -19.426562
    3      -12.398931
    4       -9.252302
    5       -9.168844
    6       -8.531558
    7       -7.489238
    8       -7.154606
    9        1.694156
   10        1.743787
   11        2.504728
   12        2.912092
 
  0.3750000E+00  0.1111111E+00  0.0000000E+00  0.4629630E-02
    1      -21.102840
    2      -19.719084
    3      -11.888577
    4       -9.058718
    5       -9.007942
    6       -8.953954
    7       -7.734002
    8       -7.476896
    9        1.921114
   10        2.269404
   11        2.733053
   12        3.145017
 
  0.4166667E+00  0.1111111E+00  0.0000000E+00  0.4629630E-02
    1      -20.918299
    2      -19.994711
    3      -11.377259
    4       -9.404338
    5       -8.843782
    6       -8.830320
    7       -7.974839
    8       -7.785373
    9        2.174639
   10        2.794335
   11        2.987255
   12        3.405351
 
  0.4583333E+00  0.1111111E+00  0.0000000E+00  0.4629630E-02
    1      -20.714958
    2      -20.252847
    3      -10.868710
    4       -9.877254
    5       -8.636877
    6       -8.608102
    7       -8.207392
    8       -8.077778
    9        2.454645
   10        3.093642
   11        3.265285
   12        3.306417
 
  0.5000000E+00  0.1111111E+00  0.0000000E+00  0.2314815E-02
    1      -20.493046
    2      -20.493046
    3      -10.367130
    4      -10.367130
    5       -8.428744
    6       -8.428744
    7       -8.352443
    8       -8.352443
    9        2.761024
   10        2.761024
   11        3.544722
   12        3.544948
 
  0.0000000E+00  0.1388889E+00  0.0000000E+00  0.2314815E-02
    1      -21.771206
    2      -16.913473
    3      -15.577073
    4      -10.235434
    5       -9.844187
    6       -7.007098
    7       -6.614288
    8       -4.875386
    9       -1.274092
   10        1.007998
   11        1.811530
   12        2.207516
 
  0.4166667E-01  0.1388889E+00  0.0000000E+00  0.4629630E-02
    1      -21.761389
    2      -17.036569
    3      -15.440281
    4      -10.225296
    5       -9.832583
    6       -7.053358
    7       -6.618796
    8       -4.939205
    9       -1.197381
   10        1.021320
   11        1.825032
   12        2.221210
 
  0.8333333E-01  0.1388889E+00  0.0000000E+00  0.4629630E-02
    1      -21.731946
    2      -17.316643
    3      -15.119242
    4      -10.194895
    5       -9.797793
    6       -7.178037
    7       -6.645371
    8       -5.115733
    9       -0.982345
   10        1.061296
   11        1.865533
   12        2.262293
 
  0.1250000E+00  0.1388889E+00  0.0000000E+00  0.4629630E-02
    1      -21.682899
    2      -17.651066
    3      -14.716980
    4      -10.144274
    5       -9.739873
    6       -7.358627
    7       -6.713268
    8       -5.372209
    9       -0.662245
   10        1.127951
   11        1.933021
   12        2.330772
 
  0.1666667E+00  0.1388889E+00  0.0000000E+00  0.4629630E-02
    1      -21.614289
    2      -17.998289
    3      -14.275714
    4      -10.073500
    5       -9.658923
    6       -7.580278
    7       -6.831697
    8       -5.676831
    9       -0.269717
   10        1.221317
   11        2.027474
   12        2.426652
 
  0.2083333E+00  0.1388889E+00  0.0000000E+00  0.4629630E-02
    1      -21.526166
    2      -18.342819
    3      -13.811920
    4       -9.982666
    5       -9.555083
    6       -7.834694
    7       -7.000901
    8       -6.006384
    9        0.170872
   10        1.341422
   11        2.148858
   12        2.549940
 
  0.2500000E+00  0.1388889E+00  0.0000000E+00  0.4629630E-02
    1      -21.418603
    2      -18.677954
    3      -13.333630
    4       -9.871875
    5       -9.428544
    6       -8.117748
    7       -7.214873
    8       -6.345613
    9        0.642804
   10        1.488274
   11        2.297125
   12        2.700641
 
  0.2916667E+00  0.1388889E+00  0.0000000E+00  0.4629630E-02
    1      -21.291691
    2      -19.000306
    3      -12.845961
    4       -9.741239
    5       -9.279552
    6       -8.428304
    7       -7.463208
    8       -6.684694
    9        1.134498
   10        1.661861
   11        2.472206
   12        2.878757
 
  0.3333333E+00  0.1388889E+00  0.0000000E+00  0.4629630E-02
    1      -21.145539
    2      -19.307940
    3      -12.353057
    4       -9.590866
    5       -9.108415
    6       -8.767254
    7       -7.732911
    8       -7.017198
    9        1.637484
   10        1.862145
   11        2.673997
   12        3.084285
 
  0.3750000E+00  0.1388889E+00  0.0000000E+00  0.4629630E-02
    1      -20.980283
    2      -19.599627
    3      -11.858913
    4       -9.420845
    5       -9.136097
    6       -8.915519
    7       -8.010598
    8       -7.338784
    9        2.089067
   10        2.145101
   11        2.902312
   12        3.317218
 
  0.4166667E+00  0.1388889E+00  0.0000000E+00  0.4629630E-02
    1      -20.796086
    2      -19.874531
    3      -11.367788
    4       -9.535194
    5       -9.231257
    6       -8.701344
    7       -8.284803
    8       -7.646425
    9        2.342550
   10        2.651635
   11        3.156721
   12        3.577575
 
  0.4583333E+00  0.1388889E+00  0.0000000E+00  0.4629630E-02
    1      -20.593146
    2      -20.132044
    3      -10.884434
    4       -9.962601
    5       -9.022211
    6       -8.547474
    7       -8.466488
    8       -7.937936
    9        2.622498
   10        3.151189
   11        3.261311
   12        3.435283
 
  0.5000000E+00  0.1388889E+00  0.0000000E+00  0.2314815E-02
    1      -20.371702
    2      -20.371702
    3      -10.414153
    4      -10.414153
    5       -8.793999
    6       -8.793999
    7       -8.211701
    8       -8.211701
    9        2.928799
   10        2.928799
   11        3.614576
   12        3.614598
 
  0.0000000E+00  0.1666667E+00  0.0000000E+00  0.2314815E-02
    1      -21.620082
    2      -16.782242
    3      -15.458144
    4      -10.726908
    5       -9.665814
    6       -7.469761
    7       -6.885234
    8       -4.693129
    9       -1.348084
   10        1.213650
   11        2.018962
   12        2.418012
 
  0.4166667E-01  0.1666667E+00  0.0000000E+00  0.4629630E-02
    1      -21.610283
    2      -16.904328
    3      -15.323144
    4      -10.716327
    5       -9.654265
    6       -7.515510
    7       -6.885195
    8       -4.759039
    9       -1.270708
   10        1.226960
   11        2.032445
   12        2.431705
 
  0.8333333E-01  0.1666667E+00  0.0000000E+00  0.4629630E-02
    1      -21.580892
    2      -17.182300
    3      -15.006599
    4      -10.684564
    5       -9.619635
    6       -7.639677
    7       -6.897659
    8       -4.940244
    9       -1.055268
   10        1.266899
   11        2.072893
   12        2.472781
 
  0.1250000E+00  0.1666667E+00  0.0000000E+00  0.4629630E-02
    1      -21.531934
    2      -17.514488
    3      -14.610706
    4      -10.631553
    5       -9.561983
    6       -7.819013
    7       -6.944191
    8       -5.201354
    9       -0.737644
   10        1.333493
   11        2.140290
   12        2.541246
 
  0.1666667E+00  0.1666667E+00  0.0000000E+00  0.4629630E-02
    1      -21.463448
    2      -17.859647
    3      -14.177622
    4      -10.557166
    5       -9.481409
    6       -8.036073
    7       -7.038877
    8       -5.509248
    9       -0.351763
   10        1.426778
   11        2.234614
   12        2.637110
 
  0.2083333E+00  0.1666667E+00  0.0000000E+00  0.4629630E-02
    1      -21.375491
    2      -18.202347
    3      -13.724121
    4      -10.461192
    5       -9.378054
    6       -8.280030
    7       -7.187064
    8       -5.840588
    9        0.077939
   10        1.546789
   11        2.355830
   12        2.760380
 
  0.2500000E+00  0.1666667E+00  0.0000000E+00  0.4629630E-02
    1      -21.268136
    2      -18.535883
    3      -13.258771
    4      -10.343292
    5       -9.252109
    6       -8.544436
    7       -7.387472
    8       -6.180432
    9        0.535158
   10        1.693545
   11        2.503894
   12        2.911070
 
  0.2916667E+00  0.1666667E+00  0.0000000E+00  0.4629630E-02
    1      -21.141476
    2      -18.856849
    3      -12.787453
    4      -10.202948
    5       -9.103820
    6       -8.825965
    7       -7.633792
    8       -6.519322
    9        1.008839
   10        1.867041
   11        2.678741
   12        3.089173
 
  0.3333333E+00  0.1666667E+00  0.0000000E+00  0.4629630E-02
    1      -20.995629
    2      -19.163280
    3      -12.315351
    4      -10.039398
    5       -9.123931
    6       -8.933495
    7       -7.915857
    8       -6.851119
    9        1.491061
   10        2.067240
   11        2.880288
   12        3.294697
 
  0.3750000E+00  0.1666667E+00  0.0000000E+00  0.4629630E-02
    1      -20.830734
    2      -19.453927
    3      -11.847802
    4       -9.851602
    5       -9.440028
    6       -8.741515
    7       -8.220719
    8       -7.171696
    9        1.975757
   10        2.294079
   11        3.108422
   12        3.527630
 
  0.4166667E+00  0.1666667E+00  0.0000000E+00  0.4629630E-02
    1      -20.646963
    2      -19.727932
    3      -11.390647
    4       -9.777772
    5       -9.638304
    6       -8.533929
    7       -8.528356
    8       -7.478170
    9        2.457989
   10        2.547470
   11        3.362957
   12        3.787972
 
  0.4583333E+00  0.1666667E+00  0.0000000E+00  0.4629630E-02
    1      -20.444521
    2      -19.984668
    3      -10.950144
    4      -10.141090
    5       -9.398400
    6       -8.841422
    7       -8.294605
    8       -7.768454
    9        2.827306
   10        2.933507
   11        3.465775
   12        3.642901
 
  0.5000000E+00  0.1666667E+00  0.0000000E+00  0.2314815E-02
    1      -20.223656
    2      -20.223656
    3      -10.532226
    4      -10.532226
    5       -9.131882
    6       -9.131882
    7       -8.040995
    8       -8.040995
    9        3.133459
   10        3.133459
   11        3.398353
   12        3.398464
 