<?xml version="1.0" encoding="ISO-8859-1"?>
<modeling>
 <generator>
  <i name="program" type="string">vasp </i>
  <i name="version" type="string">5.3.5  </i>
  <i name="subversion" type="string">31Mar14 (build Mar 02 2015 18:14:16) complex                          parallel </i>
  <i name="platform" type="string">LinuxIFC </i>
  <i name="date" type="string">2018 08 08 </i>
  <i name="time" type="string">18:43:01 </i>
 </generator>
 <incar>
  <i type="string" name="SYSTEM">  gr</i>
  <i type="string" name="PREC">accurate : accuracy</i>
  <i type="string" name="ALGO"> FAST.</i>
  <i type="int" name="NELM">   100</i>
  <i type="int" name="NELMDL">    -3</i>
  <i type="int" name="NELMIN">     5</i>
  <i type="int" name="IBRION">     1</i>
  <i name="EDIFF">      0.00000000</i>
  <i name="EDIFFG">     -0.00000100</i>
  <i type="int" name="NSW">   400</i>
  <i type="int" name="ISIF">     2</i>
  <i name="ENCUT">   2000.00000000</i>
  <i type="int" name="ISMEAR">     0</i>
  <i name="SIGMA">      0.05000000</i>
  <i type="int" name="NWRITE">     2</i>
  <i type="logical" name="LWAVE"> F  </i>
  <i type="logical" name="LCHARG"> F  </i>
  <i type="int" name="NELM">   100</i>
 </incar>
 <kpoints>
  <generation param="Gamma">
   <v type="int" name="divisions">      24       36        1 </v>
   <v name="usershift">      0.00000000       0.00000000       0.00000000 </v>
   <v name="genvec1">      0.04166667       0.00000000       0.00000000 </v>
   <v name="genvec2">      0.00000000       0.02777778       0.00000000 </v>
   <v name="genvec3">      0.00000000       0.00000000       1.00000000 </v>
   <v name="shift">      0.00000000       0.00000000       0.00000000 </v>
  </generation>
  <varray name="kpointlist" >
   <v>       0.00000000       0.00000000       0.00000000 </v>
   <v>       0.04166667       0.00000000       0.00000000 </v>
   <v>       0.08333333       0.00000000       0.00000000 </v>
   <v>       0.12500000       0.00000000       0.00000000 </v>
   <v>       0.16666667       0.00000000       0.00000000 </v>
   <v>       0.20833333       0.00000000       0.00000000 </v>
   <v>       0.25000000       0.00000000       0.00000000 </v>
   <v>       0.29166667       0.00000000       0.00000000 </v>
   <v>       0.33333333       0.00000000       0.00000000 </v>
   <v>       0.37500000       0.00000000       0.00000000 </v>
   <v>       0.41666667       0.00000000       0.00000000 </v>
   <v>       0.45833333       0.00000000       0.00000000 </v>
   <v>       0.50000000       0.00000000       0.00000000 </v>
   <v>       0.00000000       0.02777778       0.00000000 </v>
   <v>       0.04166667       0.02777778       0.00000000 </v>
   <v>       0.08333333       0.02777778       0.00000000 </v>
   <v>       0.12500000       0.02777778       0.00000000 </v>
   <v>       0.16666667       0.02777778       0.00000000 </v>
   <v>       0.20833333       0.02777778       0.00000000 </v>
   <v>       0.25000000       0.02777778       0.00000000 </v>
   <v>       0.29166667       0.02777778       0.00000000 </v>
   <v>       0.33333333       0.02777778       0.00000000 </v>
   <v>       0.37500000       0.02777778       0.00000000 </v>
   <v>       0.41666667       0.02777778       0.00000000 </v>
   <v>       0.45833333       0.02777778       0.00000000 </v>
   <v>       0.50000000       0.02777778       0.00000000 </v>
   <v>       0.00000000       0.05555556       0.00000000 </v>
   <v>       0.04166667       0.05555556       0.00000000 </v>
   <v>       0.08333333       0.05555556       0.00000000 </v>
   <v>       0.12500000       0.05555556       0.00000000 </v>
   <v>       0.16666667       0.05555556       0.00000000 </v>
   <v>       0.20833333       0.05555556       0.00000000 </v>
   <v>       0.25000000       0.05555556       0.00000000 </v>
   <v>       0.29166667       0.05555556       0.00000000 </v>
   <v>       0.33333333       0.05555556       0.00000000 </v>
   <v>       0.37500000       0.05555556       0.00000000 </v>
   <v>       0.41666667       0.05555556       0.00000000 </v>
   <v>       0.45833333       0.05555556       0.00000000 </v>
   <v>       0.50000000       0.05555556       0.00000000 </v>
   <v>       0.00000000       0.08333333       0.00000000 </v>
   <v>       0.04166667       0.08333333       0.00000000 </v>
   <v>       0.08333333       0.08333333       0.00000000 </v>
   <v>       0.12500000       0.08333333       0.00000000 </v>
   <v>       0.16666667       0.08333333       0.00000000 </v>
   <v>       0.20833333       0.08333333       0.00000000 </v>
   <v>       0.25000000       0.08333333       0.00000000 </v>
   <v>       0.29166667       0.08333333       0.00000000 </v>
   <v>       0.33333333       0.08333333       0.00000000 </v>
   <v>       0.37500000       0.08333333       0.00000000 </v>
   <v>       0.41666667       0.08333333       0.00000000 </v>
   <v>       0.45833333       0.08333333       0.00000000 </v>
   <v>       0.50000000       0.08333333       0.00000000 </v>
   <v>       0.00000000       0.11111111       0.00000000 </v>
   <v>       0.04166667       0.11111111       0.00000000 </v>
   <v>       0.08333333       0.11111111       0.00000000 </v>
   <v>       0.12500000       0.11111111       0.00000000 </v>
   <v>       0.16666667       0.11111111       0.00000000 </v>
   <v>       0.20833333       0.11111111       0.00000000 </v>
   <v>       0.25000000       0.11111111       0.00000000 </v>
   <v>       0.29166667       0.11111111       0.00000000 </v>
   <v>       0.33333333       0.11111111       0.00000000 </v>
   <v>       0.37500000       0.11111111       0.00000000 </v>
   <v>       0.41666667       0.11111111       0.00000000 </v>
   <v>       0.45833333       0.11111111       0.00000000 </v>
   <v>       0.50000000       0.11111111       0.00000000 </v>
   <v>       0.00000000       0.13888889       0.00000000 </v>
   <v>       0.04166667       0.13888889       0.00000000 </v>
   <v>       0.08333333       0.13888889       0.00000000 </v>
   <v>       0.12500000       0.13888889       0.00000000 </v>
   <v>       0.16666667       0.13888889       0.00000000 </v>
   <v>       0.20833333       0.13888889       0.00000000 </v>
   <v>       0.25000000       0.13888889       0.00000000 </v>
   <v>       0.29166667       0.13888889       0.00000000 </v>
   <v>       0.33333333       0.13888889       0.00000000 </v>
   <v>       0.37500000       0.13888889       0.00000000 </v>
   <v>       0.41666667       0.13888889       0.00000000 </v>
   <v>       0.45833333       0.13888889       0.00000000 </v>
   <v>       0.50000000       0.13888889       0.00000000 </v>
   <v>       0.00000000       0.16666667       0.00000000 </v>
   <v>       0.04166667       0.16666667       0.00000000 </v>
   <v>       0.08333333       0.16666667       0.00000000 </v>
   <v>       0.12500000       0.16666667       0.00000000 </v>
   <v>       0.16666667       0.16666667       0.00000000 </v>
   <v>       0.20833333       0.16666667       0.00000000 </v>
   <v>       0.25000000       0.16666667       0.00000000 </v>
   <v>       0.29166667       0.16666667       0.00000000 </v>
   <v>       0.33333333       0.16666667       0.00000000 </v>
   <v>       0.37500000       0.16666667       0.00000000 </v>
   <v>       0.41666667       0.16666667       0.00000000 </v>
   <v>       0.45833333       0.16666667       0.00000000 </v>
   <v>       0.50000000       0.16666667       0.00000000 </v>
   <v>       0.00000000       0.19444444       0.00000000 </v>
   <v>       0.04166667       0.19444444       0.00000000 </v>
   <v>       0.08333333       0.19444444       0.00000000 </v>
   <v>       0.12500000       0.19444444       0.00000000 </v>
   <v>       0.16666667       0.19444444       0.00000000 </v>
   <v>       0.20833333       0.19444444       0.00000000 </v>
   <v>       0.25000000       0.19444444       0.00000000 </v>
   <v>       0.29166667       0.19444444       0.00000000 </v>
   <v>       0.33333333       0.19444444       0.00000000 </v>
   <v>       0.37500000       0.19444444       0.00000000 </v>
   <v>       0.41666667       0.19444444       0.00000000 </v>
   <v>       0.45833333       0.19444444       0.00000000 </v>
   <v>       0.50000000       0.19444444       0.00000000 </v>
   <v>       0.00000000       0.22222222       0.00000000 </v>
   <v>       0.04166667       0.22222222       0.00000000 </v>
   <v>       0.08333333       0.22222222       0.00000000 </v>
   <v>       0.12500000       0.22222222       0.00000000 </v>
   <v>       0.16666667       0.22222222       0.00000000 </v>
   <v>       0.20833333       0.22222222       0.00000000 </v>
   <v>       0.25000000       0.22222222       0.00000000 </v>
   <v>       0.29166667       0.22222222       0.00000000 </v>
   <v>       0.33333333       0.22222222       0.00000000 </v>
   <v>       0.37500000       0.22222222       0.00000000 </v>
   <v>       0.41666667       0.22222222       0.00000000 </v>
   <v>       0.45833333       0.22222222       0.00000000 </v>
   <v>       0.50000000       0.22222222       0.00000000 </v>
   <v>       0.00000000       0.25000000       0.00000000 </v>
   <v>       0.04166667       0.25000000       0.00000000 </v>
   <v>       0.08333333       0.25000000       0.00000000 </v>
   <v>       0.12500000       0.25000000       0.00000000 </v>
   <v>       0.16666667       0.25000000       0.00000000 </v>
   <v>       0.20833333       0.25000000       0.00000000 </v>
   <v>       0.25000000       0.25000000       0.00000000 </v>
   <v>       0.29166667       0.25000000       0.00000000 </v>
   <v>       0.33333333       0.25000000       0.00000000 </v>
   <v>       0.37500000       0.25000000       0.00000000 </v>
   <v>       0.41666667       0.25000000       0.00000000 </v>
   <v>       0.45833333       0.25000000       0.00000000 </v>
   <v>       0.50000000       0.25000000       0.00000000 </v>
   <v>       0.00000000       0.27777778       0.00000000 </v>
   <v>       0.04166667       0.27777778       0.00000000 </v>
   <v>       0.08333333       0.27777778       0.00000000 </v>
   <v>       0.12500000       0.27777778       0.00000000 </v>
   <v>       0.16666667       0.27777778       0.00000000 </v>
   <v>       0.20833333       0.27777778       0.00000000 </v>
   <v>       0.25000000       0.27777778       0.00000000 </v>
   <v>       0.29166667       0.27777778       0.00000000 </v>
   <v>       0.33333333       0.27777778       0.00000000 </v>
   <v>       0.37500000       0.27777778       0.00000000 </v>
   <v>       0.41666667       0.27777778       0.00000000 </v>
   <v>       0.45833333       0.27777778       0.00000000 </v>
   <v>       0.50000000       0.27777778       0.00000000 </v>
   <v>       0.00000000       0.30555556       0.00000000 </v>
   <v>       0.04166667       0.30555556       0.00000000 </v>
   <v>       0.08333333       0.30555556       0.00000000 </v>
   <v>       0.12500000       0.30555556       0.00000000 </v>
   <v>       0.16666667       0.30555556       0.00000000 </v>
   <v>       0.20833333       0.30555556       0.00000000 </v>
   <v>       0.25000000       0.30555556       0.00000000 </v>
   <v>       0.29166667       0.30555556       0.00000000 </v>
   <v>       0.33333333       0.30555556       0.00000000 </v>
   <v>       0.37500000       0.30555556       0.00000000 </v>
   <v>       0.41666667       0.30555556       0.00000000 </v>
   <v>       0.45833333       0.30555556       0.00000000 </v>
   <v>       0.50000000       0.30555556       0.00000000 </v>
   <v>       0.00000000       0.33333333       0.00000000 </v>
   <v>       0.04166667       0.33333333       0.00000000 </v>
   <v>       0.08333333       0.33333333       0.00000000 </v>
   <v>       0.12500000       0.33333333       0.00000000 </v>
   <v>       0.16666667       0.33333333       0.00000000 </v>
   <v>       0.20833333       0.33333333       0.00000000 </v>
   <v>       0.25000000       0.33333333       0.00000000 </v>
   <v>       0.29166667       0.33333333       0.00000000 </v>
   <v>       0.33333333       0.33333333       0.00000000 </v>
   <v>       0.37500000       0.33333333       0.00000000 </v>
   <v>       0.41666667       0.33333333       0.00000000 </v>
   <v>       0.45833333       0.33333333       0.00000000 </v>
   <v>       0.50000000       0.33333333       0.00000000 </v>
   <v>       0.00000000       0.36111111       0.00000000 </v>
   <v>       0.04166667       0.36111111       0.00000000 </v>
   <v>       0.08333333       0.36111111       0.00000000 </v>
   <v>       0.12500000       0.36111111       0.00000000 </v>
   <v>       0.16666667       0.36111111       0.00000000 </v>
   <v>       0.20833333       0.36111111       0.00000000 </v>
   <v>       0.25000000       0.36111111       0.00000000 </v>
   <v>       0.29166667       0.36111111       0.00000000 </v>
   <v>       0.33333333       0.36111111       0.00000000 </v>
   <v>       0.37500000       0.36111111       0.00000000 </v>
   <v>       0.41666667       0.36111111       0.00000000 </v>
   <v>       0.45833333       0.36111111       0.00000000 </v>
   <v>       0.50000000       0.36111111       0.00000000 </v>
   <v>       0.00000000       0.38888889       0.00000000 </v>
   <v>       0.04166667       0.38888889       0.00000000 </v>
   <v>       0.08333333       0.38888889       0.00000000 </v>
   <v>       0.12500000       0.38888889       0.00000000 </v>
   <v>       0.16666667       0.38888889       0.00000000 </v>
   <v>       0.20833333       0.38888889       0.00000000 </v>
   <v>       0.25000000       0.38888889       0.00000000 </v>
   <v>       0.29166667       0.38888889       0.00000000 </v>
   <v>       0.33333333       0.38888889       0.00000000 </v>
   <v>       0.37500000       0.38888889       0.00000000 </v>
   <v>       0.41666667       0.38888889       0.00000000 </v>
   <v>       0.45833333       0.38888889       0.00000000 </v>
   <v>       0.50000000       0.38888889       0.00000000 </v>
   <v>       0.00000000       0.41666667       0.00000000 </v>
   <v>       0.04166667       0.41666667       0.00000000 </v>
   <v>       0.08333333       0.41666667       0.00000000 </v>
   <v>       0.12500000       0.41666667       0.00000000 </v>
   <v>       0.16666667       0.41666667       0.00000000 </v>
   <v>       0.20833333       0.41666667       0.00000000 </v>
   <v>       0.25000000       0.41666667       0.00000000 </v>
   <v>       0.29166667       0.41666667       0.00000000 </v>
   <v>       0.33333333       0.41666667       0.00000000 </v>
   <v>       0.37500000       0.41666667       0.00000000 </v>
   <v>       0.41666667       0.41666667       0.00000000 </v>
   <v>       0.45833333       0.41666667       0.00000000 </v>
   <v>       0.50000000       0.41666667       0.00000000 </v>
   <v>       0.00000000       0.44444444       0.00000000 </v>
   <v>       0.04166667       0.44444444       0.00000000 </v>
   <v>       0.08333333       0.44444444       0.00000000 </v>
   <v>       0.12500000       0.44444444       0.00000000 </v>
   <v>       0.16666667       0.44444444       0.00000000 </v>
   <v>       0.20833333       0.44444444       0.00000000 </v>
   <v>       0.25000000       0.44444444       0.00000000 </v>
   <v>       0.29166667       0.44444444       0.00000000 </v>
   <v>       0.33333333       0.44444444       0.00000000 </v>
   <v>       0.37500000       0.44444444       0.00000000 </v>
   <v>       0.41666667       0.44444444       0.00000000 </v>
   <v>       0.45833333       0.44444444       0.00000000 </v>
   <v>       0.50000000       0.44444444       0.00000000 </v>
   <v>       0.00000000       0.47222222       0.00000000 </v>
   <v>       0.04166667       0.47222222       0.00000000 </v>
   <v>       0.08333333       0.47222222       0.00000000 </v>
   <v>       0.12500000       0.47222222       0.00000000 </v>
   <v>       0.16666667       0.47222222       0.00000000 </v>
   <v>       0.20833333       0.47222222       0.00000000 </v>
   <v>       0.25000000       0.47222222       0.00000000 </v>
   <v>       0.29166667       0.47222222       0.00000000 </v>
   <v>       0.33333333       0.47222222       0.00000000 </v>
   <v>       0.37500000       0.47222222       0.00000000 </v>
   <v>       0.41666667       0.47222222       0.00000000 </v>
   <v>       0.45833333       0.47222222       0.00000000 </v>
   <v>       0.50000000       0.47222222       0.00000000 </v>
   <v>       0.00000000       0.50000000       0.00000000 </v>
   <v>       0.04166667       0.50000000       0.00000000 </v>
   <v>       0.08333333       0.50000000       0.00000000 </v>
   <v>       0.12500000       0.50000000       0.00000000 </v>
   <v>       0.16666667       0.50000000       0.00000000 </v>
   <v>       0.20833333       0.50000000       0.00000000 </v>
   <v>       0.25000000       0.50000000       0.00000000 </v>
   <v>       0.29166667       0.50000000       0.00000000 </v>
   <v>       0.33333333       0.50000000       0.00000000 </v>
   <v>       0.37500000       0.50000000       0.00000000 </v>
   <v>       0.41666667       0.50000000       0.00000000 </v>
   <v>       0.45833333       0.50000000       0.00000000 </v>
   <v>       0.50000000       0.50000000       0.00000000 </v>
  </varray>
  <varray name="weights" >
   <v>       0.00115741 </v>
   <v>       0.00231481 </v>
   <v>       0.00231481 </v>
   <v>       0.00231481 </v>
   <v>       0.00231481 </v>
   <v>       0.00231481 </v>
   <v>       0.00231481 </v>
   <v>       0.00231481 </v>
   <v>       0.00231481 </v>
   <v>       0.00231481 </v>
   <v>       0.00231481 </v>
   <v>       0.00231481 </v>
   <v>       0.00115741 </v>
   <v>       0.00231481 </v>
   <v>       0.00462963 </v>
   <v>       0.00462963 </v>
   <v>       0.00462963 </v>
   <v>       0.00462963 </v>
   <v>       0.00462963 </v>
   <v>       0.00462963 </v>
   <v>       0.00462963 </v>
   <v>       0.00462963 </v>
   <v>       0.00462963 </v>
   <v>       0.00462963 </v>
   <v>       0.00462963 </v>
   <v>       0.00231481 </v>
   <v>       0.00231481 </v>
   <v>       0.00462963 </v>
   <v>       0.00462963 </v>
   <v>       0.00462963 </v>
   <v>       0.00462963 </v>
   <v>       0.00462963 </v>
   <v>       0.00462963 </v>
   <v>       0.00462963 </v>
   <v>       0.00462963 </v>
   <v>       0.00462963 </v>
   <v>       0.00462963 </v>
   <v>       0.00462963 </v>
   <v>       0.00231481 </v>
   <v>       0.00231481 </v>
   <v>       0.00462963 </v>
   <v>       0.00462963 </v>
   <v>       0.00462963 </v>
   <v>       0.00462963 </v>
   <v>       0.00462963 </v>
   <v>       0.00462963 </v>
   <v>       0.00462963 </v>
   <v>       0.00462963 </v>
   <v>       0.00462963 </v>
   <v>       0.00462963 </v>
   <v>       0.00462963 </v>
   <v>       0.00231481 </v>
   <v>       0.00231481 </v>
   <v>       0.00462963 </v>
   <v>       0.00462963 </v>
   <v>       0.00462963 </v>
   <v>       0.00462963 </v>
   <v>       0.00462963 </v>
   <v>       0.00462963 </v>
   <v>       0.00462963 </v>
   <v>       0.00462963 </v>
   <v>       0.00462963 </v>
   <v>       0.00462963 </v>
   <v>       0.00462963 </v>
   <v>       0.00231481 </v>
   <v>       0.00231481 </v>
   <v>       0.00462963 </v>
   <v>       0.00462963 </v>
   <v>       0.00462963 </v>
   <v>       0.00462963 </v>
   <v>       0.00462963 </v>
   <v>       0.00462963 </v>
   <v>       0.00462963 </v>
   <v>       0.00462963 </v>
   <v>       0.00462963 </v>
   <v>       0.00462963 </v>
   <v>       0.00462963 </v>
   <v>       0.00231481 </v>
   <v>       0.00231481 </v>
   <v>       0.00462963 </v>
   <v>       0.00462963 </v>
   <v>       0.00462963 </v>
   <v>       0.00462963 </v>
   <v>       0.00462963 </v>
   <v>       0.00462963 </v>
   <v>       0.00462963 </v>
   <v>       0.00462963 </v>
   <v>       0.00462963 </v>
   <v>       0.00462963 </v>
   <v>       0.00462963 </v>
   <v>       0.00231481 </v>
   <v>       0.00231481 </v>
   <v>       0.00462963 </v>
   <v>       0.00462963 </v>
   <v>       0.00462963 </v>
   <v>       0.00462963 </v>
   <v>       0.00462963 </v>
   <v>       0.00462963 </v>
   <v>       0.00462963 </v>
   <v>       0.00462963 </v>
   <v>       0.00462963 </v>
   <v>       0.00462963 </v>
   <v>       0.00462963 </v>
   <v>       0.00231481 </v>
   <v>       0.00231481 </v>
   <v>       0.00462963 </v>
   <v>       0.00462963 </v>
   <v>       0.00462963 </v>
   <v>       0.00462963 </v>
   <v>       0.00462963 </v>
   <v>       0.00462963 </v>
   <v>       0.00462963 </v>
   <v>       0.00462963 </v>
   <v>       0.00462963 </v>
   <v>       0.00462963 </v>
   <v>       0.00462963 </v>
   <v>       0.00231481 </v>
   <v>       0.00231481 </v>
   <v>       0.00462963 </v>
   <v>       0.00462963 </v>
   <v>       0.00462963 </v>
   <v>       0.00462963 </v>
   <v>       0.00462963 </v>
   <v>       0.00462963 </v>
   <v>       0.00462963 </v>
   <v>       0.00462963 </v>
   <v>       0.00462963 </v>
   <v>       0.00462963 </v>
   <v>       0.00462963 </v>
   <v>       0.00231481 </v>
   <v>       0.00231481 </v>
   <v>       0.00462963 </v>
   <v>       0.00462963 </v>
   <v>       0.00462963 </v>
   <v>       0.00462963 </v>
   <v>       0.00462963 </v>
   <v>       0.00462963 </v>
   <v>       0.00462963 </v>
   <v>       0.00462963 </v>
   <v>       0.00462963 </v>
   <v>       0.00462963 </v>
   <v>       0.00462963 </v>
   <v>       0.00231481 </v>
   <v>       0.00231481 </v>
   <v>       0.00462963 </v>
   <v>       0.00462963 </v>
   <v>       0.00462963 </v>
   <v>       0.00462963 </v>
   <v>       0.00462963 </v>
   <v>       0.00462963 </v>
   <v>       0.00462963 </v>
   <v>       0.00462963 </v>
   <v>       0.00462963 </v>
   <v>       0.00462963 </v>
   <v>       0.00462963 </v>
   <v>       0.00231481 </v>
   <v>       0.00231481 </v>
   <v>       0.00462963 </v>
   <v>       0.00462963 </v>
   <v>       0.00462963 </v>
   <v>       0.00462963 </v>
   <v>       0.00462963 </v>
   <v>       0.00462963 </v>
   <v>       0.00462963 </v>
   <v>       0.00462963 </v>
   <v>       0.00462963 </v>
   <v>       0.00462963 </v>
   <v>       0.00462963 </v>
   <v>       0.00231481 </v>
   <v>       0.00231481 </v>
   <v>       0.00462963 </v>
   <v>       0.00462963 </v>
   <v>       0.00462963 </v>
   <v>       0.00462963 </v>
   <v>       0.00462963 </v>
   <v>       0.00462963 </v>
   <v>       0.00462963 </v>
   <v>       0.00462963 </v>
   <v>       0.00462963 </v>
   <v>       0.00462963 </v>
   <v>       0.00462963 </v>
   <v>       0.00231481 </v>
   <v>       0.00231481 </v>
   <v>       0.00462963 </v>
   <v>       0.00462963 </v>
   <v>       0.00462963 </v>
   <v>       0.00462963 </v>
   <v>       0.00462963 </v>
   <v>       0.00462963 </v>
   <v>       0.00462963 </v>
   <v>       0.00462963 </v>
   <v>       0.00462963 </v>
   <v>       0.00462963 </v>
   <v>       0.00462963 </v>
   <v>       0.00231481 </v>
   <v>       0.00231481 </v>
   <v>       0.00462963 </v>
   <v>       0.00462963 </v>
   <v>       0.00462963 </v>
   <v>       0.00462963 </v>
   <v>       0.00462963 </v>
   <v>       0.00462963 </v>
   <v>       0.00462963 </v>
   <v>       0.00462963 </v>
   <v>       0.00462963 </v>
   <v>       0.00462963 </v>
   <v>       0.00462963 </v>
   <v>       0.00231481 </v>
   <v>       0.00231481 </v>
   <v>       0.00462963 </v>
   <v>       0.00462963 </v>
   <v>       0.00462963 </v>
   <v>       0.00462963 </v>
   <v>       0.00462963 </v>
   <v>       0.00462963 </v>
   <v>       0.00462963 </v>
   <v>       0.00462963 </v>
   <v>       0.00462963 </v>
   <v>       0.00462963 </v>
   <v>       0.00462963 </v>
   <v>       0.00231481 </v>
   <v>       0.00231481 </v>
   <v>       0.00462963 </v>
   <v>       0.00462963 </v>
   <v>       0.00462963 </v>
   <v>       0.00462963 </v>
   <v>       0.00462963 </v>
   <v>       0.00462963 </v>
   <v>       0.00462963 </v>
   <v>       0.00462963 </v>
   <v>       0.00462963 </v>
   <v>       0.00462963 </v>
   <v>       0.00462963 </v>
   <v>       0.00231481 </v>
   <v>       0.00115741 </v>
   <v>       0.00231481 </v>
   <v>       0.00231481 </v>
   <v>       0.00231481 </v>
   <v>       0.00231481 </v>
   <v>       0.00231481 </v>
   <v>       0.00231481 </v>
   <v>       0.00231481 </v>
   <v>       0.00231481 </v>
   <v>       0.00231481 </v>
   <v>       0.00231481 </v>
   <v>       0.00231481 </v>
   <v>       0.00115741 </v>
  </varray>
 </kpoints>
 <parameters>
  <separator name="general" >
   <i type="string" name="SYSTEM">gr</i>
   <i type="logical" name="LCOMPAT"> F  </i>
  </separator>
  <separator name="electronic" >
   <i type="string" name="PREC">accura</i>
   <i name="ENMAX">   2000.00000000</i>
   <i name="ENAUG">    644.87300000</i>
   <i name="EDIFF">      0.00000000</i>
   <i type="int" name="IALGO">    68</i>
   <i type="int" name="IWAVPR">    11</i>
   <i type="int" name="NBANDS">    12</i>
   <i name="NELECT">     16.00000000</i>
   <i type="int" name="TURBO">     0</i>
   <i type="int" name="IRESTART">     0</i>
   <i type="int" name="NREBOOT">     0</i>
   <i type="int" name="NMIN">     0</i>
   <i name="EREF">      0.00000000</i>
   <separator name="electronic smearing" >
    <i type="int" name="ISMEAR">     0</i>
    <i name="SIGMA">      0.05000000</i>
    <i name="KSPACING">      0.50000000</i>
    <i type="logical" name="KGAMMA"> T  </i>
   </separator>
   <separator name="electronic projectors" >
    <i type="logical" name="LREAL"> F  </i>
    <v name="ROPT">      0.00000000</v>
    <i type="int" name="LMAXPAW">  -100</i>
    <i type="int" name="LMAXMIX">     2</i>
    <i type="logical" name="NLSPLINE"> F  </i>
   </separator>
   <separator name="electronic startup" >
    <i type="int" name="ISTART">     0</i>
    <i type="int" name="ICHARG">     2</i>
    <i type="int" name="INIWAV">     1</i>
   </separator>
   <separator name="electronic spin" >
    <i type="int" name="ISPIN">     1</i>
    <i type="logical" name="LNONCOLLINEAR"> F  </i>
    <v name="MAGMOM">      1.00000000      1.00000000      1.00000000      1.00000000</v>
    <i name="NUPDOWN">     -1.00000000</i>
    <i type="logical" name="LSORBIT"> F  </i>
    <v name="SAXIS">      0.00000000      0.00000000      1.00000000</v>
    <i type="logical" name="LSPIRAL"> F  </i>
    <v name="QSPIRAL">      0.00000000      0.00000000      0.00000000</v>
    <i type="logical" name="LZEROZ"> F  </i>
   </separator>
   <separator name="electronic exchange-correlation" >
    <i type="logical" name="LASPH"> F  </i>
    <i type="logical" name="LMETAGGA"> F  </i>
   </separator>
   <separator name="electronic convergence" >
    <i type="int" name="NELM">   100</i>
    <i type="int" name="NELMDL">    -3</i>
    <i type="int" name="NELMIN">     5</i>
    <i name="ENINI">   2000.00000000</i>
    <separator name="electronic convergence detail" >
     <i type="logical" name="LDIAG"> T  </i>
     <i type="logical" name="LSUBROT"> F  </i>
     <i name="WEIMIN">      0.00100000</i>
     <i name="EBREAK">      0.00000000</i>
     <i name="DEPER">      0.30000000</i>
     <i type="int" name="NRMM">     4</i>
     <i name="TIME">      0.40000000</i>
    </separator>
   </separator>
   <separator name="electronic mixer" >
    <i name="AMIX">      0.40000000</i>
    <i name="BMIX">      1.00000000</i>
    <i name="AMIN">      0.10000000</i>
    <i name="AMIX_MAG">      1.60000000</i>
    <i name="BMIX_MAG">      1.00000000</i>
    <separator name="electronic mixer details" >
     <i type="int" name="IMIX">     4</i>
     <i type="int" name="MAXMIX">   -45</i>
     <i name="WC">    100.00000000</i>
     <i type="int" name="INIMIX">     1</i>
     <i type="int" name="MIXPRE">     1</i>
     <i type="int" name="MREMOVE">     5</i>
    </separator>
   </separator>
   <separator name="electronic dipolcorrection" >
    <i type="logical" name="LDIPOL"> F  </i>
    <i type="logical" name="LMONO"> F  </i>
    <i type="int" name="IDIPOL">     0</i>
    <i name="EPSILON">      1.00000000</i>
    <v name="DIPOL">   -100.00000000   -100.00000000   -100.00000000</v>
    <i name="EFIELD">      0.00000000</i>
   </separator>
  </separator>
  <separator name="grids" >
   <i type="int" name="NGX">    64</i>
   <i type="int" name="NGY">    36</i>
   <i type="int" name="NGZ">   288</i>
   <i type="int" name="NGXF">   128</i>
   <i type="int" name="NGYF">    72</i>
   <i type="int" name="NGZF">   576</i>
   <i type="logical" name="ADDGRID"> F  </i>
  </separator>
  <separator name="ionic" >
   <i type="int" name="NSW">   400</i>
   <i type="int" name="IBRION">     1</i>
   <i type="int" name="ISIF">     2</i>
   <i name="PSTRESS">      0.00000000</i>
   <i name="EDIFFG">     -0.00000100</i>
   <i type="int" name="NFREE">     0</i>
   <i name="POTIM">      0.50000000</i>
   <i name="SMASS">     -3.00000000</i>
   <i name="SCALEE">      1.00000000</i>
  </separator>
  <separator name="ionic md" >
   <i name="TEBEG">      0.00010000</i>
   <i name="TEEND">      0.00010000</i>
   <i type="int" name="NBLOCK">     1</i>
   <i type="int" name="KBLOCK">   400</i>
   <i type="int" name="NPACO">   256</i>
   <i name="APACO">     16.00000000</i>
  </separator>
  <separator name="symmetry" >
   <i type="int" name="ISYM">     2</i>
   <i name="SYMPREC">      0.00001000</i>
  </separator>
  <separator name="dos" >
   <i type="logical" name="LORBIT"> F  </i>
   <v name="RWIGS">     -1.00000000</v>
   <i type="int" name="NEDOS">   301</i>
   <i name="EMIN">     10.00000000</i>
   <i name="EMAX">    -10.00000000</i>
   <i name="EFERMI">      0.00000000</i>
  </separator>
  <separator name="writing" >
   <i type="int" name="NWRITE">     2</i>
   <i type="logical" name="LWAVE"> F  </i>
   <i type="logical" name="LCHARG"> F  </i>
   <i type="logical" name="LPARD"> F  </i>
   <i type="logical" name="LVTOT"> F  </i>
   <i type="logical" name="LVHAR"> F  </i>
   <i type="logical" name="LELF"> F  </i>
   <i type="logical" name="LOPTICS"> F  </i>
   <v name="STM">      0.00000000      0.00000000      0.00000000      0.00000000      0.00000000      0.00000000      0.00000000</v>
  </separator>
  <separator name="performance" >
   <i type="int" name="NPAR">     4</i>
   <i type="int" name="NSIM">     4</i>
   <i type="int" name="NBLK">    -1</i>
   <i type="logical" name="LPLANE"> T  </i>
   <i type="logical" name="LSCALAPACK"> F  </i>
   <i type="logical" name="LSCAAWARE"> F  </i>
   <i type="logical" name="LSCALU"> F  </i>
   <i type="logical" name="LASYNC"> F  </i>
   <i type="logical" name="LORBITALREAL"> F  </i>
  </separator>
  <separator name="miscellaneous" >
   <i type="int" name="IDIOT">     3</i>
   <i type="logical" name="LMUSIC"> F  </i>
   <v name="POMASS">     12.01100000</v>
   <v name="DARWINR">      0.00000000</v>
   <v name="DARWINV">      1.00000000</v>
   <i type="logical" name="LCORR"> T  </i>
  </separator>
  <i type="logical" name="GGA_COMPAT"> T  </i>
  <i type="logical" name="LBERRY"> F  </i>
  <i type="int" name="ICORELEVEL">     0</i>
  <i type="logical" name="LDAU"> F  </i>
  <i type="int" name="I_CONSTRAINED_M">     0</i>
  <separator name="electronic exchange-correlation" >
   <i type="string" name="GGA">--</i>
   <i type="int" name="VOSKOWN">     0</i>
   <i type="logical" name="LHFCALC"> F  </i>
   <i type="string" name="PRECFOCK"></i>
   <i type="logical" name="LSYMGRAD"> F  </i>
   <i type="logical" name="LHFONE"> F  </i>
   <i type="logical" name="LRHFCALC"> F  </i>
   <i type="logical" name="LTHOMAS"> F  </i>
   <i type="logical" name="LMODELHF"> F  </i>
   <i name="ENCUT4O">     -1.00000000</i>
   <i type="int" name="EXXOEP">     0</i>
   <i type="int" name="FOURORBIT">     0</i>
   <i name="AEXX">      0.00000000</i>
   <i name="HFALPHA">      0.00000000</i>
   <i name="MCALPHA">      0.00000000</i>
   <i name="ALDAX">      1.00000000</i>
   <i name="AGGAX">      1.00000000</i>
   <i name="ALDAC">      1.00000000</i>
   <i name="AGGAC">      1.00000000</i>
   <i type="int" name="NKREDX">     1</i>
   <i type="int" name="NKREDY">     1</i>
   <i type="int" name="NKREDZ">     1</i>
   <i type="logical" name="SHIFTRED"> F  </i>
   <i type="logical" name="ODDONLY"> F  </i>
   <i type="logical" name="EVENONLY"> F  </i>
   <i type="int" name="LMAXFOCK">     0</i>
   <i type="int" name="NMAXFOCKAE">     0</i>
   <i type="logical" name="LFOCKAEDFT"> F  </i>
   <i name="HFSCREEN">      0.00000000</i>
   <i name="HFSCREENC">      0.00000000</i>
   <i type="int" name="NBANDSGWLOW">     0</i>
  </separator>
  <separator name="vdW DFT" >
   <i type="logical" name="LUSE_VDW"> F  </i>
   <i name="Zab_VDW">     -0.84910000</i>
   <i name="PARAM1">      0.12340000</i>
   <i name="PARAM2">      1.00000000</i>
   <i name="PARAM3">      0.00000000</i>
  </separator>
  <separator name="model GW" >
   <i type="int" name="MODEL_GW">     0</i>
   <i name="MODEL_EPS0">     31.62568521</i>
   <i name="MODEL_ALPHA">      1.00000000</i>
  </separator>
  <separator name="linear response parameters" >
   <i type="logical" name="LEPSILON"> F  </i>
   <i type="logical" name="LRPA"> F  </i>
   <i type="logical" name="LNABLA"> F  </i>
   <i type="logical" name="LVEL"> F  </i>
   <i type="int" name="KINTER">     0</i>
   <i name="CSHIFT">      0.10000000</i>
   <i name="OMEGAMAX">     -1.00000000</i>
   <i name="DEG_THRESHOLD">      0.00200000</i>
  </separator>
  <separator name="orbital magnetization" >
   <i type="logical" name="NUCIND"> F  </i>
   <v name="MAGPOS">      0.00000000      0.00000000      0.00000000</v>
   <i type="logical" name="LNICSALL"> T  </i>
   <i type="logical" name="ORBITALMAG"> F  </i>
   <i type="logical" name="LMAGBLOCH"> F  </i>
   <i type="logical" name="LCHIMAG"> F  </i>
   <i type="logical" name="LGAUGE"> T  </i>
   <i type="int" name="MAGATOM">     0</i>
   <v name="MAGDIPOL">      0.00000000      0.00000000      0.00000000</v>
   <v name="AVECCONST">      0.00000000      0.00000000      0.00000000</v>
  </separator>
  <separator name="response functions" >
   <i type="logical" name="LADDER"> F  </i>
   <i type="logical" name="LFXC"> F  </i>
   <i type="logical" name="LHARTREE"> T  </i>
   <i type="int" name="IBSE">     0</i>
   <i type="logical" name="LTCTE"> F  </i>
   <i type="logical" name="LTETE"> F  </i>
   <i type="logical" name="LTRIPLET"> F  </i>
   <i type="logical" name="LFXCEPS"> F  </i>
   <i type="logical" name="LFXHEG"> F  </i>
   <i type="logical" name="L2ORDER"> F  </i>
   <i type="logical" name="LUSEW"> F  </i>
   <i name="ENCUTGW">     -2.00000000</i>
   <i name="ENCUTGWSOFT">     -2.00000000</i>
   <i name="ENCUTLF">     -1.00000000</i>
   <i type="int" name="LMAXMP2">    -1</i>
   <i name="SCISSOR">      0.00000000</i>
   <i type="int" name="NOMEGA">     0</i>
   <i type="int" name="NOMEGAR">     0</i>
   <i type="int" name="NBANDSGW">    -1</i>
   <i type="int" name="NBANDSO">    -1</i>
   <i type="int" name="NBANDSV">    -1</i>
   <i type="int" name="NELM">   100</i>
   <i type="int" name="DIM">     3</i>
   <i type="int" name="ANTIRES">     0</i>
   <i name="OMEGAMAX">    -30.00000000</i>
   <i name="OMEGAMIN">    -30.00000000</i>
   <i name="OMEGATL">   -200.00000000</i>
   <i type="int" name="OMEGAGRID">     0</i>
   <i name="CSHIFT">     -0.10000000</i>
   <i type="logical" name="SELFENERGY"> F  </i>
   <i type="logical" name="LSPECTRAL"> F  </i>
   <i type="logical" name="ODDONLYGW"> F  </i>
   <i type="logical" name="EVENONLYGW"> F  </i>
   <i type="int" name="NKREDLFX">     1</i>
   <i type="int" name="NKREDLFY">     1</i>
   <i type="int" name="NKREDLFZ">     1</i>
   <i type="int" name="MAXMEM">  1800</i>
   <i type="int" name="TELESCOPE">     0</i>
   <i type="int" name="TAUPAR">     1</i>
  </separator>
  <separator name="External order field" >
   <i name="OFIELD_KAPPA">      0.00000000</i>
   <v name="OFIELD_K">      0.00000000      0.00000000      0.00000000</v>
   <i name="OFIELD_Q6_NEAR">      0.00000000</i>
   <i name="OFIELD_Q6_FAR">      0.00000000</i>
   <i name="OFIELD_A">      0.00000000</i>
  </separator>
 </parameters>
 <atominfo>
  <atoms>       4 </atoms>
  <types>       1 </types>
  <array name="atoms" >
   <dimension dim="1">ion</dimension>
   <field type="string">element</field>
   <field type="int">atomtype</field>
   <set>
    <rc><c>C </c><c>   1</c></rc>
    <rc><c>C </c><c>   1</c></rc>
    <rc><c>C </c><c>   1</c></rc>
    <rc><c>C </c><c>   1</c></rc>
   </set>
  </array>
  <array name="atomtypes" >
   <dimension dim="1">type</dimension>
   <field type="int">atomspertype</field>
   <field type="string">element</field>
   <field>mass</field>
   <field>valence</field>
   <field type="string">pseudopotential</field>
   <set>
    <rc><c>   4</c><c>C </c><c>     12.01100000</c><c>      4.00000000</c><c> PAW_PBE C 08Apr2002                    </c></rc>
   </set>
  </array>
 </atominfo>
 <structure name="initialpos" >
  <crystal>
   <varray name="basis" >
    <v>       4.35851487       0.00000000       0.00000000 </v>
    <v>       0.00000000       2.45900751       0.00000000 </v>
    <v>       0.00000000       0.00000000      19.67208074 </v>
   </varray>
   <i name="volume">    210.83790140 </i>
   <varray name="rec_basis" >
    <v>       0.22943595       0.00000000       0.00000000 </v>
    <v>       0.00000000       0.40666814       0.00000000 </v>
    <v>       0.00000000       0.00000000       0.05083346 </v>
   </varray>
  </crystal>
  <varray name="positions" >
   <v>       0.99954297       0.00000000       0.00000000 </v>
   <v>       0.16712369       0.50000000       0.00000000 </v>
   <v>       0.49954297       0.50000000       0.00000000 </v>
   <v>       0.66712369       0.00000000       0.00000000 </v>
  </varray>
 </structure>
 <calculation>
  <scstep>
   <time name="dav">  290.19  291.96</time>
   <time name="total">  292.79  294.60</time>
   <energy>
    <i name="alphaZ">      6.18334092 </i>
    <i name="ewald">   2476.61674393 </i>
    <i name="hartreedc">  -2905.29711095 </i>
    <i name="XCdc">     54.87324727 </i>
    <i name="pawpsdc">    151.32577238 </i>
    <i name="pawaedc">   -155.92769107 </i>
    <i name="eentropy">     -0.00153843 </i>
    <i name="bandstr">    -29.72130253 </i>
    <i name="atom">    588.62352690 </i>
    <i name="e_fr_energy">    186.67498844 </i>
    <i name="e_wo_entrp">    186.67652686 </i>
    <i name="e_0_energy">    186.67575765 </i>
   </energy>
  </scstep>
  <scstep>
   <time name="dav">  446.24  448.57</time>
   <time name="total">  446.24  448.58</time>
   <energy>
    <i name="e_fr_energy">     -9.27783676 </i>
    <i name="e_wo_entrp">     -9.27753368 </i>
    <i name="e_0_energy">     -9.27768522 </i>
   </energy>
  </scstep>
  <scstep>
   <time name="dav">  336.23  338.29</time>
   <time name="total">  366.14  368.25</time>
   <energy>
    <i name="e_fr_energy">    -38.18296011 </i>
    <i name="e_wo_entrp">    -38.18296006 </i>
    <i name="e_0_energy">    -38.18296008 </i>
   </energy>
  </scstep>
  <scstep>
   <time name="diag">   78.31   78.65</time>
   <time name="diis">  334.83  336.53</time>
   <time name="orth">    3.08    3.08</time>
   <time name="total">  448.28  450.60</time>
   <energy>
    <i name="e_fr_energy">    -37.61003416 </i>
    <i name="e_wo_entrp">    -37.61003400 </i>
    <i name="e_0_energy">    -37.61003408 </i>
   </energy>
  </scstep>
  <scstep>
   <time name="diag">   78.61   78.78</time>
   <time name="diis">  331.58  333.84</time>
   <time name="orth">    3.09    3.10</time>
   <time name="total">  445.28  448.17</time>
   <energy>
    <i name="e_fr_energy">    -36.89152486 </i>
    <i name="e_wo_entrp">    -36.89152433 </i>
    <i name="e_0_energy">    -36.89152460 </i>
   </energy>
  </scstep>
  <scstep>
   <time name="diag">   77.98   78.65</time>
   <time name="diis">  362.64  364.94</time>
   <time name="orth">    3.09    3.10</time>
   <time name="total">  475.19  478.53</time>
   <energy>
    <i name="e_fr_energy">    -36.89364658 </i>
    <i name="e_wo_entrp">    -36.89364608 </i>
    <i name="e_0_energy">    -36.89364633 </i>
   </energy>
  </scstep>
  <scstep>
   <time name="diag">   77.92   78.69</time>
   <time name="diis">  332.47  335.66</time>
   <time name="orth">    3.07    3.10</time>
   <time name="total">  445.21  449.49</time>
   <energy>
    <i name="e_fr_energy">    -36.88463702 </i>
    <i name="e_wo_entrp">    -36.88463663 </i>
    <i name="e_0_energy">    -36.88463683 </i>
   </energy>
  </scstep>
  <scstep>
   <time name="diag">   77.99   78.68</time>
   <time name="diis">  331.75  334.14</time>
   <time name="orth">    3.09    3.09</time>
   <time name="total">  444.63  448.10</time>
   <energy>
    <i name="e_fr_energy">    -36.87968734 </i>
    <i name="e_wo_entrp">    -36.87968692 </i>
    <i name="e_0_energy">    -36.87968713 </i>
   </energy>
  </scstep>
  <scstep>
   <time name="diag">   77.90   78.64</time>
   <time name="diis">  314.90  317.71</time>
   <time name="orth">    3.07    3.07</time>
   <time name="total">  427.71  431.49</time>
   <energy>
    <i name="e_fr_energy">    -36.87939885 </i>
    <i name="e_wo_entrp">    -36.87939837 </i>
    <i name="e_0_energy">    -36.87939861 </i>
   </energy>
  </scstep>
  <scstep>
   <time name="diag">   78.51   78.64</time>
   <time name="diis">  318.33  318.76</time>
   <time name="orth">    3.09    3.10</time>
   <time name="total">  431.93  432.54</time>
   <energy>
    <i name="e_fr_energy">    -36.87932323 </i>
    <i name="e_wo_entrp">    -36.87932279 </i>
    <i name="e_0_energy">    -36.87932301 </i>
   </energy>
  </scstep>
  <scstep>
   <time name="diag">   78.33   78.63</time>
   <time name="diis">  317.06  320.28</time>
   <time name="orth">    3.08    3.09</time>
   <time name="total">  430.44  434.26</time>
   <energy>
    <i name="e_fr_energy">    -36.88166328 </i>
    <i name="e_wo_entrp">    -36.88166285 </i>
    <i name="e_0_energy">    -36.88166306 </i>
   </energy>
  </scstep>
  <scstep>
   <time name="diag">   78.11   78.63</time>
   <time name="diis">  317.13  320.06</time>
   <time name="orth">    3.08    3.09</time>
   <time name="total">  430.33  434.07</time>
   <energy>
    <i name="e_fr_energy">    -36.88215239 </i>
    <i name="e_wo_entrp">    -36.88215195 </i>
    <i name="e_0_energy">    -36.88215217 </i>
   </energy>
  </scstep>
  <scstep>
   <time name="diag">   77.96   78.59</time>
   <time name="diis">  323.12  326.03</time>
   <time name="orth">    3.08    3.09</time>
   <time name="total">  435.85  439.65</time>
   <energy>
    <i name="e_fr_energy">    -36.88239682 </i>
    <i name="e_wo_entrp">    -36.88239637 </i>
    <i name="e_0_energy">    -36.88239659 </i>
   </energy>
  </scstep>
  <scstep>
   <time name="diag">   78.55   78.57</time>
   <time name="diis">  320.51  320.59</time>
   <time name="orth">    3.07    3.07</time>
   <time name="total">  433.67  433.79</time>
   <energy>
    <i name="e_fr_energy">    -36.88247958 </i>
    <i name="e_wo_entrp">    -36.88247914 </i>
    <i name="e_0_energy">    -36.88247936 </i>
   </energy>
  </scstep>
  <scstep>
   <time name="diag">   78.56   78.58</time>
   <time name="diis">  318.49  318.56</time>
   <time name="orth">    3.09    3.09</time>
   <time name="total">  431.67  432.04</time>
   <energy>
    <i name="e_fr_energy">    -36.88249163 </i>
    <i name="e_wo_entrp">    -36.88249118 </i>
    <i name="e_0_energy">    -36.88249141 </i>
   </energy>
  </scstep>
  <scstep>
   <time name="diag">   78.51   78.56</time>
   <time name="diis">  315.96  316.03</time>
   <time name="orth">    3.09    3.09</time>
   <time name="total">  428.91  429.06</time>
   <energy>
    <i name="e_fr_energy">    -36.88250400 </i>
    <i name="e_wo_entrp">    -36.88250355 </i>
    <i name="e_0_energy">    -36.88250378 </i>
   </energy>
  </scstep>
  <scstep>
   <time name="diag">   78.49   78.53</time>
   <time name="diis">  316.19  317.01</time>
   <time name="orth">    3.09    3.09</time>
   <time name="total">  429.12  430.01</time>
   <energy>
    <i name="e_fr_energy">    -36.88250979 </i>
    <i name="e_wo_entrp">    -36.88250934 </i>
    <i name="e_0_energy">    -36.88250957 </i>
   </energy>
  </scstep>
  <scstep>
   <time name="diag">   78.55   78.56</time>
   <time name="diis">  318.60  318.71</time>
   <time name="orth">    3.11    3.11</time>
   <time name="total">  431.49  431.65</time>
   <energy>
    <i name="e_fr_energy">    -36.88251080 </i>
    <i name="e_wo_entrp">    -36.88251035 </i>
    <i name="e_0_energy">    -36.88251058 </i>
   </energy>
  </scstep>
  <scstep>
   <time name="diag">   78.35   78.37</time>
   <time name="diis">  325.42  325.48</time>
   <time name="orth">    3.09    3.09</time>
   <time name="total">  437.99  438.11</time>
   <energy>
    <i name="e_fr_energy">    -36.88251158 </i>
    <i name="e_wo_entrp">    -36.88251113 </i>
    <i name="e_0_energy">    -36.88251135 </i>
   </energy>
  </scstep>
  <scstep>
   <time name="diag">   78.46   78.52</time>
   <time name="diis">  247.22  247.27</time>
   <time name="orth">    3.09    3.09</time>
   <time name="total">  360.24  361.07</time>
   <energy>
    <i name="e_fr_energy">    -36.88251162 </i>
    <i name="e_wo_entrp">    -36.88251117 </i>
    <i name="e_0_energy">    -36.88251140 </i>
   </energy>
  </scstep>
  <scstep>
   <time name="diag">   78.47   78.49</time>
   <time name="diis">  239.22  239.33</time>
   <time name="orth">    3.07    3.07</time>
   <time name="total">  352.30  352.48</time>
   <energy>
    <i name="e_fr_energy">    -36.88251163 </i>
    <i name="e_wo_entrp">    -36.88251119 </i>
    <i name="e_0_energy">    -36.88251141 </i>
   </energy>
  </scstep>
  <scstep>
   <time name="diag">   78.37   78.44</time>
   <time name="diis">  218.81  218.97</time>
   <time name="orth">    3.09    3.09</time>
   <time name="total">  331.48  331.75</time>
   <energy>
    <i name="e_fr_energy">    -36.88251163 </i>
    <i name="e_wo_entrp">    -36.88251119 </i>
    <i name="e_0_energy">    -36.88251141 </i>
   </energy>
  </scstep>
  <scstep>
   <time name="diag">   78.36   78.42</time>
   <time name="diis">  208.08  208.24</time>
   <time name="orth">    3.09    3.09</time>
   <time name="total">  321.06  321.31</time>
   <energy>
    <i name="e_fr_energy">    -36.88251163 </i>
    <i name="e_wo_entrp">    -36.88251119 </i>
    <i name="e_0_energy">    -36.88251141 </i>
   </energy>
  </scstep>
  <scstep>
   <time name="diag">   78.38   78.43</time>
   <time name="diis">  195.41  195.57</time>
   <time name="orth">    3.09    3.09</time>
   <time name="total">  279.38  279.61</time>
   <energy>
    <i name="alphaZ">      6.18334092 </i>
    <i name="ewald">   2476.61674393 </i>
    <i name="hartreedc">  -2970.83524456 </i>
    <i name="XCdc">     57.21791364 </i>
    <i name="pawpsdc">    270.44995101 </i>
    <i name="pawaedc">   -275.56877348 </i>
    <i name="eentropy">     -0.00000044 </i>
    <i name="bandstr">   -189.56996956 </i>
    <i name="atom">    588.62352690 </i>
    <i name="e_fr_energy">    -36.88251163 </i>
    <i name="e_wo_entrp">    -36.88251119 </i>
    <i name="e_0_energy">    -36.88251141 </i>
   </energy>
  </scstep>
  <structure>
   <crystal>
    <varray name="basis" >
     <v>       4.35851487       0.00000000       0.00000000 </v>
     <v>       0.00000000       2.45900751       0.00000000 </v>
     <v>       0.00000000       0.00000000      19.67208074 </v>
    </varray>
    <i name="volume">    210.83790140 </i>
    <varray name="rec_basis" >
     <v>       0.22943595       0.00000000       0.00000000 </v>
     <v>       0.00000000       0.40666814       0.00000000 </v>
     <v>       0.00000000       0.00000000       0.05083346 </v>
    </varray>
   </crystal>
   <varray name="positions" >
    <v>       0.99954297       0.00000000       0.00000000 </v>
    <v>       0.16712369       0.50000000       0.00000000 </v>
    <v>       0.49954297       0.50000000       0.00000000 </v>
    <v>       0.66712369       0.00000000       0.00000000 </v>
   </varray>
  </structure>
  <varray name="forces" >
   <v>       0.00122797      -0.00000000       0.00000000 </v>
   <v>      -0.00122797      -0.00000000      -0.00000000 </v>
   <v>       0.00122797      -0.00000000       0.00000000 </v>
   <v>      -0.00122797       0.00000000      -0.00000000 </v>
  </varray>
  <varray name="stress" >
   <v>     -33.01906587       0.00000000       0.00000000 </v>
   <v>       0.00000000      -0.00997034       0.00000000 </v>
   <v>       0.00000000       0.00000000      -0.01028448 </v>
  </varray>
  <energy>
   <i name="e_fr_energy">    -36.88251163 </i>
   <i name="e_wo_entrp">    -36.88251141 </i>
   <i name="e_0_energy">     -0.00000044 </i>
  </energy>
  <time name="totalsc"> 9855.53 9897.70</time>
 </calculation>
 <calculation>
  <scstep>
   <time name="dav">  304.71  305.04</time>
   <time name="total">  335.84  336.18</time>
   <energy>
    <i name="alphaZ">      6.18334092 </i>
    <i name="ewald">   2476.61775927 </i>
    <i name="hartreedc">  -2970.83570186 </i>
    <i name="XCdc">     57.21794305 </i>
    <i name="pawpsdc">    270.44996116 </i>
    <i name="pawaedc">   -275.56878380 </i>
    <i name="eentropy">     -0.00000041 </i>
    <i name="bandstr">   -189.57055645 </i>
    <i name="atom">    588.62352690 </i>
    <i name="e_fr_energy">    -36.88251122 </i>
    <i name="e_wo_entrp">    -36.88251081 </i>
    <i name="e_0_energy">    -36.88251101 </i>
   </energy>
  </scstep>
  <scstep>
   <time name="diag">   78.55   78.59</time>
   <time name="diis">  317.63  317.90</time>
   <time name="orth">    3.09    3.10</time>
   <time name="total">  431.18  431.56</time>
   <energy>
    <i name="e_fr_energy">    -36.88251125 </i>
    <i name="e_wo_entrp">    -36.88251084 </i>
    <i name="e_0_energy">    -36.88251104 </i>
   </energy>
  </scstep>
  <scstep>
   <time name="diag">   78.51   78.54</time>
   <time name="diis">  319.54  320.38</time>
   <time name="orth">    3.10    3.10</time>
   <time name="total">  432.56  433.47</time>
   <energy>
    <i name="e_fr_energy">    -36.88251124 </i>
    <i name="e_wo_entrp">    -36.88251083 </i>
    <i name="e_0_energy">    -36.88251103 </i>
   </energy>
  </scstep>
  <scstep>
   <time name="diag">   78.50   78.52</time>
   <time name="diis">  323.98  325.97</time>
   <time name="orth">    3.09    3.10</time>
   <time name="total">  437.18  439.29</time>
   <energy>
    <i name="e_fr_energy">    -36.88251123 </i>
    <i name="e_wo_entrp">    -36.88251082 </i>
    <i name="e_0_energy">    -36.88251103 </i>
   </energy>
  </scstep>
  <scstep>
   <time name="diag">   78.37   78.53</time>
   <time name="diis">  253.30  254.00</time>
   <time name="orth">    3.10    3.10</time>
   <time name="total">  365.69  366.73</time>
   <energy>
    <i name="e_fr_energy">    -36.88251124 </i>
    <i name="e_wo_entrp">    -36.88251082 </i>
    <i name="e_0_energy">    -36.88251103 </i>
   </energy>
  </scstep>
  <scstep>
   <time name="diag">   78.09   78.54</time>
   <time name="diis">  209.46  211.16</time>
   <time name="orth">    3.07    3.10</time>
   <time name="total">  321.69  324.16</time>
   <energy>
    <i name="e_fr_energy">    -36.88251124 </i>
    <i name="e_wo_entrp">    -36.88251082 </i>
    <i name="e_0_energy">    -36.88251103 </i>
   </energy>
  </scstep>
  <scstep>
   <time name="diag">   77.78   78.50</time>
   <time name="diis">  208.77  211.20</time>
   <time name="orth">    3.09    3.09</time>
   <time name="total">  321.28  324.76</time>
   <energy>
    <i name="e_fr_energy">    -36.88251124 </i>
    <i name="e_wo_entrp">    -36.88251082 </i>
    <i name="e_0_energy">    -36.88251103 </i>
   </energy>
  </scstep>
  <scstep>
   <time name="diag">   78.70   78.71</time>
   <time name="diis">  195.82  195.86</time>
   <time name="orth">    3.09    3.09</time>
   <time name="total">  308.88  308.96</time>
   <energy>
    <i name="e_fr_energy">    -36.88251124 </i>
    <i name="e_wo_entrp">    -36.88251082 </i>
    <i name="e_0_energy">    -36.88251103 </i>
   </energy>
  </scstep>
  <scstep>
   <time name="diag">   78.57   78.63</time>
   <time name="diis">  189.42  189.48</time>
   <time name="orth">    3.08    3.08</time>
   <time name="total">  302.59  303.14</time>
   <energy>
    <i name="e_fr_energy">    -36.88251124 </i>
    <i name="e_wo_entrp">    -36.88251082 </i>
    <i name="e_0_energy">    -36.88251103 </i>
   </energy>
  </scstep>
  <scstep>
   <time name="diag">   78.66   78.68</time>
   <time name="diis">  180.69  180.75</time>
   <time name="orth">    3.07    3.09</time>
   <time name="total">  264.94  265.03</time>
   <energy>
    <i name="alphaZ">      6.18334092 </i>
    <i name="ewald">   2476.61775927 </i>
    <i name="hartreedc">  -2970.83612206 </i>
    <i name="XCdc">     57.21796007 </i>
    <i name="pawpsdc">    270.45169583 </i>
    <i name="pawaedc">   -275.57052603 </i>
    <i name="eentropy">     -0.00000041 </i>
    <i name="bandstr">   -189.57014572 </i>
    <i name="atom">    588.62352690 </i>
    <i name="e_fr_energy">    -36.88251124 </i>
    <i name="e_wo_entrp">    -36.88251082 </i>
    <i name="e_0_energy">    -36.88251103 </i>
   </energy>
  </scstep>
  <structure>
   <crystal>
    <varray name="basis" >
     <v>       4.35851487       0.00000000       0.00000000 </v>
     <v>       0.00000000       2.45900751       0.00000000 </v>
     <v>       0.00000000       0.00000000      19.67208074 </v>
    </varray>
    <i name="volume">    210.83790140 </i>
    <varray name="rec_basis" >
     <v>       0.22943595       0.00000000       0.00000000 </v>
     <v>       0.00000000       0.40666814       0.00000000 </v>
     <v>       0.00000000       0.00000000       0.05083346 </v>
    </varray>
   </crystal>
   <varray name="positions" >
    <v>       0.99955656      -0.00000000       0.00000000 </v>
    <v>       0.16711010       0.50000000      -0.00000000 </v>
    <v>       0.49955656       0.50000000       0.00000000 </v>
    <v>       0.66711010       0.00000000      -0.00000000 </v>
   </varray>
  </structure>
  <varray name="forces" >
   <v>      -0.00466444       0.00000000      -0.00000000 </v>
   <v>       0.00466444      -0.00000000       0.00000000 </v>
   <v>      -0.00466444      -0.00000000      -0.00000000 </v>
   <v>       0.00466444      -0.00000000       0.00000000 </v>
  </varray>
  <varray name="stress" >
   <v>     -33.03072324       0.00000000       0.00000000 </v>
   <v>       0.00000000       0.00956984       0.00000000 </v>
   <v>       0.00000000       0.00000000      -0.01025581 </v>
  </varray>
  <energy>
   <i name="e_fr_energy">    -36.88251124 </i>
   <i name="e_wo_entrp">    -36.88251103 </i>
   <i name="e_0_energy">     -0.00000041 </i>
  </energy>
  <time name="totalsc"> 3623.20 3635.86</time>
 </calculation>
 <calculation>
  <scstep>
   <time name="dav">  315.78  315.90</time>
   <time name="total">  347.07  347.20</time>
   <energy>
    <i name="alphaZ">      6.18334092 </i>
    <i name="ewald">   2476.61695512 </i>
    <i name="hartreedc">  -2970.83577110 </i>
    <i name="XCdc">     57.21793718 </i>
    <i name="pawpsdc">    270.45169609 </i>
    <i name="pawaedc">   -275.57052629 </i>
    <i name="eentropy">     -0.00000044 </i>
    <i name="bandstr">   -189.56967005 </i>
    <i name="atom">    588.62352690 </i>
    <i name="e_fr_energy">    -36.88251167 </i>
    <i name="e_wo_entrp">    -36.88251123 </i>
    <i name="e_0_energy">    -36.88251145 </i>
   </energy>
  </scstep>
  <scstep>
   <time name="diag">   78.63   78.64</time>
   <time name="diis">  317.98  318.13</time>
   <time name="orth">    3.10    3.10</time>
   <time name="total">  431.39  431.57</time>
   <energy>
    <i name="e_fr_energy">    -36.88251168 </i>
    <i name="e_wo_entrp">    -36.88251124 </i>
    <i name="e_0_energy">    -36.88251146 </i>
   </energy>
  </scstep>
  <scstep>
   <time name="diag">   78.56   78.58</time>
   <time name="diis">  318.78  318.84</time>
   <time name="orth">    3.10    3.10</time>
   <time name="total">  432.19  432.37</time>
   <energy>
    <i name="e_fr_energy">    -36.88251167 </i>
    <i name="e_wo_entrp">    -36.88251123 </i>
    <i name="e_0_energy">    -36.88251145 </i>
   </energy>
  </scstep>
  <scstep>
   <time name="diag">   78.60   78.68</time>
   <time name="diis">  325.58  326.55</time>
   <time name="orth">    3.08    3.10</time>
   <time name="total">  439.12  440.36</time>
   <energy>
    <i name="e_fr_energy">    -36.88251166 </i>
    <i name="e_wo_entrp">    -36.88251123 </i>
    <i name="e_0_energy">    -36.88251145 </i>
   </energy>
  </scstep>
  <scstep>
   <time name="diag">   78.27   78.67</time>
   <time name="diis">  230.13  230.93</time>
   <time name="orth">    3.10    3.10</time>
   <time name="total">  343.70  345.14</time>
   <energy>
    <i name="e_fr_energy">    -36.88251166 </i>
    <i name="e_wo_entrp">    -36.88251123 </i>
    <i name="e_0_energy">    -36.88251145 </i>
   </energy>
  </scstep>
  <scstep>
   <time name="diag">   78.62   78.64</time>
   <time name="diis">  210.44  210.74</time>
   <time name="orth">    3.09    3.10</time>
   <time name="total">  323.60  324.37</time>
   <energy>
    <i name="e_fr_energy">    -36.88251166 </i>
    <i name="e_wo_entrp">    -36.88251123 </i>
    <i name="e_0_energy">    -36.88251145 </i>
   </energy>
  </scstep>
  <scstep>
   <time name="diag">   78.25   78.66</time>
   <time name="diis">  208.02  208.27</time>
   <time name="orth">    3.07    3.07</time>
   <time name="total">  320.56  321.31</time>
   <energy>
    <i name="e_fr_energy">    -36.88251166 </i>
    <i name="e_wo_entrp">    -36.88251123 </i>
    <i name="e_0_energy">    -36.88251145 </i>
   </energy>
  </scstep>
  <scstep>
   <time name="diag">   78.61   78.63</time>
   <time name="diis">  192.22  192.25</time>
   <time name="orth">    3.07    3.07</time>
   <time name="total">  305.81  305.87</time>
   <energy>
    <i name="e_fr_energy">    -36.88251166 </i>
    <i name="e_wo_entrp">    -36.88251123 </i>
    <i name="e_0_energy">    -36.88251145 </i>
   </energy>
  </scstep>
  <scstep>
   <time name="diag">   78.60   78.64</time>
   <time name="diis">  182.80  182.85</time>
   <time name="orth">    3.10    3.10</time>
   <time name="total">  296.24  296.35</time>
   <energy>
    <i name="e_fr_energy">    -36.88251166 </i>
    <i name="e_wo_entrp">    -36.88251123 </i>
    <i name="e_0_energy">    -36.88251145 </i>
   </energy>
  </scstep>
  <scstep>
   <time name="diag">   78.36   78.65</time>
   <time name="diis">  174.66  175.16</time>
   <time name="orth">    3.07    3.08</time>
   <time name="total">  258.55  259.40</time>
   <energy>
    <i name="alphaZ">      6.18334092 </i>
    <i name="ewald">   2476.61695512 </i>
    <i name="hartreedc">  -2970.83543658 </i>
    <i name="XCdc">     57.21792355 </i>
    <i name="pawpsdc">    270.45032054 </i>
    <i name="pawaedc">   -275.56914475 </i>
    <i name="eentropy">     -0.00000044 </i>
    <i name="bandstr">   -189.56999694 </i>
    <i name="atom">    588.62352690 </i>
    <i name="e_fr_energy">    -36.88251166 </i>
    <i name="e_wo_entrp">    -36.88251123 </i>
    <i name="e_0_energy">    -36.88251145 </i>
   </energy>
  </scstep>
  <structure>
   <crystal>
    <varray name="basis" >
     <v>       4.35851487       0.00000000       0.00000000 </v>
     <v>       0.00000000       2.45900751       0.00000000 </v>
     <v>       0.00000000       0.00000000      19.67208074 </v>
    </varray>
    <i name="volume">    210.83790140 </i>
    <varray name="rec_basis" >
     <v>       0.22943595       0.00000000       0.00000000 </v>
     <v>       0.00000000       0.40666814       0.00000000 </v>
     <v>       0.00000000       0.00000000       0.05083346 </v>
    </varray>
   </crystal>
   <varray name="positions" >
    <v>       0.99954580      -0.00000000       0.00000000 </v>
    <v>       0.16712086       0.50000000      -0.00000000 </v>
    <v>       0.49954580       0.50000000       0.00000000 </v>
    <v>       0.66712086       0.00000000      -0.00000000 </v>
   </varray>
  </structure>
  <varray name="forces" >
   <v>       0.00000006      -0.00000000       0.00000000 </v>
   <v>      -0.00000006       0.00000000      -0.00000000 </v>
   <v>       0.00000006       0.00000000       0.00000000 </v>
   <v>      -0.00000006      -0.00000000      -0.00000000 </v>
  </varray>
  <varray name="stress" >
   <v>     -33.02150081       0.00000000       0.00000000 </v>
   <v>       0.00000000      -0.00586658       0.00000000 </v>
   <v>       0.00000000       0.00000000      -0.01030287 </v>
  </varray>
  <energy>
   <i name="e_fr_energy">    -36.88251166 </i>
   <i name="e_wo_entrp">    -36.88251145 </i>
   <i name="e_0_energy">     -0.00000044 </i>
  </energy>
  <time name="totalsc"> 3591.59 3608.28</time>
  <eigenvalues>
   <array>
    <dimension dim="1">band</dimension>
    <dimension dim="2">kpoint</dimension>
    <dimension dim="3">spin</dimension>
    <field>eigene</field>
    <field>occ</field>
    <set>
     <set comment="spin 1">
      <set comment="kpoint 1">
       <r>  -22.1156    1.0000 </r>
       <r>  -17.2120    1.0000 </r>
       <r>  -15.8627    1.0000 </r>
       <r>  -10.2523    1.0000 </r>
       <r>   -8.8735    1.0000 </r>
       <r>   -5.9648    1.0000 </r>
       <r>   -5.7377    1.0000 </r>
       <r>   -5.2913    1.0000 </r>
       <r>   -1.1656    0.0000 </r>
       <r>    0.5405    0.0000 </r>
       <r>    1.3395    0.0000 </r>
       <r>    1.7291    0.0000 </r>
      </set>
      <set comment="kpoint 2">
       <r>  -22.1057    1.0000 </r>
       <r>  -17.3380    1.0000 </r>
       <r>  -15.7218    1.0000 </r>
       <r>  -10.2406    1.0000 </r>
       <r>   -8.8639    1.0000 </r>
       <r>   -6.0088    1.0000 </r>
       <r>   -5.7582    1.0000 </r>
       <r>   -5.3515    1.0000 </r>
       <r>   -1.0896    0.0000 </r>
       <r>    0.5539    0.0000 </r>
       <r>    1.3530    0.0000 </r>
       <r>    1.7428    0.0000 </r>
      </set>
      <set comment="kpoint 3">
       <r>  -22.0762    1.0000 </r>
       <r>  -17.6234    1.0000 </r>
       <r>  -15.3913    1.0000 </r>
       <r>  -10.2055    1.0000 </r>
       <r>   -8.8352    1.0000 </r>
       <r>   -6.1387    1.0000 </r>
       <r>   -5.8188    1.0000 </r>
       <r>   -5.5197    1.0000 </r>
       <r>   -0.8741    0.0000 </r>
       <r>    0.5939    0.0000 </r>
       <r>    1.3936    0.0000 </r>
       <r>    1.7839    0.0000 </r>
      </set>
      <set comment="kpoint 4">
       <r>  -22.0269    1.0000 </r>
       <r>  -17.9631    1.0000 </r>
       <r>  -14.9768    1.0000 </r>
       <r>  -10.1471    1.0000 </r>
       <r>   -8.7875    1.0000 </r>
       <r>   -6.3488    1.0000 </r>
       <r>   -5.9164    1.0000 </r>
       <r>   -5.7676    1.0000 </r>
       <r>   -0.5481    0.0000 </r>
       <r>    0.6606    0.0000 </r>
       <r>    1.4612    0.0000 </r>
       <r>    1.8524    0.0000 </r>
      </set>
      <set comment="kpoint 5">
       <r>  -21.9580    1.0000 </r>
       <r>  -18.3151    1.0000 </r>
       <r>  -14.5207    1.0000 </r>
       <r>  -10.0654    1.0000 </r>
       <r>   -8.7210    1.0000 </r>
       <r>   -6.6307    1.0000 </r>
       <r>   -6.0658    1.0000 </r>
       <r>   -6.0462    1.0000 </r>
       <r>   -0.1417    0.0000 </r>
       <r>    0.7540    0.0000 </r>
       <r>    1.5558    0.0000 </r>
       <r>    1.9483    0.0000 </r>
      </set>
      <set comment="kpoint 6">
       <r>  -21.8695    1.0000 </r>
       <r>  -18.6637    1.0000 </r>
       <r>  -14.0391    1.0000 </r>
       <r>   -9.9606    1.0000 </r>
       <r>   -8.6363    1.0000 </r>
       <r>   -6.9745    1.0000 </r>
       <r>   -6.3916    1.0000 </r>
       <r>   -6.2029    1.0000 </r>
       <r>    0.3212    0.0000 </r>
       <r>    0.8742    0.0000 </r>
       <r>    1.6774    0.0000 </r>
       <r>    2.0716    0.0000 </r>
      </set>
      <set comment="kpoint 7">
       <r>  -21.7615    1.0000 </r>
       <r>  -19.0023    1.0000 </r>
       <r>  -13.5395    1.0000 </r>
       <r>   -9.8328    1.0000 </r>
       <r>   -8.5336    1.0000 </r>
       <r>   -7.3701    1.0000 </r>
       <r>   -6.7292    1.0000 </r>
       <r>   -6.3805    1.0000 </r>
       <r>    0.8234    0.0000 </r>
       <r>    1.0211    0.0000 </r>
       <r>    1.8259    0.0000 </r>
       <r>    2.2223    0.0000 </r>
      </set>
      <set comment="kpoint 8">
       <r>  -21.6340    1.0000 </r>
       <r>  -19.3277    1.0000 </r>
       <r>  -13.0261    1.0000 </r>
       <r>   -9.6825    1.0000 </r>
       <r>   -8.4138    1.0000 </r>
       <r>   -7.8076    1.0000 </r>
       <r>   -7.0683    1.0000 </r>
       <r>   -6.5731    1.0000 </r>
       <r>    1.1947    0.0000 </r>
       <r>    1.3523    0.0000 </r>
       <r>    2.0012    0.0000 </r>
       <r>    2.4004    0.0000 </r>
      </set>
      <set comment="kpoint 9">
       <r>  -21.4872    1.0000 </r>
       <r>  -19.6380    1.0000 </r>
       <r>  -12.5020    1.0000 </r>
       <r>   -9.5097    1.0000 </r>
       <r>   -8.2783    1.0000 </r>
       <r>   -8.2776    1.0000 </r>
       <r>   -7.4019    1.0000 </r>
       <r>   -6.7753    1.0000 </r>
       <r>    1.3950    0.0000 </r>
       <r>    1.8981    0.0000 </r>
       <r>    2.2031    0.0000 </r>
       <r>    2.6059    0.0000 </r>
      </set>
      <set comment="kpoint 10">
       <r>  -21.3211    1.0000 </r>
       <r>  -19.9320    1.0000 </r>
       <r>  -11.9698    1.0000 </r>
       <r>   -9.3150    1.0000 </r>
       <r>   -8.7743    1.0000 </r>
       <r>   -8.1260    1.0000 </r>
       <r>   -7.7253    1.0000 </r>
       <r>   -6.9822    1.0000 </r>
       <r>    1.6219    0.0000 </r>
       <r>    2.4314    0.0000 </r>
       <r>    2.4515    0.0000 </r>
       <r>    2.8387    0.0000 </r>
      </set>
      <set comment="kpoint 11">
       <r>  -21.1360    1.0000 </r>
       <r>  -20.2089    1.0000 </r>
       <r>  -11.4323    1.0000 </r>
       <r>   -9.2889    1.0000 </r>
       <r>   -9.0989    1.0000 </r>
       <r>   -8.0350    1.0000 </r>
       <r>   -7.9602    1.0000 </r>
       <r>   -7.1897    1.0000 </r>
       <r>    1.8753    0.0000 </r>
       <r>    2.6853    0.0000 </r>
       <r>    2.9981    0.0000 </r>
       <r>    3.0990    0.0000 </r>
      </set>
      <set comment="kpoint 12">
       <r>  -20.9320    1.0000 </r>
       <r>  -20.4681    1.0000 </r>
       <r>  -10.8921    1.0000 </r>
       <r>   -9.8166    1.0000 </r>
       <r>   -8.8619    1.0000 </r>
       <r>   -8.3288    1.0000 </r>
       <r>   -7.7817    1.0000 </r>
       <r>   -7.3941    1.0000 </r>
       <r>    2.1553    0.0000 </r>
       <r>    2.7941    0.0000 </r>
       <r>    2.9629    0.0000 </r>
       <r>    3.3868    0.0000 </r>
      </set>
      <set comment="kpoint 13">
       <r>  -20.7092    1.0000 </r>
       <r>  -20.7092    1.0000 </r>
       <r>  -10.3523    1.0000 </r>
       <r>  -10.3523    1.0000 </r>
       <r>   -8.6049    1.0000 </r>
       <r>   -8.6049    1.0000 </r>
       <r>   -7.5923    1.0000 </r>
       <r>   -7.5923    1.0000 </r>
       <r>    2.4616    0.0000 </r>
       <r>    2.4616    0.0000 </r>
       <r>    3.2549    0.0000 </r>
       <r>    3.2549    0.0000 </r>
      </set>
      <set comment="kpoint 14">
       <r>  -22.1018    1.0000 </r>
       <r>  -17.2001    1.0000 </r>
       <r>  -15.8510    1.0000 </r>
       <r>  -10.2359    1.0000 </r>
       <r>   -8.9365    1.0000 </r>
       <r>   -5.9917    1.0000 </r>
       <r>   -5.7963    1.0000 </r>
       <r>   -5.2746    1.0000 </r>
       <r>   -1.1683    0.0000 </r>
       <r>    0.5592    0.0000 </r>
       <r>    1.3584    0.0000 </r>
       <r>    1.7483    0.0000 </r>
      </set>
      <set comment="kpoint 15">
       <r>  -22.0919    1.0000 </r>
       <r>  -17.3259    1.0000 </r>
       <r>  -15.7102    1.0000 </r>
       <r>  -10.2242    1.0000 </r>
       <r>   -8.9269    1.0000 </r>
       <r>   -6.0368    1.0000 </r>
       <r>   -5.8151    1.0000 </r>
       <r>   -5.3349    1.0000 </r>
       <r>   -1.0923    0.0000 </r>
       <r>    0.5726    0.0000 </r>
       <r>    1.3719    0.0000 </r>
       <r>    1.7620    0.0000 </r>
      </set>
      <set comment="kpoint 16">
       <r>  -22.0624    1.0000 </r>
       <r>  -17.6111    1.0000 </r>
       <r>  -15.3801    1.0000 </r>
       <r>  -10.1891    1.0000 </r>
       <r>   -8.8981    1.0000 </r>
       <r>   -6.1682    1.0000 </r>
       <r>   -5.8724    1.0000 </r>
       <r>   -5.5035    1.0000 </r>
       <r>   -0.8769    0.0000 </r>
       <r>    0.6126    0.0000 </r>
       <r>    1.4125    0.0000 </r>
       <r>    1.8031    0.0000 </r>
      </set>
      <set comment="kpoint 17">
       <r>  -22.0131    1.0000 </r>
       <r>  -17.9506    1.0000 </r>
       <r>  -14.9660    1.0000 </r>
       <r>  -10.1307    1.0000 </r>
       <r>   -8.8503    1.0000 </r>
       <r>   -6.3779    1.0000 </r>
       <r>   -5.9678    1.0000 </r>
       <r>   -5.7516    1.0000 </r>
       <r>   -0.5511    0.0000 </r>
       <r>    0.6793    0.0000 </r>
       <r>    1.4801    0.0000 </r>
       <r>    1.8715    0.0000 </r>
      </set>
      <set comment="kpoint 18">
       <r>  -21.9443    1.0000 </r>
       <r>  -18.3023    1.0000 </r>
       <r>  -14.5105    1.0000 </r>
       <r>  -10.0490    1.0000 </r>
       <r>   -8.7838    1.0000 </r>
       <r>   -6.6575    1.0000 </r>
       <r>   -6.0970    1.0000 </r>
       <r>   -6.0501    1.0000 </r>
       <r>   -0.1452    0.0000 </r>
       <r>    0.7727    0.0000 </r>
       <r>    1.5747    0.0000 </r>
       <r>    1.9674    0.0000 </r>
      </set>
      <set comment="kpoint 19">
       <r>  -21.8558    1.0000 </r>
       <r>  -18.6508    1.0000 </r>
       <r>  -14.0295    1.0000 </r>
       <r>   -9.9443    1.0000 </r>
       <r>   -8.6989    1.0000 </r>
       <r>   -6.9977    1.0000 </r>
       <r>   -6.3760    1.0000 </r>
       <r>   -6.2541    1.0000 </r>
       <r>    0.3169    0.0000 </r>
       <r>    0.8929    0.0000 </r>
       <r>    1.6963    0.0000 </r>
       <r>    2.0907    0.0000 </r>
      </set>
      <set comment="kpoint 20">
       <r>  -21.7478    1.0000 </r>
       <r>  -18.9893    1.0000 </r>
       <r>  -13.5306    1.0000 </r>
       <r>   -9.8166    1.0000 </r>
       <r>   -8.5961    1.0000 </r>
       <r>   -7.3891    1.0000 </r>
       <r>   -6.7137    1.0000 </r>
       <r>   -6.4327    1.0000 </r>
       <r>    0.8180    0.0000 </r>
       <r>    1.0398    0.0000 </r>
       <r>    1.8448    0.0000 </r>
       <r>    2.2414    0.0000 </r>
      </set>
      <set comment="kpoint 21">
       <r>  -21.6203    1.0000 </r>
       <r>  -19.3146    1.0000 </r>
       <r>  -13.0180    1.0000 </r>
       <r>   -9.6663    1.0000 </r>
       <r>   -8.4760    1.0000 </r>
       <r>   -7.8224    1.0000 </r>
       <r>   -7.0528    1.0000 </r>
       <r>   -6.6267    1.0000 </r>
       <r>    1.2134    0.0000 </r>
       <r>    1.3455    0.0000 </r>
       <r>    2.0201    0.0000 </r>
       <r>    2.4195    0.0000 </r>
      </set>
      <set comment="kpoint 22">
       <r>  -21.4735    1.0000 </r>
       <r>  -19.6248    1.0000 </r>
       <r>  -12.4949    1.0000 </r>
       <r>   -9.4936    1.0000 </r>
       <r>   -8.3395    1.0000 </r>
       <r>   -8.2891    1.0000 </r>
       <r>   -7.3864    1.0000 </r>
       <r>   -6.8303    1.0000 </r>
       <r>    1.4137    0.0000 </r>
       <r>    1.8898    0.0000 </r>
       <r>    2.2220    0.0000 </r>
       <r>    2.6250    0.0000 </r>
      </set>
      <set comment="kpoint 23">
       <r>  -21.3075    1.0000 </r>
       <r>  -19.9186    1.0000 </r>
       <r>  -11.9640    1.0000 </r>
       <r>   -9.2990    1.0000 </r>
       <r>   -8.7816    1.0000 </r>
       <r>   -8.1875    1.0000 </r>
       <r>   -7.7096    1.0000 </r>
       <r>   -7.0386    1.0000 </r>
       <r>    1.6406    0.0000 </r>
       <r>    2.4418    0.0000 </r>
       <r>    2.4503    0.0000 </r>
       <r>    2.8579    0.0000 </r>
      </set>
      <set comment="kpoint 24">
       <r>  -21.1224    1.0000 </r>
       <r>  -20.1955    1.0000 </r>
       <r>  -11.4278    1.0000 </r>
       <r>   -9.2931    1.0000 </r>
       <r>   -9.0829    1.0000 </r>
       <r>   -8.0212    1.0000 </r>
       <r>   -8.0193    1.0000 </r>
       <r>   -7.2474    1.0000 </r>
       <r>    1.8941    0.0000 </r>
       <r>    2.7042    0.0000 </r>
       <r>    2.9877    0.0000 </r>
       <r>    3.1182    0.0000 </r>
      </set>
      <set comment="kpoint 25">
       <r>  -20.9184    1.0000 </r>
       <r>  -20.4546    1.0000 </r>
       <r>  -10.8893    1.0000 </r>
       <r>   -9.8180    1.0000 </r>
       <r>   -8.8460    1.0000 </r>
       <r>   -8.3130    1.0000 </r>
       <r>   -7.8421    1.0000 </r>
       <r>   -7.4528    1.0000 </r>
       <r>    2.1740    0.0000 </r>
       <r>    2.8129    0.0000 </r>
       <r>    2.9818    0.0000 </r>
       <r>    3.4187    0.0000 </r>
      </set>
      <set comment="kpoint 26">
       <r>  -20.6957    1.0000 </r>
       <r>  -20.6957    1.0000 </r>
       <r>  -10.3515    1.0000 </r>
       <r>  -10.3515    1.0000 </r>
       <r>   -8.5890    1.0000 </r>
       <r>   -8.5890    1.0000 </r>
       <r>   -7.6519    1.0000 </r>
       <r>   -7.6519    1.0000 </r>
       <r>    2.4804    0.0000 </r>
       <r>    2.4804    0.0000 </r>
       <r>    3.2735    0.0000 </r>
       <r>    3.2735    0.0000 </r>
      </set>
      <set comment="kpoint 27">
       <r>  -22.0604    1.0000 </r>
       <r>  -17.1642    1.0000 </r>
       <r>  -15.8159    1.0000 </r>
       <r>  -10.1868    1.0000 </r>
       <r>   -9.1204    1.0000 </r>
       <r>   -6.0719    1.0000 </r>
       <r>   -5.9674    1.0000 </r>
       <r>   -5.2246    1.0000 </r>
       <r>   -1.1773    0.0000 </r>
       <r>    0.6153    0.0000 </r>
       <r>    1.4151    0.0000 </r>
       <r>    1.8057    0.0000 </r>
      </set>
      <set comment="kpoint 28">
       <r>  -22.0506    1.0000 </r>
       <r>  -17.2897    1.0000 </r>
       <r>  -15.6756    1.0000 </r>
       <r>  -10.1751    1.0000 </r>
       <r>   -9.1107    1.0000 </r>
       <r>   -6.1250    1.0000 </r>
       <r>   -5.9764    1.0000 </r>
       <r>   -5.2853    1.0000 </r>
       <r>   -1.1012    0.0000 </r>
       <r>    0.6287    0.0000 </r>
       <r>    1.4286    0.0000 </r>
       <r>    1.8194    0.0000 </r>
      </set>
      <set comment="kpoint 29">
       <r>  -22.0210    1.0000 </r>
       <r>  -17.5742    1.0000 </r>
       <r>  -15.3466    1.0000 </r>
       <r>  -10.1400    1.0000 </r>
       <r>   -9.0818    1.0000 </r>
       <r>   -6.2640    1.0000 </r>
       <r>   -6.0210    1.0000 </r>
       <r>   -5.4547    1.0000 </r>
       <r>   -0.8859    0.0000 </r>
       <r>    0.6687    0.0000 </r>
       <r>    1.4691    0.0000 </r>
       <r>    1.8605    0.0000 </r>
      </set>
      <set comment="kpoint 30">
       <r>  -21.9718    1.0000 </r>
       <r>  -17.9131    1.0000 </r>
       <r>  -14.9339    1.0000 </r>
       <r>  -10.0816    1.0000 </r>
       <r>   -9.0338    1.0000 </r>
       <r>   -6.4727    1.0000 </r>
       <r>   -6.1098    1.0000 </r>
       <r>   -5.7038    1.0000 </r>
       <r>   -0.5608    0.0000 </r>
       <r>    0.7354    0.0000 </r>
       <r>    1.5367    0.0000 </r>
       <r>    1.9289    0.0000 </r>
      </set>
      <set comment="kpoint 31">
       <r>  -21.9030    1.0000 </r>
       <r>  -18.2642    1.0000 </r>
       <r>  -14.4799    1.0000 </r>
       <r>  -10.0001    1.0000 </r>
       <r>   -8.9670    1.0000 </r>
       <r>   -6.7445    1.0000 </r>
       <r>   -6.2377    1.0000 </r>
       <r>   -6.0029    1.0000 </r>
       <r>   -0.1564    0.0000 </r>
       <r>    0.8288    0.0000 </r>
       <r>    1.6313    0.0000 </r>
       <r>    2.0248    0.0000 </r>
      </set>
      <set comment="kpoint 32">
       <r>  -21.8145    1.0000 </r>
       <r>  -18.6122    1.0000 </r>
       <r>  -14.0009    1.0000 </r>
       <r>   -9.8954    1.0000 </r>
       <r>   -8.8816    1.0000 </r>
       <r>   -7.0730    1.0000 </r>
       <r>   -6.3970    1.0000 </r>
       <r>   -6.3293    1.0000 </r>
       <r>    0.3032    0.0000 </r>
       <r>    0.9490    0.0000 </r>
       <r>    1.7529    0.0000 </r>
       <r>    2.1481    0.0000 </r>
      </set>
      <set comment="kpoint 33">
       <r>  -21.7066    1.0000 </r>
       <r>  -18.9503    1.0000 </r>
       <r>  -13.5042    1.0000 </r>
       <r>   -9.7679    1.0000 </r>
       <r>   -8.7782    1.0000 </r>
       <r>   -7.4510    1.0000 </r>
       <r>   -6.6672    1.0000 </r>
       <r>   -6.5797    1.0000 </r>
       <r>    0.8009    0.0000 </r>
       <r>    1.0959    0.0000 </r>
       <r>    1.9014    0.0000 </r>
       <r>    2.2988    0.0000 </r>
      </set>
      <set comment="kpoint 34">
       <r>  -21.5792    1.0000 </r>
       <r>  -19.2752    1.0000 </r>
       <r>  -12.9942    1.0000 </r>
       <r>   -9.6177    1.0000 </r>
       <r>   -8.6573    1.0000 </r>
       <r>   -7.8709    1.0000 </r>
       <r>   -7.0063    1.0000 </r>
       <r>   -6.7786    1.0000 </r>
       <r>    1.2695    0.0000 </r>
       <r>    1.3243    0.0000 </r>
       <r>    2.0767    0.0000 </r>
       <r>    2.4769    0.0000 </r>
      </set>
      <set comment="kpoint 35">
       <r>  -21.4324    1.0000 </r>
       <r>  -19.5851    1.0000 </r>
       <r>  -12.4742    1.0000 </r>
       <r>   -9.4452    1.0000 </r>
       <r>   -8.5197    1.0000 </r>
       <r>   -8.3249    1.0000 </r>
       <r>   -7.3398    1.0000 </r>
       <r>   -6.9873    1.0000 </r>
       <r>    1.4698    0.0000 </r>
       <r>    1.8639    0.0000 </r>
       <r>    2.2786    0.0000 </r>
       <r>    2.6824    0.0000 </r>
      </set>
      <set comment="kpoint 36">
       <r>  -21.2665    1.0000 </r>
       <r>  -19.8787    1.0000 </r>
       <r>  -11.9469    1.0000 </r>
       <r>   -9.2508    1.0000 </r>
       <r>   -8.8060    1.0000 </r>
       <r>   -8.3664    1.0000 </r>
       <r>   -7.6628    1.0000 </r>
       <r>   -7.2004    1.0000 </r>
       <r>    1.6968    0.0000 </r>
       <r>    2.4111    0.0000 </r>
       <r>    2.5069    0.0000 </r>
       <r>    2.9153    0.0000 </r>
      </set>
      <set comment="kpoint 37">
       <r>  -21.0815    1.0000 </r>
       <r>  -20.1553    1.0000 </r>
       <r>  -11.4151    1.0000 </r>
       <r>   -9.3076    1.0000 </r>
       <r>   -9.0349    1.0000 </r>
       <r>   -8.1984    1.0000 </r>
       <r>   -7.9723    1.0000 </r>
       <r>   -7.4133    1.0000 </r>
       <r>    1.9503    0.0000 </r>
       <r>    2.7608    0.0000 </r>
       <r>    2.9545    0.0000 </r>
       <r>    3.1756    0.0000 </r>
      </set>
      <set comment="kpoint 38">
       <r>  -20.8777    1.0000 </r>
       <r>  -20.4142    1.0000 </r>
       <r>  -10.8817    1.0000 </r>
       <r>   -9.8239    1.0000 </r>
       <r>   -8.7982    1.0000 </r>
       <r>   -8.2658    1.0000 </r>
       <r>   -8.0172    1.0000 </r>
       <r>   -7.6224    1.0000 </r>
       <r>    2.2303    0.0000 </r>
       <r>    2.8692    0.0000 </r>
       <r>    3.0385    0.0000 </r>
       <r>    3.4295    0.0000 </r>
      </set>
      <set comment="kpoint 39">
       <r>  -20.6551    1.0000 </r>
       <r>  -20.6551    1.0000 </r>
       <r>  -10.3501    1.0000 </r>
       <r>  -10.3501    1.0000 </r>
       <r>   -8.5415    1.0000 </r>
       <r>   -8.5415    1.0000 </r>
       <r>   -7.8245    1.0000 </r>
       <r>   -7.8245    1.0000 </r>
       <r>    2.5366    0.0000 </r>
       <r>    2.5366    0.0000 </r>
       <r>    3.3292    0.0000 </r>
       <r>    3.3292    0.0000 </r>
      </set>
      <set comment="kpoint 40">
       <r>  -21.9915    1.0000 </r>
       <r>  -17.1045    1.0000 </r>
       <r>  -15.7579    1.0000 </r>
       <r>  -10.1050    1.0000 </r>
       <r>   -9.4113    1.0000 </r>
       <r>   -6.2381    1.0000 </r>
       <r>   -6.2040    1.0000 </r>
[...]
       <r>   -9.3288    1.0000 </r>
       <r>   -5.5304    1.0000 </r>
       <r>   -5.5304    1.0000 </r>
       <r>   -0.4773    0.0000 </r>
       <r>   -0.4773    0.0000 </r>
       <r>    4.2779    0.0000 </r>
       <r>    4.2779    0.0000 </r>
      </set>
      <set comment="kpoint 209">
       <r>  -18.6661    1.0000 </r>
       <r>  -16.8546    1.0000 </r>
       <r>  -14.1832    1.0000 </r>
       <r>  -12.5239    1.0000 </r>
       <r>  -12.3247    1.0000 </r>
       <r>  -10.8081    1.0000 </r>
       <r>   -6.3047    1.0000 </r>
       <r>   -4.4249    1.0000 </r>
       <r>   -1.1601    0.0000 </r>
       <r>    1.0011    0.0000 </r>
       <r>    5.3021    0.0000 </r>
       <r>    6.0756    0.0000 </r>
      </set>
      <set comment="kpoint 210">
       <r>  -18.6568    1.0000 </r>
       <r>  -16.8473    1.0000 </r>
       <r>  -14.2536    1.0000 </r>
       <r>  -12.5898    1.0000 </r>
       <r>  -12.2466    1.0000 </r>
       <r>  -10.7447    1.0000 </r>
       <r>   -6.2963    1.0000 </r>
       <r>   -4.4287    1.0000 </r>
       <r>   -1.1671    0.0000 </r>
       <r>    0.9779    0.0000 </r>
       <r>    5.3151    0.0000 </r>
       <r>    6.0909    0.0000 </r>
      </set>
      <set comment="kpoint 211">
       <r>  -18.6289    1.0000 </r>
       <r>  -16.8259    1.0000 </r>
       <r>  -14.4354    1.0000 </r>
       <r>  -12.7627    1.0000 </r>
       <r>  -12.0418    1.0000 </r>
       <r>  -10.5798    1.0000 </r>
       <r>   -6.2712    1.0000 </r>
       <r>   -4.4405    1.0000 </r>
       <r>   -1.1865    0.0000 </r>
       <r>    0.9099    0.0000 </r>
       <r>    5.3541    0.0000 </r>
       <r>    6.1365    0.0000 </r>
      </set>
      <set comment="kpoint 212">
       <r>  -18.5824    1.0000 </r>
       <r>  -16.7916    1.0000 </r>
       <r>  -14.6770    1.0000 </r>
       <r>  -12.9983    1.0000 </r>
       <r>  -11.7617    1.0000 </r>
       <r>  -10.3598    1.0000 </r>
       <r>   -6.2296    1.0000 </r>
       <r>   -4.4617    1.0000 </r>
       <r>   -1.2139    0.0000 </r>
       <r>    0.8017    0.0000 </r>
       <r>    5.4183    0.0000 </r>
       <r>    6.2115    0.0000 </r>
      </set>
      <set comment="kpoint 213">
       <r>  -18.5176    1.0000 </r>
       <r>  -16.7473    1.0000 </r>
       <r>  -14.9403    1.0000 </r>
       <r>  -13.2644    1.0000 </r>
       <r>  -11.4440    1.0000 </r>
       <r>  -10.1200    1.0000 </r>
       <r>   -6.1721    1.0000 </r>
       <r>   -4.4943    1.0000 </r>
       <r>   -1.2430    0.0000 </r>
       <r>    0.6597    0.0000 </r>
       <r>    5.5038    0.0000 </r>
       <r>    6.0278    0.0000 </r>
      </set>
      <set comment="kpoint 214">
       <r>  -18.4345    1.0000 </r>
       <r>  -16.6989    1.0000 </r>
       <r>  -15.2003    1.0000 </r>
       <r>  -13.5426    1.0000 </r>
       <r>  -11.1108    1.0000 </r>
       <r>   -9.8832    1.0000 </r>
       <r>   -6.0992    1.0000 </r>
       <r>   -4.5405    1.0000 </r>
       <r>   -1.2660    0.0000 </r>
       <r>    0.4916    0.0000 </r>
       <r>    5.4829    0.0000 </r>
       <r>    5.6796    0.0000 </r>
      </set>
      <set comment="kpoint 215">
       <r>  -18.3336    1.0000 </r>
       <r>  -16.6581    1.0000 </r>
       <r>  -15.4348    1.0000 </r>
       <r>  -13.8228    1.0000 </r>
       <r>  -10.7766    1.0000 </r>
       <r>   -9.6651    1.0000 </r>
       <r>   -6.0120    1.0000 </r>
       <r>   -4.6022    1.0000 </r>
       <r>   -1.2755    0.0000 </r>
       <r>    0.3053    0.0000 </r>
       <r>    5.0846    0.0000 </r>
       <r>    5.7907    0.0000 </r>
      </set>
      <set comment="kpoint 216">
       <r>  -18.2151    1.0000 </r>
       <r>  -16.6478    1.0000 </r>
       <r>  -15.6152    1.0000 </r>
       <r>  -14.0984    1.0000 </r>
       <r>  -10.4524    1.0000 </r>
       <r>   -9.4782    1.0000 </r>
       <r>   -5.9115    1.0000 </r>
       <r>   -4.6805    1.0000 </r>
       <r>   -1.2649    0.0000 </r>
       <r>    0.1083    0.0000 </r>
       <r>    4.7221    0.0000 </r>
       <r>    5.6871    0.0000 </r>
      </set>
      <set comment="kpoint 217">
       <r>  -18.0796    1.0000 </r>
       <r>  -16.6995    1.0000 </r>
       <r>  -15.7067    1.0000 </r>
       <r>  -14.3653    1.0000 </r>
       <r>  -10.1478    1.0000 </r>
       <r>   -9.3326    1.0000 </r>
       <r>   -5.7992    1.0000 </r>
       <r>   -4.7753    1.0000 </r>
       <r>   -1.2298    0.0000 </r>
       <r>   -0.0926    0.0000 </r>
       <r>    4.4319    0.0000 </r>
       <r>    5.2434    0.0000 </r>
      </set>
      <set comment="kpoint 218">
       <r>  -17.9278    1.0000 </r>
       <r>  -16.8242    1.0000 </r>
       <r>  -15.6959    1.0000 </r>
       <r>  -14.6203    1.0000 </r>
       <r>   -9.8718    1.0000 </r>
       <r>   -9.2371    1.0000 </r>
       <r>   -5.6769    1.0000 </r>
       <r>   -4.8852    1.0000 </r>
       <r>   -1.1675    0.0000 </r>
       <r>   -0.2911    0.0000 </r>
       <r>    4.2239    0.0000 </r>
       <r>    4.8580    0.0000 </r>
      </set>
      <set comment="kpoint 219">
       <r>  -17.7609    1.0000 </r>
       <r>  -16.9980    1.0000 </r>
       <r>  -15.6054    1.0000 </r>
       <r>  -14.8608    1.0000 </r>
       <r>   -9.6333    1.0000 </r>
       <r>   -9.1981    1.0000 </r>
       <r>   -5.5468    1.0000 </r>
       <r>   -5.0073    1.0000 </r>
       <r>   -1.0776    0.0000 </r>
       <r>   -0.4819    0.0000 </r>
       <r>    4.1047    0.0000 </r>
       <r>    4.5406    0.0000 </r>
      </set>
      <set comment="kpoint 220">
       <r>  -17.5805    1.0000 </r>
       <r>  -17.1922    1.0000 </r>
       <r>  -15.4633    1.0000 </r>
       <r>  -15.0840    1.0000 </r>
       <r>   -9.4406    1.0000 </r>
       <r>   -9.2191    1.0000 </r>
       <r>   -5.4116    1.0000 </r>
       <r>   -5.1382    1.0000 </r>
       <r>   -0.9614    0.0000 </r>
       <r>   -0.6600    0.0000 </r>
       <r>    4.0779    0.0000 </r>
       <r>    4.3001    0.0000 </r>
      </set>
      <set comment="kpoint 221">
       <r>  -17.3894    1.0000 </r>
       <r>  -17.3894    1.0000 </r>
       <r>  -15.2865    1.0000 </r>
       <r>  -15.2865    1.0000 </r>
       <r>   -9.3008    1.0000 </r>
       <r>   -9.3008    1.0000 </r>
       <r>   -5.2743    1.0000 </r>
       <r>   -5.2743    1.0000 </r>
       <r>   -0.8211    0.0000 </r>
       <r>   -0.8211    0.0000 </r>
       <r>    4.1440    0.0000 </r>
       <r>    4.1440    0.0000 </r>
      </set>
      <set comment="kpoint 222">
       <r>  -18.2386    1.0000 </r>
       <r>  -17.3291    1.0000 </r>
       <r>  -13.7992    1.0000 </r>
       <r>  -12.9687    1.0000 </r>
       <r>  -11.9769    1.0000 </r>
       <r>  -11.2137    1.0000 </r>
       <r>   -5.8454    1.0000 </r>
       <r>   -4.8998    1.0000 </r>
       <r>   -0.6523    0.0000 </r>
       <r>    0.4305    0.0000 </r>
       <r>    5.9073    0.0000 </r>
       <r>    6.6374    0.0000 </r>
      </set>
      <set comment="kpoint 223">
       <r>  -18.2295    1.0000 </r>
       <r>  -17.3207    1.0000 </r>
       <r>  -13.8699    1.0000 </r>
       <r>  -13.0367    1.0000 </r>
       <r>  -11.9013    1.0000 </r>
       <r>  -11.1455    1.0000 </r>
       <r>   -5.8383    1.0000 </r>
       <r>   -4.8980    1.0000 </r>
       <r>   -0.6662    0.0000 </r>
       <r>    0.4094    0.0000 </r>
       <r>    5.9203    0.0000 </r>
       <r>    6.6536    0.0000 </r>
      </set>
      <set comment="kpoint 224">
       <r>  -18.2021    1.0000 </r>
       <r>  -17.2957    1.0000 </r>
       <r>  -14.0533    1.0000 </r>
       <r>  -13.2143    1.0000 </r>
       <r>  -11.7034    1.0000 </r>
       <r>  -10.9681    1.0000 </r>
       <r>   -5.8172    1.0000 </r>
       <r>   -4.8929    1.0000 </r>
       <r>   -0.7064    0.0000 </r>
       <r>    0.3475    0.0000 </r>
       <r>    5.9590    0.0000 </r>
       <r>    6.7018    0.0000 </r>
      </set>
      <set comment="kpoint 225">
       <r>  -18.1565    1.0000 </r>
       <r>  -17.2545    1.0000 </r>
       <r>  -14.2992    1.0000 </r>
       <r>  -13.4550    1.0000 </r>
       <r>  -11.4346    1.0000 </r>
       <r>  -10.7296    1.0000 </r>
       <r>   -5.7824    1.0000 </r>
       <r>   -4.8855    1.0000 </r>
       <r>   -0.7685    0.0000 </r>
       <r>    0.2493    0.0000 </r>
       <r>    6.0221    0.0000 </r>
       <r>    6.8435    0.0000 </r>
      </set>
      <set comment="kpoint 226">
       <r>  -18.0929    1.0000 </r>
       <r>  -17.1981    1.0000 </r>
       <r>  -14.5718    1.0000 </r>
       <r>  -13.7255    1.0000 </r>
       <r>  -11.1320    1.0000 </r>
       <r>  -10.4663    1.0000 </r>
       <r>   -5.7348    1.0000 </r>
       <r>   -4.8775    1.0000 </r>
       <r>   -0.8455    0.0000 </r>
       <r>    0.1213    0.0000 </r>
       <r>    6.0926    0.0000 </r>
       <r>    6.3218    0.0000 </r>
      </set>
      <set comment="kpoint 227">
       <r>  -18.0118    1.0000 </r>
       <r>  -17.1280    1.0000 </r>
       <r>  -14.8507    1.0000 </r>
       <r>  -14.0070    1.0000 </r>
       <r>  -10.8182    1.0000 </r>
       <r>  -10.2007    1.0000 </r>
       <r>   -5.6753    1.0000 </r>
       <r>   -4.8715    1.0000 </r>
       <r>   -0.9293    0.0000 </r>
       <r>   -0.0287    0.0000 </r>
       <r>    5.7660    0.0000 </r>
       <r>    6.2525    0.0000 </r>
      </set>
      <set comment="kpoint 228">
       <r>  -17.9134    1.0000 </r>
       <r>  -17.0471    1.0000 </r>
       <r>  -15.1227    1.0000 </r>
       <r>  -14.2889    1.0000 </r>
       <r>  -10.5078    1.0000 </r>
       <r>   -9.9485    1.0000 </r>
       <r>   -5.6053    1.0000 </r>
       <r>   -4.8701    1.0000 </r>
       <r>   -1.0110    0.0000 </r>
       <r>   -0.1924    0.0000 </r>
       <r>    5.3078    0.0000 </r>
       <r>    5.8572    0.0000 </r>
      </set>
      <set comment="kpoint 229">
       <r>  -17.7986    1.0000 </r>
       <r>  -16.9611    1.0000 </r>
       <r>  -15.3764    1.0000 </r>
       <r>  -14.5647    1.0000 </r>
       <r>  -10.2123    1.0000 </r>
       <r>   -9.7218    1.0000 </r>
       <r>   -5.5267    1.0000 </r>
       <r>   -4.8764    1.0000 </r>
       <r>   -1.0816    0.0000 </r>
       <r>   -0.3621    0.0000 </r>
       <r>    4.9040    0.0000 </r>
       <r>    5.3892    0.0000 </r>
      </set>
      <set comment="kpoint 230">
       <r>  -17.6684    1.0000 </r>
       <r>  -16.8809    1.0000 </r>
       <r>  -15.5973    1.0000 </r>
       <r>  -14.8297    1.0000 </r>
       <r>   -9.9417    1.0000 </r>
       <r>   -9.5309    1.0000 </r>
       <r>   -5.4417    1.0000 </r>
       <r>   -4.8935    1.0000 </r>
       <r>   -1.1332    0.0000 </r>
       <r>   -0.5299    0.0000 </r>
       <r>    4.5681    0.0000 </r>
       <r>    4.9765    0.0000 </r>
      </set>
      <set comment="kpoint 231">
       <r>  -17.5244    1.0000 </r>
       <r>  -16.8284    1.0000 </r>
       <r>  -15.7616    1.0000 </r>
       <r>  -15.0800    1.0000 </r>
       <r>   -9.7054    1.0000 </r>
       <r>   -9.3853    1.0000 </r>
       <r>   -5.3529    1.0000 </r>
       <r>   -4.9235    1.0000 </r>
       <r>   -1.1594    0.0000 </r>
       <r>   -0.6889    0.0000 </r>
       <r>    4.3095    0.0000 </r>
       <r>    4.6290    0.0000 </r>
      </set>
      <set comment="kpoint 232">
       <r>  -17.3694    1.0000 </r>
       <r>  -16.8351    1.0000 </r>
       <r>  -15.8361    1.0000 </r>
       <r>  -15.3112    1.0000 </r>
       <r>   -9.5120    1.0000 </r>
       <r>   -9.2923    1.0000 </r>
       <r>   -5.2634    1.0000 </r>
       <r>   -4.9677    1.0000 </r>
       <r>   -1.1558    0.0000 </r>
       <r>   -0.8327    0.0000 </r>
       <r>    4.1359    0.0000 </r>
       <r>    4.3557    0.0000 </r>
      </set>
      <set comment="kpoint 233">
       <r>  -17.2085    1.0000 </r>
       <r>  -16.9166    1.0000 </r>
       <r>  -15.8045    1.0000 </r>
       <r>  -15.5173    1.0000 </r>
       <r>   -9.3693    1.0000 </r>
       <r>   -9.2574    1.0000 </r>
       <r>   -5.1768    1.0000 </r>
       <r>   -5.0259    1.0000 </r>
       <r>   -1.1201    0.0000 </r>
       <r>   -0.9556    0.0000 </r>
       <r>    4.0528    0.0000 </r>
       <r>    4.1648    0.0000 </r>
      </set>
      <set comment="kpoint 234">
       <r>  -17.0512    1.0000 </r>
       <r>  -17.0512    1.0000 </r>
       <r>  -15.6882    1.0000 </r>
       <r>  -15.6882    1.0000 </r>
       <r>   -9.2833    1.0000 </r>
       <r>   -9.2833    1.0000 </r>
       <r>   -5.0965    1.0000 </r>
       <r>   -5.0965    1.0000 </r>
       <r>   -1.0527    0.0000 </r>
       <r>   -1.0527    0.0000 </r>
       <r>    4.0626    0.0000 </r>
       <r>    4.0626    0.0000 </r>
      </set>
      <set comment="kpoint 235">
       <r>  -17.7920    1.0000 </r>
       <r>  -17.7920    1.0000 </r>
       <r>  -13.3941    1.0000 </r>
       <r>  -13.3941    1.0000 </r>
       <r>  -11.6047    1.0000 </r>
       <r>  -11.6047    1.0000 </r>
       <r>   -5.3754    1.0000 </r>
       <r>   -5.3754    1.0000 </r>
       <r>   -0.1214    0.0000 </r>
       <r>   -0.1214    0.0000 </r>
       <r>    6.5446    0.0000 </r>
       <r>    6.5446    0.0000 </r>
      </set>
      <set comment="kpoint 236">
       <r>  -17.7831    1.0000 </r>
       <r>  -17.7831    1.0000 </r>
       <r>  -13.4638    1.0000 </r>
       <r>  -13.4638    1.0000 </r>
       <r>  -11.5325    1.0000 </r>
       <r>  -11.5325    1.0000 </r>
       <r>   -5.3703    1.0000 </r>
       <r>   -5.3703    1.0000 </r>
       <r>   -0.1397    0.0000 </r>
       <r>   -0.1397    0.0000 </r>
       <r>    6.5575    0.0000 </r>
       <r>    6.5575    0.0000 </r>
      </set>
      <set comment="kpoint 237">
       <r>  -17.7565    1.0000 </r>
       <r>  -17.7565    1.0000 </r>
       <r>  -13.6452    1.0000 </r>
       <r>  -13.6452    1.0000 </r>
       <r>  -11.3439    1.0000 </r>
       <r>  -11.3439    1.0000 </r>
       <r>   -5.3553    1.0000 </r>
       <r>   -5.3553    1.0000 </r>
       <r>   -0.1929    0.0000 </r>
       <r>   -0.1929    0.0000 </r>
       <r>    6.5957    0.0000 </r>
       <r>    6.5957    0.0000 </r>
      </set>
      <set comment="kpoint 238">
       <r>  -17.7124    1.0000 </r>
       <r>  -17.7124    1.0000 </r>
       <r>  -13.8897    1.0000 </r>
       <r>  -13.8897    1.0000 </r>
       <r>  -11.0891    1.0000 </r>
       <r>  -11.0891    1.0000 </r>
       <r>   -5.3311    1.0000 </r>
       <r>   -5.3311    1.0000 </r>
       <r>   -0.2767    0.0000 </r>
       <r>   -0.2767    0.0000 </r>
       <r>    6.6560    0.0000 </r>
       <r>    6.6562    0.0000 </r>
      </set>
      <set comment="kpoint 239">
       <r>  -17.6512    1.0000 </r>
       <r>  -17.6512    1.0000 </r>
       <r>  -14.1629    1.0000 </r>
       <r>  -14.1629    1.0000 </r>
       <r>  -10.8048    1.0000 </r>
       <r>  -10.8048    1.0000 </r>
       <r>   -5.2987    1.0000 </r>
       <r>   -5.2987    1.0000 </r>
       <r>   -0.3843    0.0000 </r>
       <r>   -0.3843    0.0000 </r>
       <r>    6.5701    0.0000 </r>
       <r>    6.5707    0.0000 </r>
      </set>
      <set comment="kpoint 240">
       <r>  -17.5735    1.0000 </r>
       <r>  -17.5735    1.0000 </r>
       <r>  -14.4456    1.0000 </r>
       <r>  -14.4456    1.0000 </r>
       <r>  -10.5136    1.0000 </r>
       <r>  -10.5136    1.0000 </r>
       <r>   -5.2598    1.0000 </r>
       <r>   -5.2598    1.0000 </r>
       <r>   -0.5079    0.0000 </r>
       <r>   -0.5079    0.0000 </r>
       <r>    6.0556    0.0000 </r>
       <r>    6.0556    0.0000 </r>
      </set>
      <set comment="kpoint 241">
       <r>  -17.4802    1.0000 </r>
       <r>  -17.4802    1.0000 </r>
       <r>  -14.7264    1.0000 </r>
       <r>  -14.7264    1.0000 </r>
       <r>  -10.2306    1.0000 </r>
       <r>  -10.2306    1.0000 </r>
       <r>   -5.2166    1.0000 </r>
       <r>   -5.2166    1.0000 </r>
       <r>   -0.6388    0.0000 </r>
       <r>   -0.6388    0.0000 </r>
       <r>    5.5658    0.0000 </r>
       <r>    5.5658    0.0000 </r>
      </set>
      <set comment="kpoint 242">
       <r>  -17.3732    1.0000 </r>
       <r>  -17.3732    1.0000 </r>
       <r>  -14.9981    1.0000 </r>
       <r>  -14.9981    1.0000 </r>
       <r>   -9.9676    1.0000 </r>
       <r>   -9.9676    1.0000 </r>
       <r>   -5.1717    1.0000 </r>
       <r>   -5.1717    1.0000 </r>
       <r>   -0.7683    0.0000 </r>
       <r>   -0.7683    0.0000 </r>
       <r>    5.1272    0.0000 </r>
       <r>    5.1272    0.0000 </r>
      </set>
      <set comment="kpoint 243">
       <r>  -17.2551    1.0000 </r>
       <r>  -17.2551    1.0000 </r>
       <r>  -15.2541    1.0000 </r>
       <r>  -15.2541    1.0000 </r>
       <r>   -9.7350    1.0000 </r>
       <r>   -9.7350    1.0000 </r>
       <r>   -5.1281    1.0000 </r>
       <r>   -5.1281    1.0000 </r>
       <r>   -0.8881    0.0000 </r>
       <r>   -0.8881    0.0000 </r>
       <r>    4.7505    0.0000 </r>
       <r>    4.7505    0.0000 </r>
      </set>
      <set comment="kpoint 244">
       <r>  -17.1313    1.0000 </r>
       <r>  -17.1313    1.0000 </r>
       <r>  -15.4870    1.0000 </r>
       <r>  -15.4870    1.0000 </r>
       <r>   -9.5422    1.0000 </r>
       <r>   -9.5422    1.0000 </r>
       <r>   -5.0893    1.0000 </r>
       <r>   -5.0893    1.0000 </r>
       <r>   -0.9906    0.0000 </r>
       <r>   -0.9906    0.0000 </r>
       <r>    4.4453    0.0000 </r>
       <r>    4.4453    0.0000 </r>
      </set>
      <set comment="kpoint 245">
       <r>  -17.0122    1.0000 </r>
       <r>  -17.0122    1.0000 </r>
       <r>  -15.6849    1.0000 </r>
       <r>  -15.6849    1.0000 </r>
       <r>   -9.3975    1.0000 </r>
       <r>   -9.3975    1.0000 </r>
       <r>   -5.0586    1.0000 </r>
       <r>   -5.0586    1.0000 </r>
       <r>   -1.0691    0.0000 </r>
       <r>   -1.0691    0.0000 </r>
       <r>    4.2201    0.0000 </r>
       <r>    4.2201    0.0000 </r>
      </set>
      <set comment="kpoint 246">
       <r>  -16.9181    1.0000 </r>
       <r>  -16.9181    1.0000 </r>
       <r>  -15.8266    1.0000 </r>
       <r>  -15.8266    1.0000 </r>
       <r>   -9.3077    1.0000 </r>
       <r>   -9.3077    1.0000 </r>
       <r>   -5.0388    1.0000 </r>
       <r>   -5.0388    1.0000 </r>
       <r>   -1.1185    0.0000 </r>
       <r>   -1.1185    0.0000 </r>
       <r>    4.0819    0.0000 </r>
       <r>    4.0819    0.0000 </r>
      </set>
      <set comment="kpoint 247">
       <r>  -16.8804    1.0000 </r>
       <r>  -16.8804    1.0000 </r>
       <r>  -15.8803    1.0000 </r>
       <r>  -15.8803    1.0000 </r>
       <r>   -9.2773    1.0000 </r>
       <r>   -9.2773    1.0000 </r>
       <r>   -5.0320    1.0000 </r>
       <r>   -5.0320    1.0000 </r>
       <r>   -1.1353    0.0000 </r>
       <r>   -1.1353    0.0000 </r>
       <r>    4.0353    0.0000 </r>
       <r>    4.0353    0.0000 </r>
      </set>
     </set>
    </set>
   </array>
  </eigenvalues>
  <separator name="orbital magnetization" >
   <v name="MAGDIPOLOUT">      0.00000000      0.00000000      0.00000000</v>
  </separator>
 </calculation>
 <structure name="finalpos" >
  <crystal>
   <varray name="basis" >
    <v>       4.35851487       0.00000000       0.00000000 </v>
    <v>       0.00000000       2.45900751       0.00000000 </v>
    <v>       0.00000000       0.00000000      19.67208074 </v>
   </varray>
   <i name="volume">    210.83790140 </i>
   <varray name="rec_basis" >
    <v>       0.22943595       0.00000000       0.00000000 </v>
    <v>       0.00000000       0.40666814       0.00000000 </v>
    <v>       0.00000000       0.00000000       0.05083346 </v>
   </varray>
  </crystal>
  <varray name="positions" >
   <v>       0.99954580      -0.00000000       0.00000000 </v>
   <v>       0.16712086       0.50000000      -0.00000000 </v>
   <v>       0.49954580       0.50000000       0.00000000 </v>
   <v>       0.66712086       0.00000000      -0.00000000 </v>
  </varray>
 </structure>
</modeling>
