gr                                      
           1
     4.358515    0.000000    0.000000
     0.000000    2.459008    0.000000
     0.000000    0.000000   19.672081
   C 
   4
Direct configuration=     1
   0.99954297  0.00000000  0.00000000
   0.16712369  0.50000000  0.00000000
   0.49954297  0.50000000  0.00000000
   0.66712369  0.00000000  0.00000000
Direct configuration=     2
   0.99955656 -0.00000000  0.00000000
   0.16711010  0.50000000 -0.00000000
   0.49955656  0.50000000  0.00000000
   0.66711010  0.00000000 -0.00000000
Direct configuration=     3
   0.99954580 -0.00000000  0.00000000
   0.16712086  0.50000000 -0.00000000
   0.49954580  0.50000000  0.00000000
   0.66712086  0.00000000 -0.00000000
