    4    4  400    1
  0.5270948E+02  0.4265593E-09  0.2492097E-09  0.1983373E-08  0.5000000E-15
  1.000000000000000E-004
  CAR 
 gr                                      
     16    247     12
 
  0.0000000E+00  0.0000000E+00  0.0000000E+00  0.1157407E-02
    1      -22.184123
    2      -16.891837
    3      -15.928118
    4      -10.305243
    5       -9.293081
    6       -5.875557
    7       -5.763476
    8       -5.026497
    9       -1.099368
   10        0.532153
   11        1.332086
   12        1.719148
 
  0.4166667E-01  0.0000000E+00  0.0000000E+00  0.2314815E-02
    1      -22.173822
    2      -17.068572
    3      -15.736214
    4      -10.292970
    5       -9.282800
    6       -5.898600
    7       -5.805197
    8       -5.094436
    9       -1.015904
   10        0.546121
   11        1.346219
   12        1.733455
 
  0.8333333E-01  0.0000000E+00  0.0000000E+00  0.2314815E-02
    1      -22.142922
    2      -17.417613
    3      -15.341753
    4      -10.256167
    5       -9.252009
    6       -5.966432
    7       -5.928726
    8       -5.282443
    9       -0.781497
   10        0.588026
   11        1.388614
   12        1.776377
 
  0.1250000E+00  0.0000000E+00  0.0000000E+00  0.2314815E-02
    1      -22.091444
    2      -17.801001
    3      -14.882964
    4      -10.194893
    5       -9.200860
    6       -6.129425
    7       -6.075383
    8       -5.555724
    9       -0.431464
   10        0.657866
   11        1.459261
   12        1.847913
 
  0.1666667E+00  0.0000000E+00  0.0000000E+00  0.2314815E-02
    1      -22.019421
    2      -18.184615
    3      -14.394424
    4      -10.109245
    5       -9.129613
    6       -6.400334
    7       -6.220007
    8       -5.880352
    9       -0.000615
   10        0.755641
   11        1.558137
   12        1.948065
 
  0.2083333E+00  0.0000000E+00  0.0000000E+00  0.2314815E-02
    1      -21.926903
    2      -18.558355
    3      -13.886893
    4       -9.999364
    5       -9.038644
    6       -6.733068
    7       -6.393830
    8       -6.231480
    9        0.484948
   10        0.881343
   11        1.685211
   12        2.076832
 
  0.2500000E+00  0.0000000E+00  0.0000000E+00  0.2314815E-02
    1      -21.813952
    2      -18.918191
    3      -13.365272
    4       -9.865437
    5       -8.928454
    6       -7.118678
    7       -6.592759
    8       -6.590051
    9        1.007218
   10        1.034953
   11        1.840436
   12        2.234211
 
  0.2916667E+00  0.0000000E+00  0.0000000E+00  0.2314815E-02
    1      -21.680650
    2      -19.262116
    3      -12.832676
    4       -9.707708
    5       -8.799693
    6       -7.548318
    7       -6.953673
    8       -6.802085
    9        1.216444
   10        1.553558
   11        2.023739
   12        2.420200
 
  0.3333333E+00  0.0000000E+00  0.0000000E+00  0.2314815E-02
    1      -21.527094
    2      -19.588961
    3      -12.291653
    4       -9.526487
    5       -8.653173
    6       -8.013694
    7       -7.307361
    8       -7.023902
    9        1.425775
   10        2.114351
   11        2.235008
   12        2.634792
 
  0.3750000E+00  0.0000000E+00  0.0000000E+00  0.2314815E-02
    1      -21.353396
    2      -19.897957
    3      -11.744656
    4       -9.322160
    5       -8.507291
    6       -8.489900
    7       -7.649212
    8       -7.250174
    9        1.662890
   10        2.474051
   11        2.680931
   12        2.877976
 
  0.4166667E+00  0.0000000E+00  0.0000000E+00  0.2314815E-02
    1      -21.159693
    2      -20.188552
    3      -11.194273
    4       -9.095210
    5       -9.022469
    6       -8.311113
    7       -7.976032
    8       -7.476320
    9        1.927710
   10        2.740476
   11        3.149739
   12        3.255419
 
  0.4583333E+00  0.0000000E+00  0.0000000E+00  0.2314815E-02
    1      -20.946146
    2      -20.460326
    3      -10.643362
    4       -9.553433
    5       -8.846243
    6       -8.285531
    7       -8.118321
    8       -7.698463
    9        2.220126
   10        2.886983
   11        3.033261
   12        3.450080
 
  0.5000000E+00  0.0000000E+00  0.0000000E+00  0.1157407E-02
    1      -20.712948
    2      -20.712948
    3      -10.095171
    4      -10.095171
    5       -8.576024
    6       -8.576024
    7       -7.913362
    8       -7.913362
    9        2.539976
   10        2.539976
   11        3.348126
   12        3.348126
 
  0.0000000E+00  0.2777778E-01  0.0000000E+00  0.2314815E-02
    1      -22.170727
    2      -16.880315
    3      -15.917008
    4      -10.289282
    5       -9.353269
    6       -5.930980
    7       -5.794537
    8       -5.010228
    9       -1.104229
   10        0.550304
   11        1.350484
   12        1.737773
 
  0.4166667E-01  0.2777778E-01  0.0000000E+00  0.4629630E-02
    1      -22.160426
    2      -17.056902
    3      -15.725308
    4      -10.277012
    5       -9.342967
    6       -5.959094
    7       -5.830489
    8       -5.078325
    9       -1.020732
   10        0.564273
   11        1.364617
   12        1.752080
 
  0.8333333E-01  0.2777778E-01  0.0000000E+00  0.4629630E-02
    1      -22.129530
    2      -17.405706
    3      -15.331253
    4      -10.240223
    5       -9.312109
    6       -6.047728
    7       -5.931246
    8       -5.266690
    9       -0.786339
   10        0.606180
   11        1.407009
   12        1.795002
 
  0.1250000E+00  0.2777778E-01  0.0000000E+00  0.4629630E-02
    1      -22.078059
    2      -17.788876
    3      -14.872967
    4      -10.178971
    5       -9.260843
    6       -6.212694
    7       -6.073021
    8       -5.540333
    9       -0.436568
   10        0.676025
   11        1.477651
   12        1.866539
 
  0.1666667E+00  0.2777778E-01  0.0000000E+00  0.4629630E-02
    1      -22.006047
    2      -18.172301
    3      -14.385031
    4      -10.093353
    5       -9.189421
    6       -6.461392
    7       -6.236417
    8       -5.865223
    9       -0.006331
   10        0.773807
   11        1.576521
   12        1.966693
 
  0.2083333E+00  0.2777778E-01  0.0000000E+00  0.4629630E-02
    1      -21.913543
    2      -18.545878
    3      -13.878222
    4       -9.983510
    5       -9.098208
    6       -6.780014
    7       -6.420759
    8       -6.216498
    9        0.478253
   10        0.899518
   11        1.703587
   12        2.095461
 
  0.2500000E+00  0.2777778E-01  0.0000000E+00  0.4629630E-02
    1      -21.800610
    2      -18.905572
    3      -13.357466
    4       -9.849631
    5       -8.987693
    6       -7.155049
    7       -6.624095
    8       -6.577832
    9        0.999206
   10        1.053140
   11        1.858802
   12        2.252843
 
  0.2916667E+00  0.2777778E-01  0.0000000E+00  0.4629630E-02
    1      -21.667330
    2      -19.249377
    3      -12.825909
    4       -9.691959
    5       -8.858503
    6       -7.576136
    7       -6.938737
    8       -6.841524
    9        1.234644
   10        1.543936
   11        2.042095
   12        2.438836
 
  0.3333333E+00  0.2777778E-01  0.0000000E+00  0.4629630E-02
    1      -21.513799
    2      -19.576118
    3      -12.286137
    4       -9.510803
    5       -8.711427
    6       -8.034438
    7       -7.292373
    8       -7.067627
    9        1.443989
   10        2.102899
   11        2.253357
   12        2.653432
 
  0.3750000E+00  0.2777778E-01  0.0000000E+00  0.4629630E-02
    1      -21.340132
    2      -19.885024
    3      -11.740652
    4       -9.306549
    5       -8.547443
    6       -8.522173
    7       -7.634147
    8       -7.297357
    9        1.681120
   10        2.492397
   11        2.667609
   12        2.896622
 
  0.4166667E+00  0.2777778E-01  0.0000000E+00  0.4629630E-02
    1      -21.146465
    2      -20.175541
    3      -11.192100
    4       -9.079680
    5       -9.032503
    6       -8.367748
    7       -7.960876
    8       -7.526299
    9        1.945960
   10        2.758831
   11        3.168393
   12        3.226032
 
  0.4583333E+00  0.2777778E-01  0.0000000E+00  0.4629630E-02
    1      -20.932960
    2      -20.447247
    3      -10.643412
    4       -9.559472
    5       -8.830802
    6       -8.270279
    7       -8.173808
    8       -7.750696
    9        2.238402
   10        2.905372
   11        3.051649
   12        3.468688
 
  0.5000000E+00  0.2777778E-01  0.0000000E+00  0.2314815E-02
    1      -20.699812
    2      -20.699812
    3      -10.097923
    4      -10.097923
    5       -8.560676
    6       -8.560676
    7       -7.967404
    8       -7.967404
    9        2.558291
   10        2.558291
   11        3.366513
   12        3.366513
 
  0.0000000E+00  0.5555556E-01  0.0000000E+00  0.2314815E-02
    1      -22.130546
    2      -16.845757
    3      -15.883852
    4      -10.241429
    5       -9.528968
    6       -6.092885
    7       -5.886864
    8       -4.961441
    9       -1.119629
   10        0.604762
   11        1.405674
   12        1.793647
 
  0.4166667E-01  0.5555556E-01  0.0000000E+00  0.4629630E-02
    1      -22.120249
    2      -17.021909
    3      -15.692756
    4      -10.229173
    5       -9.518593
    6       -6.128249
    7       -5.913527
    8       -5.030026
    9       -1.036022
   10        0.618733
   11        1.419803
   12        1.807955
 
  0.8333333E-01  0.5555556E-01  0.0000000E+00  0.4629630E-02
    1      -22.089366
    2      -17.370008
    3      -15.299922
    4      -10.192423
    5       -9.487515
    6       -6.232714
    7       -5.992690
    8       -5.219495
    9       -0.801662
   10        0.660646
   11        1.462187
   12        1.850878
 
  0.1250000E+00  0.5555556E-01  0.0000000E+00  0.4629630E-02
    1      -22.037917
    2      -17.752526
    3      -14.843172
    4      -10.131237
    5       -9.435866
    6       -6.402871
    7       -6.120711
    8       -5.494248
    9       -0.452679
   10        0.730502
   11        1.532813
   12        1.922417
 
  0.1666667E+00  0.5555556E-01  0.0000000E+00  0.4629630E-02
    1      -21.965937
    2      -18.135382
    3      -14.357089
    4      -10.045711
    5       -9.363875
    6       -6.635491
    7       -6.290008
    8       -5.819935
    9       -0.024311
   10        0.828302
   11        1.631662
   12        2.022574
 
  0.2083333E+00  0.5555556E-01  0.0000000E+00  0.4629630E-02
    1      -21.873475
    2      -18.508467
    3      -13.852506
    4       -9.935987
    5       -9.271870
    6       -6.927320
    7       -6.490470
    8       -6.171656
    9        0.457289
   10        0.954035
   11        1.758702
   12        2.151348
 
  0.2500000E+00  0.5555556E-01  0.0000000E+00  0.4629630E-02
    1      -21.760595
    2      -18.867738
    3      -13.334428
    4       -9.802253
    5       -9.160290
    6       -7.273744
    7       -6.712086
    8       -6.533153
    9        0.974226
   10        1.107685
   11        1.913887
   12        2.308737
 
  0.2916667E+00  0.5555556E-01  0.0000000E+00  0.4629630E-02
    1      -21.627381
    2      -19.211178
    3      -12.806100
    4       -9.644754
    5       -9.029698
    6       -7.668362
    7       -6.946510
    8       -6.894023
    9        1.289222
   10        1.514043
   11        2.097150
   12        2.494739
 
  0.3333333E+00  0.5555556E-01  0.0000000E+00  0.4629630E-02
    1      -21.473928
    2      -19.537604
    3      -12.270239
    4       -9.463796
    5       -8.880800
    6       -8.103706
    7       -7.247497
    8       -7.187188
    9        1.498604
   10        2.067401
   11        2.308384
   12        2.709347
 
  0.3750000E+00  0.5555556E-01  0.0000000E+00  0.4629630E-02
    1      -21.300353
    2      -19.846239
    3      -11.729504
    4       -9.259765
    5       -8.714465
    6       -8.572160
    7       -7.589034
    8       -7.428947
    9        1.735776
   10        2.547413
   11        2.626286
   12        2.952552
 
  0.4166667E+00  0.5555556E-01  0.0000000E+00  0.4629630E-02
    1      -21.106795
    2      -20.136523
    3      -11.186741
    4       -9.066568
    5       -9.033144
    6       -8.531758
    7       -7.915484
    8       -7.667619
    9        2.000664
   10        2.813873
   11        3.180686
   12        3.224339
 
  0.4583333E+00  0.5555556E-01  0.0000000E+00  0.4629630E-02
    1      -20.893418
    2      -20.408028
    3      -10.645131
    4       -9.580499
    5       -8.784534
    6       -8.333975
    7       -8.224592
    8       -7.899798
    9        2.293169
   10        2.960398
   11        3.106797
   12        3.524765
 
  0.5000000E+00  0.5555556E-01  0.0000000E+00  0.2314815E-02
    1      -20.660419
    2      -20.660419
    3      -10.108315
    4      -10.108315
    5       -8.514694
    6       -8.514694
    7       -8.122687
    8       -8.122687
    9        2.613152
   10        2.613152
   11        3.421657
   12        3.421664
 
  0.0000000E+00  0.8333333E-01  0.0000000E+00  0.2314815E-02
    1      -22.063616
    2      -16.788173
    3      -15.829203
    4      -10.161786
    5       -9.806901
    6       -6.349482
    7       -6.037956
    8       -4.880195
    9       -1.148006
   10        0.695545
   11        1.497633
   12        1.886774
 
  0.4166667E-01  0.8333333E-01  0.0000000E+00  0.4629630E-02
    1      -22.053327
    2      -16.963648
    3      -15.639086
    4      -10.149552
    5       -9.796387
    6       -6.390099
    7       -6.056138
    8       -4.949645
    9       -1.064183
   10        0.709516
   11        1.511756
   12        1.901082
 
  0.8333333E-01  0.8333333E-01  0.0000000E+00  0.4629630E-02
    1      -22.022466
    2      -17.310602
    3      -15.248312
    4      -10.112870
    5       -9.764880
    6       -6.504846
    7       -6.115859
    8       -5.141056
    9       -0.829834
   10        0.751432
   11        1.554123
   12        1.944006
 
  0.1250000E+00  0.8333333E-01  0.0000000E+00  0.4629630E-02
    1      -21.971055
    2      -17.692035
    3      -14.794215
    4      -10.051796
    5       -9.712486
    6       -6.680571
    7       -6.224597
    8       -5.417740
    9       -0.482178
   10        0.821297
   11        1.624722
   12        2.015548
 
  0.1666667E+00  0.8333333E-01  0.0000000E+00  0.4629630E-02
    1      -21.899128
    2      -18.073936
    3      -14.311374
    4       -9.966429
    5       -9.639384
    6       -6.907068
    7       -6.383554
    8       -5.744798
    9       -0.057009
   10        0.919112
   11        1.723532
   12        2.115709
 
  0.2083333E+00  0.8333333E-01  0.0000000E+00  0.4629630E-02
    1      -21.806737
    2      -18.446194
    3      -13.810724
    4       -9.856908
    5       -9.545828
    6       -7.178500
    7       -6.586966
    8       -6.097272
    9        0.419464
   10        1.044869
   11        1.850523
   12        2.244488
 
  0.2500000E+00  0.8333333E-01  0.0000000E+00  0.4629630E-02
    1      -21.693947
    2      -18.804752
    3      -13.297418
    4       -9.723424
    5       -9.432156
    6       -7.492359
    7       -6.824096
    8       -6.459032
    9        0.929504
   10        1.198551
   11        2.005651
   12        2.401886
 
  0.2916667E+00  0.8333333E-01  0.0000000E+00  0.4629630E-02
    1      -21.560841
    2      -19.147577
    3      -12.774906
    4       -9.566219
    5       -9.298791
    6       -7.847729
    7       -7.082008
    8       -6.819825
    9        1.380127
   10        1.460878
   11        2.188853
   12        2.587899
 
  0.3333333E+00  0.8333333E-01  0.0000000E+00  0.4629630E-02
    1      -21.407518
    2      -19.473475
    3      -12.246159
    4       -9.385602
    5       -9.146257
    6       -8.243147
    7       -7.348583
    8       -7.173006
    9        1.589553
   10        2.004556
   11        2.400032
   12        2.802522
 
  0.3750000E+00  0.8333333E-01  0.0000000E+00  0.4629630E-02
    1      -21.234098
    2      -19.781654
    3      -11.714173
    4       -9.181957
    5       -8.975183
    6       -8.675177
    7       -7.614579
    8       -7.514123
    9        1.826773
   10        2.553124
   11        2.639029
   12        3.045747
 
  0.4166667E+00  0.8333333E-01  0.0000000E+00  0.4629630E-02
    1      -21.040722
    2      -20.071546
    3      -11.182218
    4       -9.138483
    5       -8.955762
    6       -8.786320
    7       -7.873922
    8       -7.840085
    9        2.091714
   10        2.905527
   11        3.098935
   12        3.317561
 
  0.4583333E+00  0.8333333E-01  0.0000000E+00  0.4629630E-02
    1      -20.827560
    2      -20.342712
    3      -10.654017
    4       -9.626797
    5       -8.707616
    6       -8.580559
    7       -8.148680
    8       -8.122856
    9        2.384283
   10        3.051762
   11        3.198646
   12        3.617903
 
  0.5000000E+00  0.8333333E-01  0.0000000E+00  0.2314815E-02
    1      -20.594811
    2      -20.594811
    3      -10.133877
    4      -10.133877
    5       -8.438269
    6       -8.438269
    7       -8.358969
    8       -8.358969
    9        2.704358
   10        2.704358
   11        3.513480
   12        3.513627
 
  0.0000000E+00  0.1111111E+00  0.0000000E+00  0.2314815E-02
    1      -21.970003
    2      -16.707584
    3      -15.754112
    4      -10.168518
    5      -10.050521
    6       -6.684609
    7       -6.243866
    8       -4.766591
    9       -1.193362
   10        0.822672
   11        1.626323
   12        2.017160
 
  0.4166667E-01  0.1111111E+00  0.0000000E+00  0.4629630E-02
    1      -21.959724
    2      -16.882215
    3      -15.565303
    4      -10.157762
    5      -10.038320
    6       -6.729137
    7       -6.253957
    8       -4.837373
    9       -1.109156
   10        0.836641
   11        1.640437
   12        2.031468
 
  0.8333333E-01  0.1111111E+00  0.0000000E+00  0.4629630E-02
    1      -21.928894
    2      -17.227631
    3      -15.177484
    4      -10.125512
    5      -10.001736
    6       -6.851935
    7       -6.293680
    8       -5.031738
    9       -0.874697
   10        0.878552
   11        1.682777
   12        2.074391
 
  0.1250000E+00  0.1111111E+00  0.0000000E+00  0.4629630E-02
    1      -21.877535
    2      -17.607552
    3      -14.727337
    4      -10.071821
    5       -9.940827
    6       -7.033648
    7       -6.378347
    8       -5.311311
    9       -0.528896
   10        0.948412
   11        1.753330
   12        2.145932
 
  0.1666667E+00  0.1111111E+00  0.0000000E+00  0.4629630E-02
    1      -21.805684
    2      -17.988104
    3      -14.249421
    4       -9.996775
    5       -9.855690
    6       -7.259485
    7       -6.515954
    8       -5.640378
    9       -0.108364
   10        1.046226
   11        1.852076
   12        2.246094
 
  0.2083333E+00  0.1111111E+00  0.0000000E+00  0.4629630E-02
    1      -21.713392
    2      -18.359187
    3      -13.754839
    4       -9.900486
    5       -9.746468
    6       -7.520326
    7       -6.706279
    8       -5.993923
    9        0.360650
   10        1.171992
   11        1.978985
   12        2.374878
 
  0.2500000E+00  0.1111111E+00  0.0000000E+00  0.4629630E-02
    1      -21.600727
    2      -18.716729
    3      -13.249018
    4       -9.783089
    5       -9.613348
    6       -7.811334
    7       -6.942804
    8       -6.356025
    9        0.860662
   10        1.325692
   11        2.134015
   12        2.532283
 
  0.2916667E+00  0.1111111E+00  0.0000000E+00  0.4629630E-02
    1      -21.467774
    2      -19.058680
    3      -12.735774
    4       -9.644726
    5       -9.456576
    6       -8.131066
    7       -7.214414
    8       -6.716667
    9        1.379774
   10        1.507295
   11        2.317107
   12        2.718307
 
  0.3333333E+00  0.1111111E+00  0.0000000E+00  0.4629630E-02
    1      -21.314636
    2      -19.383825
    3      -12.218582
    4       -9.485534
    5       -9.276459
    6       -8.480599
    7       -7.507163
    8       -7.069384
    9        1.716754
   10        1.909344
   11        2.528177
   12        2.932944
 
  0.3750000E+00  0.1111111E+00  0.0000000E+00  0.4629630E-02
    1      -21.141434
    2      -19.691356
    3      -11.701090
    4       -9.305622
    5       -9.073379
    6       -8.861961
    7       -7.806593
    8       -7.409856
    9        1.954009
   10        2.442556
   11        2.767093
   12        3.176187
 
  0.4166667E+00  0.1111111E+00  0.0000000E+00  0.4629630E-02
    1      -20.948316
    2      -19.980690
    3      -11.187422
    4       -9.275958
    5       -9.105051
    6       -8.847812
    7       -8.100433
    8       -7.735082
    9        2.218986
   10        2.973388
   11        3.033612
   12        3.448036
 
  0.4583333E+00  0.1111111E+00  0.0000000E+00  0.4629630E-02
    1      -20.735458
    2      -20.251377
    3      -10.682361
    4       -9.720637
    5       -8.883851
    6       -8.600350
    7       -8.380397
    8       -8.042908
    9        2.511592
   10        3.179196
   11        3.327047
   12        3.493428
 
  0.5000000E+00  0.1111111E+00  0.0000000E+00  0.2314815E-02
    1      -20.503063
    2      -20.503063
    3      -10.191416
    4      -10.191416
    5       -8.642124
    6       -8.642124
    7       -8.331735
    8       -8.331735
    9        2.831713
   10        2.831713
   11        3.641619
   12        3.641643
 
  0.0000000E+00  0.1388889E+00  0.0000000E+00  0.2314815E-02
    1      -21.849793
    2      -16.604019
    3      -15.660365
    4      -10.593235
    5       -9.907878
    6       -7.080980
    7       -6.499492
    8       -4.620774
    9       -1.261113
   10        0.986157
   11        1.791689
   12        2.184807
 
  0.4166667E-01  0.1388889E+00  0.0000000E+00  0.4629630E-02
    1      -21.839527
    2      -16.777767
    3      -15.473131
    4      -10.582072
    5       -9.895721
    6       -7.128810
    7       -6.501416
    8       -4.693508
    9       -1.176229
   10        1.000119
   11        1.805789
   12        2.199114
 
  0.8333333E-01  0.1388889E+00  0.0000000E+00  0.4629630E-02
    1      -21.808738
    2      -17.121329
    3      -15.089284
    4      -10.548565
    5       -9.859271
    6       -7.258814
    7       -6.519939
    8       -4.892134
    9       -0.941334
   10        1.042010
   11        1.848085
   12        2.242034
 
  0.1250000E+00  0.1388889E+00  0.0000000E+00  0.4629630E-02
    1      -21.757447
    2      -17.499313
    3      -14.644739
    4      -10.492666
    5       -9.798586
    6       -7.447014
    7       -6.576657
    8       -5.175769
    9       -0.597842
   10        1.111842
   11        1.918565
   12        2.313571
 
  0.1666667E+00  0.1388889E+00  0.0000000E+00  0.4629630E-02
    1      -21.685694
    2      -17.878103
    3      -14.174018
    4      -10.414278
    5       -9.713763
    6       -7.675315
    7       -6.685236
    8       -5.507573
    9       -0.183466
   10        1.209628
   11        2.017207
   12        2.413730
 
  0.2083333E+00  0.1388889E+00  0.0000000E+00  0.4629630E-02
    1      -21.593532
    2      -18.247639
    3      -13.688519
    4      -10.313228
    5       -9.604946
    6       -7.932344
    7       -6.850271
    8       -5.862514
    9        0.275567
   10        1.335371
   11        2.143980
   12        2.542512
 
  0.2500000E+00  0.1388889E+00  0.0000000E+00  0.4629630E-02
    1      -21.481029
    2      -18.603844
    3      -13.194167
    4      -10.189234
    5       -9.472325
    6       -8.211223
    7       -7.069577
    8       -6.225001
    9        0.762191
   10        1.489060
   11        2.298841
   12        2.699920
 
  0.2916667E+00  0.1388889E+00  0.0000000E+00  0.4629630E-02
    1      -21.348275
    2      -18.944643
    3      -12.695500
    4      -10.041841
    5       -9.316144
    6       -8.508355
    7       -7.335913
    8       -6.585354
    9        1.264993
   10        1.670663
   11        2.481732
   12        2.885950
 
  0.3333333E+00  0.1388889E+00  0.0000000E+00  0.4629630E-02
    1      -21.195375
    2      -19.268797
    3      -12.196967
    4       -9.870358
    5       -9.136711
    6       -8.822981
    7       -7.638211
    8       -6.937369
    9        1.775834
   10        1.880129
   11        2.692577
   12        3.100598
 
  0.3750000E+00  0.1388889E+00  0.0000000E+00  0.4629630E-02
    1      -21.022457
    2      -19.575476
    3      -11.703504
    4       -9.673790
    5       -9.156963
    6       -8.934408
    7       -7.962649
    8       -7.276905
    9        2.117392
   10        2.288477
   11        2.931275
   12        3.343856
 
  0.4166667E+00  0.1388889E+00  0.0000000E+00  0.4629630E-02
    1      -20.829676
    2      -19.864078
    3      -11.220790
    4       -9.514143
    5       -9.450864
    6       -8.709705
    7       -8.293959
    8       -7.601083
    9        2.382371
   10        2.797816
   11        3.197675
   12        3.615720
 
  0.4583333E+00  0.1388889E+00  0.0000000E+00  0.4629630E-02
    1      -20.617213
    2      -20.134137
    3      -10.755160
    4       -9.898729
    5       -9.200325
    6       -8.617491
    7       -8.463189
    8       -7.907826
    9        2.674970
   10        3.299355
   11        3.342530
   12        3.491470
 
  0.5000000E+00  0.1388889E+00  0.0000000E+00  0.2314815E-02
    1      -20.385282
    2      -20.385282
    3      -10.312895
    4      -10.312895
    5       -8.921804
    6       -8.921804
    7       -8.195589
    8       -8.195589
    9        2.995072
   10        2.995072
   11        3.777187
   12        3.777546
 
  0.0000000E+00  0.1666667E+00  0.0000000E+00  0.2314815E-02
    1      -21.703106
    2      -16.477518
    3      -15.550973
    4      -11.060435
    5       -9.734182
    6       -7.522454
    7       -6.798922
    8       -4.442932
    9       -1.357749
   10        1.185997
   11        1.993650
   12        2.389720
 
  0.4166667E-01  0.1666667E+00  0.0000000E+00  0.4629630E-02
    1      -21.692857
    2      -16.650552
    3      -15.365500
    4      -11.048573
    5       -9.722084
    6       -7.573358
    7       -6.792502
    8       -4.518513
    9       -1.271649
   10        1.199947
   11        2.007727
   12        2.404024
 
  0.8333333E-01  0.1666667E+00  0.0000000E+00  0.4629630E-02
    1      -21.662119
    2      -16.992059
    3      -14.986924
    4      -11.012905
    5       -9.685809
    6       -7.710316
    7       -6.788796
    8       -4.723195
    9       -1.035575
   10        1.241802
   11        2.049954
   12        2.446938
 
  0.1250000E+00  0.1666667E+00  0.0000000E+00  0.4629630E-02
    1      -21.610913
    2      -17.367680
    3      -14.550365
    4      -10.953170
    5       -9.625417
    6       -7.905476
    7       -6.814799
    8       -5.012384
    9       -0.694623
   10        1.311579
   11        2.120315
   12        2.518466
 
  0.1666667E+00  0.1666667E+00  0.0000000E+00  0.4629630E-02
    1      -21.539281
    2      -17.744259
    3      -14.090317
    4      -10.868887
    5       -9.541007
    6       -8.138122
    7       -6.889082
    8       -5.347769
    9       -0.287919
   10        1.409299
   11        2.218784
   12        2.618614
 
  0.2083333E+00  0.1666667E+00  0.0000000E+00  0.4629630E-02
    1      -21.447277
    2      -18.111840
    3      -13.618752
    4      -10.759275
    5       -9.432724
    6       -8.395359
    7       -7.020407
    8       -5.704412
    9        0.158514
   10        1.534976
   11        2.345322
   12        2.747387
 
  0.2500000E+00  0.1666667E+00  0.0000000E+00  0.4629630E-02
    1      -21.334975
    2      -18.466350
    3      -13.142597
    4      -10.623146
    5       -9.300759
    6       -8.669124
    7       -7.210340
    8       -6.067244
    9        0.628295
   10        1.688607
   11        2.499874
   12        2.904788
 
  0.2916667E+00  0.1666667E+00  0.0000000E+00  0.4629630E-02
    1      -21.202466
    2      -18.805690
    3      -12.667819
    4      -10.458766
    5       -9.145359
    6       -8.954437
    7       -7.455117
    8       -6.427066
    9        1.110740
   10        1.870165
   11        2.682366
   12        3.090817
 
  0.3333333E+00  0.1666667E+00  0.0000000E+00  0.4629630E-02
    1      -21.049862
    2      -19.128591
    3      -12.200731
    4      -10.263773
    5       -9.248678
    6       -8.966832
    7       -7.746960
    8       -6.778030
    9        1.598399
   10        2.079597
   11        2.892696
   12        3.305470
 
  0.3750000E+00  0.1666667E+00  0.0000000E+00  0.4629630E-02
    1      -20.877299
    2      -19.434196
    3      -11.748323
    4      -10.035355
    5       -9.551420
    6       -8.765559
    7       -8.075092
    8       -7.116232
    9        2.085705
   10        2.316829
   11        3.130713
   12        3.548738
 
  0.4166667E+00  0.1666667E+00  0.0000000E+00  0.4629630E-02
    1      -20.684938
    2      -19.721876
    3      -11.317703
    4       -9.864513
    5       -9.771094
    6       -8.542008
    7       -8.426465
    8       -7.438951
    9        2.568230
   10        2.581770
   11        3.396125
   12        3.820615
 
  0.4583333E+00  0.1666667E+00  0.0000000E+00  0.4629630E-02
    1      -20.472970
    2      -19.991147
    3      -10.914403
    4      -10.192130
    5       -9.470863
    6       -8.786336
    7       -8.296759
    8       -7.744210
    9        2.874312
   10        3.042205
   11        3.541660
   12        3.687052
 
  0.5000000E+00  0.1666667E+00  0.0000000E+00  0.2314815E-02
    1      -20.241618
    2      -20.241618
    3      -10.540168
    4      -10.540168
    5       -9.139212
    6       -9.139212
    7       -8.030527
    8       -8.030527
    9        3.194326
   10        3.194326
   11        3.503743
   12        3.503748
 