 running on    8 total cores
 distrk:  each k-point on    8 cores,    1 groups
 distr:  one band on    2 cores,    4 groups
 using from now: INCAR     
 vasp.5.3.5 31Mar14 (build Mar 02 2015 18:14:16) complex                        
  
 POSCAR found type information on POSCAR  C 
 POSCAR found :  1 types and       4 ions
 LDA part: xc-table for Pade appr. of Perdew
 POSCAR, INCAR and KPOINTS ok, starting setup
 WARNING: small aliasing (wrap around) errors must be expected
 FFT: planning ...
 WAVECAR not read
 entering main loop
       N       E                     dE             d eps       ncg     rms          rms(c)
DAV:   1     0.189695249632E+03    0.18970E+03   -0.10622E+04  5928   0.275E+03
DAV:   2    -0.926425032577E+01   -0.19896E+03   -0.17738E+03 10508   0.262E+02
DAV:   3    -0.382972786386E+02   -0.29033E+02   -0.28558E+02  7340   0.120E+02    0.725E+00
RMM:   4    -0.376694779025E+02    0.62780E+00   -0.94069E+00  5928   0.266E+01    0.419E+00
RMM:   5    -0.369244380642E+02    0.74504E+00   -0.27595E+00  5930   0.114E+01    0.713E-01
RMM:   6    -0.369262152477E+02   -0.17772E-02   -0.82623E-02  6374   0.203E+00    0.511E-01
RMM:   7    -0.369168016809E+02    0.94136E-02   -0.31936E-02  5937   0.156E+00    0.335E-01
RMM:   8    -0.369114390458E+02    0.53626E-02   -0.72384E-03  5928   0.564E-01    0.133E-01
RMM:   9    -0.369111830702E+02    0.25598E-03   -0.19973E-02  5928   0.836E-01    0.157E-01
RMM:  10    -0.369110865598E+02    0.96510E-04   -0.25615E-03  5928   0.365E-01    0.304E-02
RMM:  11    -0.369135584438E+02   -0.24719E-02   -0.68732E-04  5928   0.172E-01    0.451E-02
RMM:  12    -0.369140181175E+02   -0.45967E-03   -0.23395E-04  5937   0.101E-01    0.455E-03
RMM:  13    -0.369142725925E+02   -0.25448E-03   -0.50160E-05  6011   0.391E-02    0.443E-03
RMM:  14    -0.369143551515E+02   -0.82559E-04   -0.11473E-05  5943   0.192E-02    0.210E-03
RMM:  15    -0.369143635840E+02   -0.84324E-05   -0.14667E-06  5993   0.725E-03    0.100E-03
RMM:  16    -0.369143756928E+02   -0.12109E-04   -0.50754E-07  5961   0.435E-03    0.575E-04
RMM:  17    -0.369143801787E+02   -0.44860E-05   -0.34225E-08  6117   0.137E-03    0.732E-04
RMM:  18    -0.369143814546E+02   -0.12758E-05   -0.57330E-08  5928   0.175E-03    0.767E-05
WARNING in EDDRMM: call to ZHEGV failed, returncode =   6  3  1
WARNING in EDDRMM: call to ZHEGV failed, returncode =   6  3  1
WARNING in EDDRMM: call to ZHEGV failed, returncode =   6  3  1
RMM:  19    -0.369143821717E+02   -0.71707E-06   -0.99498E-09  5968   0.480E-04    0.189E-05
RMM:  20    -0.369143822221E+02   -0.50397E-07   -0.72214E-10  4465   0.132E-04    0.243E-05
RMM:  21    -0.369143822405E+02   -0.18457E-07   -0.27048E-10  4401   0.956E-05    0.437E-06
RMM:  22    -0.369143822404E+02    0.66279E-10   -0.96834E-12  3883   0.419E-05
   1 F= -.36914382E+02 E0= -.36914368E+02  d E =-.369144E+02
 BRION: g(F)=  0.133E-10 g(S)=  0.000E+00
 bond charge predicted
       N       E                     dE             d eps       ncg     rms          rms(c)
DAV:   1    -0.369143822406E+02   -0.44793E-10    0.38726E-09  6632   0.404E-04    0.917E-06
RMM:   2    -0.369143822410E+02   -0.49181E-09   -0.11559E-11  3719   0.525E-05    0.640E-06
RMM:   3    -0.369143822410E+02    0.82878E-10   -0.73296E-12  3735   0.479E-05    0.148E-06
RMM:   4    -0.369143822408E+02    0.11426E-09   -0.95644E-12  3272   0.372E-05    0.598E-07
RMM:   5    -0.369143822407E+02    0.12403E-09   -0.45370E-12  2942   0.293E-05    0.107E-06
RMM:   6    -0.369143822408E+02   -0.11005E-09   -0.25848E-12  2602   0.252E-05    0.655E-07
RMM:   7    -0.369143822411E+02   -0.26932E-09   -0.35128E-12  2366   0.232E-05    0.499E-07
RMM:   8    -0.369143822411E+02   -0.17963E-10   -0.58829E-13  2198   0.203E-05
   2 F= -.36914382E+02 E0= -.36914368E+02  d E =-.679051E-09
 BRION: g(F)=  0.204E-09 g(S)=  0.000E+00 retain N=  1 mean eig= 0.20
 eig:   0.203
 bond charge predicted
       N       E                     dE             d eps       ncg     rms          rms(c)
DAV:   1    -0.369143822405E+02    0.63073E-09    0.45709E-09  6268   0.321E-04    0.707E-06
RMM:   2    -0.369143822412E+02   -0.68133E-09    0.16954E-13  3268   0.372E-05    0.473E-06
RMM:   3    -0.369143822408E+02    0.37051E-09   -0.31857E-12  3559   0.376E-05    0.698E-07
RMM:   4    -0.369143822409E+02   -0.15893E-09   -0.81687E-12  2809   0.319E-05    0.290E-07
RMM:   5    -0.369143822411E+02   -0.11084E-09   -0.49167E-12  2407   0.270E-05    0.510E-07
RMM:   6    -0.369143822408E+02    0.23522E-09   -0.14269E-12  2161   0.233E-05    0.562E-07
RMM:   7    -0.369143822411E+02   -0.25057E-09   -0.17417E-13  1900   0.209E-05    0.548E-07
RMM:   8    -0.369143822408E+02    0.22226E-09   -0.97922E-13  1814   0.192E-05    0.509E-07
RMM:   9    -0.369143822410E+02   -0.18520E-09   -0.12716E-12  1537   0.178E-05    0.487E-07
RMM:  10    -0.369143822412E+02   -0.13188E-09   -0.12086E-12  1450   0.171E-05    0.474E-07
RMM:  11    -0.369143822410E+02    0.19361E-09   -0.96349E-13  1328   0.168E-05    0.507E-07
RMM:  12    -0.369143822410E+02   -0.79581E-12   -0.85514E-13  1248   0.162E-05
   3 F= -.36914382E+02 E0= -.36914368E+02  d E =0.150749E-09
 BRION: g(F)=  0.250E-13 g(S)=  0.000E+00 retain N=  1 mean eig= 0.21
 eig:   0.205
 reached required accuracy - stopping structural energy minimisation
