gr                                      
           1
     4.265593    0.000000    0.000000
     0.000000    2.492097    0.000000
     0.000000    0.000000   19.833728
   C 
   4
Direct configuration=     1
   0.00026297  0.00000000  0.00000000
   0.16640370  0.50000000  0.00000000
   0.50026297  0.50000000  0.00000000
   0.66640370  0.00000000  0.00000000
Direct configuration=     2
   0.00026306 -0.00000000  0.00000000
   0.16640361  0.50000000 -0.00000000
   0.50026306  0.50000000  0.00000000
   0.66640361 -0.00000000 -0.00000000
Direct configuration=     3
   0.00026299 -0.00000000  0.00000000
   0.16640368  0.50000000 -0.00000000
   0.50026299  0.50000000  0.00000000
   0.66640368 -0.00000000 -0.00000000
