    4    4  400    1
  0.5270948E+02  0.4295264E-09  0.2464891E-09  0.1991412E-08  0.5000000E-15
  1.000000000000000E-004
  CAR 
 gr                                      
     16    247     12
 
  0.0000000E+00  0.0000000E+00  0.0000000E+00  0.1157407E-02
    1      -22.218136
    2      -17.072015
    3      -15.945573
    4      -10.331511
    5       -9.083247
    6       -5.833117
    7       -5.773325
    8       -5.158670
    9       -1.099209
   10        0.528079
   11        1.328574
   12        1.713586
 
  0.4166667E-01  0.0000000E+00  0.0000000E+00  0.2314815E-02
    1      -22.207990
    2      -17.225416
    3      -15.776965
    4      -10.319407
    5       -9.073216
    6       -5.876206
    7       -5.795363
    8       -5.223489
    9       -1.018447
   10        0.541833
   11        1.342513
   12        1.727694
 
  0.8333333E-01  0.0000000E+00  0.0000000E+00  0.2314815E-02
    1      -22.177558
    2      -17.548531
    3      -15.408312
    4      -10.283113
    5       -9.043175
    6       -6.003639
    7       -5.860274
    8       -5.403679
    9       -0.790596
   10        0.583097
   11        1.384324
   12        1.770018
 
  0.1250000E+00  0.0000000E+00  0.0000000E+00  0.2314815E-02
    1      -22.126859
    2      -17.915545
    3      -14.965680
    4      -10.222687
    5       -8.993276
    6       -6.210237
    7       -5.964644
    8       -5.667273
    9       -0.448128
   10        0.651880
   11        1.453995
   12        1.840561
 
  0.1666667E+00  0.0000000E+00  0.0000000E+00  0.2314815E-02
    1      -22.055926
    2      -18.287750
    3      -14.488208
    4      -10.138226
    5       -8.923781
    6       -6.488304
    7       -6.103384
    8       -5.982237
    9       -0.023936
   10        0.748190
   11        1.551504
   12        1.939324
 
  0.2083333E+00  0.0000000E+00  0.0000000E+00  0.2314815E-02
    1      -21.964810
    2      -18.652633
    3      -13.989032
    4      -10.029871
    5       -8.835068
    6       -6.828695
    7       -6.324462
    8       -6.270407
    9        0.456643
   10        0.872029
   11        1.676814
   12        2.066309
 
  0.2500000E+00  0.0000000E+00  0.0000000E+00  0.2314815E-02
    1      -21.853573
    2      -19.005088
    3      -13.474078
    4       -9.897813
    5       -8.727643
    6       -7.221789
    7       -6.677740
    8       -6.459279
    9        0.975750
   10        1.023388
   11        1.829872
   12        2.221514
 
  0.2916667E+00  0.0000000E+00  0.0000000E+00  0.2314815E-02
    1      -21.722297
    2      -19.342595
    3      -12.946918
    4       -9.742296
    5       -8.602155
    6       -7.658235
    7       -7.031483
    8       -6.663722
    9        1.202246
   10        1.520646
   11        2.010595
   12        2.404938
 
  0.3333333E+00  0.0000000E+00  0.0000000E+00  0.2314815E-02
    1      -21.571078
    2      -19.663713
    3      -12.410298
    4       -9.563632
    5       -8.459420
    6       -8.129400
    7       -7.378715
    8       -6.877945
    9        1.408565
   10        2.081447
   11        2.218849
   12        2.616577
 
  0.3750000E+00  0.0000000E+00  0.0000000E+00  0.2314815E-02
    1      -21.400033
    2      -19.967523
    3      -11.866741
    4       -9.362211
    5       -8.627580
    6       -8.300446
    7       -7.714724
    8       -7.096799
    9        1.642296
   10        2.454395
   11        2.648833
   12        2.856420
 
  0.4166667E+00  0.0000000E+00  0.0000000E+00  0.2314815E-02
    1      -21.209301
    2      -20.253383
    3      -11.318830
    4       -9.146059
    5       -9.138524
    6       -8.126469
    7       -8.036232
    8       -7.315828
    9        1.903368
   10        2.716734
   11        3.124463
   12        3.218409
 
  0.4583333E+00  0.0000000E+00  0.0000000E+00  0.2314815E-02
    1      -20.999047
    2      -20.520822
    3      -10.769379
    4       -9.679041
    5       -8.893186
    6       -8.340891
    7       -7.938995
    8       -7.531240
    9        2.191687
   10        2.849473
   11        3.004534
   12        3.420689
 
  0.5000000E+00  0.0000000E+00  0.0000000E+00  0.1157407E-02
    1      -20.769475
    2      -20.769475
    3      -10.221564
    4      -10.221564
    5       -8.626976
    6       -8.626976
    7       -7.739849
    8       -7.739849
    9        2.507121
   10        2.507121
   11        3.312248
   12        3.312248
 
  0.0000000E+00  0.2777778E-01  0.0000000E+00  0.2314815E-02
    1      -22.204434
    2      -17.060231
    3      -15.933940
    4      -10.315165
    5       -9.145205
    6       -5.862429
    7       -5.830622
    8       -5.142024
    9       -1.102821
   10        0.546661
   11        1.347388
   12        1.732628
 
  0.4166667E-01  0.2777778E-01  0.0000000E+00  0.4629630E-02
    1      -22.194290
    2      -17.213474
    3      -15.765540
    4      -10.303065
    5       -9.135159
    6       -5.913028
    7       -5.844492
    8       -5.206982
    9       -1.022035
   10        0.560415
   11        1.361325
   12        1.746736
 
  0.8333333E-01  0.2777778E-01  0.0000000E+00  0.4629630E-02
    1      -22.163862
    2      -17.536336
    3      -15.397290
    4      -10.266783
    5       -9.105070
    6       -6.044867
    7       -5.903135
    8       -5.387492
    9       -0.794209
   10        0.601681
   11        1.403134
   12        1.789061
 
  0.1250000E+00  0.2777778E-01  0.0000000E+00  0.4629630E-02
    1      -22.113170
    2      -17.903124
    3      -14.955140
    4      -10.206377
    5       -9.055088
    6       -6.250393
    7       -6.005826
    8       -5.651418
    9       -0.451987
   10        0.670466
   11        1.472801
   12        1.859605
 
  0.1666667E+00  0.2777778E-01  0.0000000E+00  0.4629630E-02
    1      -22.042248
    2      -18.275137
    3      -14.478233
    4      -10.121945
    5       -8.985469
    6       -6.524431
    7       -6.145338
    8       -5.966629
    9       -0.028357
   10        0.766781
   11        1.570304
   12        1.958369
 
  0.2083333E+00  0.2777778E-01  0.0000000E+00  0.4629630E-02
    1      -21.951146
    2      -18.639856
    3      -13.979720
    4      -10.013628
    5       -8.896583
    6       -6.859484
    7       -6.314290
    8       -6.309000
    9        0.451324
   10        0.890627
   11        1.695608
   12        2.085355
 
  0.2500000E+00  0.2777778E-01  0.0000000E+00  0.4629630E-02
    1      -21.839927
    2      -18.992171
    3      -13.465551
    4       -9.881615
    5       -8.788924
    6       -7.246902
    7       -6.662338
    8       -6.505542
    9        0.969222
   10        1.041995
   11        1.848658
   12        2.240563
 
  0.2916667E+00  0.2777778E-01  0.0000000E+00  0.4629630E-02
    1      -21.708673
    2      -19.329556
    3      -12.939321
    4       -9.726152
    5       -8.663127
    6       -7.677879
    7       -7.016080
    8       -6.712430
    9        1.220863
   10        1.512638
   11        2.029375
   12        2.423990
 
  0.3333333E+00  0.2777778E-01  0.0000000E+00  0.4629630E-02
    1      -21.557481
    2      -19.650570
    3      -12.403810
    4       -9.547549
    5       -8.519992
    6       -8.144060
    7       -7.363271
    8       -6.928954
    9        1.427195
   10        2.071769
   11        2.237624
   12        2.635632
 
  0.3750000E+00  0.2777778E-01  0.0000000E+00  0.4629630E-02
    1      -21.386468
    2      -19.954290
    3      -11.861578
    4       -9.346197
    5       -8.637853
    6       -8.360505
    7       -7.699212
    8       -7.149865
    9        1.660939
   10        2.473170
   11        2.637504
   12        2.875480
 
  0.4166667E+00  0.2777778E-01  0.0000000E+00  0.4629630E-02
    1      -21.195772
    2      -20.240072
    3      -11.315249
    4       -9.152553
    5       -9.122586
    6       -8.185879
    7       -8.020639
    8       -7.370672
    9        1.922027
   10        2.735522
   11        3.143523
   12        3.194882
 
  0.4583333E+00  0.2777778E-01  0.0000000E+00  0.4629630E-02
    1      -20.985562
    2      -20.507444
    3      -10.767692
    4       -9.682325
    5       -8.877331
    6       -8.325211
    7       -7.997589
    8       -7.587583
    9        2.210366
   10        2.868224
   11        3.023352
   12        3.439745
 
  0.5000000E+00  0.2777778E-01  0.0000000E+00  0.2314815E-02
    1      -20.756039
    2      -20.756039
    3      -10.222144
    4      -10.222144
    5       -8.611207
    6       -8.611207
    7       -7.797432
    8       -7.797432
    9        2.525827
   10        2.525827
   11        3.331000
   12        3.331000
 
  0.0000000E+00  0.5555556E-01  0.0000000E+00  0.2314815E-02
    1      -22.163340
    2      -17.024880
    3      -15.899190
    4      -10.266160
    5       -9.326110
    6       -5.997920
    7       -5.949710
    8       -5.092109
    9       -1.114482
   10        0.602410
   11        1.403821
   12        1.789757
 
  0.4166667E-01  0.5555556E-01  0.0000000E+00  0.4629630E-02
    1      -22.153199
    2      -17.177661
    3      -15.731406
    4      -10.254072
    5       -9.316012
    6       -6.052048
    7       -5.958118
    8       -5.157495
    9       -1.033619
   10        0.616164
   11        1.417756
   12        1.803865
 
  0.8333333E-01  0.5555556E-01  0.0000000E+00  0.4629630E-02
    1      -22.122784
    2      -17.499771
    3      -15.364371
    4      -10.217829
    5       -9.285765
    6       -6.184639
    7       -6.010545
    8       -5.338988
    9       -0.805863
   10        0.657432
   11        1.459557
   12        1.846191
 
  0.1250000E+00  0.5555556E-01  0.0000000E+00  0.4629630E-02
    1      -22.072115
    2      -17.865885
    3      -14.923688
    4      -10.157486
    5       -9.235508
    6       -6.383036
    7       -6.112239
    8       -5.603930
    9       -0.464386
   10        0.726224
   11        1.529211
   12        1.916736
 
  0.1666667E+00  0.5555556E-01  0.0000000E+00  0.4629630E-02
    1      -22.001226
    2      -18.237320
    3      -14.448505
    4      -10.073142
    5       -9.165478
    6       -6.643362
    7       -6.255801
    8       -5.919896
    9       -0.042474
   10        0.822549
   11        1.626696
   12        2.015503
 
  0.2083333E+00  0.5555556E-01  0.0000000E+00  0.4629630E-02
    1      -21.910167
    2      -18.601545
    3      -13.952028
    4       -9.964937
    5       -9.076019
    6       -6.960961
    7       -6.432052
    8       -6.262709
    9        0.434465
   10        0.946411
   11        1.751979
   12        2.142493
 
  0.2500000E+00  0.5555556E-01  0.0000000E+00  0.4629630E-02
    1      -21.799002
    2      -18.953436
    3      -13.440274
    4       -9.833062
    5       -8.967587
    6       -7.329795
    7       -6.632033
    8       -6.616227
    9        0.948664
   10        1.097801
   11        1.905006
   12        2.297706
 
  0.2916667E+00  0.5555556E-01  0.0000000E+00  0.4629630E-02
    1      -21.667816
    2      -19.290458
    3      -12.916921
    4       -9.677762
    5       -8.840774
    6       -7.742843
    7       -6.969963
    8       -6.847775
    9        1.276695
   10        1.487553
   11        2.085699
   12        2.481141
 
  0.3333333E+00  0.5555556E-01  0.0000000E+00  0.4629630E-02
    1      -21.516703
    2      -19.611158
    3      -12.384851
    4       -9.499346
    5       -8.696317
    6       -8.192727
    7       -7.317023
    8       -7.072526
    9        1.483057
   10        2.041543
   11        2.293932
   12        2.692792
 
  0.3750000E+00  0.5555556E-01  0.0000000E+00  0.4629630E-02
    1      -21.345783
    2      -19.914606
    3      -11.846743
    4       -9.298205
    5       -8.672247
    6       -8.535134
    7       -7.652757
    8       -7.300686
    9        1.716835
   10        2.529480
   11        2.602078
   12        2.932653
 
  0.4166667E+00  0.5555556E-01  0.0000000E+00  0.4629630E-02
    1      -21.155198
    2      -20.200155
    3      -11.305371
    4       -9.174733
    5       -9.074826
    6       -8.358349
    7       -7.973935
    8       -7.527667
    9        1.977961
   10        2.791869
   11        3.157078
   12        3.200713
 
  0.4583333E+00  0.5555556E-01  0.0000000E+00  0.4629630E-02
    1      -20.945116
    2      -20.467324
    3      -10.763778
    4       -9.694202
    5       -8.829821
    6       -8.278239
    7       -8.167336
    8       -7.749718
    9        2.266346
   10        2.924368
   11        3.079795
   12        3.497229
 
  0.5000000E+00  0.5555556E-01  0.0000000E+00  0.2314815E-02
    1      -20.715744
    2      -20.715744
    3      -10.225405
    4      -10.225405
    5       -8.563962
    6       -8.563962
    7       -7.963776
    8       -7.963776
    9        2.581871
   10        2.581871
   11        3.387213
   12        3.387213
 
  0.0000000E+00  0.8333333E-01  0.0000000E+00  0.2314815E-02
    1      -22.094886
    2      -16.965976
    3      -15.841797
    4      -10.184600
    5       -9.612428
    6       -6.262836
    7       -6.093027
    8       -5.008986
    9       -1.136674
   10        0.695334
   11        1.497852
   12        1.884974
 
  0.4166667E-01  0.8333333E-01  0.0000000E+00  0.4629630E-02
    1      -22.084753
    2      -17.118015
    3      -15.675024
    4      -10.172534
    5       -9.602228
    6       -6.309920
    7       -6.105395
    8       -5.075129
    9       -1.055658
   10        0.709088
   11        1.511782
   12        1.899083
 
  0.8333333E-01  0.8333333E-01  0.0000000E+00  0.4629630E-02
    1      -22.054361
    2      -17.438899
    3      -15.310032
    4      -10.136354
    5       -9.571666
    6       -6.436433
    7       -6.155149
    8       -5.258351
    9       -0.827989
   10        0.750354
   11        1.553568
   12        1.941408
 
  0.1250000E+00  0.8333333E-01  0.0000000E+00  0.4629630E-02
    1      -22.003730
    2      -17.803894
    3      -14.871862
    4      -10.076119
    5       -9.520860
    6       -6.624713
    7       -6.253867
    8       -5.525062
    9       -0.487775
   10        0.819147
   11        1.623198
   12        2.011954
 
  0.1666667E+00  0.8333333E-01  0.0000000E+00  0.4629630E-02
    1      -21.932896
    2      -18.174364
    3      -14.399668
    4       -9.991925
    5       -9.450013
    6       -6.866230
    7       -6.400520
    8       -5.842329
    9       -0.068819
   10        0.915478
   11        1.720651
   12        2.110723
 
  0.2083333E+00  0.8333333E-01  0.0000000E+00  0.4629630E-02
    1      -21.841909
    2      -18.537761
    3      -13.906751
    4       -9.883915
    5       -9.359411
    6       -7.156754
    7       -6.587177
    8       -6.185889
    9        0.403388
   10        1.039353
   11        1.845894
   12        2.237717
 
  0.2500000E+00  0.8333333E-01  0.0000000E+00  0.4629630E-02
    1      -21.730836
    2      -18.888942
    3      -13.399254
    4       -9.752277
    5       -9.249442
    6       -7.493476
    7       -6.802953
    8       -6.539704
    9        0.911205
   10        1.190764
   11        1.998876
   12        2.392937
 
  0.2916667E+00  0.8333333E-01  0.0000000E+00  0.4629630E-02
    1      -21.599760
    2      -19.225352
    3      -12.881016
    4       -9.597256
    5       -9.120596
    6       -7.873279
    7       -7.036816
    8       -6.893413
    9        1.369686
   10        1.442267
   11        2.179524
   12        2.576381
 
  0.3333333E+00  0.8333333E-01  0.0000000E+00  0.4629630E-02
    1      -21.448779
    2      -19.545524
    3      -12.355113
    4       -9.419162
    5       -8.973490
    6       -8.291813
    7       -7.279396
    8       -7.240235
    9        1.576081
   10        1.987305
   11        2.387723
   12        2.788045
 
  0.3750000E+00  0.8333333E-01  0.0000000E+00  0.4629630E-02
    1      -21.278017
    2      -19.848518
    3      -11.824473
    4       -9.218384
    5       -8.808880
    6       -8.743528
    7       -7.575603
    8       -7.523560
    9        1.809895
   10        2.538469
   11        2.623266
   12        3.027922
 
  0.4166667E+00  0.8333333E-01  0.0000000E+00  0.4629630E-02
    1      -21.087617
    2      -20.133675
    3      -11.292172
    4       -9.222267
    5       -8.995405
    6       -8.627693
    7       -7.896344
    8       -7.764127
    9        2.071061
   10        2.885721
   11        3.086770
   12        3.296003
 
  0.4583333E+00  0.8333333E-01  0.0000000E+00  0.4629630E-02
    1      -20.877752
    2      -20.400504
    3      -10.761623
    4       -9.721895
    5       -8.750833
    6       -8.431060
    7       -8.200180
    8       -7.997333
    9        2.359490
   10        3.017657
   11        3.173831
   12        3.592111
 
  0.5000000E+00  0.8333333E-01  0.0000000E+00  0.2314815E-02
    1      -20.648631
    2      -20.648631
    3      -10.236712
    4      -10.236712
    5       -8.485432
    6       -8.485432
    7       -8.220367
    8       -8.220367
    9        2.675072
   10        2.675072
   11        3.480704
   12        3.480704
 
  0.0000000E+00  0.1111111E+00  0.0000000E+00  0.2314815E-02
    1      -21.999136
    2      -16.883540
    3      -15.762660
    4      -10.070658
    5       -9.985317
    6       -6.608460
    7       -6.289249
    8       -4.892759
    9       -1.173505
   10        0.825443
   11        1.629442
   12        2.018283
 
  0.4166667E-01  0.1111111E+00  0.0000000E+00  0.4629630E-02
    1      -21.989014
    2      -17.034608
    3      -15.597266
    4      -10.058623
    5       -9.974935
    6       -6.654667
    7       -6.298460
    8       -4.960063
    9       -1.092213
   10        0.839193
   11        1.643364
   12        2.032391
 
  0.8333333E-01  0.1111111E+00  0.0000000E+00  0.4629630E-02
    1      -21.958654
    2      -17.353832
    3      -15.235181
    4      -10.022538
    5       -9.943815
    6       -6.780012
    7       -6.337868
    8       -5.145911
    9       -0.864577
   10        0.880450
   11        1.685127
   12        2.074715
 
  0.1250000E+00  0.1111111E+00  0.0000000E+00  0.4629630E-02
    1      -21.908076
    2      -17.717271
    3      -14.800704
    4       -9.962460
    5       -9.892037
    6       -6.963898
    7       -6.423571
    8       -5.415271
    9       -0.526153
   10        0.949229
   11        1.754718
   12        2.145260
 
  0.1666667E+00  0.1111111E+00  0.0000000E+00  0.4629630E-02
    1      -21.837319
    2      -18.086386
    3      -14.332984
    4       -9.878486
    5       -9.819734
    6       -7.193142
    7       -6.561329
    8       -5.734447
    9       -0.111513
   10        1.045549
   11        1.852117
   12        2.244028
 
  0.2083333E+00  0.1111111E+00  0.0000000E+00  0.4629630E-02
    1      -21.746434
    2      -18.448613
    3      -13.845474
    4       -9.770759
    5       -9.727094
    6       -7.460672
    7       -6.748224
    8       -6.079082
    9        0.353765
   10        1.169419
   11        1.977292
   12        2.371024
 
  0.2500000E+00  0.1111111E+00  0.0000000E+00  0.4629630E-02
    1      -21.635490
    2      -18.798787
    3      -13.344532
    4       -9.639468
    5       -9.614361
    6       -7.763335
    7       -6.975508
    8       -6.433295
    9        0.852235
   10        1.320834
   11        2.130196
   12        2.526249
 
  0.2916667E+00  0.1111111E+00  0.0000000E+00  0.4629630E-02
    1      -21.504568
    2      -19.134330
    3      -12.834280
    4       -9.484857
    5       -9.481834
    6       -8.100513
    7       -7.230871
    8       -6.786931
    9        1.371830
   10        1.499768
   11        2.310763
   12        2.709701
 
  0.3333333E+00  0.1111111E+00  0.0000000E+00  0.4629630E-02
    1      -21.353775
    2      -19.453756
    3      -12.318161
    4       -9.329868
    5       -9.307236
    6       -8.472543
    7       -7.500928
    8       -7.133374
    9        1.706182
   10        1.903667
   11        2.518891
   12        2.921376
 
  0.3750000E+00  0.1111111E+00  0.0000000E+00  0.4629630E-02
    1      -21.183234
    2      -19.756105
    3      -11.799572
    4       -9.158880
    5       -9.106991
    6       -8.878871
    7       -7.773778
    8       -7.468181
    9        1.940017
   10        2.440586
   11        2.754406
   12        3.161267
 
  0.4166667E+00  0.1111111E+00  0.0000000E+00  0.4629630E-02
    1      -20.993093
    2      -20.040706
    3      -11.282186
    4       -9.316865
    5       -8.969349
    6       -8.884602
    7       -8.040670
    8       -7.788261
    9        2.201201
   10        2.975828
   11        3.016948
   12        3.429367
 
  0.4583333E+00  0.1111111E+00  0.0000000E+00  0.4629630E-02
    1      -20.783535
    2      -20.307057
    3      -10.770163
    4       -9.781897
    5       -8.761848
    6       -8.640669
    7       -8.296137
    8       -8.091397
    9        2.489647
   10        3.147851
   11        3.305386
   12        3.496524
 
  0.5000000E+00  0.1111111E+00  0.0000000E+00  0.2314815E-02
    1      -20.554770
    2      -20.554770
    3      -10.268270
    4      -10.268270
    5       -8.537099
    6       -8.537099
    7       -8.375947
    8       -8.375947
    9        2.805243
   10        2.805243
   11        3.610629
   12        3.610629
 
  0.0000000E+00  0.1388889E+00  0.0000000E+00  0.2314815E-02
    1      -21.876177
    2      -16.777598
    3      -15.663296
    4      -10.423987
    5       -9.924587
    6       -7.016796
    7       -6.534200
    8       -4.743577
    9       -1.230605
   10        0.992740
   11        1.798535
   12        2.189685
 
  0.4166667E-01  0.1388889E+00  0.0000000E+00  0.4629630E-02
    1      -21.866068
    2      -16.927549
    3      -15.499619
    4      -10.413294
    5       -9.912594
    6       -7.063841
    7       -6.537832
    8       -4.812576
    9       -1.148818
   10        1.006482
   11        1.812445
   12        2.203792
 
  0.8333333E-01  0.1388889E+00  0.0000000E+00  0.4629630E-02
    1      -21.835749
    2      -17.244744
    3      -15.141394
    4      -10.381218
    5       -9.876637
    6       -7.191270
    7       -6.561528
    8       -5.002205
    9       -0.921003
   10        1.047715
   11        1.854170
   12        2.246113
 
  0.1250000E+00  0.1388889E+00  0.0000000E+00  0.4629630E-02
    1      -21.785242
    2      -17.606205
    3      -14.712049
    4      -10.327767
    5       -9.816772
    6       -7.375783
    7       -6.625742
    8       -5.275291
    9       -0.584856
   10        1.116460
   11        1.923699
   12        2.316652
 
  0.1666667E+00  0.1388889E+00  0.0000000E+00  0.4629630E-02
    1      -21.714586
    2      -17.973563
    3      -14.250727
    4      -10.252943
    5       -9.733099
    6       -7.600738
    7       -6.742024
    8       -5.597082
    9       -0.175998
   10        1.212741
   11        2.021010
   12        2.415416
 
  0.2083333E+00  0.1388889E+00  0.0000000E+00  0.4629630E-02
    1      -21.623832
    2      -18.334263
    3      -13.771121
    4      -10.156735
    5       -9.625758
    6       -7.856140
    7       -6.912871
    8       -5.943132
    9        0.279928
   10        1.336575
   11        2.146072
   12        2.542408
 
  0.2500000E+00  0.1388889E+00  0.0000000E+00  0.4629630E-02
    1      -21.513051
    2      -18.683121
    3      -13.279971
    4      -10.039097
    5       -9.494940
    6       -8.136392
    7       -7.134185
    8       -6.297821
    9        0.765800
   10        1.487960
   11        2.298841
   12        2.697632
 
  0.2916667E+00  0.1388889E+00  0.0000000E+00  0.4629630E-02
    1      -21.382332
    2      -19.017530
    3      -12.781925
    4       -9.899921
    5       -9.340891
    6       -8.439208
    7       -7.396955
    8       -6.651287
    9        1.269972
   10        1.666876
   11        2.479257
   12        2.881088
 
  0.3333333E+00  0.1388889E+00  0.0000000E+00  0.4629630E-02
    1      -21.231780
    2      -19.335979
    3      -12.281135
    4       -9.738999
    5       -9.163918
    6       -8.765085
    7       -7.688614
    8       -6.997152
    9        1.784029
   10        1.873277
   11        2.687234
   12        3.092770
 
  0.3750000E+00  0.1388889E+00  0.0000000E+00  0.4629630E-02
    1      -21.061525
    2      -19.637486
    3      -11.781931
    4       -9.555985
    5       -9.116570
    6       -8.964405
    7       -7.994594
    8       -7.331141
    9        2.107102
   10        2.301429
   11        2.922644
   12        3.332673
 
  0.4166667E+00  0.1388889E+00  0.0000000E+00  0.4629630E-02
    1      -20.871724
    2      -19.921362
    3      -11.289173
    4       -9.496722
    5       -9.350383
    6       -8.742828
    7       -8.300490
    8       -7.650282
    9        2.368270
   10        2.816665
   11        3.185245
   12        3.600787
 
  0.4583333E+00  0.1388889E+00  0.0000000E+00  0.4629630E-02
    1      -20.662563
    2      -20.187088
    3      -10.808407
    4       -9.906980
    5       -9.121625
    6       -8.594575
    7       -8.499779
    8       -7.952431
    9        2.656686
   10        3.314778
   11        3.324314
   12        3.474247
 
  0.5000000E+00  0.1388889E+00  0.0000000E+00  0.2314815E-02
    1      -20.434262
    2      -20.434262
    3      -10.345700
    4      -10.345700
    5       -8.869416
    6       -8.869416
    7       -8.236000
    8       -8.236000
    9        2.972236
   10        2.972236
   11        3.759202
   12        3.759205
 
  0.0000000E+00  0.1666667E+00  0.0000000E+00  0.2314815E-02
    1      -21.726126
    2      -16.648191
    3      -15.546258
    4      -10.907852
    5       -9.746721
    6       -7.471129
    7       -6.822867
    8       -4.561637
    9       -1.314855
   10        1.197213
   11        2.005050
   12        2.399184
 
  0.4166667E-01  0.1666667E+00  0.0000000E+00  0.4629630E-02
    1      -21.716034
    2      -16.797005
    3      -15.384604
    4      -10.896625
    5       -9.734785
    6       -7.519763
    7       -6.819716
    8       -4.633090
    9       -1.232161
   10        1.210942
   11        2.018940
   12        2.413288
 
  0.8333333E-01  0.1666667E+00  0.0000000E+00  0.4629630E-02
    1      -21.685767
    2      -17.111901
    3      -15.031395
    4      -10.862899
    5       -9.698995
    6       -7.651020
    7       -6.824552
    8       -4.828074
    9       -1.003622
   10        1.252138
   11        2.060605
   12        2.455603
 
  0.1250000E+00  0.1666667E+00  0.0000000E+00  0.4629630E-02
    1      -21.635346
    2      -17.470974
    3      -14.609160
    4      -10.806531
    5       -9.639411
    6       -7.839053
    7       -6.861925
    8       -5.106266
    9       -0.670071
   10        1.320824
   11        2.130031
   12        2.526132
 
  0.1666667E+00  0.1666667E+00  0.0000000E+00  0.4629630E-02
    1      -21.564812
    2      -17.836160
    3      -14.157056
    4      -10.727255
    5       -9.556132
    6       -8.064637
    7       -6.948258
    8       -5.431504
    9       -0.268499
   10        1.417030
   11        2.227195
   12        2.624883
 
  0.2083333E+00  0.1666667E+00  0.0000000E+00  0.4629630E-02
    1      -21.474219
    2      -18.194954
    3      -13.689216
    4      -10.624631
    5       -9.449301
    6       -8.315812
    7       -7.090636
    8       -5.779315
    9        0.175500
   10        1.540782
   11        2.352062
   12        2.751863
 
  0.2500000E+00  0.1666667E+00  0.0000000E+00  0.4629630E-02
    1      -21.363642
    2      -18.542160
    3      -13.213121
    4      -10.497979
    5       -9.319108
    6       -8.585212
    7       -7.289225
    8       -6.134496
    9        0.645348
   10        1.692091
   11        2.504584
   12        2.907078
 
  0.2916667E+00  0.1666667E+00  0.0000000E+00  0.4629630E-02
    1      -21.233170
    2      -18.875147
    3      -12.734481
    4      -10.346279
    5       -9.165801
    6       -8.868565
    7       -7.539008
    8       -6.487609
    9        1.130019
   10        1.870939
   11        2.684697
   12        3.090528
 
  0.3333333E+00  0.1666667E+00  0.0000000E+00  0.4629630E-02
    1      -21.082916
    2      -19.192371
    3      -12.258884
    4      -10.168069
    5       -9.164131
    6       -8.989686
    7       -7.831003
    8       -6.832601
    9        1.621717
   10        2.077283
   11        2.892318
   12        3.302211
 
  0.3750000E+00  0.1666667E+00  0.0000000E+00  0.4629630E-02
    1      -20.913018
    2      -19.492825
    3      -11.792463
    4       -9.961425
    5       -9.472598
    6       -8.791146
    7       -8.153201
    8       -7.165422
    9        2.114540
   10        2.311054
   11        3.127339
   12        3.542120
 
  0.4166667E+00  0.1666667E+00  0.0000000E+00  0.4629630E-02
    1      -20.723638
    2      -19.775793
    3      -11.341974
    4       -9.797043
    5       -9.724221
    6       -8.570652
    7       -8.491383
    8       -7.483251
    9        2.572161
   10        2.603745
   11        3.389619
   12        3.810243
 
  0.4583333E+00  0.1666667E+00  0.0000000E+00  0.4629630E-02
    1      -20.514969
    2      -20.040740
    3      -10.914104
    4      -10.142397
    5       -9.455060
    6       -8.830199
    7       -8.328789
    8       -7.784046
    9        2.860497
   10        3.085311
   11        3.518317
   12        3.678959
 
  0.5000000E+00  0.1666667E+00  0.0000000E+00  0.2314815E-02
    1      -20.287245
    2      -20.287245
    3      -10.513811
    4      -10.513811
    5       -9.155111
    6       -9.155111
    7       -8.066282
    8       -8.066282
    9        3.175933
   10        3.175933
   11        3.555653
   12        3.555653
 