 running on    8 total cores
 distrk:  each k-point on    8 cores,    1 groups
 distr:  one band on    2 cores,    4 groups
 using from now: INCAR     
 vasp.5.3.5 31Mar14 (build Mar 02 2015 18:14:16) complex                        
  
 POSCAR found type information on POSCAR  C 
 POSCAR found :  1 types and       4 ions
 LDA part: xc-table for Pade appr. of Perdew
 POSCAR, INCAR and KPOINTS ok, starting setup
 FFT: planning ...
 WAVECAR not read
 entering main loop
       N       E                     dE             d eps       ncg     rms          rms(c)
DAV:   1     0.188427005649E+03    0.18843E+03   -0.10622E+04  5928   0.275E+03
DAV:   2    -0.960904201973E+01   -0.19804E+03   -0.17494E+03 10424   0.257E+02
DAV:   3    -0.383794738748E+02   -0.28770E+02   -0.28237E+02  7344   0.119E+02    0.732E+00
RMM:   4    -0.376905180303E+02    0.68896E+00   -0.91933E+00  5929   0.260E+01    0.422E+00
RMM:   5    -0.369333627092E+02    0.75716E+00   -0.28258E+00  5931   0.115E+01    0.728E-01
RMM:   6    -0.369349407618E+02   -0.15781E-02   -0.83084E-02  6356   0.203E+00    0.523E-01
RMM:   7    -0.369254649833E+02    0.94758E-02   -0.33310E-02  5941   0.159E+00    0.345E-01
RMM:   8    -0.369197068197E+02    0.57582E-02   -0.77249E-03  5930   0.582E-01    0.134E-01
RMM:   9    -0.369193881647E+02    0.31866E-03   -0.20854E-02  5928   0.855E-01    0.162E-01
RMM:  10    -0.369192273315E+02    0.16083E-03   -0.27277E-03  5928   0.376E-01    0.308E-02
RMM:  11    -0.369217771243E+02   -0.25498E-02   -0.72462E-04  5932   0.175E-01    0.463E-02
RMM:  12    -0.369222239157E+02   -0.44679E-03   -0.23714E-04  5936   0.102E-01    0.511E-03
RMM:  13    -0.369224879287E+02   -0.26401E-03   -0.55138E-05  6009   0.419E-02    0.480E-03
RMM:  14    -0.369225730355E+02   -0.85107E-04   -0.12364E-05  5941   0.205E-02    0.235E-03
RMM:  15    -0.369225811491E+02   -0.81136E-05   -0.14999E-06  6009   0.734E-03    0.804E-04
RMM:  16    -0.369225929271E+02   -0.11778E-04   -0.39788E-07  6011   0.368E-03    0.455E-04
RMM:  17    -0.369225965298E+02   -0.36026E-05   -0.24690E-08  6127   0.125E-03    0.678E-04
RMM:  18    -0.369225984196E+02   -0.18898E-05   -0.84804E-08  5928   0.201E-03    0.138E-04
WARNING in EDDRMM: call to ZHEGV failed, returncode =   6  3  1
RMM:  19    -0.369225987906E+02   -0.37101E-06   -0.54769E-09  5960   0.452E-04    0.176E-05
RMM:  20    -0.369225988397E+02   -0.49120E-07   -0.52471E-10  4501   0.118E-04    0.199E-05
RMM:  21    -0.369225988576E+02   -0.17889E-07   -0.18846E-10  4311   0.782E-05    0.665E-06
RMM:  22    -0.369225988573E+02    0.34436E-09   -0.14563E-11  3888   0.515E-05    0.243E-06
RMM:  23    -0.369225988579E+02   -0.59765E-09   -0.21534E-11  3492   0.381E-05    0.181E-06
RMM:  24    -0.369225988582E+02   -0.29740E-09   -0.48442E-12  3046   0.285E-05    0.123E-06
RMM:  25    -0.369225988581E+02    0.60936E-10   -0.42053E-12  2758   0.239E-05
   1 F= -.36922599E+02 E0= -.36922555E+02  d E =-.369226E+02
 BRION: g(F)=  0.612E-07 g(S)=  0.000E+00
 bond charge predicted
       N       E                     dE             d eps       ncg     rms          rms(c)
DAV:   1    -0.369225987669E+02    0.91219E-07   -0.82402E-06  6308   0.270E-02    0.576E-04
RMM:   2    -0.369225987705E+02   -0.36107E-08   -0.13252E-07  5948   0.324E-03    0.410E-04
RMM:   3    -0.369225987662E+02    0.43847E-08   -0.23562E-08  5951   0.124E-03    0.103E-04
WARNING in EDDRMM: call to ZHEGV failed, returncode =   6  3  1
RMM:   4    -0.369225987661E+02    0.27057E-10   -0.14442E-09  5974   0.305E-04    0.297E-05
RMM:   5    -0.369225987658E+02    0.31127E-09   -0.87273E-11  3882   0.794E-05    0.130E-05
RMM:   6    -0.369225987657E+02    0.82991E-10   -0.20080E-11  3581   0.500E-05
   2 F= -.36922599E+02 E0= -.36922555E+02  d E =0.923537E-07
 BRION: g(F)=  0.959E-06 g(S)=  0.000E+00 retain N=  1 mean eig= 0.20
 eig:   0.202
 bond charge predicted
       N       E                     dE             d eps       ncg     rms          rms(c)
DAV:   1    -0.369225988627E+02   -0.96905E-07   -0.52477E-06  6684   0.216E-02    0.461E-04
RMM:   2    -0.369225988668E+02   -0.40563E-08   -0.82085E-08  5952   0.258E-03    0.327E-04
RMM:   3    -0.369225988641E+02    0.26944E-08   -0.14796E-08  5954   0.981E-04    0.799E-05
RMM:   4    -0.369225988638E+02    0.31037E-09   -0.87008E-10  5697   0.239E-04    0.235E-05
RMM:   5    -0.369225988639E+02   -0.16587E-09   -0.43873E-11  3767   0.669E-05    0.101E-05
 num prob  num prob  num prob  num prob RMM:   6    -0.369225988641E+02   -0.19850E-09   -0.16963E-11  3353   0.460E-05    0.201E-06
RMM:   7    -0.369225988637E+02    0.44929E-09   -0.11650E-11  3249   0.367E-05    0.701E-07
RMM:   8    -0.369225988637E+02   -0.28422E-10   -0.66761E-12  2962   0.317E-05
   3 F= -.36922599E+02 E0= -.36922555E+02  d E =-.979833E-07
 BRION: g(F)=  0.109E-11 g(S)=  0.000E+00 retain N=  1 mean eig= 0.20
 eig:   0.202
 bond charge predicted
       N       E                     dE             d eps       ncg     rms          rms(c)
DAV:   1    -0.369225988633E+02    0.36744E-09    0.57511E-09  4772   0.355E-05    0.285E-07
RMM:   2    -0.369225988641E+02   -0.81639E-09    0.84486E-13  1709   0.136E-05    0.174E-07
RMM:   3    -0.369225988637E+02    0.44531E-09   -0.64064E-13  1623   0.137E-05    0.160E-08
RMM:   4    -0.369225988642E+02   -0.51546E-09   -0.23446E-13  1368   0.133E-05    0.192E-08
RMM:   5    -0.369225988640E+02    0.21760E-09   -0.85730E-13  1315   0.127E-05    0.303E-08
RMM:   6    -0.369225988640E+02    0.53433E-11   -0.14087E-13  1043   0.124E-05
   4 F= -.36922599E+02 E0= -.36922555E+02  d E =-.267733E-09
 BRION: g(F)=  0.190E-11 g(S)=  0.000E+00 retain N=  1 mean eig= 0.09
 eig:   0.087
 bond charge predicted
       N       E                     dE             d eps       ncg     rms          rms(c)
DAV:   1    -0.369225988631E+02    0.88858E-09    0.57658E-09  4472   0.162E-05    0.168E-07
RMM:   2    -0.369225988639E+02   -0.82787E-09   -0.60034E-15   938   0.598E-06    0.103E-07
RMM:   3    -0.369225988636E+02    0.29263E-09    0.17065E-14  1032   0.600E-06    0.405E-09
RMM:   4    -0.369225988640E+02   -0.37312E-09   -0.97083E-14  1163   0.603E-06    0.307E-09
RMM:   5    -0.369225988640E+02    0.26830E-10   -0.10971E-13  1085   0.597E-06
   5 F= -.36922599E+02 E0= -.36922555E+02  d E =0.170530E-11
 BRION: g(F)=  0.164E-13 g(S)=  0.000E+00 retain N=  1 mean eig= 0.08
 eig:   0.080
 reached required accuracy - stopping structural energy minimisation
