gr                                      
           1
     4.295264    0.000000    0.000000
     0.000000    2.464891    0.000000
     0.000000    0.000000   19.914121
   C 
   4
Direct configuration=     1
   0.99987391  0.00000000  0.00000000
   0.16679275  0.50000000  0.00000000
   0.49987391  0.50000000  0.00000000
   0.66679275  0.00000000  0.00000000
Direct configuration=     2
   0.99986758  0.00000000  0.00000000
   0.16679908  0.50000000  0.00000000
   0.49986758  0.50000000  0.00000000
   0.66679908 -0.00000000  0.00000000
Direct configuration=     3
   0.99987264  0.00000000 -0.00000000
   0.16679403  0.50000000  0.00000000
   0.49987264  0.50000000 -0.00000000
   0.66679403 -0.00000000  0.00000000
Direct configuration=     4
   0.99987264 -0.00000000 -0.00000000
   0.16679403  0.50000000  0.00000000
   0.49987264  0.50000000 -0.00000000
   0.66679403  0.00000000  0.00000000
Direct configuration=     5
   0.99987264 -0.00000000 -0.00000000
   0.16679403  0.50000000  0.00000000
   0.49987264  0.50000000 -0.00000000
   0.66679403  0.00000000  0.00000000
