    4    4  400    1
  0.5270948E+02  0.4265472E-09  0.2492467E-09  0.1983135E-08  0.5000000E-15
  1.000000000000000E-004
  CAR 
 gr                                      
     16    247     12
 
  0.0000000E+00  0.0000000E+00  0.0000000E+00  0.1157407E-02
    1      -22.183115
    2      -16.889923
    3      -15.927473
    4      -10.304465
    5       -9.295043
    6       -5.876834
    7       -5.763154
    8       -5.025248
    9       -1.099732
   10        0.532275
   11        1.332191
   12        1.719307
 
  0.4166667E-01  0.0000000E+00  0.0000000E+00  0.2314815E-02
    1      -22.172813
    2      -17.066845
    3      -15.735383
    4      -10.292191
    5       -9.284761
    6       -5.899884
    7       -5.804860
    8       -5.093209
    9       -1.016253
   10        0.546244
   11        1.346325
   12        1.733615
 
  0.8333333E-01  0.0000000E+00  0.0000000E+00  0.2314815E-02
    1      -22.141911
    2      -17.416070
    3      -15.340743
    4      -10.255387
    5       -9.253966
    6       -5.967736
    7       -5.928344
    8       -5.281269
    9       -0.781814
   10        0.588151
   11        1.388723
   12        1.776539
 
  0.1250000E+00  0.0000000E+00  0.0000000E+00  0.2314815E-02
    1      -22.090428
    2      -17.799562
    3      -14.881857
    4      -10.194111
    5       -9.202810
    6       -6.128975
    7       -6.076719
    8       -5.554612
    9       -0.431755
   10        0.657997
   11        1.459373
   12        1.848080
 
  0.1666667E+00  0.0000000E+00  0.0000000E+00  0.2314815E-02
    1      -22.018400
    2      -18.183244
    3      -14.393260
    4      -10.108459
    5       -9.131552
    6       -6.399799
    7       -6.221385
    8       -5.879296
    9       -0.000899
   10        0.755779
   11        1.558255
   12        1.948237
 
  0.2083333E+00  0.0000000E+00  0.0000000E+00  0.2314815E-02
    1      -21.925875
    2      -18.557033
    3      -13.885694
    4       -9.998573
    5       -9.040570
    6       -6.732439
    7       -6.395253
    8       -6.230470
    9        0.484647
   10        0.881489
   11        1.685336
   12        2.077011
 
  0.2500000E+00  0.0000000E+00  0.0000000E+00  0.2314815E-02
    1      -21.812915
    2      -18.916909
    3      -13.364051
    4       -9.864641
    5       -8.930364
    6       -7.117953
    7       -6.591786
    8       -6.591524
    9        1.006876
   10        1.035109
   11        1.840569
   12        2.234399
 
  0.2916667E+00  0.0000000E+00  0.0000000E+00  0.2314815E-02
    1      -21.679603
    2      -19.260868
    3      -12.831443
    4       -9.706906
    5       -8.801584
    6       -7.547499
    7       -6.952731
    8       -6.803609
    9        1.216612
   10        1.553155
   11        2.023882
   12        2.420399
 
  0.3333333E+00  0.0000000E+00  0.0000000E+00  0.2314815E-02
    1      -21.526034
    2      -19.587743
    3      -12.290418
    4       -9.525678
    5       -8.655041
    6       -8.012788
    7       -7.306444
    8       -7.025475
    9        1.425956
   10        2.113871
   11        2.235164
   12        2.635003
 
  0.3750000E+00  0.0000000E+00  0.0000000E+00  0.2314815E-02
    1      -21.352323
    2      -19.896766
    3      -11.743428
    4       -9.321343
    5       -8.506308
    6       -8.491744
    7       -7.648316
    8       -7.251795
    9        1.663086
   10        2.474221
   11        2.680363
   12        2.878200
 
  0.4166667E+00  0.0000000E+00  0.0000000E+00  0.2314815E-02
    1      -21.158605
    2      -20.187385
    3      -11.193060
    4       -9.094383
    5       -9.021418
    6       -8.312928
    7       -7.975153
    8       -7.477986
    9        1.927922
   10        2.740663
   11        3.149970
   12        3.241402
 
  0.4583333E+00  0.0000000E+00  0.0000000E+00  0.2314815E-02
    1      -20.945040
    2      -20.459181
    3      -10.642175
    4       -9.552326
    5       -8.845406
    6       -8.284668
    7       -8.120104
    8       -7.700171
    9        2.220356
   10        2.887248
   11        3.033471
   12        3.450271
 
  0.5000000E+00  0.0000000E+00  0.0000000E+00  0.1157407E-02
    1      -20.711824
    2      -20.711824
    3      -10.094019
    4      -10.094019
    5       -8.575175
    6       -8.575175
    7       -7.915109
    8       -7.915109
    9        2.540223
   10        2.540223
   11        3.348369
   12        3.348369
 
  0.0000000E+00  0.2777778E-01  0.0000000E+00  0.2314815E-02
    1      -22.169723
    2      -16.878404
    3      -15.916370
    4      -10.288509
    5       -9.355211
    6       -5.932237
    7       -5.794228
    8       -5.008984
    9       -1.104607
   10        0.550420
   11        1.350584
   12        1.737926
 
  0.4166667E-01  0.2777778E-01  0.0000000E+00  0.4629630E-02
    1      -22.159421
    2      -17.055179
    3      -15.724484
    4      -10.276239
    5       -9.344907
    6       -5.960307
    7       -5.830215
    8       -5.077103
    9       -1.021095
   10        0.564390
   11        1.364717
   12        1.752234
 
  0.8333333E-01  0.2777778E-01  0.0000000E+00  0.4629630E-02
    1      -22.128523
    2      -17.404166
    3      -15.330249
    4      -10.239448
    5       -9.314044
    6       -6.048695
    7       -5.931193
    8       -5.265522
    9       -0.786670
   10        0.606300
   11        1.407112
   12        1.795159
 
  0.1250000E+00  0.2777778E-01  0.0000000E+00  0.4629630E-02
    1      -22.077048
    2      -17.787440
    3      -14.871867
    4      -10.178193
    5       -9.262770
    6       -6.213066
    7       -6.073524
    8       -5.539227
    9       -0.436872
   10        0.676150
   11        1.477758
   12        1.866700
 
  0.1666667E+00  0.2777778E-01  0.0000000E+00  0.4629630E-02
    1      -22.005029
    2      -18.170933
    3      -14.383874
    4      -10.092572
    5       -9.191338
    6       -6.461275
    7       -6.237365
    8       -5.864173
    9       -0.006629
   10        0.773939
   11        1.576633
   12        1.966859
 
  0.2083333E+00  0.2777778E-01  0.0000000E+00  0.4629630E-02
    1      -21.912518
    2      -18.544559
    3      -13.877030
    4       -9.982725
    5       -9.100111
    6       -6.779623
    7       -6.421932
    8       -6.215494
    9        0.477937
   10        0.899659
   11        1.703706
   12        2.095635
 
  0.2500000E+00  0.2777778E-01  0.0000000E+00  0.4629630E-02
    1      -21.799577
    2      -18.904294
    3      -13.356254
    4       -9.848841
    5       -8.989579
    6       -7.154476
    7       -6.625401
    8       -6.576866
    9        0.998849
   10        1.053291
   11        1.858929
   12        2.253026
 
  0.2916667E+00  0.2777778E-01  0.0000000E+00  0.4629630E-02
    1      -21.666286
    2      -19.248133
    3      -12.824686
    4       -9.691163
    5       -8.860369
    6       -7.575422
    7       -6.937801
    8       -6.842928
    9        1.234806
   10        1.543517
   11        2.042233
   12        2.439029
 
  0.3333333E+00  0.2777778E-01  0.0000000E+00  0.4629630E-02
    1      -21.512743
    2      -19.574904
    3      -12.284914
    4       -9.509999
    5       -8.713269
    6       -8.033608
    7       -7.291462
    8       -7.069109
    9        1.444165
   10        2.102401
   11        2.253506
   12        2.653637
 
  0.3750000E+00  0.2777778E-01  0.0000000E+00  0.4629630E-02
    1      -21.339063
    2      -19.883837
    3      -11.739438
    4       -9.305737
    5       -8.549256
    6       -8.521245
    7       -7.633257
    8       -7.298905
    9        1.681310
   10        2.492561
   11        2.667023
   12        2.896840
 
  0.4166667E+00  0.2777778E-01  0.0000000E+00  0.4629630E-02
    1      -21.145381
    2      -20.174378
    3      -11.190904
    4       -9.078859
    5       -9.031495
    6       -8.369530
    7       -7.960004
    8       -7.527906
    9        1.946166
   10        2.759012
   11        3.168619
   12        3.225086
 
  0.4583333E+00  0.2777778E-01  0.0000000E+00  0.4629630E-02
    1      -20.931859
    2      -20.446107
    3      -10.642245
    4       -9.558398
    5       -8.829970
    6       -8.269422
    7       -8.175554
    8       -7.752355
    9        2.238626
   10        2.905632
   11        3.051853
   12        3.468937
 
  0.5000000E+00  0.2777778E-01  0.0000000E+00  0.2314815E-02
    1      -20.698692
    2      -20.698692
    3      -10.096797
    4      -10.096797
    5       -8.559832
    6       -8.559832
    7       -7.969109
    8       -7.969109
    9        2.558534
   10        2.558534
   11        3.366751
   12        3.366751
 
  0.0000000E+00  0.5555556E-01  0.0000000E+00  0.2314815E-02
    1      -22.129553
    2      -16.843855
    3      -15.883235
    4      -10.240672
    5       -9.530848
    6       -6.094085
    7       -5.886590
    8       -4.960212
    9       -1.120048
   10        0.604861
   11        1.405757
   12        1.793783
 
  0.4166667E-01  0.5555556E-01  0.0000000E+00  0.4629630E-02
    1      -22.119256
    2      -17.020196
    3      -15.691952
    4      -10.228415
    5       -9.520472
    6       -6.129395
    7       -5.913297
    8       -5.028820
    9       -1.036425
   10        0.618833
   11        1.419887
   12        1.808092
 
  0.8333333E-01  0.5555556E-01  0.0000000E+00  0.4629630E-02
    1      -22.088370
    2      -17.368479
    3      -15.298939
    4      -10.191664
    5       -9.489388
    6       -6.233708
    7       -5.992585
    8       -5.218344
    9       -0.802032
   10        0.660749
   11        1.462273
   12        1.851018
 
  0.1250000E+00  0.5555556E-01  0.0000000E+00  0.4629630E-02
    1      -22.036917
    2      -17.751102
    3      -14.842093
    4      -10.130475
    5       -9.437730
    6       -6.403632
    7       -6.120798
    8       -5.493160
    9       -0.453023
   10        0.730611
   11        1.532903
   12        1.922561
 
  0.1666667E+00  0.5555556E-01  0.0000000E+00  0.4629630E-02
    1      -21.964932
    2      -18.134026
    3      -14.355955
    4      -10.044946
    5       -9.365726
    6       -6.635959
    7       -6.290337
    8       -5.818903
    9       -0.024650
   10        0.828417
   11        1.631757
   12        2.022724
 
  0.2083333E+00  0.5555556E-01  0.0000000E+00  0.4629630E-02
    1      -21.872462
    2      -18.507161
    3      -13.851339
    4       -9.935218
    5       -9.273705
    6       -6.927477
    7       -6.491057
    8       -6.170671
    9        0.456930
   10        0.954159
   11        1.758804
   12        2.151505
 
  0.2500000E+00  0.5555556E-01  0.0000000E+00  0.4629630E-02
    1      -21.759574
    2      -18.866472
    3      -13.333243
    4       -9.801479
    5       -9.162104
    6       -7.273611
    7       -6.712911
    8       -6.532205
    9        0.973823
   10        1.107819
   11        1.913998
   12        2.308903
 
  0.2916667E+00  0.5555556E-01  0.0000000E+00  0.4629630E-02
    1      -21.626349
    2      -19.209945
    3      -12.804909
    4       -9.643973
    5       -9.031487
    6       -7.667983
    7       -6.947534
    8       -6.893105
    9        1.289368
   10        1.513574
   11        2.097270
   12        2.494915
 
  0.3333333E+00  0.5555556E-01  0.0000000E+00  0.4629630E-02
    1      -21.472884
    2      -19.536402
    3      -12.269053
    4       -9.463008
    5       -8.882558
    6       -8.103126
    7       -7.246604
    8       -7.188373
    9        1.498763
   10        2.066849
   11        2.308517
   12        2.709535
 
  0.3750000E+00  0.5555556E-01  0.0000000E+00  0.4629630E-02
    1      -21.299296
    2      -19.845064
    3      -11.728334
    4       -9.258970
    5       -8.716188
    6       -8.571420
    7       -7.588161
    8       -7.430260
    9        1.735950
   10        2.547559
   11        2.625642
   12        2.952753
 
  0.4166667E+00  0.5555556E-01  0.0000000E+00  0.4629630E-02
    1      -21.105722
    2      -20.135372
    3      -11.185599
    4       -9.065702
    5       -9.032340
    6       -8.533439
    7       -7.914629
    8       -7.669035
    9        2.000854
   10        2.814037
   11        3.179959
   12        3.224556
 
  0.4583333E+00  0.5555556E-01  0.0000000E+00  0.4629630E-02
    1      -20.892328
    2      -20.406899
    3      -10.644031
    4       -9.579534
    5       -8.783719
    6       -8.335606
    7       -8.223752
    8       -7.901300
    9        2.293377
   10        2.960643
   11        3.106983
   12        3.524913
 
  0.5000000E+00  0.5555556E-01  0.0000000E+00  0.2314815E-02
    1      -20.659310
    2      -20.659310
    3      -10.107273
    4      -10.107273
    5       -8.513867
    6       -8.513867
    7       -8.124259
    8       -8.124259
    9        2.613378
   10        2.613378
   11        3.421879
   12        3.421879
 
  0.0000000E+00  0.8333333E-01  0.0000000E+00  0.2314815E-02
    1      -22.062644
    2      -16.786286
    3      -15.828624
    4      -10.161055
    5       -9.808682
    6       -6.350592
    7       -6.037738
    8       -4.878993
    9       -1.148491
   10        0.695616
   11        1.497688
   12        1.886883
 
  0.4166667E-01  0.8333333E-01  0.0000000E+00  0.4629630E-02
    1      -22.052354
    2      -16.961952
    3      -15.638318
    4      -10.148821
    5       -9.798165
    6       -6.391178
    7       -6.055940
    8       -4.948467
    9       -1.064652
   10        0.709588
   11        1.511812
   12        1.901192
 
  0.8333333E-01  0.8333333E-01  0.0000000E+00  0.4629630E-02
    1      -22.021490
    2      -17.309092
    3      -15.247364
    4      -10.112137
    5       -9.766652
    6       -6.505857
    7       -6.115697
    8       -5.139935
    9       -0.830269
   10        0.751508
   11        1.554181
   12        1.944118
 
  0.1250000E+00  0.8333333E-01  0.0000000E+00  0.4629630E-02
    1      -21.970075
    2      -17.690631
    3      -14.793173
    4      -10.051061
    5       -9.714247
    6       -6.681495
    7       -6.224476
    8       -5.416683
    9       -0.482587
   10        0.821378
   11        1.624783
   12        2.015664
 
  0.1666667E+00  0.8333333E-01  0.0000000E+00  0.4629630E-02
    1      -21.898143
    2      -18.072600
    3      -14.310280
    4       -9.965691
    5       -9.641128
    6       -6.907873
    7       -6.383496
    8       -5.743799
    9       -0.057415
   10        0.919200
   11        1.723599
   12        2.115830
 
  0.2083333E+00  0.8333333E-01  0.0000000E+00  0.4629630E-02
    1      -21.805744
    2      -18.444908
    3      -13.809601
    4       -9.856166
    5       -9.547551
    6       -7.179137
    7       -6.587015
    8       -6.096319
    9        0.419035
   10        1.044965
   11        1.850597
   12        2.244617
 
  0.2500000E+00  0.8333333E-01  0.0000000E+00  0.4629630E-02
    1      -21.692945
    2      -18.803506
    3      -13.296283
    4       -9.722677
    5       -9.433851
    6       -7.492772
    7       -6.824311
    8       -6.458115
    9        0.929026
   10        1.198658
   11        2.005733
   12        2.402024
 
  0.2916667E+00  0.8333333E-01  0.0000000E+00  0.4629630E-02
    1      -21.559829
    2      -19.146365
    3      -12.773772
    4       -9.565466
    5       -9.300452
    6       -7.847879
    7       -7.082435
    8       -6.818939
    9        1.380245
   10        1.460330
   11        2.188945
   12        2.588048
 
  0.3333333E+00  0.8333333E-01  0.0000000E+00  0.4629630E-02
    1      -21.406494
    2      -19.472292
    3      -12.245042
    4       -9.384842
    5       -9.147875
    6       -8.243025
    7       -7.349238
    8       -7.172144
    9        1.589684
   10        2.003919
   11        2.400135
   12        2.802682
 
  0.3750000E+00  0.8333333E-01  0.0000000E+00  0.4629630E-02
    1      -21.233060
    2      -19.780498
    3      -11.713087
    4       -9.181189
    5       -8.976749
    6       -8.674807
    7       -7.615448
    8       -7.513280
    9        1.826919
   10        2.552384
   11        2.639146
   12        3.045921
 
  0.4166667E+00  0.8333333E-01  0.0000000E+00  0.4629630E-02
    1      -21.039669
    2      -20.070414
    3      -11.181180
    4       -9.137903
    5       -8.954985
    6       -8.787823
    7       -7.874977
    8       -7.839259
    9        2.091877
   10        2.905661
   11        3.098096
   12        3.317750
 
  0.4583333E+00  0.8333333E-01  0.0000000E+00  0.4629630E-02
    1      -20.826490
    2      -20.341603
    3      -10.653048
    4       -9.626052
    5       -8.706829
    6       -8.581984
    7       -8.147869
    8       -8.124062
    9        2.384464
   10        3.051981
   11        3.198804
   12        3.616768
 
  0.5000000E+00  0.8333333E-01  0.0000000E+00  0.2314815E-02
    1      -20.593722
    2      -20.593722
    3      -10.133004
    4      -10.133004
    5       -8.437471
    6       -8.437471
    7       -8.360296
    8       -8.360296
    9        2.704558
   10        2.704558
   11        3.513676
   12        3.513676
 
  0.0000000E+00  0.1111111E+00  0.0000000E+00  0.2314815E-02
    1      -21.969058
    2      -16.705718
    3      -15.753589
    4      -10.170164
    5      -10.049827
    6       -6.685605
    7       -6.243714
    8       -4.765426
    9       -1.193937
   10        0.822704
   11        1.626339
   12        2.017229
 
  0.4166667E-01  0.1111111E+00  0.0000000E+00  0.4629630E-02
    1      -21.958778
    2      -16.880543
    3      -15.564588
    4      -10.159405
    5      -10.037626
    6       -6.730124
    7       -6.253801
    8       -4.836234
    9       -1.109713
   10        0.836674
   11        1.640454
   12        2.031538
 
  0.8333333E-01  0.1111111E+00  0.0000000E+00  0.4629630E-02
    1      -21.927946
    2      -17.226148
    3      -15.176589
    4      -10.127146
    5      -10.001040
    6       -6.852910
    7       -6.293503
    8       -5.030658
    9       -0.875219
   10        0.878588
   11        1.682796
   12        2.074464
 
  0.1250000E+00  0.1111111E+00  0.0000000E+00  0.4629630E-02
    1      -21.876583
    2      -17.606176
    3      -14.726349
    4      -10.073439
    5       -9.940129
    6       -7.034611
    7       -6.378128
    8       -5.310298
    9       -0.529393
   10        0.948453
   11        1.753352
   12        2.146009
 
  0.1666667E+00  0.1111111E+00  0.0000000E+00  0.4629630E-02
    1      -21.804726
    2      -17.986796
    3      -14.248386
    4       -9.998371
    5       -9.854989
    6       -7.260426
    7       -6.515694
    8       -5.639423
    9       -0.108860
   10        1.046274
   11        1.852104
   12        2.246177
 
  0.2083333E+00  0.1111111E+00  0.0000000E+00  0.4629630E-02
    1      -21.712426
    2      -18.357928
    3      -13.753784
    4       -9.902052
    5       -9.745763
    6       -7.521217
    7       -6.706002
    8       -5.993014
    9        0.360126
   10        1.172049
   11        1.979020
   12        2.374968
 
  0.2500000E+00  0.1111111E+00  0.0000000E+00  0.4629630E-02
    1      -21.599753
    2      -18.715511
    3      -13.247961
    4       -9.784615
    5       -9.612639
    6       -7.812130
    7       -6.942556
    8       -6.355153
    9        0.860085
   10        1.325760
   11        2.134058
   12        2.532382
 
  0.2916667E+00  0.1111111E+00  0.0000000E+00  0.4629630E-02
    1      -21.466790
    2      -19.057495
    3      -12.734734
    4       -9.646202
    5       -9.455861
    6       -8.131709
    7       -7.214262
    8       -6.715824
    9        1.379120
   10        1.507375
   11        2.317159
   12        2.718416
 
  0.3333333E+00  0.1111111E+00  0.0000000E+00  0.4629630E-02
    1      -21.313639
    2      -19.382670
    3      -12.217578
    4       -9.486946
    5       -9.275737
    6       -8.481028
    7       -7.507176
    8       -7.068564
    9        1.716847
   10        1.908595
   11        2.528240
   12        2.933065
 
  0.3750000E+00  0.1111111E+00  0.0000000E+00  0.4629630E-02
    1      -21.140423
    2      -19.690228
    3      -11.700146
    4       -9.306952
    5       -9.072649
    6       -8.862129
    7       -7.806830
    8       -7.409055
    9        1.954117
   10        2.441696
   11        2.767170
   12        3.176322
 
  0.4166667E+00  0.1111111E+00  0.0000000E+00  0.4629630E-02
    1      -20.947290
    2      -19.979586
    3      -11.186565
    4       -9.275852
    5       -9.106277
    6       -8.847074
    7       -8.100917
    8       -7.734298
    9        2.219110
   10        2.972409
   11        3.033705
   12        3.448176
 
  0.4583333E+00  0.1111111E+00  0.0000000E+00  0.4629630E-02
    1      -20.734415
    2      -20.250296
    3      -10.681627
    4       -9.720278
    5       -8.884945
    6       -8.599602
    7       -8.381119
    8       -8.042137
    9        2.511735
   10        3.179378
   11        3.327162
   12        3.492369
 
  0.5000000E+00  0.1111111E+00  0.0000000E+00  0.2314815E-02
    1      -20.502002
    2      -20.502002
    3      -10.190846
    4      -10.190846
    5       -8.643051
    6       -8.643051
    7       -8.330977
    8       -8.330977
    9        2.831875
   10        2.831875
   11        3.641779
   12        3.641779
 
  0.0000000E+00  0.1388889E+00  0.0000000E+00  0.2314815E-02
    1      -21.848883
    2      -16.602180
    3      -15.659919
    4      -10.594711
    5       -9.907231
    6       -7.081845
    7       -6.499408
    8       -4.619656
    9       -1.261798
   10        0.986139
   11        1.791655
   12        2.184826
 
  0.4166667E-01  0.1388889E+00  0.0000000E+00  0.4629630E-02
    1      -21.838617
    2      -16.776128
    3      -15.472490
    4      -10.583543
    5       -9.895074
    6       -7.129683
    7       -6.501312
    8       -4.692419
    9       -1.176896
   10        1.000102
   11        1.805755
   12        2.199134
 
  0.8333333E-01  0.1388889E+00  0.0000000E+00  0.4629630E-02
    1      -21.807825
    2      -17.119882
    3      -15.088461
    4      -10.550023
    5       -9.858623
    6       -7.259710
    7       -6.519774
    8       -4.891110
    9       -0.941962
   10        1.041996
   11        1.848054
   12        2.242056
 
  0.1250000E+00  0.1388889E+00  0.0000000E+00  0.4629630E-02
    1      -21.756530
    2      -17.497974
    3      -14.643830
    4      -10.494103
    5       -9.797935
    6       -7.447943
    7       -6.576403
    8       -5.174814
    9       -0.598444
   10        1.111833
   11        1.918537
   12        2.313598
 
  0.1666667E+00  0.1388889E+00  0.0000000E+00  0.4629630E-02
    1      -21.684772
    2      -17.876831
    3      -14.173071
    4      -10.415682
    5       -9.713110
    6       -7.676274
    7       -6.684883
    8       -5.506677
    9       -0.184070
   10        1.209626
   11        2.017184
   12        2.413762
 
  0.2083333E+00  0.1388889E+00  0.0000000E+00  0.4629630E-02
    1      -21.592602
    2      -18.246417
    3      -13.687564
    4      -10.314588
    5       -9.604289
    6       -7.933318
    7       -6.849828
    8       -5.861663
    9        0.274932
   10        1.335378
   11        2.143963
   12        2.542552
 
  0.2500000E+00  0.1388889E+00  0.0000000E+00  0.4629630E-02
    1      -21.480090
    2      -18.602662
    3      -13.193231
    4      -10.190533
    5       -9.471664
    6       -8.212188
    7       -7.069071
    8       -6.224186
    9        0.761496
   10        1.489078
   11        2.298832
   12        2.699969
 
  0.2916667E+00  0.1388889E+00  0.0000000E+00  0.4629630E-02
    1      -21.347326
    2      -18.943494
    3      -12.694608
    4      -10.043061
    5       -9.315477
    6       -8.509274
    7       -7.335386
    8       -6.584567
    9        1.264216
   10        1.670693
   11        2.481732
   12        2.886009
 
  0.3333333E+00  0.1388889E+00  0.0000000E+00  0.4629630E-02
    1      -21.194413
    2      -19.267678
    3      -12.196150
    4       -9.871474
    5       -9.136038
    6       -8.823808
    7       -7.637725
    8       -6.936604
    9        1.774955
   10        1.880172
   11        2.692588
   12        3.100670
 
  0.3750000E+00  0.1388889E+00  0.0000000E+00  0.4629630E-02
    1      -21.021482
    2      -19.574384
    3      -11.702799
    4       -9.674771
    5       -9.157635
    6       -8.933727
    7       -7.962274
    8       -7.276158
    9        2.117451
   10        2.287480
   11        2.931297
   12        3.343941
 
  0.4166667E+00  0.1388889E+00  0.0000000E+00  0.4629630E-02
    1      -20.828686
    2      -19.863010
    3      -11.220242
    4       -9.514599
    5       -9.451671
    6       -8.709016
    7       -8.293772
    8       -7.600351
    9        2.382446
   10        2.796691
   11        3.197712
   12        3.615815
 
  0.4583333E+00  0.1388889E+00  0.0000000E+00  0.4629630E-02
    1      -20.616206
    2      -20.133091
    3      -10.754820
    4       -9.898920
    5       -9.200913
    6       -8.617551
    7       -8.462491
    8       -7.907107
    9        2.675063
   10        3.298094
   11        3.342664
   12        3.491527
 
  0.5000000E+00  0.1388889E+00  0.0000000E+00  0.2314815E-02
    1      -20.384257
    2      -20.384257
    3      -10.312809
    4      -10.312809
    5       -8.922136
    6       -8.922136
    7       -8.194881
    8       -8.194881
    9        2.995185
   10        2.995185
   11        3.776311
   12        3.776316
 
  0.0000000E+00  0.1666667E+00  0.0000000E+00  0.2314815E-02
    1      -21.702240
    2      -16.475712
    3      -15.550632
    4      -11.061704
    5       -9.733593
    6       -7.523176
    7       -6.798903
    8       -4.441872
    9       -1.358561
   10        1.185918
   11        1.993555
   12        2.389677
 
  0.4166667E-01  0.1666667E+00  0.0000000E+00  0.4629630E-02
    1      -21.691991
    2      -16.648953
    3      -15.364957
    4      -11.049836
    5       -9.721495
    6       -7.574100
    7       -6.792451
    8       -4.517485
    9       -1.272437
   10        1.199868
   11        2.007633
   12        2.403983
 
  0.8333333E-01  0.1666667E+00  0.0000000E+00  0.4629630E-02
    1      -21.661250
    2      -16.990658
    3      -14.986201
    4      -11.014149
    5       -9.685219
    6       -7.711105
    7       -6.788659
    8       -4.722238
    9       -1.036320
   10        1.241726
   11        2.049861
   12        2.446899
 
  0.1250000E+00  0.1666667E+00  0.0000000E+00  0.4629630E-02
    1      -21.610040
    2      -17.366387
    3      -14.549565
    4      -10.954380
    5       -9.624825
    6       -7.906325
    7       -6.814543
    8       -5.011502
    9       -0.695340
   10        1.311509
   11        2.120226
   12        2.518432
 
  0.1666667E+00  0.1666667E+00  0.0000000E+00  0.4629630E-02
    1      -21.538402
    2      -17.743034
    3      -14.089495
    4      -10.870047
    5       -9.540412
    6       -8.139029
    7       -6.888693
    8       -5.346947
    9       -0.288640
   10        1.409236
   11        2.218699
   12        2.618585
 
  0.2083333E+00  0.1666667E+00  0.0000000E+00  0.4629630E-02
    1      -21.446390
    2      -18.110664
    3      -13.617949
    4      -10.760365
    5       -9.432125
    6       -8.396316
    7       -7.019888
    8       -5.703635
    9        0.157757
   10        1.534922
   11        2.345243
   12        2.747365
 
  0.2500000E+00  0.1666667E+00  0.0000000E+00  0.4629630E-02
    1      -21.334080
    2      -18.465213
    3      -13.141848
    4      -10.624139
    5       -9.300157
    6       -8.670116
    7       -7.209707
    8       -6.066501
    9        0.627474
   10        1.688564
   11        2.499802
   12        2.904775
 
  0.2916667E+00  0.1666667E+00  0.0000000E+00  0.4629630E-02
    1      -21.201560
    2      -18.804586
    3      -12.667166
    4      -10.459628
    5       -9.144752
    6       -8.955445
    7       -7.454398
    8       -6.426349
    9        1.109833
   10        1.870134
   11        2.682302
   12        3.090815
 
  0.3333333E+00  0.1666667E+00  0.0000000E+00  0.4629630E-02
    1      -21.048944
    2      -19.127517
    3      -12.200221
    4      -10.264463
    5       -9.249676
    6       -8.966219
    7       -7.746192
    8       -6.777333
    9        1.597387
   10        2.079580
   11        2.892641
   12        3.305480
 
  0.3750000E+00  0.1666667E+00  0.0000000E+00  0.4629630E-02
    1      -20.876368
    2      -19.433148
    3      -11.748011
    4      -10.035822
    5       -9.552370
    6       -8.764939
    7       -8.074324
    8       -7.115551
    9        2.084574
   10        2.316828
   11        3.130665
   12        3.548762
 
  0.4166667E+00  0.1666667E+00  0.0000000E+00  0.4629630E-02
    1      -20.683992
    2      -19.720853
    3      -11.317640
    4       -9.865369
    5       -9.771294
    6       -8.541381
    7       -8.425760
    8       -7.438284
    9        2.566969
   10        2.581786
   11        3.396083
   12        3.820649
 
  0.4583333E+00  0.1666667E+00  0.0000000E+00  0.4629630E-02
    1      -20.472006
    2      -19.990145
    3      -10.914617
    4      -10.192830
    5       -9.470775
    6       -8.785767
    7       -8.296123
    8       -7.743554
    9        2.874346
   10        3.040804
   11        3.541735
   12        3.686959
 
  0.5000000E+00  0.1666667E+00  0.0000000E+00  0.2314815E-02
    1      -20.240636
    2      -20.240636
    3      -10.540649
    4      -10.540649
    5       -9.138854
    6       -9.138854
    7       -8.029882
    8       -8.029882
    9        3.194380
   10        3.194380
   11        3.502193
   12        3.502193
 