gr                                      
           1
     4.265472    0.000000    0.000000
     0.000000    2.492467    0.000000
     0.000000    0.000000   19.831347
   C 
   4
Direct configuration=     1
   0.00026297  0.00000000  0.00000000
   0.16640370  0.50000000  0.00000000
   0.50026297  0.50000000  0.00000000
   0.66640370  0.00000000  0.00000000
Direct configuration=     2
   0.00028360 -0.00000000 -0.00000000
   0.16638306  0.50000000  0.00000000
   0.50028360  0.50000000 -0.00000000
   0.66638306  0.00000000  0.00000000
Direct configuration=     3
   0.00026703  0.00000000 -0.00000000
   0.16639964  0.50000000  0.00000000
   0.50026703  0.50000000 -0.00000000
   0.66639964  0.00000000  0.00000000
Direct configuration=     4
   0.00026701 -0.00000000 -0.00000000
   0.16639966  0.50000000  0.00000000
   0.50026701  0.50000000 -0.00000000
   0.66639966  0.00000000  0.00000000
Direct configuration=     5
   0.00026702 -0.00000000  0.00000000
   0.16639964  0.50000000 -0.00000000
   0.50026702  0.50000000  0.00000000
   0.66639964  0.00000000 -0.00000000
Direct configuration=     6
   0.00026702 -0.00000000  0.00000000
   0.16639964  0.50000000 -0.00000000
   0.50026702  0.50000000  0.00000000
   0.66639964  0.00000000 -0.00000000
Direct configuration=     7
   0.00026703  0.00000000  0.00000000
   0.16639964  0.50000000 -0.00000000
   0.50026703  0.50000000  0.00000000
   0.66639964 -0.00000000 -0.00000000
