    4    4  400    1
  0.5270948E+02  0.4273509E-09  0.2467916E-09  0.1999096E-08  0.5000000E-15
  1.000000000000000E-004
  CAR 
 gr                                      
     16    247     12
 
  0.0000000E+00  0.0000000E+00  0.0000000E+00  0.1157407E-02
    1      -22.250588
    2      -17.017384
    3      -15.970919
    4      -10.356574
    5       -9.161199
    6       -5.788652
    7       -5.786039
    8       -5.108864
    9       -1.076419
   10        0.524234
   11        1.325265
   12        1.708394
 
  0.4166667E-01  0.0000000E+00  0.0000000E+00  0.2314815E-02
    1      -22.240340
    2      -17.182524
    3      -15.790520
    4      -10.344332
    5       -9.151013
    6       -5.828768
    7       -5.811232
    8       -5.175379
    9       -0.993935
   10        0.538134
   11        1.339349
   12        1.722648
 
  0.8333333E-01  0.0000000E+00  0.0000000E+00  0.2314815E-02
    1      -22.209599
    2      -17.519654
    3      -15.407694
    4      -10.307623
    5       -9.120503
    6       -5.955195
    7       -5.877724
    8       -5.359937
    9       -0.761640
   10        0.579838
   11        1.381596
   12        1.765409
 
  0.1250000E+00  0.0000000E+00  0.0000000E+00  0.2314815E-02
    1      -22.158387
    2      -17.896104
    3      -14.955373
    4      -10.246506
    5       -9.069825
    6       -6.160339
    7       -5.984587
    8       -5.629209
    9       -0.413381
   10        0.649352
   11        1.451994
   12        1.836680
 
  0.1666667E+00  0.0000000E+00  0.0000000E+00  0.2314815E-02
    1      -22.086735
    2      -18.275196
    3      -14.470677
    4      -10.161077
    5       -8.999239
    6       -6.436772
    7       -6.126553
    8       -5.950163
    9        0.016942
   10        0.746679
   11        1.550521
   12        1.936461
 
  0.2083333E+00  0.0000000E+00  0.0000000E+00  0.2314815E-02
    1      -21.994694
    2      -18.645602
    3      -13.965573
    4      -10.051478
    5       -8.909124
    6       -6.775614
    7       -6.298222
    8       -6.297336
    9        0.503498
   10        0.871819
   11        1.677144
   12        2.064754
 
  0.2500000E+00  0.0000000E+00  0.0000000E+00  0.2314815E-02
    1      -21.882326
    2      -19.002763
    3      -13.445464
    4       -9.917898
    5       -8.799988
    6       -7.167471
    7       -6.657009
    8       -6.490312
    9        1.024761
   10        1.028243
   11        1.831810
   12        2.221557
 
  0.2916667E+00  0.0000000E+00  0.0000000E+00  0.2314815E-02
    1      -21.749712
    2      -19.344422
    3      -12.913683
    4       -9.760581
    5       -8.672481
    6       -7.603151
    7       -7.015897
    8       -6.699041
    9        1.205481
   10        1.578376
   11        2.014443
   12        2.406868
 
  0.3333333E+00  0.0000000E+00  0.0000000E+00  0.2314815E-02
    1      -21.596949
    2      -19.669279
    3      -12.372872
    4       -9.579839
    5       -8.527422
    6       -8.074110
    7       -7.367916
    8       -6.917596
    9        1.413940
   10        2.144008
   11        2.224918
   12        2.620682
 
  0.3750000E+00  0.0000000E+00  0.0000000E+00  0.2314815E-02
    1      -21.424151
    2      -19.976494
    3      -11.825510
    4       -9.376061
    5       -8.572687
    6       -8.365822
    7       -7.708369
    8       -7.140728
    9        1.650088
   10        2.463017
   11        2.715822
   12        2.862990
 
  0.4166667E+00  0.0000000E+00  0.0000000E+00  0.2314815E-02
    1      -21.231455
    2      -20.265475
    3      -11.274178
    4       -9.149735
    5       -9.092158
    6       -8.188924
    7       -8.033995
    8       -7.363903
    9        1.913852
   10        2.728295
   11        3.133782
   12        3.242269
 
  0.4583333E+00  0.0000000E+00  0.0000000E+00  0.2314815E-02
    1      -21.019024
    2      -20.535777
    3      -10.721711
    4       -9.626704
    5       -8.901473
    6       -8.342462
    7       -7.998243
    8       -7.583275
    9        2.205133
   10        2.869626
   11        3.019592
   12        3.433020
 
  0.5000000E+00  0.0000000E+00  0.0000000E+00  0.1157407E-02
    1      -20.787054
    2      -20.787054
    3      -10.171320
    4      -10.171320
    5       -8.632051
    6       -8.632051
    7       -7.795617
    8       -7.795617
    9        2.523795
   10        2.523795
   11        3.332234
   12        3.332234
 
  0.0000000E+00  0.2777778E-01  0.0000000E+00  0.2314815E-02
    1      -22.236931
    2      -17.005665
    3      -15.959344
    4      -10.340260
    5       -9.222749
    6       -5.845428
    7       -5.816235
    8       -5.092245
    9       -1.080384
   10        0.542758
   11        1.344034
   12        1.727389
 
  0.4166667E-01  0.2777778E-01  0.0000000E+00  0.4629630E-02
    1      -22.226683
    2      -17.170636
    3      -15.779165
    4      -10.328022
    5       -9.212545
    6       -5.886782
    7       -5.839514
    8       -5.158906
    9       -0.997872
   10        0.556659
   11        1.358117
   12        1.741643
 
  0.8333333E-01  0.2777778E-01  0.0000000E+00  0.4629630E-02
    1      -22.195947
    2      -17.507506
    3      -15.396755
    4      -10.291326
    5       -9.181984
    6       -6.009439
    7       -5.907870
    8       -5.343798
    9       -0.765600
   10        0.598365
   11        1.400361
   12        1.784405
 
  0.1250000E+00  0.2777778E-01  0.0000000E+00  0.4629630E-02
    1      -22.144742
    2      -17.883728
    3      -14.944928
    4      -10.230229
    5       -9.131214
    6       -6.209027
    7       -6.017473
    8       -5.613414
    9       -0.417594
   10        0.667882
   11        1.470755
   12        1.855677
 
  0.1666667E+00  0.2777778E-01  0.0000000E+00  0.4629630E-02
    1      -22.073101
    2      -18.262627
    3      -14.460811
    4      -10.144830
    5       -9.060493
    6       -6.478842
    7       -6.162720
    8       -5.934621
    9        0.012145
   10        0.765215
   11        1.569276
   12        1.955459
 
  0.2083333E+00  0.2777778E-01  0.0000000E+00  0.4629630E-02
    1      -21.981074
    2      -18.632868
    3      -13.956390
    4      -10.035269
    5       -8.970189
    6       -6.810706
    7       -6.336991
    8       -6.282827
    9        0.497769
   10        0.890364
   11        1.695891
   12        2.083753
 
  0.2500000E+00  0.2777778E-01  0.0000000E+00  0.4629630E-02
    1      -21.868724
    2      -18.989887
    3      -13.437092
    4       -9.901735
    5       -8.860796
    6       -7.195770
    7       -6.641672
    8       -6.533388
    9        1.021258
   10        1.043316
   11        1.850550
   12        2.240559
 
  0.2916667E+00  0.2777778E-01  0.0000000E+00  0.4629630E-02
    1      -21.736132
    2      -19.331425
    3      -12.906276
    4       -9.744473
    5       -8.732951
    6       -7.625182
    7       -7.000556
    8       -6.745293
    9        1.224048
   10        1.569858
   11        2.033175
   12        2.425873
 
  0.3333333E+00  0.2777778E-01  0.0000000E+00  0.4629630E-02
    1      -21.583395
    2      -19.656178
    3      -12.366619
    4       -9.563793
    5       -8.587452
    6       -8.090574
    7       -7.352530
    8       -6.966677
    9        1.432521
   10        2.133758
   11        2.243644
   12        2.639691
 
  0.3750000E+00  0.2777778E-01  0.0000000E+00  0.4629630E-02
    1      -21.410629
    2      -19.963303
    3      -11.820641
    4       -9.360086
    5       -8.584328
    6       -8.425287
    7       -7.692912
    8       -7.192253
    9        1.668684
   10        2.481743
   11        2.703862
   12        2.882004
 
  0.4166667E+00  0.2777778E-01  0.0000000E+00  0.4629630E-02
    1      -21.217969
    2      -20.252206
    3      -11.270972
    4       -9.133837
    5       -9.099696
    6       -8.247671
    7       -8.018454
    8       -7.417494
    9        1.932465
   10        2.747032
   11        3.152800
   12        3.264834
 
  0.4583333E+00  0.2777778E-01  0.0000000E+00  0.4629630E-02
    1      -21.005580
    2      -20.522441
    3      -10.720504
    4       -9.630789
    5       -8.885660
    6       -8.326829
    7       -8.056083
    8       -7.638580
    9        2.223769
   10        2.888343
   11        3.038358
   12        3.452053
 
  0.5000000E+00  0.2777778E-01  0.0000000E+00  0.2314815E-02
    1      -20.773660
    2      -20.773660
    3      -10.172517
    4      -10.172517
    5       -8.616327
    6       -8.616327
    7       -7.852324
    8       -7.852324
    9        2.542461
   10        2.542461
   11        3.350977
   12        3.350977
 
  0.0000000E+00  0.5555556E-01  0.0000000E+00  0.2314815E-02
    1      -22.195968
    2      -16.970512
    3      -15.924771
    4      -10.291351
    5       -9.402470
    6       -6.011237
    7       -5.906085
    8       -5.042409
    9       -1.093110
   10        0.598336
   11        1.400333
   12        1.784377
 
  0.4166667E-01  0.5555556E-01  0.0000000E+00  0.4629630E-02
    1      -22.185725
    2      -17.134985
    3      -15.745248
    4      -10.279125
    5       -9.392211
    6       -6.053762
    7       -5.926218
    8       -5.109520
    9       -1.010510
   10        0.612238
   11        1.414413
   12        1.798631
 
  0.8333333E-01  0.5555556E-01  0.0000000E+00  0.4629630E-02
    1      -22.155002
    2      -17.471084
    3      -15.364090
    4      -10.242468
    5       -9.361477
    6       -6.174003
    7       -5.991400
    8       -5.295443
    9       -0.778297
   10        0.653947
   11        1.456649
   12        1.841394
 
  0.1250000E+00  0.5555556E-01  0.0000000E+00  0.4629630E-02
    1      -22.103818
    2      -17.846624
    3      -14.913765
    4      -10.181435
    5       -9.310409
    6       -6.362953
    7       -6.103328
    8       -5.566111
    9       -0.431058
   10        0.723472
   11        1.527030
   12        1.912667
 
  0.1666667E+00  0.5555556E-01  0.0000000E+00  0.4629630E-02
    1      -22.032210
    2      -18.224941
    3      -14.431419
    4      -10.096125
    5       -9.239240
    6       -6.615276
    7       -6.256182
    8       -5.888091
    9       -0.003104
   10        0.820819
   11        1.625532
   12        2.012453
 
  0.2083333E+00  0.5555556E-01  0.0000000E+00  0.4629630E-02
    1      -21.940226
    2      -18.594686
    3      -13.929096
    4       -9.986679
    5       -9.148311
    6       -6.926062
    7       -6.441143
    8       -6.236739
    9        0.479672
   10        0.945988
   11        1.752125
   12        2.140751
 
  0.2500000E+00  0.5555556E-01  0.0000000E+00  0.4629630E-02
    1      -21.827929
    2      -18.951280
    3      -13.412297
    4       -9.853285
    5       -9.038075
    6       -7.289388
    7       -6.649200
    8       -6.595759
    9        0.999326
   10        1.098965
   11        1.906758
   12        2.297563
 
  0.2916667E+00  0.5555556E-01  0.0000000E+00  0.4629630E-02
    1      -21.695404
    2      -19.292452
    3      -12.884471
    4       -9.696190
    5       -8.909116
    6       -7.698309
    7       -6.954626
    8       -6.872322
    9        1.279726
   10        1.543234
   11        2.089357
   12        2.482885
 
  0.3333333E+00  0.5555556E-01  0.0000000E+00  0.4629630E-02
    1      -21.542746
    2      -19.616890
    3      -12.348402
    4       -9.515701
    5       -8.762166
    6       -8.145407
    7       -7.306457
    8       -7.103761
    9        1.488234
   10        2.101809
   11        2.299806
   12        2.696713
 
  0.3750000E+00  0.5555556E-01  0.0000000E+00  0.4629630E-02
    1      -21.370072
    2      -19.923744
    3      -11.806747
    4       -9.312209
    5       -8.623371
    6       -8.598132
    7       -7.646621
    8       -7.337967
    9        1.724435
   10        2.537901
   11        2.666526
   12        2.939039
 
  0.4166667E+00  0.5555556E-01  0.0000000E+00  0.4629630E-02
    1      -21.177522
    2      -20.212414
    3      -11.262297
    4       -9.125386
    5       -9.086199
    6       -8.418124
    7       -7.971903
    8       -7.570411
    9        1.988259
   10        2.803222
   11        3.209853
   12        3.225204
 
  0.4583333E+00  0.5555556E-01  0.0000000E+00  0.4629630E-02
    1      -20.965262
    2      -20.482446
    3      -10.718145
    4       -9.645326
    5       -8.838279
    6       -8.280001
    7       -8.223501
    8       -7.797401
    9        2.279616
   10        2.944378
   11        3.094646
   12        3.509134
 
  0.5000000E+00  0.5555556E-01  0.0000000E+00  0.2314815E-02
    1      -20.733491
    2      -20.733491
    3      -10.177805
    4      -10.177805
    5       -8.569218
    6       -8.569218
    7       -8.015920
    8       -8.015920
    9        2.598381
   10        2.598381
   11        3.407183
   12        3.407183
 
  0.0000000E+00  0.8333333E-01  0.0000000E+00  0.2314815E-02
    1      -22.127736
    2      -16.911937
    3      -15.867687
    4      -10.209948
    5       -9.686945
    6       -6.273889
    7       -6.053432
    8       -4.959415
    9       -1.117093
   10        0.690979
   11        1.494142
   12        1.879359
 
  0.4166667E-01  0.8333333E-01  0.0000000E+00  0.4629630E-02
    1      -22.117500
    2      -17.075617
    3      -15.689236
    4      -10.197744
    5       -9.676574
    6       -6.317747
    7       -6.069084
    8       -5.027325
    9       -1.034319
   10        0.704881
   11        1.508216
   12        1.893613
 
  0.8333333E-01  0.8333333E-01  0.0000000E+00  0.4629630E-02
    1      -22.086799
    2      -17.410457
    3      -15.310182
    4      -10.161152
    5       -9.645500
    6       -6.439062
    7       -6.124263
    8       -5.215059
    9       -0.802170
   10        0.746591
   11        1.550437
   12        1.936377
 
  0.1250000E+00  0.8333333E-01  0.0000000E+00  0.4629630E-02
    1      -22.035654
    2      -17.784864
    3      -14.862438
    4      -10.100229
    5       -9.593838
    6       -6.622430
    7       -6.228408
    8       -5.487560
    9       -0.456231
   10        0.816120
   11        1.620793
   12        2.007651
 
  0.1666667E+00  0.8333333E-01  0.0000000E+00  0.4629630E-02
    1      -21.964100
    2      -18.162207
    3      -14.383169
    4      -10.015072
    5       -9.521782
    6       -6.858496
    7       -6.381470
    8       -5.810868
    9       -0.031347
   10        0.913477
   11        1.719261
   12        2.107439
 
  0.2083333E+00  0.8333333E-01  0.0000000E+00  0.4629630E-02
    1      -21.872186
    2      -18.531119
    3      -13.884526
    4       -9.905824
    5       -9.429611
    6       -7.142511
    7       -6.576177
    8       -6.160268
    9        0.446520
   10        1.038663
   11        1.845811
   12        2.235743
 
  0.2500000E+00  0.8333333E-01  0.0000000E+00  0.4629630E-02
    1      -21.759980
    2      -18.886998
    3      -13.372145
    4       -9.772672
    5       -9.317699
    6       -7.471987
    7       -6.801419
    8       -6.519571
    9        0.959559
   10        1.191667
   11        2.000395
   12        2.392562
 
  0.2916667E+00  0.8333333E-01  0.0000000E+00  0.4629630E-02
    1      -21.627565
    2      -19.227557
    3      -12.849651
    4       -9.615861
    5       -9.186518
    6       -7.844690
    7       -7.045317
    8       -6.878394
    9        1.372463
   10        1.495365
   11        2.182944
   12        2.577894
 
  0.3333333E+00  0.8333333E-01  0.0000000E+00  0.4629630E-02
    1      -21.475038
    2      -19.551466
    3      -12.320044
    4       -9.435702
    5       -9.036658
    6       -8.257161
    7       -7.297589
    8       -7.229967
    9        1.581010
   10        2.044677
   11        2.393350
   12        2.791735
 
  0.3750000E+00  0.8333333E-01  0.0000000E+00  0.4629630E-02
    1      -21.302521
    2      -19.857865
    3      -11.786256
    4       -9.232580
    5       -8.868840
    6       -8.704355
    7       -7.569744
    8       -7.550534
    9        1.817254
   10        2.599692
   11        2.631430
   12        3.034078
 
  0.4166667E+00  0.8333333E-01  0.0000000E+00  0.4629630E-02
    1      -21.110154
    2      -20.146142
    3      -11.251419
    4       -9.180215
    5       -9.006980
    6       -8.683941
    7       -7.894570
    8       -7.798789
    9        2.081125
   10        2.896804
   11        3.151493
   12        3.304914
 
  0.4583333E+00  0.8333333E-01  0.0000000E+00  0.4629630E-02
    1      -20.898109
    2      -20.415836
    3      -10.719052
    4       -9.678467
    5       -8.759504
    6       -8.483026
    7       -8.202183
    8       -8.038634
    9        2.372534
   10        3.037473
   11        3.188413
   12        3.604242
 
  0.5000000E+00  0.8333333E-01  0.0000000E+00  0.2314815E-02
    1      -20.666589
    2      -20.666589
    3      -10.193185
    4      -10.193185
    5       -8.490914
    6       -8.490914
    7       -8.267389
    8       -8.267389
    9        2.691369
   10        2.691369
   11        3.500757
   12        3.500757
 
  0.0000000E+00  0.1111111E+00  0.0000000E+00  0.2314815E-02
    1      -22.032295
    2      -16.829959
    3      -15.789010
    4      -10.096225
    5      -10.057460
    6       -6.616704
    7       -6.254808
    8       -4.843368
    9       -1.156454
   10        0.820702
   11        1.625421
   12        2.012340
 
  0.4166667E-01  0.1111111E+00  0.0000000E+00  0.4629630E-02
    1      -22.022070
    2      -16.992610
    3      -15.612014
    4      -10.084053
    5      -10.046893
    6       -6.662222
    7       -6.264701
    8       -4.912504
    9       -1.073368
   10        0.834601
   11        1.639488
   12        2.026593
 
  0.8333333E-01  0.1111111E+00  0.0000000E+00  0.4629630E-02
    1      -21.991400
    2      -17.325745
    3      -15.235962
    4      -10.047556
    5      -10.015217
    6       -6.786641
    7       -6.305065
    8       -5.102991
    9       -0.841212
   10        0.876303
   11        1.681684
   12        2.069356
 
  0.1250000E+00  0.1111111E+00  0.0000000E+00  0.4629630E-02
    1      -21.940309
    2      -17.698575
    3      -14.792020
    4       -9.986793
    5       -9.962504
    6       -6.969881
    7       -6.391619
    8       -5.378234
    9       -0.497113
   10        0.945822
   11        1.751998
   12        2.140629
 
  0.1666667E+00  0.1111111E+00  0.0000000E+00  0.4629630E-02
    1      -21.868830
    2      -18.074548
    3      -14.317377
    4       -9.901860
    5       -9.888873
    6       -7.198062
    7       -6.531008
    8       -5.703493
    9       -0.076703
   10        1.043172
   11        1.850410
   12        2.240418
 
  0.2083333E+00  0.1111111E+00  0.0000000E+00  0.4629630E-02
    1      -21.777018
    2      -18.442280
    3      -13.824346
    4       -9.794491
    5       -9.792900
    6       -7.463300
    7       -6.721303
    8       -6.053966
    9        0.393980
   10        1.168359
   11        1.976888
   12        2.368724
 
  0.2500000E+00  0.1111111E+00  0.0000000E+00  0.4629630E-02
    1      -21.664939
    2      -18.797146
    3      -13.318804
    4       -9.679567
    5       -9.660102
    6       -7.761876
    7       -6.954455
    8       -6.413649
    9        0.897346
   10        1.321374
   11        2.131387
   12        2.525549
 
  0.2916667E+00  0.1111111E+00  0.0000000E+00  0.4629630E-02
    1      -21.532677
    2      -19.136833
    3      -12.804687
    4       -9.544356
    5       -9.503710
    6       -8.093077
    7       -7.218320
    8       -6.772369
    9        1.421300
   10        1.502190
   11        2.313846
   12        2.710890
 
  0.3333333E+00  0.1111111E+00  0.0000000E+00  0.4629630E-02
    1      -21.380336
    2      -19.459994
    3      -12.285406
    4       -9.389145
    5       -9.324033
    6       -8.457819
    7       -7.498926
    8       -7.123531
    9        1.710763
   10        1.956980
   11        2.524169
   12        2.924743
 
  0.3750000E+00  0.1111111E+00  0.0000000E+00  0.4629630E-02
    1      -21.208038
    2      -19.765747
    3      -11.764422
    4       -9.214258
    5       -9.121456
    6       -8.856712
    7       -7.783160
    8       -7.462716
    9        1.947036
   10        2.497277
   11        2.762201
   12        3.167102
 
  0.4166667E+00  0.1111111E+00  0.0000000E+00  0.4629630E-02
    1      -21.015930
    2      -20.053469
    3      -11.245553
    4       -9.288315
    5       -9.020044
    6       -8.896459
    7       -8.060996
    8       -7.786854
    9        2.210935
   10        3.027634
   11        3.035550
   12        3.437958
 
  0.4583333E+00  0.1111111E+00  0.0000000E+00  0.4629630E-02
    1      -20.804189
    2      -20.322684
    3      -10.733174
    4       -9.748705
    5       -8.806899
    6       -8.649639
    7       -8.326160
    8       -8.093741
    9        2.502370
   10        3.167376
   11        3.319559
   12        3.558961
 
  0.5000000E+00  0.1111111E+00  0.0000000E+00  0.2314815E-02
    1      -20.573024
    2      -20.573024
    3      -10.232329
    4      -10.232329
    5       -8.575332
    6       -8.575332
    7       -8.381748
    8       -8.381748
    9        2.821232
   10        2.821232
   11        3.631297
   12        3.631297
 
  0.0000000E+00  0.1388889E+00  0.0000000E+00  0.2314815E-02
    1      -21.909735
    2      -16.724608
    3      -15.690299
    4      -10.493329
    5       -9.950430
    6       -7.021901
    7       -6.505655
    8       -4.694413
    9       -1.216825
   10        0.987513
   11        1.794115
   12        2.183322
 
  0.4166667E-01  0.1388889E+00  0.0000000E+00  0.4629630E-02
    1      -21.899523
    2      -16.886088
    3      -15.515100
    4      -10.482428
    5       -9.938301
    6       -7.069387
    7       -6.508776
    8       -4.765343
    9       -1.133184
   10        1.001404
   11        1.808169
   12        2.197574
 
  0.8333333E-01  0.1388889E+00  0.0000000E+00  0.4629630E-02
    1      -21.868894
    2      -17.217141
    3      -15.143044
    4      -10.449724
    5       -9.901935
    6       -7.198144
    7       -6.530991
    8       -4.959795
    9       -0.900776
   10        1.043084
   11        1.850327
   12        2.240333
 
  0.1250000E+00  0.1388889E+00  0.0000000E+00  0.4629630E-02
    1      -21.817871
    2      -17.587957
    3      -14.704416
    4      -10.395205
    5       -9.841388
    6       -7.384499
    7       -6.593273
    8       -5.238895
    9       -0.559008
   10        1.112571
   11        1.920575
   12        2.311603
 
  0.1666667E+00  0.1388889E+00  0.0000000E+00  0.4629630E-02
    1      -21.746492
    2      -17.962150
    3      -14.236423
    4      -10.318845
    5       -9.756761
    6       -7.611189
    7       -6.707993
    8       -5.566819
    9       -0.144585
   10        1.209886
   11        2.018894
   12        2.411387
 
  0.2083333E+00  0.1388889E+00  0.0000000E+00  0.4629630E-02
    1      -21.654810
    2      -18.328339
    3      -13.751652
    4      -10.220584
    5       -9.648194
    6       -7.867652
    7       -6.878430
    8       -5.918704
    9        0.316418
   10        1.335042
   11        2.145253
   12        2.539691
 
  0.2500000E+00  0.1388889E+00  0.0000000E+00  0.4629630E-02
    1      -21.542894
    2      -18.681877
    3      -13.256406
    4      -10.100303
    5       -9.515878
    6       -8.147767
    7       -7.101179
    8       -6.278828
    9        0.806769
   10        1.488035
   11        2.299607
   12        2.696516
 
  0.2916667E+00  0.1388889E+00  0.0000000E+00  0.4629630E-02
    1      -21.410832
    2      -19.020422
    3      -12.755211
    4       -9.957785
    5       -9.360058
    6       -8.448745
    7       -7.367833
    8       -6.637335
    9        1.314820
   10        1.668840
   11        2.481900
   12        2.881862
 
  0.3333333E+00  0.1388889E+00  0.0000000E+00  0.4629630E-02
    1      -21.258731
    2      -19.342601
    3      -12.252280
    4       -9.792667
    5       -9.181043
    6       -8.770690
    7       -7.666252
    8       -6.987873
    9        1.832191
   10        1.877411
   11        2.692049
   12        3.095724
 
  0.3750000E+00  0.1388889E+00  0.0000000E+00  0.4629630E-02
    1      -21.086717
    2      -19.647510
    3      -11.752136
    4       -9.604385
    5       -9.116113
    6       -8.979214
    7       -7.981861
    8       -7.326197
    9        2.113683
   10        2.352399
   11        2.929939
   12        3.338095
 
  0.4166667E+00  0.1388889E+00  0.0000000E+00  0.4629630E-02
    1      -20.894946
    2      -19.934505
    3      -11.259943
    4       -9.488718
    5       -9.392158
    6       -8.755048
    7       -8.299535
    8       -7.649354
    9        2.377575
   10        2.870031
   11        3.195369
   12        3.608967
 
  0.4583333E+00  0.1388889E+00  0.0000000E+00  0.4629630E-02
    1      -20.683601
    2      -20.203096
    3      -10.781598
    4       -9.891247
    5       -9.155114
    6       -8.606141
    7       -8.509135
    8       -7.955219
    9        2.668993
   10        3.333914
   11        3.379893
   12        3.487776
 
  0.5000000E+00  0.1388889E+00  0.0000000E+00  0.2314815E-02
    1      -20.452898
    2      -20.452898
    3      -10.323432
    4      -10.323432
    5       -8.892764
    6       -8.892764
    7       -8.242214
    8       -8.242214
    9        2.987820
   10        2.987820
   11        3.791765
   12        3.791769
 
  0.0000000E+00  0.1666667E+00  0.0000000E+00  0.2314815E-02
    1      -21.760172
    2      -16.595922
    3      -15.574179
    4      -10.974011
    5       -9.772895
    6       -7.472924
    7       -6.800574
    8       -4.512745
    9       -1.305055
   10        1.191406
   11        2.000145
   12        2.392308
 
  0.4166667E-01  0.1666667E+00  0.0000000E+00  0.4629630E-02
    1      -21.749977
    2      -16.756241
    3      -15.401071
    4      -10.962535
    5       -9.760823
    6       -7.522645
    7       -6.796219
    8       -4.586276
    9       -1.220404
   10        1.205284
   11        2.014178
   12        2.406559
 
  0.8333333E-01  0.1666667E+00  0.0000000E+00  0.4629630E-02
    1      -21.719399
    2      -17.084936
    3      -15.034229
    4      -10.928051
    5       -9.724628
    6       -7.656582
    7       -6.798077
    8       -4.786351
    9       -0.987141
   10        1.246926
   11        2.056272
   12        2.449312
 
  0.1250000E+00  0.1666667E+00  0.0000000E+00  0.4629630E-02
    1      -21.668462
    2      -17.453312
    3      -14.603019
    4      -10.870379
    5       -9.664367
    6       -7.847935
    7       -6.831791
    8       -5.070734
    9       -0.648014
   10        1.316354
   11        2.126414
   12        2.520572
 
  0.1666667E+00  0.1666667E+00  0.0000000E+00  0.4629630E-02
    1      -21.597204
    2      -17.825293
    3      -14.144691
    4      -10.789186
    5       -9.580140
    6       -8.076839
    7       -6.914631
    8       -5.402161
    9       -0.241124
   10        1.413597
   11        2.224580
   12        2.620345
 
  0.2083333E+00  0.1666667E+00  0.0000000E+00  0.4629630E-02
    1      -21.505681
    2      -18.189548
    3      -13.672335
    4      -10.683927
    5       -9.472092
    6       -8.330944
    7       -7.054298
    8       -5.755790
    9        0.207559
   10        1.538677
   11        2.350733
   12        2.748637
 
  0.2500000E+00  0.1666667E+00  0.0000000E+00  0.4629630E-02
    1      -21.393966
    2      -18.541416
    3      -13.193089
    4      -10.553754
    5       -9.340412
    6       -8.602585
    7       -7.251460
    8       -6.116354
    9        0.681395
   10        1.691601
   11        2.504824
   12        2.905454
 
  0.2916667E+00  0.1666667E+00  0.0000000E+00  0.4629630E-02
    1      -21.262151
    2      -18.878525
    3      -12.712682
    4      -10.397406
    5       -9.185349
    6       -8.887182
    7       -7.501550
    8       -6.474442
    9        1.169398
   10        1.872348
   11        2.686787
   12        3.090797
 
  0.3333333E+00  0.1666667E+00  0.0000000E+00  0.4629630E-02
    1      -21.110345
    2      -19.199472
    3      -12.236946
    4      -10.213088
    5       -9.182630
    6       -9.007209
    7       -7.796012
    8       -6.824040
    9        1.663833
   10        2.080872
   11        2.896537
   12        3.304662
 
  0.3750000E+00  0.1666667E+00  0.0000000E+00  0.4629630E-02
    1      -20.938685
    2      -19.503322
    3      -11.772389
    4       -9.998481
    5       -9.489194
    6       -8.806375
    7       -8.123249
    8       -7.161134
    9        2.158875
   10        2.317101
   11        3.133960
   12        3.547040
 
  0.4166667E+00  0.1666667E+00  0.0000000E+00  0.4629630E-02
    1      -20.747333
    2      -19.789407
    3      -11.326096
    4       -9.809576
    5       -9.751156
    6       -8.583317
    7       -8.469350
    8       -7.482924
    9        2.580944
   10        2.649858
   11        3.398896
   12        3.817923
 
  0.4583333E+00  0.1666667E+00  0.0000000E+00  0.4629630E-02
    1      -20.536479
    2      -20.057219
    3      -10.904690
    4      -10.148663
    5       -9.469834
    6       -8.818910
    7       -8.338620
    8       -7.787386
    9        2.872292
   10        3.132838
   11        3.536969
   12        3.691015
 
  0.5000000E+00  0.1666667E+00  0.0000000E+00  0.2314815E-02
    1      -20.306351
    2      -20.306351
    3      -10.512285
    4      -10.512285
    5       -9.156604
    6       -9.156604
    7       -8.073006
    8       -8.073006
    9        3.191018
   10        3.191018
   11        3.604191
   12        3.604191
 