gr                                      
           1
     4.273509    0.000000    0.000000
     0.000000    2.467916    0.000000
     0.000000    0.000000   19.990963
   C 
   4
Direct configuration=     1
   0.00013158  0.00000000  0.00000000
   0.16653509  0.50000000  0.00000000
   0.50013158  0.50000000  0.00000000
   0.66653509  0.00000000  0.00000000
Direct configuration=     2
  -0.00049451  0.00000000  0.00000000
   0.16716118  0.50000000  0.00000000
   0.49950549  0.50000000  0.00000000
   0.66716118 -0.00000000  0.00000000
Direct configuration=     3
   0.00000724  0.00000000  0.00000000
   0.16665942  0.50000000 -0.00000000
   0.50000724  0.50000000  0.00000000
   0.66665942 -0.00000000 -0.00000000
Direct configuration=     4
   0.00000610  0.00000000  0.00000000
   0.16666056  0.50000000 -0.00000000
   0.50000610  0.50000000  0.00000000
   0.66666056 -0.00000000 -0.00000000
Direct configuration=     5
   0.00000611  0.00000000  0.00000000
   0.16666056  0.50000000 -0.00000000
   0.50000611  0.50000000  0.00000000
   0.66666056 -0.00000000 -0.00000000
Direct configuration=     6
   0.00000611 -0.00000000  0.00000000
   0.16666056  0.50000000 -0.00000000
   0.50000611  0.50000000  0.00000000
   0.66666056  0.00000000 -0.00000000
Direct configuration=     7
   0.00000611 -0.00000000  0.00000000
   0.16666056  0.50000000 -0.00000000
   0.50000611  0.50000000  0.00000000
   0.66666056  0.00000000 -0.00000000
