    4    4  400    1
  0.5270948E+02  0.4359156E-09  0.2458944E-09  0.1966970E-08  0.5000000E-15
  1.000000000000000E-004
  CAR 
 gr                                      
     16    247     12
 
  0.0000000E+00  0.0000000E+00  0.0000000E+00  0.1157407E-02
    1      -22.114579
    2      -17.213449
    3      -15.861875
    4      -10.251554
    5       -8.871392
    6       -5.966063
    7       -5.737298
    8       -5.292603
    9       -1.166200
   10        0.540607
   11        1.339320
   12        1.730627
 
  0.4166667E-01  0.0000000E+00  0.0000000E+00  0.2314815E-02
    1      -22.104728
    2      -17.339155
    3      -15.721132
    4      -10.239848
    5       -8.861804
    6       -6.010059
    7       -5.757840
    8       -5.352783
    9       -1.090237
   10        0.553940
   11        1.352843
   12        1.744318
 
  0.8333333E-01  0.0000000E+00  0.0000000E+00  0.2314815E-02
    1      -22.075177
    2      -17.624244
    3      -15.391014
    4      -10.204749
    5       -8.833090
    6       -6.140004
    7       -5.818388
    8       -5.520913
    9       -0.874922
   10        0.593945
   11        1.393408
   12        1.785395
 
  0.1250000E+00  0.0000000E+00  0.0000000E+00  0.2314815E-02
    1      -22.025947
    2      -17.963665
    3      -14.976802
    4      -10.146313
    5       -8.785404
    6       -6.350160
    7       -5.915868
    8       -5.768638
    9       -0.549087
   10        0.660639
   11        1.461000
   12        1.853860
 
  0.1666667E+00  0.0000000E+00  0.0000000E+00  0.2314815E-02
    1      -21.957073
    2      -18.315360
    3      -14.520957
    4      -10.064641
    5       -8.719005
    6       -6.632103
    7       -6.066669
    8       -6.045671
    9       -0.142836
   10        0.754043
   11        1.555593
   12        1.949717
 
  0.2083333E+00  0.0000000E+00  0.0000000E+00  0.2314815E-02
    1      -21.868605
    2      -18.663795
    3      -14.039586
    4       -9.959872
    5       -8.634268
    6       -6.975965
    7       -6.392274
    8       -6.202247
    9        0.319918
   10        0.874167
   11        1.677147
   12        2.072968
 
  0.2500000E+00  0.0000000E+00  0.0000000E+00  0.2314815E-02
    1      -21.760607
    2      -19.002313
    3      -13.540111
    4       -9.832199
    5       -8.531696
    6       -7.371538
    7       -6.729771
    8       -6.379683
    9        0.821911
   10        1.021011
   11        1.825599
   12        2.223614
 
  0.2916667E+00  0.0000000E+00  0.0000000E+00  0.2314815E-02
    1      -21.633163
    2      -19.327592
    3      -13.026829
    4       -9.681868
    5       -8.411932
    6       -7.809071
    7       -7.068727
    8       -6.572155
    9        1.194557
   10        1.350622
   11        2.000848
   12        2.401654
 
  0.3333333E+00  0.0000000E+00  0.0000000E+00  0.2314815E-02
    1      -21.486376
    2      -19.637755
    3      -12.502837
    4       -9.509193
    5       -8.279713
    6       -8.275782
    7       -7.402174
    8       -6.774245
    9        1.394774
   10        1.896249
   11        2.202726
   12        2.607084
 
  0.3750000E+00  0.0000000E+00  0.0000000E+00  0.2314815E-02
    1      -21.320365
    2      -19.931630
    3      -11.970806
    4       -9.314570
    5       -8.775694
    6       -8.124243
    7       -7.725370
    8       -6.981094
    9        1.621614
   10        2.430919
   11        2.449581
   12        2.839895
 
  0.4166667E+00  0.0000000E+00  0.0000000E+00  0.2314815E-02
    1      -21.135279
    2      -20.208423
    3      -11.433349
    4       -9.290324
    5       -9.098495
    6       -8.034997
    7       -7.958530
    8       -7.188465
    9        1.875010
   10        2.684737
   11        2.996034
   12        3.100076
 
  0.4583333E+00  0.0000000E+00  0.0000000E+00  0.2314815E-02
    1      -20.931296
    2      -20.467567
    3      -10.893243
    4       -9.817899
    5       -8.861589
    6       -8.328674
    7       -7.780121
    8       -7.392724
    9        2.154876
   10        2.793489
   11        2.962207
   12        3.387709
 
  0.5000000E+00  0.0000000E+00  0.0000000E+00  0.1157407E-02
    1      -20.708636
    2      -20.708636
    3      -10.353580
    4      -10.353580
    5       -8.604644
    6       -8.604644
    7       -7.590802
    8       -7.590802
    9        2.461091
   10        2.461091
   11        3.254085
   12        3.254085
 
  0.0000000E+00  0.2777778E-01  0.0000000E+00  0.2314815E-02
    1      -22.100780
    2      -17.201496
    3      -15.850122
    4      -10.235157
    5       -8.934388
    6       -5.992924
    7       -5.795944
    8       -5.275924
    9       -1.168913
   10        0.559307
   11        1.358219
   12        1.749762
 
  0.4166667E-01  0.2777778E-01  0.0000000E+00  0.4629630E-02
    1      -22.090929
    2      -17.327076
    3      -15.709552
    4      -10.223454
    5       -8.924788
    6       -6.038063
    7       -5.814726
    8       -5.336224
    9       -1.092936
   10        0.572640
   11        1.371741
   12        1.763454
 
  0.8333333E-01  0.2777778E-01  0.0000000E+00  0.4629630E-02
    1      -22.061383
    2      -17.611936
    3      -15.379800
    4      -10.188367
    5       -8.896037
    6       -6.169461
    7       -5.872079
    8       -5.504634
    9       -0.877655
   10        0.612646
   11        1.412304
   12        1.804531
 
  0.1250000E+00  0.2777778E-01  0.0000000E+00  0.4629630E-02
    1      -22.012161
    2      -17.951141
    3      -14.966040
    4      -10.129951
    5       -8.848285
    6       -6.379216
    7       -5.967383
    8       -5.752659
    9       -0.552046
   10        0.679341
   11        1.479892
   12        1.872996
 
  0.1666667E+00  0.2777778E-01  0.0000000E+00  0.4629630E-02
    1      -21.943297
    2      -18.302648
    3      -14.510721
    4      -10.048306
    5       -8.781787
    6       -6.658799
    7       -6.096501
    8       -6.050922
    9       -0.146304
   10        0.772747
   11        1.574481
   12        1.968853
 
  0.2083333E+00  0.2777778E-01  0.0000000E+00  0.4629630E-02
    1      -21.854844
    2      -18.650922
    3      -14.029964
    4       -9.943573
    5       -8.696913
    6       -6.999056
    7       -6.376669
    8       -6.253495
    9        0.315641
   10        0.892875
   11        1.696030
   12        2.092106
 
  0.2500000E+00  0.2777778E-01  0.0000000E+00  0.4629630E-02
    1      -21.746865
    2      -18.989301
    3      -13.531210
    4       -9.815942
    5       -8.594156
    6       -7.390489
    7       -6.714231
    8       -6.431985
    9        0.816541
   10        1.039725
   11        1.844476
   12        2.242754
 
  0.2916667E+00  0.2777778E-01  0.0000000E+00  0.4629630E-02
    1      -21.619444
    2      -19.314460
    3      -13.018775
    4       -9.665662
    5       -8.474149
    6       -7.823838
    7       -7.053193
    8       -6.625805
    9        1.213278
   10        1.343912
   11        2.019720
   12        2.420797
 
  0.3333333E+00  0.2777778E-01  0.0000000E+00  0.4629630E-02
    1      -21.472684
    2      -19.624519
    3      -12.495784
    4       -9.493045
    5       -8.337686
    6       -8.290541
    7       -7.386608
    8       -6.829311
    9        1.413504
   10        1.888021
   11        2.221596
   12        2.626230
 
  0.3750000E+00  0.2777778E-01  0.0000000E+00  0.4629630E-02
    1      -21.306705
    2      -19.918305
    3      -11.964936
    4       -9.298487
    5       -8.782967
    6       -8.185748
    7       -7.709747
    8       -7.037517
    9        1.640354
   10        2.439844
   11        2.449794
   12        2.859045
 
  0.4166667E+00  0.2777778E-01  0.0000000E+00  0.4629630E-02
    1      -21.121656
    2      -20.195021
    3      -11.428879
    4       -9.294473
    5       -9.082483
    6       -8.019536
    7       -8.019302
    8       -7.246114
    9        1.893761
   10        2.703629
   11        2.985686
   12        3.119232
 
  0.4583333E+00  0.2777778E-01  0.0000000E+00  0.4629630E-02
    1      -20.917717
    2      -20.454097
    3      -10.890429
    4       -9.819350
    5       -8.845654
    6       -8.312899
    7       -7.840508
    8       -7.451446
    9        2.173641
   10        2.812304
   11        2.981117
   12        3.406781
 
  0.5000000E+00  0.2777778E-01  0.0000000E+00  0.2314815E-02
    1      -20.695108
    2      -20.695108
    3      -10.352725
    4      -10.352725
    5       -8.588789
    6       -8.588789
    7       -7.650433
    8       -7.650433
    9        2.479876
   10        2.479876
   11        3.272706
   12        3.272706
 
  0.0000000E+00  0.5555556E-01  0.0000000E+00  0.2314815E-02
    1      -22.059392
    2      -17.165642
    3      -15.815006
    4      -10.185999
    5       -9.118285
    6       -6.073057
    7       -5.967086
    8       -5.225909
    9       -1.177864
   10        0.615409
   11        1.414909
   12        1.807169
 
  0.4166667E-01  0.5555556E-01  0.0000000E+00  0.4629630E-02
    1      -22.049545
    2      -17.290847
    3      -15.674950
    4      -10.174308
    5       -9.108644
    6       -6.126074
    7       -5.976175
    8       -5.286579
    9       -1.101838
   10        0.628741
   11        1.428429
   12        1.820861
 
  0.8333333E-01  0.5555556E-01  0.0000000E+00  0.4629630E-02
    1      -22.020012
    2      -17.575027
    3      -15.346303
    4      -10.139257
    5       -9.079765
    6       -6.264949
    7       -6.020917
    8       -5.455852
    9       -0.886655
   10        0.668746
   11        1.468985
   12        1.861938
 
  0.1250000E+00  0.5555556E-01  0.0000000E+00  0.4629630E-02
    1      -21.970814
    2      -17.913587
    3      -14.933909
    4      -10.080901
    5       -9.031792
    6       -6.473711
    7       -6.109591
    8       -5.704795
    9       -0.561735
   10        0.735443
   11        1.536562
   12        1.930404
 
  0.1666667E+00  0.5555556E-01  0.0000000E+00  0.4629630E-02
    1      -21.901984
    2      -18.264532
    3      -14.480195
    4       -9.999339
    5       -8.964965
    6       -6.745570
    7       -6.237370
    8       -6.003765
    9       -0.157543
   10        0.828853
   11        1.631136
   12        2.026263
 
  0.2083333E+00  0.5555556E-01  0.0000000E+00  0.4629630E-02
    1      -21.813575
    2      -18.612322
    3      -14.001319
    4       -9.894713
    5       -8.879633
    6       -7.074147
    7       -6.396525
    8       -6.329943
    9        0.301928
   10        0.948989
   11        1.752668
   12        2.149518
 
  0.2500000E+00  0.5555556E-01  0.0000000E+00  0.4629630E-02
    1      -21.705651
    2      -18.950283
    3      -13.504775
    4       -9.767213
    5       -8.776262
    6       -7.452230
    7       -6.667699
    8       -6.579121
    9        0.799482
   10        1.095851
   11        1.901096
   12        2.300170
 
  0.2916667E+00  0.5555556E-01  0.0000000E+00  0.4629630E-02
    1      -21.578299
    2      -19.275083
    3      -12.994950
    4       -9.617087
    5       -8.655451
    6       -7.872130
    7       -7.006680
    8       -6.777867
    9        1.269421
   10        1.322747
   11        2.076325
   12        2.478220
 
  0.3333333E+00  0.5555556E-01  0.0000000E+00  0.4629630E-02
    1      -21.431619
    2      -19.584830
    3      -12.475048
    4       -9.444647
    5       -8.517952
    6       -8.326210
    7       -7.339993
    8       -6.986401
    9        1.469666
   10        1.862186
   11        2.278195
   12        2.683661
 
  0.3750000E+00  0.5555556E-01  0.0000000E+00  0.4629630E-02
    1      -21.265736
    2      -19.878345
    3      -11.947865
    4       -9.250287
    5       -8.807288
    6       -8.364696
    7       -7.662955
    8       -7.199325
    9        1.696539
   10        2.409262
   11        2.506407
   12        2.916488
 
  0.4166667E+00  0.5555556E-01  0.0000000E+00  0.4629630E-02
    1      -21.080800
    2      -20.154827
    3      -11.416162
    4       -9.308866
    5       -9.034500
    6       -8.196826
    7       -7.972289
    8       -7.412132
    9        1.949972
   10        2.760291
   11        2.952501
   12        3.176690
 
  0.4583333E+00  0.5555556E-01  0.0000000E+00  0.4629630E-02
    1      -20.876991
    2      -20.413700
    3      -10.882886
    4       -9.825208
    5       -8.797904
    6       -8.265643
    7       -8.015739
    8       -7.621092
    9        2.229882
   10        2.868652
   11        3.037841
   12        3.427653
 
  0.5000000E+00  0.5555556E-01  0.0000000E+00  0.2314815E-02
    1      -20.654535
    2      -20.654535
    3      -10.351321
    4      -10.351321
    5       -8.541284
    6       -8.541284
    7       -7.823136
    8       -7.823136
    9        2.536159
   10        2.536159
   11        3.328397
   12        3.328397
 
  0.0000000E+00  0.8333333E-01  0.0000000E+00  0.2314815E-02
    1      -21.990449
    2      -17.105898
    3      -15.756978
    4      -10.104186
    5       -9.409233
    6       -6.237831
    7       -6.205112
    8       -5.142623
    9       -1.195485
   10        0.708912
   11        1.509367
   12        1.902848
 
  0.4166667E-01  0.8333333E-01  0.0000000E+00  0.4629630E-02
    1      -21.980610
    2      -17.230500
    3      -15.617771
    4      -10.092516
    5       -9.399507
    6       -6.311877
    7       -6.190253
    8       -5.203943
    9       -1.119360
   10        0.722243
   11        1.522883
   12        1.916540
 
  0.8333333E-01  0.8333333E-01  0.0000000E+00  0.4629630E-02
    1      -21.951100
    2      -17.513568
    3      -15.290978
    4      -10.057525
    5       -9.370371
    6       -6.457215
    7       -6.220263
    8       -5.374734
    9       -0.904319
   10        0.762243
   11        1.563426
   12        1.957616
 
  0.1250000E+00  0.8333333E-01  0.0000000E+00  0.4629630E-02
    1      -21.901941
    2      -17.851061
    3      -14.880918
    4       -9.999272
    5       -9.321952
    6       -6.659424
    7       -6.303131
    8       -5.625277
    9       -0.580571
   10        0.828935
   11        1.630983
   12        2.026082
 
  0.1666667E+00  0.8333333E-01  0.0000000E+00  0.4629630E-02
    1      -21.833169
    2      -18.201069
    3      -14.429970
    4       -9.917853
    5       -9.254462
    6       -6.915280
    7       -6.432100
    8       -5.925464
    9       -0.179051
   10        0.922341
   11        1.725530
   12        2.121942
 
  0.2083333E+00  0.8333333E-01  0.0000000E+00  0.4629630E-02
    1      -21.744833
    2      -18.548050
    3      -13.954361
    4       -9.813411
    5       -9.168210
    6       -7.221520
    7       -6.597897
    8       -6.252378
    9        0.276147
   10        1.042478
   11        1.847029
   12        2.245199
 
  0.2500000E+00  0.8333333E-01  0.0000000E+00  0.4629630E-02
    1      -21.637003
    2      -18.885313
    3      -13.461687
    4       -9.686136
    5       -9.063608
    6       -7.574185
    7       -6.790555
    8       -6.590456
    9        0.767919
   10        1.189347
   11        1.995422
   12        2.395857
 
  0.2916667E+00  0.8333333E-01  0.0000000E+00  0.4629630E-02
    1      -21.509764
    2      -19.209508
    3      -12.956462
    4       -9.536275
    5       -8.941185
    6       -7.968353
    7       -7.000794
    8       -6.929455
    9        1.284072
   10        1.362930
   11        2.170620
   12        2.573913
 
  0.3333333E+00  0.8333333E-01  0.0000000E+00  0.4629630E-02
    1      -21.363220
    2      -19.518733
    3      -12.442043
    4       -9.364139
    5       -8.801606
    6       -8.398250
    7       -7.262583
    8       -7.220763
    9        1.563192
   10        1.815361
   11        2.372476
   12        2.779365
 
  0.3750000E+00  0.8333333E-01  0.0000000E+00  0.4629630E-02
    1      -21.197497
    2      -19.811795
    3      -11.921414
    4       -9.170119
    5       -8.857674
    6       -8.645697
    7       -7.585231
    8       -7.444189
    9        1.790084
   10        2.353890
   11        2.600710
   12        3.012205
 
  0.4166667E+00  0.8333333E-01  0.0000000E+00  0.4629630E-02
    1      -21.012748
    2      -20.087885
    3      -11.397562
    4       -9.340453
    5       -8.954706
    6       -8.474471
    7       -7.894177
    8       -7.666169
    9        2.043538
   10        2.854685
   11        2.890713
   12        3.272425
 
  0.4583333E+00  0.8333333E-01  0.0000000E+00  0.4629630E-02
    1      -20.809159
    2      -20.346418
    3      -10.873699
    4       -9.840784
    5       -8.718514
    6       -8.289175
    7       -8.187109
    8       -7.882886
    9        2.323471
   10        2.962315
   11        3.132362
   12        3.395293
 
  0.5000000E+00  0.8333333E-01  0.0000000E+00  0.2314815E-02
    1      -20.586957
    2      -20.586957
    3      -10.353415
    4      -10.353415
    5       -8.462317
    6       -8.462317
    7       -8.091346
    8       -8.091346
    9        2.629776
   10        2.629776
   11        3.420314
   12        3.420314
 
  0.0000000E+00  0.1111111E+00  0.0000000E+00  0.2314815E-02
    1      -21.894012
    2      -17.022286
    3      -15.676889
    4       -9.989897
    5       -9.788016
    6       -6.590649
    7       -6.386825
    8       -5.026173
    9       -1.225827
   10        0.839815
   11        1.641554
   12        2.036801
 
  0.4166667E-01  0.1111111E+00  0.0000000E+00  0.4629630E-02
    1      -21.884184
    2      -17.146088
    3      -15.538853
    4       -9.978257
    5       -9.778140
    6       -6.641294
    7       -6.391521
    8       -5.088491
    9       -1.149515
   10        0.853141
   11        1.655063
   12        2.050492
 
  0.8333333E-01  0.1111111E+00  0.0000000E+00  0.4629630E-02
    1      -21.854707
    2      -17.427649
    3      -15.214694
    4       -9.943356
    5       -9.748545
    6       -6.772478
    7       -6.424709
    8       -5.261582
    9       -0.934607
   10        0.893129
   11        1.695586
   12        2.091567
 
  0.1250000E+00  0.1111111E+00  0.0000000E+00  0.4629630E-02
    1      -21.805604
    2      -17.763664
    3      -14.808035
    4       -9.885252
    5       -9.699327
    6       -6.960827
    7       -6.504875
    8       -5.514520
    9       -0.612528
   10        0.959802
   11        1.763109
   12        2.160030
 
  0.1666667E+00  0.1111111E+00  0.0000000E+00  0.4629630E-02
    1      -21.736910
    2      -18.112362
    3      -14.361191
    4       -9.804043
    5       -9.630650
    6       -7.195760
    7       -6.634674
    8       -5.816502
    9       -0.214915
   10        1.053187
   11        1.857610
   12        2.255887
 
  0.2083333E+00  0.1111111E+00  0.0000000E+00  0.4629630E-02
    1      -21.648679
    2      -18.458203
    3      -13.890494
    4       -9.699870
    5       -9.542748
    6       -7.472392
    7       -6.808525
    8       -6.144477
    9        0.234009
   10        1.173305
   11        1.979053
   12        2.379144
 
  0.2500000E+00  0.1111111E+00  0.0000000E+00  0.4629630E-02
    1      -21.540981
    2      -18.794480
    3      -13.403708
    4       -9.572924
    5       -9.435931
    6       -7.788394
    7       -7.016516
    8       -6.482999
    9        0.717290
   10        1.320161
   11        2.127385
   12        2.529803
 
  0.2916667E+00  0.1111111E+00  0.0000000E+00  0.4629630E-02
    1      -21.413900
    2      -19.117822
    3      -12.905563
    4       -9.423451
    5       -9.310593
    6       -8.142327
    7       -7.247021
    8       -6.821997
    9        1.222989
   10        1.493737
   11        2.302526
   12        2.707865
 
  0.3333333E+00  0.1111111E+00  0.0000000E+00  0.4629630E-02
    1      -21.267547
    2      -19.426308
    3      -12.399693
    4       -9.251761
    5       -9.167222
    6       -8.532226
    7       -7.488997
    8       -7.154826
    9        1.693997
   10        1.742214
   11        2.504346
   12        2.913325
 
  0.3750000E+00  0.1111111E+00  0.0000000E+00  0.4629630E-02
    1      -21.102048
    2      -19.718730
    3      -11.889426
    4       -9.058243
    5       -9.006418
    6       -8.954758
    7       -7.733505
    8       -7.476991
    9        1.920888
   10        2.267714
   11        2.732601
   12        3.146177
 
  0.4166667E+00  0.1111111E+00  0.0000000E+00  0.4629630E-02
    1      -20.917564
    2      -19.994266
    3      -11.378175
    4       -9.405239
    5       -8.843382
    6       -8.828910
    7       -7.974106
    8       -7.785352
    9        2.174338
   10        2.792537
   11        2.986724
   12        3.406412
 
  0.4583333E+00  0.1111111E+00  0.0000000E+00  0.4629630E-02
    1      -20.714285
    2      -20.252319
    3      -10.869671
    4       -9.878212
    5       -8.635600
    6       -8.607784
    7       -8.206450
    8       -8.077650
    9        2.454260
   10        3.093068
   11        3.264650
   12        3.304510
 
  0.5000000E+00  0.1111111E+00  0.0000000E+00  0.2314815E-02
    1      -20.492442
    2      -20.492442
    3      -10.368105
    4      -10.368105
    5       -8.427622
    6       -8.427622
    7       -8.352215
    8       -8.352215
    9        2.760549
   10        2.760549
   11        3.543785
   12        3.543785
 
  0.0000000E+00  0.1388889E+00  0.0000000E+00  0.2314815E-02
    1      -21.770169
    2      -16.914835
    3      -15.576173
    4      -10.233544
    5       -9.843391
    6       -7.006995
    7       -6.615049
    8       -4.876715
    9       -1.274483
   10        1.008109
   11        1.811411
   12        2.209029
 
  0.4166667E-01  0.1388889E+00  0.0000000E+00  0.4629630E-02
    1      -21.760354
    2      -17.037693
    3      -15.439618
    4      -10.223412
    5       -9.831791
    6       -7.053249
    7       -6.619565
    8       -4.940483
    9       -1.197822
   10        1.021427
   11        1.824909
   12        2.222719
 
  0.8333333E-01  0.1388889E+00  0.0000000E+00  0.4629630E-02
    1      -21.730920
    2      -17.317407
    3      -15.118940
    4      -10.193027
    5       -9.797013
    6       -7.177903
    7       -6.646166
    8       -5.116881
    9       -0.982915
   10        1.061391
   11        1.865399
   12        2.263789
 
  0.1250000E+00  0.1388889E+00  0.0000000E+00  0.4629630E-02
    1      -21.681888
    2      -17.651554
    3      -14.716955
    4      -10.142434
    5       -9.739112
    6       -7.358459
    7       -6.714095
    8       -5.373191
    9       -0.662976
   10        1.128026
   11        1.932867
   12        2.332245
 
  0.1666667E+00  0.1388889E+00  0.0000000E+00  0.4629630E-02
    1      -21.613298
    2      -17.998568
    3      -14.275898
    4      -10.071700
    5       -9.658189
    6       -7.580086
    7       -6.832537
    8       -5.677640
    9       -0.270615
   10        1.221363
   11        2.027292
   12        2.428095
 
  0.2083333E+00  0.1388889E+00  0.0000000E+00  0.4629630E-02
    1      -21.525202
    2      -18.342931
    3      -13.812269
    4       -9.980918
    5       -9.554384
    6       -7.834506
    7       -7.001711
    8       -6.007027
    9        0.169817
   10        1.341431
   11        2.148641
   12        2.551345
 
  0.2500000E+00  0.1388889E+00  0.0000000E+00  0.4629630E-02
    1      -21.417671
    2      -18.677925
    3      -13.334114
    4       -9.870193
    5       -9.427888
    6       -8.117607
    7       -7.215591
    8       -6.346100
    9        0.641606
   10        1.488238
   11        2.296865
   12        2.702000
 
  0.2916667E+00  0.1388889E+00  0.0000000E+00  0.4629630E-02
    1      -21.290797
    2      -19.000153
    3      -12.846554
    4       -9.739641
    5       -9.278946
    6       -8.428260
    7       -7.463760
    8       -6.685037
    9        1.133171
   10        1.661773
   11        2.471895
   12        2.880061
 
  0.3333333E+00  0.1388889E+00  0.0000000E+00  0.4629630E-02
    1      -21.144689
    2      -19.307676
    3      -12.353736
    4       -9.589368
    5       -9.107867
    6       -8.767356
    7       -7.733228
    8       -7.017406
    9        1.636042
   10        1.861997
   11        2.673626
   12        3.085524
 
  0.3750000E+00  0.1388889E+00  0.0000000E+00  0.4629630E-02
    1      -20.979483
    2      -19.599264
    3      -11.859652
    4       -9.419470
    5       -9.136376
    6       -8.915037
    7       -8.010627
    8       -7.338868
    9        2.088851
   10        2.143556
   11        2.901873
   12        3.318384
 
  0.4166667E+00  0.1388889E+00  0.0000000E+00  0.4629630E-02
    1      -20.795343
    2      -19.874078
    3      -11.368556
    4       -9.535651
    5       -9.230030
    6       -8.700936
    7       -8.284527
    8       -7.646393
    9        2.342258
   10        2.649998
   11        3.156203
   12        3.578630
 
  0.4583333E+00  0.1388889E+00  0.0000000E+00  0.4629630E-02
    1      -20.592465
    2      -20.131507
    3      -10.885194
    4       -9.963206
    5       -9.021166
    6       -8.546905
    7       -8.466162
    8       -7.937798
    9        2.622123
   10        3.149465
   11        3.260746
   12        3.434658
 
  0.5000000E+00  0.1388889E+00  0.0000000E+00  0.2314815E-02
    1      -20.371089
    2      -20.371089
    3      -10.414860
    4      -10.414860
    5       -8.793172
    6       -8.793172
    7       -8.211465
    8       -8.211465
    9        2.928332
   10        2.928332
   11        3.612872
   12        3.612872
 
  0.0000000E+00  0.1666667E+00  0.0000000E+00  0.2314815E-02
    1      -21.619033
    2      -16.783585
    3      -15.457223
    4      -10.725096
    5       -9.665012
    6       -7.469741
    7       -6.885816
    8       -4.694454
    9       -1.348374
   10        1.213775
   11        2.018855
   12        2.419534
 
  0.4166667E-01  0.1666667E+00  0.0000000E+00  0.4629630E-02
    1      -21.609237
    2      -16.905435
    3      -15.322458
    4      -10.714521
    5       -9.653466
    6       -7.515460
    7       -6.885810
    8       -4.760309
    9       -1.271050
   10        1.227081
   11        2.032335
   12        2.433221
 
  0.8333333E-01  0.1666667E+00  0.0000000E+00  0.4629630E-02
    1      -21.579855
    2      -17.183049
    3      -15.006269
    4      -10.682778
    5       -9.618848
    6       -7.639554
    7       -6.898353
    8       -4.941378
    9       -1.055741
   10        1.267007
   11        2.072770
   12        2.474284
 
  0.1250000E+00  0.1666667E+00  0.0000000E+00  0.4629630E-02
    1      -21.530912
    2      -17.514962
    3      -14.610647
    4      -10.629799
    5       -9.561216
    6       -7.818802
    7       -6.944978
    8       -5.202316
    9       -0.738278
   10        1.333581
   11        2.140148
   12        2.542728
 
  0.1666667E+00  0.1666667E+00  0.0000000E+00  0.4629630E-02
    1      -21.462446
    2      -17.859913
    3      -14.177762
    4      -10.555460
    5       -9.480668
    6       -8.035778
    7       -7.039747
    8       -5.510036
    9       -0.352557
   10        1.426837
   11        2.234445
   12        2.638561
 
  0.2083333E+00  0.1666667E+00  0.0000000E+00  0.4629630E-02
    1      -21.374515
    2      -18.202447
    3      -13.724412
    4      -10.459550
    5       -9.377348
    6       -8.279667
    7       -7.187988
    8       -5.841210
    9        0.076998
   10        1.546811
   11        2.355627
   12        2.761794
 
  0.2500000E+00  0.1666667E+00  0.0000000E+00  0.4629630E-02
    1      -21.267192
    2      -18.535842
    3      -13.259178
    4      -10.341733
    5       -9.251446
    6       -8.544032
    7       -7.388406
    8       -6.180900
    9        0.534085
   10        1.693522
   11        2.503647
   12        2.912433
 
  0.2916667E+00  0.1666667E+00  0.0000000E+00  0.4629630E-02
    1      -21.140571
    2      -18.856684
    3      -12.787944
    4      -10.201496
    5       -9.103207
    6       -8.825555
    7       -7.634678
    8       -6.519646
    9        1.007652
   10        1.866965
   11        2.678444
   12        3.090483
 
  0.3333333E+00  0.1666667E+00  0.0000000E+00  0.4629630E-02
    1      -20.994768
    2      -19.163006
    3      -12.315889
    4      -10.038082
    5       -9.123561
    6       -8.932939
    7       -7.916627
    8       -6.851311
    9        1.489774
   10        2.067104
   11        2.879934
   12        3.295942
 
  0.3750000E+00  0.1666667E+00  0.0000000E+00  0.4629630E-02
    1      -20.829923
    2      -19.453554
    3      -11.848346
    4       -9.850459
    5       -9.439754
    6       -8.741025
    7       -8.221295
    8       -7.171765
    9        1.974383
   10        2.293874
   11        3.108001
   12        3.528803
 
  0.4166667E+00  0.1666667E+00  0.0000000E+00  0.4629630E-02
    1      -20.646209
    2      -19.727467
    3      -11.391147
    4       -9.777647
    5       -9.637379
    6       -8.534239
    7       -8.527939
    8       -7.478125
    9        2.456541
   10        2.547190
   11        3.362461
   12        3.789055
 
  0.4583333E+00  0.1666667E+00  0.0000000E+00  0.4629630E-02
    1      -20.443829
    2      -19.984120
    3      -10.950544
    4      -10.141150
    5       -9.397743
    6       -8.841412
    7       -8.294269
    8       -7.768304
    9        2.826942
   10        2.931992
   11        3.465220
   12        3.642295
 
  0.5000000E+00  0.1666667E+00  0.0000000E+00  0.2314815E-02
    1      -20.223032
    2      -20.223032
    3      -10.532473
    4      -10.532473
    5       -9.131537
    6       -9.131537
    7       -8.040748
    8       -8.040748
    9        3.133003
   10        3.133003
   11        3.396775
   12        3.396775
 