 running on    8 total cores
 distrk:  each k-point on    8 cores,    1 groups
 distr:  one band on    2 cores,    4 groups
 using from now: INCAR     
 vasp.5.3.5 31Mar14 (build Mar 02 2015 18:14:16) complex                        
  
 POSCAR found type information on POSCAR  C 
 POSCAR found :  1 types and       4 ions
 LDA part: xc-table for Pade appr. of Perdew
 POSCAR, INCAR and KPOINTS ok, starting setup
 FFT: planning ...
 WAVECAR not read
 entering main loop
       N       E                     dE             d eps       ncg     rms          rms(c)
DAV:   1     0.186390746952E+03    0.18639E+03   -0.10663E+04  5928   0.275E+03
DAV:   2    -0.916522063872E+01   -0.19556E+03   -0.17328E+03 10400   0.257E+02
DAV:   3    -0.381704567152E+02   -0.29005E+02   -0.28263E+02  7476   0.118E+02    0.714E+00
RMM:   4    -0.376139464821E+02    0.55651E+00   -0.94369E+00  5928   0.262E+01    0.414E+00
RMM:   5    -0.368921026469E+02    0.72184E+00   -0.26881E+00  5930   0.112E+01    0.711E-01
RMM:   6    -0.368931720294E+02   -0.10694E-02   -0.76782E-02  6361   0.200E+00    0.507E-01
RMM:   7    -0.368841662027E+02    0.90058E-02   -0.31721E-02  5933   0.155E+00    0.332E-01
RMM:   8    -0.368790462404E+02    0.51200E-02   -0.65425E-03  5928   0.538E-01    0.137E-01
RMM:   9    -0.368787897382E+02    0.25650E-03   -0.20194E-02  5928   0.841E-01    0.154E-01
RMM:  10    -0.368786716557E+02    0.11808E-03   -0.22095E-03  5928   0.340E-01    0.269E-02
RMM:  11    -0.368810006272E+02   -0.23290E-02   -0.71725E-04  5928   0.179E-01    0.433E-02
RMM:  12    -0.368815075073E+02   -0.50688E-03   -0.21300E-04  5941   0.965E-02    0.493E-03
RMM:  13    -0.368817532621E+02   -0.24575E-03   -0.44545E-05  6025   0.350E-02    0.285E-03
RMM:  14    -0.368818366283E+02   -0.83366E-04   -0.97198E-06  5985   0.137E-02    0.809E-04
RMM:  15    -0.368818501339E+02   -0.13506E-04   -0.17494E-06  5957   0.706E-03    0.219E-03
RMM:  16    -0.368818624183E+02   -0.12284E-04   -0.19774E-06  5928   0.929E-03    0.144E-03
RMM:  17    -0.368818684171E+02   -0.59988E-05   -0.21299E-07  5928   0.284E-03    0.489E-04
RMM:  18    -0.368818694123E+02   -0.99525E-06   -0.28978E-08  5998   0.140E-03    0.960E-05
WARNING in EDDRMM: call to ZHEGV failed, returncode =   6  3  1
WARNING in EDDRMM: call to ZHEGV failed, returncode =   6  3  1
WARNING in EDDRMM: call to ZHEGV failed, returncode =   6  3  1
WARNING in EDDRMM: call to ZHEGV failed, returncode =   6  3  1
WARNING in EDDRMM: call to ZHEGV failed, returncode =   6  3  1
WARNING in EDDRMM: call to ZHEGV failed, returncode =   6  3  1
RMM:  19    -0.368818702045E+02   -0.79220E-06   -0.10349E-08  5527   0.448E-04    0.138E-05
RMM:  20    -0.368818702466E+02   -0.42035E-07   -0.66499E-10  4479   0.131E-04    0.236E-05
RMM:  21    -0.368818702604E+02   -0.13841E-07   -0.20287E-10  4329   0.845E-05    0.832E-06
RMM:  22    -0.368818702602E+02    0.23419E-09   -0.19737E-11  3896   0.515E-05    0.886E-07
RMM:  23    -0.368818702606E+02   -0.47032E-09   -0.17389E-11  3594   0.402E-05    0.181E-06
RMM:  24    -0.368818702607E+02   -0.50022E-10   -0.38147E-12  3171   0.301E-05
   1 F= -.36881870E+02 E0= -.36881870E+02  d E =-.368819E+02
 BRION: g(F)=  0.469E-11 g(S)=  0.000E+00
 bond charge predicted
       N       E                     dE             d eps       ncg     rms          rms(c)
DAV:   1    -0.368818702603E+02    0.33049E-09    0.47978E-09  6320   0.236E-04    0.475E-06
RMM:   2    -0.368818702607E+02   -0.37357E-09    0.51660E-13  3288   0.309E-05    0.314E-06
RMM:   3    -0.368818702605E+02    0.19691E-09   -0.54896E-12  3397   0.316E-05    0.315E-07
 num prob RMM:   4    -0.368818702604E+02    0.13574E-09   -0.52266E-12  2890   0.279E-05    0.187E-07
RMM:   5    -0.368818702608E+02   -0.43644E-09   -0.15123E-12  2603   0.251E-05    0.280E-07
RMM:   6    -0.368818702604E+02    0.42758E-09   -0.11522E-12  2372   0.232E-05    0.227E-07
RMM:   7    -0.368818702605E+02   -0.11505E-09   -0.21832E-12  2174   0.212E-05    0.245E-07
RMM:   8    -0.368818702604E+02    0.90040E-10   -0.24578E-12  2031   0.206E-05
   2 F= -.36881870E+02 E0= -.36881870E+02  d E =0.305704E-09
 BRION: g(F)=  0.504E-10 g(S)=  0.000E+00 retain N=  1 mean eig= 0.23
 eig:   0.234
 bond charge predicted
       N       E                     dE             d eps       ncg     rms          rms(c)
DAV:   1    -0.368818702601E+02    0.33060E-09    0.50433E-09  6212   0.186E-04    0.415E-06
RMM:   2    -0.368818702607E+02   -0.60027E-09    0.14996E-12  2370   0.207E-05    0.263E-06
RMM:   3    -0.368818702606E+02    0.99021E-10   -0.17523E-13  2410   0.223E-05    0.882E-08
RMM:   4    -0.368818702605E+02    0.17519E-09   -0.70923E-13  2034   0.217E-05    0.879E-08
RMM:   5    -0.368818702604E+02    0.69235E-10   -0.75516E-14  1768   0.204E-05
   3 F= -.36881870E+02 E0= -.36881870E+02  d E =-.162572E-10
 BRION: g(F)=  0.414E-11 g(S)=  0.000E+00 retain N=  1 mean eig= 0.33
 eig:   0.327
 bond charge predicted
       N       E                     dE             d eps       ncg     rms          rms(c)
DAV:   1    -0.368818702600E+02    0.43451E-09    0.53879E-09  4408   0.698E-05    0.898E-07
RMM:   2    -0.368818702606E+02   -0.58412E-09   -0.45719E-13  2024   0.187E-05    0.564E-07
RMM:   3    -0.368818702609E+02   -0.27921E-09    0.37055E-13  1812   0.189E-05    0.281E-08
RMM:   4    -0.368818702609E+02    0.25011E-11   -0.19799E-14  1591   0.184E-05    0.281E-08
RMM:   5    -0.368818702607E+02    0.19020E-09   -0.44072E-13  1454   0.182E-05    0.134E-08
RMM:   6    -0.368818702606E+02    0.13472E-09   -0.11955E-12  1041   0.182E-05    0.509E-08
RMM:   7    -0.368818702604E+02    0.20987E-09    0.37172E-14  1236   0.171E-05    0.900E-08
RMM:   8    -0.368818702607E+02   -0.33401E-09   -0.13125E-12   867   0.170E-05    0.105E-07
RMM:   9    -0.368818702606E+02    0.67985E-10   -0.15987E-13   855   0.164E-05
   4 F= -.36881870E+02 E0= -.36881870E+02  d E =-.226805E-09
 BRION: g(F)=  0.116E-10 g(S)=  0.000E+00 retain N=  1 mean eig= 0.12
 eig:   0.123
 bond charge predicted
       N       E                     dE             d eps       ncg     rms          rms(c)
DAV:   1    -0.368818702599E+02    0.80172E-09    0.54101E-09  4260   0.454E-05    0.737E-07
RMM:   2    -0.368818702605E+02   -0.63233E-09    0.13446E-14   558   0.118E-05    0.455E-07
RMM:   3    -0.368818702605E+02    0.30354E-10    0.24178E-14   725   0.114E-05    0.124E-08
RMM:   4    -0.368818702606E+02   -0.58094E-10   -0.45725E-14   543   0.114E-05    0.419E-09
RMM:   5    -0.368818702606E+02   -0.28422E-10   -0.46835E-14   539   0.114E-05
   5 F= -.36881870E+02 E0= -.36881870E+02  d E =0.452474E-10
 BRION: g(F)=  0.222E-12 g(S)=  0.000E+00 retain N=  1 mean eig= 0.14
 eig:   0.142
 bond charge predicted
       N       E                     dE             d eps       ncg     rms          rms(c)
DAV:   1    -0.368818702600E+02    0.53888E-09    0.54324E-09  3916   0.159E-05    0.320E-07
RMM:   2    -0.368818702606E+02   -0.57275E-09   -0.18093E-14   369   0.446E-06    0.197E-07
RMM:   3    -0.368818702607E+02   -0.69576E-10    0.00000E+00   440   0.440E-06    0.395E-09
RMM:   4    -0.368818702606E+02    0.70941E-10    0.00000E+00   272   0.440E-06    0.150E-09
RMM:   5    -0.368818702606E+02   -0.49113E-10    0.00000E+00   361   0.440E-06
   6 F= -.36881870E+02 E0= -.36881870E+02  d E =-.532054E-10
 BRION: g(F)=  0.521E-13 g(S)=  0.000E+00 retain N=  1 mean eig= 0.28
 eig:   0.276
 reached required accuracy - stopping structural energy minimisation
