gr                                      
           1
     4.359156    0.000000    0.000000
     0.000000    2.458944    0.000000
     0.000000    0.000000   19.669696
   C 
   4
Direct configuration=     1
   0.99954297  0.00000000  0.00000000
   0.16712369  0.50000000  0.00000000
   0.49954297  0.50000000  0.00000000
   0.66712369  0.00000000  0.00000000
Direct configuration=     2
   0.99954292  0.00000000 -0.00000000
   0.16712375  0.50000000  0.00000000
   0.49954292  0.50000000 -0.00000000
   0.66712375 -0.00000000  0.00000000
Direct configuration=     3
   0.99954296  0.00000000 -0.00000000
   0.16712371  0.50000000  0.00000000
   0.49954296  0.50000000 -0.00000000
   0.66712371 -0.00000000  0.00000000
Direct configuration=     4
   0.99954298  0.00000000 -0.00000000
   0.16712369  0.50000000  0.00000000
   0.49954298  0.50000000 -0.00000000
   0.66712369 -0.00000000  0.00000000
Direct configuration=     5
   0.99954297  0.00000000 -0.00000000
   0.16712370  0.50000000  0.00000000
   0.49954297  0.50000000 -0.00000000
   0.66712370 -0.00000000  0.00000000
Direct configuration=     6
   0.99954296  0.00000000 -0.00000000
   0.16712370  0.50000000  0.00000000
   0.49954296  0.50000000 -0.00000000
   0.66712370 -0.00000000  0.00000000
