 running on    8 total cores
 distrk:  each k-point on    8 cores,    1 groups
 distr:  one band on    2 cores,    4 groups
 using from now: INCAR     
 vasp.5.3.5 31Mar14 (build Mar 02 2015 18:14:16) complex                        
  
 POSCAR found type information on POSCAR  C 
 POSCAR found :  1 types and       4 ions
 LDA part: xc-table for Pade appr. of Perdew
 POSCAR, INCAR and KPOINTS ok, starting setup
 WARNING: small aliasing (wrap around) errors must be expected
 FFT: planning ...
 WAVECAR not read
 entering main loop
       N       E                     dE             d eps       ncg     rms          rms(c)
DAV:   1     0.187954469673E+03    0.18795E+03   -0.10570E+04  5928   0.274E+03
DAV:   2    -0.880136262800E+01   -0.19676E+03   -0.17527E+03 10376   0.262E+02
DAV:   3    -0.382315317670E+02   -0.29430E+02   -0.28793E+02  7368   0.119E+02    0.719E+00
RMM:   4    -0.376465486670E+02    0.58498E+00   -0.94555E+00  5928   0.265E+01    0.417E+00
RMM:   5    -0.369114071377E+02    0.73514E+00   -0.27218E+00  5932   0.113E+01    0.711E-01
RMM:   6    -0.369129040195E+02   -0.14969E-02   -0.80482E-02  6368   0.201E+00    0.508E-01
RMM:   7    -0.369037809340E+02    0.91231E-02   -0.32567E-02  5942   0.157E+00    0.334E-01
RMM:   8    -0.368984673961E+02    0.53135E-02   -0.72510E-03  5934   0.562E-01    0.133E-01
RMM:   9    -0.368983157381E+02    0.15166E-03   -0.19764E-02  5928   0.832E-01    0.157E-01
RMM:  10    -0.368982076782E+02    0.10806E-03   -0.24932E-03  5928   0.359E-01    0.292E-02
RMM:  11    -0.369006050890E+02   -0.23974E-02   -0.68517E-04  5930   0.173E-01    0.447E-02
RMM:  12    -0.369010840716E+02   -0.47898E-03   -0.23017E-04  5940   0.100E-01    0.460E-03
RMM:  13    -0.369013325038E+02   -0.24843E-03   -0.48245E-05  6027   0.378E-02    0.394E-03
RMM:  14    -0.369014145695E+02   -0.82066E-04   -0.10461E-05  5956   0.173E-02    0.164E-03
RMM:  15    -0.369014242776E+02   -0.97081E-05   -0.15948E-06  5981   0.740E-03    0.145E-03
RMM:  16    -0.369014364451E+02   -0.12167E-04   -0.88910E-07  5928   0.598E-03    0.825E-04
RMM:  17    -0.369014418118E+02   -0.53667E-05   -0.54231E-08  6105   0.153E-03    0.752E-04
RMM:  18    -0.369014429519E+02   -0.11401E-05   -0.57282E-08  5928   0.179E-03    0.804E-05
RMM:  19    -0.369014437420E+02   -0.79018E-06   -0.10848E-08  5968   0.489E-04    0.206E-05
RMM:  20    -0.369014437969E+02   -0.54853E-07   -0.78645E-10  4462   0.133E-04    0.235E-05
RMM:  21    -0.369014438140E+02   -0.17051E-07   -0.24701E-10  4387   0.935E-05    0.433E-06
RMM:  22    -0.369014438144E+02   -0.43735E-09   -0.50170E-12  3890   0.417E-05    0.162E-06
RMM:  23    -0.369014438147E+02   -0.26034E-09   -0.15208E-11  3490   0.352E-05    0.873E-07
RMM:  24    -0.369014438149E+02   -0.26421E-09   -0.61607E-12  3053   0.280E-05    0.399E-07
RMM:  25    -0.369014438149E+02    0.53319E-10   -0.49128E-12  2735   0.242E-05
   1 F= -.36901444E+02 E0= -.36901441E+02  d E =-.369014E+02
 BRION: g(F)=  0.106E-05 g(S)=  0.000E+00
 bond charge predicted
       N       E                     dE             d eps       ncg     rms          rms(c)
DAV:   1    -0.369014421650E+02    0.16499E-05   -0.14156E-04  6348   0.112E-01    0.231E-03
RMM:   2    -0.369014422670E+02   -0.10195E-06   -0.23687E-06  5943   0.135E-02    0.168E-03
RMM:   3    -0.369014422137E+02    0.53270E-07   -0.38976E-07  5969   0.505E-03    0.437E-04
RMM:   4    -0.369014422044E+02    0.93316E-08   -0.24646E-08  6064   0.123E-03    0.122E-04
RMM:   5    -0.369014422066E+02   -0.21703E-08   -0.18928E-09  5920   0.312E-04    0.554E-05
RMM:   6    -0.369014422060E+02    0.58685E-09   -0.25805E-10  4209   0.130E-04    0.579E-06
RMM:   7    -0.369014422061E+02   -0.15439E-09   -0.13834E-11  3749   0.576E-05    0.282E-06
RMM:   8    -0.369014422060E+02    0.10948E-09   -0.14798E-11  3474   0.443E-05    0.164E-06
RMM:   9    -0.369014422061E+02   -0.35243E-10   -0.46592E-12  3220   0.324E-05
   2 F= -.36901442E+02 E0= -.36901440E+02  d E =0.160881E-05
 BRION: g(F)=  0.176E-04 g(S)=  0.000E+00 retain N=  1 mean eig= 0.20
 eig:   0.197
 bond charge predicted
       N       E                     dE             d eps       ncg     rms          rms(c)
DAV:   1    -0.369014439243E+02   -0.17183E-05   -0.91263E-05  6568   0.900E-02    0.186E-03
RMM:   2    -0.369014439780E+02   -0.53718E-07   -0.14631E-06  5939   0.108E-02    0.135E-03
RMM:   3    -0.369014439251E+02    0.52924E-07   -0.24419E-07  5968   0.400E-03    0.331E-04
RMM:   4    -0.369014439224E+02    0.26523E-08   -0.14668E-08  6062   0.959E-04    0.981E-05
RMM:   5    -0.369014439212E+02    0.12005E-08   -0.11406E-09  5467   0.246E-04    0.443E-05
RMM:   6    -0.369014439216E+02   -0.32583E-09   -0.16359E-10  3890   0.105E-04    0.474E-06
RMM:   7    -0.369014439216E+02   -0.36266E-10   -0.12865E-11  3734   0.536E-05
   3 F= -.36901444E+02 E0= -.36901441E+02  d E =-.171554E-05
 BRION: g(F)=  0.124E-10 g(S)=  0.000E+00 retain N=  1 mean eig= 0.20
 eig:   0.197
 bond charge predicted
       N       E                     dE             d eps       ncg     rms          rms(c)
DAV:   1    -0.369014439211E+02    0.50409E-09    0.60769E-09  4756   0.790E-05    0.139E-06
RMM:   2    -0.369014439213E+02   -0.20032E-09    0.34774E-12  2955   0.271E-05    0.856E-07
RMM:   3    -0.369014439215E+02   -0.19759E-09   -0.28217E-12  2776   0.275E-05    0.125E-07
RMM:   4    -0.369014439216E+02   -0.10550E-09   -0.41167E-12  2571   0.265E-05    0.113E-07
RMM:   5    -0.369014439214E+02    0.20373E-09   -0.31479E-12  2456   0.246E-05    0.712E-08
RMM:   6    -0.369014439213E+02    0.33197E-10    0.65150E-13  2308   0.229E-05
   4 F= -.36901444E+02 E0= -.36901441E+02  d E =0.273872E-09
 BRION: g(F)=  0.269E-10 g(S)=  0.000E+00 retain N=  1 mean eig= 0.08
 eig:   0.080
 bond charge predicted
       N       E                     dE             d eps       ncg     rms          rms(c)
DAV:   1    -0.369014439208E+02    0.59845E-09    0.61179E-09  4376   0.447E-05    0.500E-07
RMM:   2    -0.369014439215E+02   -0.73101E-09   -0.26074E-13  1495   0.133E-05    0.310E-07
RMM:   3    -0.369014439215E+02   -0.61391E-11    0.18401E-14  1453   0.130E-05    0.202E-08
RMM:   4    -0.369014439217E+02   -0.22089E-09    0.34254E-13  1421   0.129E-05    0.122E-08
RMM:   5    -0.369014439217E+02   -0.13074E-10   -0.28187E-13  1408   0.130E-05
   5 F= -.36901444E+02 E0= -.36901441E+02  d E =-.405862E-09
 BRION: g(F)=  0.108E-11 g(S)=  0.000E+00 retain N=  1 mean eig= 0.10
 eig:   0.100
 bond charge predicted
       N       E                     dE             d eps       ncg     rms          rms(c)
DAV:   1    -0.369014439207E+02    0.96873E-09    0.61362E-09  4912   0.199E-05    0.468E-07
RMM:   2    -0.369014439214E+02   -0.63255E-09   -0.61186E-14  1107   0.632E-06    0.288E-07
RMM:   3    -0.369014439215E+02   -0.99249E-10    0.17270E-14  1221   0.623E-06    0.573E-09
RMM:   4    -0.369014439213E+02    0.15928E-09    0.92930E-14  1014   0.622E-06    0.249E-09
RMM:   5    -0.369014439215E+02   -0.21214E-09   -0.43751E-14   913   0.622E-06    0.959E-10
RMM:   6    -0.369014439213E+02    0.21498E-09   -0.20724E-14   740   0.622E-06    0.694E-10
RMM:   7    -0.369014439216E+02   -0.27023E-09    0.92107E-15   980   0.621E-06    0.685E-10
RMM:   8    -0.369014439215E+02    0.83674E-10    0.00000E+00   645   0.621E-06
   6 F= -.36901444E+02 E0= -.36901441E+02  d E =0.225555E-09
 BRION: g(F)=  0.676E-12 g(S)=  0.000E+00 retain N=  1 mean eig= 0.47
 eig:   0.475
 bond charge predicted
       N       E                     dE             d eps       ncg     rms          rms(c)
DAV:   1    -0.369014439208E+02    0.73999E-09    0.61203E-09  4332   0.447E-05    0.816E-07
RMM:   2    -0.369014439217E+02   -0.83458E-09   -0.56580E-14   559   0.118E-05    0.505E-07
RMM:   3    -0.369014439215E+02    0.15871E-09   -0.13158E-15   503   0.116E-05    0.104E-08
RMM:   4    -0.369014439217E+02   -0.17803E-09    0.00000E+00   391   0.116E-05    0.392E-09
RMM:   5    -0.369014439218E+02   -0.10937E-09    0.00000E+00   786   0.116E-05    0.140E-09
RMM:   6    -0.369014439213E+02    0.49727E-09    0.00000E+00   887   0.116E-05    0.748E-10
RMM:   7    -0.369014439215E+02   -0.21009E-09    0.00000E+00   868   0.116E-05    0.363E-10
RMM:   8    -0.369014439214E+02    0.13256E-09    0.00000E+00   583   0.116E-05    0.168E-10
RMM:   9    -0.369014439215E+02   -0.75943E-10    0.00000E+00   542   0.116E-05
   7 F= -.36901444E+02 E0= -.36901441E+02  d E =0.368345E-10
 BRION: g(F)=  0.111E-11 g(S)=  0.000E+00 retain N=  1 mean eig= 0.21
 eig:   0.208
 bond charge predicted
       N       E                     dE             d eps       ncg     rms          rms(c)
DAV:   1    -0.369014439211E+02    0.28342E-09    0.61275E-09  3472   0.244E-05    0.413E-07
RMM:   2    -0.369014439213E+02   -0.21726E-09    0.00000E+00   495   0.663E-06    0.256E-07
RMM:   3    -0.369014439218E+02   -0.49931E-09    0.00000E+00   588   0.640E-06    0.715E-09
RMM:   4    -0.369014439218E+02    0.12506E-10    0.00000E+00   528   0.640E-06    0.235E-09
RMM:   5    -0.369014439218E+02    0.26603E-10    0.00000E+00   497   0.640E-06
   8 F= -.36901444E+02 E0= -.36901441E+02  d E =-.318096E-09
 BRION: g(F)=  0.398E-12 g(S)=  0.000E+00 retain N=  1 mean eig= 0.13
 eig:   0.130
 bond charge predicted
       N       E                     dE             d eps       ncg     rms          rms(c)
DAV:   1    -0.369014439211E+02    0.68451E-09    0.61369E-09  4048   0.805E-06    0.106E-07
RMM:   2    -0.369014439218E+02   -0.70838E-09    0.00000E+00   274   0.253E-06    0.647E-08
RMM:   3    -0.369014439214E+02    0.44543E-09    0.00000E+00   252   0.252E-06    0.205E-09
RMM:   4    -0.369014439216E+02   -0.19861E-09    0.00000E+00   592   0.252E-06    0.922E-10
RMM:   5    -0.369014439216E+02   -0.47521E-10    0.00000E+00   507   0.252E-06
   9 F= -.36901444E+02 E0= -.36901441E+02  d E =0.148816E-09
 BRION: g(F)=  0.324E-12 g(S)=  0.000E+00 retain N=  1 mean eig= 0.07
 eig:   0.068
 bond charge predicted
       N       E                     dE             d eps       ncg     rms          rms(c)
DAV:   1    -0.369014439210E+02    0.62948E-09    0.61350E-09  3320   0.362E-06    0.681E-08
RMM:   2    -0.369014439218E+02   -0.86720E-09    0.00000E+00   160   0.131E-06    0.420E-08
RMM:   3    -0.369014439218E+02    0.46612E-10    0.00000E+00   393   0.135E-06    0.102E-09
RMM:   4    -0.369014439213E+02    0.45952E-09    0.00000E+00   116   0.135E-06    0.802E-10
RMM:   5    -0.369014439218E+02   -0.50045E-09    0.00000E+00   612   0.135E-06    0.555E-10
RMM:   6    -0.369014439215E+02    0.31616E-09    0.00000E+00   622   0.135E-06    0.319E-10
RMM:   7    -0.369014439213E+02    0.16234E-09    0.00000E+00   492   0.135E-06    0.395E-10
RMM:   8    -0.369014439215E+02   -0.20339E-09    0.00000E+00   367   0.135E-06    0.158E-10
RMM:   9    -0.369014439216E+02   -0.86402E-11    0.00000E+00   351   0.135E-06
  10 F= -.36901444E+02 E0= -.36901441E+02  d E =0.819682E-10
 BRION: g(F)=  0.141E-13 g(S)=  0.000E+00 retain N=  1 mean eig= 0.06
 eig:   0.057
 reached required accuracy - stopping structural energy minimisation
