    4    4  400    1
  0.5270948E+02  0.4262172E-09  0.2503940E-09  0.1975576E-08  0.5000000E-15
  1.000000000000000E-004
  CAR 
 gr                                      
     16    247     12
 
  0.0000000E+00  0.0000000E+00  0.0000000E+00  0.1157407E-02
    1      -22.151080
    2      -16.831531
    3      -15.907082
    4      -10.279730
    5       -9.353537
    6       -5.915255
    7       -5.754788
    8       -4.987429
    9       -1.112054
   10        0.536150
   11        1.335518
   12        1.724576
 
  0.4166667E-01  0.0000000E+00  0.0000000E+00  0.2314815E-02
    1      -22.140755
    2      -17.014158
    3      -15.709335
    4      -10.267444
    5       -9.343214
    6       -5.938516
    7       -5.796021
    8       -5.056052
    9       -1.028133
   10        0.550148
   11        1.349672
   12        1.738906
 
  0.8333333E-01  0.0000000E+00  0.0000000E+00  0.2314815E-02
    1      -22.109784
    2      -17.368805
    3      -15.309415
    4      -10.230605
    5       -9.312296
    6       -6.006977
    7       -5.918143
    8       -5.245698
    9       -0.792769
   10        0.592138
   11        1.392131
   12        1.781897
 
  0.1250000E+00  0.0000000E+00  0.0000000E+00  0.2314815E-02
    1      -22.058188
    2      -17.755325
    3      -14.847742
    4      -10.169271
    5       -9.260934
    6       -6.116910
    7       -6.116675
    8       -5.520852
    9       -0.442005
   10        0.662119
   11        1.462883
   12        1.853548
 
  0.1666667E+00  0.0000000E+00  0.0000000E+00  0.2314815E-02
    1      -21.985999
    2      -18.140946
    3      -14.357551
    4      -10.083538
    5       -9.189387
    6       -6.384878
    7       -6.262780
    8       -5.847161
    9       -0.011080
   10        0.760088
   11        1.561908
   12        1.953860
 
  0.2083333E+00  0.0000000E+00  0.0000000E+00  0.2314815E-02
    1      -21.893270
    2      -18.516155
    3      -13.849028
    4       -9.973547
    5       -9.098030
    6       -6.714603
    7       -6.438023
    8       -6.199662
    9        0.473785
   10        0.886032
   11        1.689175
   12        2.082831
 
  0.2500000E+00  0.0000000E+00  0.0000000E+00  0.2314815E-02
    1      -21.780061
    2      -18.877165
    3      -13.326840
    4       -9.839486
    5       -8.987363
    6       -7.097113
    7       -6.635756
    8       -6.562031
    9        0.994616
   10        1.039932
   11        1.844637
   12        2.240460
 
  0.2916667E+00  0.0000000E+00  0.0000000E+00  0.2314815E-02
    1      -21.646454
    2      -19.222084
    3      -12.794005
    4       -9.681598
    5       -8.858032
    6       -7.523733
    7       -6.923812
    8       -6.849327
    9        1.221759
   10        1.538858
   11        2.028225
   12        2.426741
 
  0.3333333E+00  0.0000000E+00  0.0000000E+00  0.2314815E-02
    1      -21.492545
    2      -19.549802
    3      -12.253031
    4       -9.500191
    5       -8.710847
    6       -7.986291
    7       -7.278198
    8       -7.072654
    9        1.431468
   10        2.097023
   11        2.239834
   12        2.641669
 
  0.3750000E+00  0.0000000E+00  0.0000000E+00  0.2314815E-02
    1      -21.318449
    2      -19.859580
    3      -11.706361
    4       -9.295651
    5       -8.546813
    6       -8.477350
    7       -7.620624
    8       -7.300377
    9        1.669004
   10        2.479280
   11        2.660727
   12        2.885229
 
  0.4166667E+00  0.0000000E+00  0.0000000E+00  0.2314815E-02
    1      -21.124301
    2      -20.150884
    3      -11.156585
    4       -9.068460
    5       -8.990312
    6       -8.367164
    7       -7.947926
    8       -7.527892
    9        1.934283
   10        2.746200
   11        3.157398
   12        3.217998
 
  0.4583333E+00  0.0000000E+00  0.0000000E+00  0.2314815E-02
    1      -20.910261
    2      -20.423306
    3      -10.606577
    4       -9.519399
    5       -8.819218
    6       -8.257837
    7       -8.173408
    8       -7.751309
    9        2.227189
   10        2.895024
   11        3.039635
   12        3.458123
 
  0.5000000E+00  0.0000000E+00  0.0000000E+00  0.1157407E-02
    1      -20.676521
    2      -20.676521
    3      -10.059598
    4      -10.059598
    5       -8.548687
    6       -8.548687
    7       -7.967380
    8       -7.967380
    9        2.547543
   10        2.547543
   11        3.355494
   12        3.355494
 
  0.0000000E+00  0.2777778E-01  0.0000000E+00  0.2314815E-02
    1      -22.137808
    2      -16.820105
    3      -15.896204
    4      -10.263937
    5       -9.413074
    6       -5.970061
    7       -5.786230
    8       -4.971328
    9       -1.117340
   10        0.554122
   11        1.353739
   12        1.743022
 
  0.4166667E-01  0.2777778E-01  0.0000000E+00  0.4629630E-02
    1      -22.127484
    2      -17.002596
    3      -15.698650
    4      -10.251655
    5       -9.402727
    6       -5.997258
    7       -5.822816
    8       -5.040115
    9       -1.033382
   10        0.568120
   11        1.367893
   12        1.757353
 
  0.8333333E-01  0.2777778E-01  0.0000000E+00  0.4629630E-02
    1      -22.096517
    2      -17.357016
    3      -15.299129
    4      -10.214830
    5       -9.371733
    6       -6.080593
    7       -5.928065
    8       -5.230132
    9       -0.798029
   10        0.610113
   11        1.410349
   12        1.800344
 
  0.1250000E+00  0.2777778E-01  0.0000000E+00  0.4629630E-02
    1      -22.044928
    2      -17.743323
    3      -14.837965
    4      -10.153517
    5       -9.320240
    6       -6.229900
    7       -6.084269
    8       -5.505657
    9       -0.447529
   10        0.680100
   11        1.481096
   12        1.871996
 
  0.1666667E+00  0.2777778E-01  0.0000000E+00  0.4629630E-02
    1      -21.972750
    2      -18.128756
    3      -14.348393
    4      -10.067815
    5       -9.248498
    6       -6.461539
    7       -6.263215
    8       -5.832231
    9       -0.017230
   10        0.778076
   11        1.580114
   12        1.972309
 
  0.2083333E+00  0.2777778E-01  0.0000000E+00  0.4629630E-02
    1      -21.880035
    2      -18.503802
    3      -13.840613
    4       -9.957864
    5       -9.156869
    6       -6.770094
    7       -6.455988
    8       -6.184879
    9        0.466635
   10        0.904031
   11        1.707371
   12        2.101283
 
  0.2500000E+00  0.2777778E-01  0.0000000E+00  0.4629630E-02
    1      -21.766843
    2      -18.864671
    3      -13.319321
    4       -9.823851
    5       -9.045839
    6       -7.138773
    7       -6.664048
    8       -6.547302
    9        0.986120
   10        1.057943
   11        1.862823
   12        2.258914
 
  0.2916667E+00  0.2777778E-01  0.0000000E+00  0.4629630E-02
    1      -21.633258
    2      -19.209470
    3      -12.787564
    4       -9.666021
    5       -8.916031
    6       -7.555110
    7       -6.909070
    8       -6.884712
    9        1.239782
   10        1.528717
   11        2.046401
   12        2.445200
 
  0.3333333E+00  0.2777778E-01  0.0000000E+00  0.4629630E-02
    1      -21.479375
    2      -19.537083
    3      -12.247895
    4       -9.484680
    5       -8.768228
    6       -8.009558
    7       -7.263401
    8       -7.113340
    9        1.449507
   10        2.085008
   11        2.258001
   12        2.660132
 
  0.3750000E+00  0.2777778E-01  0.0000000E+00  0.4629630E-02
    1      -21.305310
    2      -19.846771
    3      -11.702807
    4       -9.280215
    5       -8.603402
    6       -8.494083
    7       -7.605747
    8       -7.345180
    9        1.687059
   10        2.497443
   11        2.646773
   12        2.903699
 
  0.4166667E+00  0.2777778E-01  0.0000000E+00  0.4629630E-02
    1      -21.111198
    2      -20.137998
    3      -11.154955
    4       -9.053106
    5       -9.001740
    6       -8.422743
    7       -7.932955
    8       -7.575943
    9        1.952359
   10        2.764371
   11        3.175879
   12        3.202882
 
  0.4583333E+00  0.2777778E-01  0.0000000E+00  0.4629630E-02
    1      -20.897200
    2      -20.410352
    3      -10.607296
    4       -9.526509
    5       -8.803955
    6       -8.242767
    7       -8.227704
    8       -7.801938
    9        2.245294
   10        2.913262
   11        3.057840
   12        3.476623
 
  0.5000000E+00  0.2777778E-01  0.0000000E+00  0.2314815E-02
    1      -20.663510
    2      -20.663510
    3      -10.063189
    4      -10.063189
    5       -8.533519
    6       -8.533519
    7       -8.020054
    8       -8.020054
    9        2.565694
   10        2.565694
   11        3.373711
   12        3.373711
 
  0.0000000E+00  0.5555556E-01  0.0000000E+00  0.2314815E-02
    1      -22.098003
    2      -16.785829
    3      -15.863754
    4      -10.216591
    5       -9.586843
    6       -6.130183
    7       -5.879642
    8       -4.923045
    9       -1.134005
   10        0.608042
   11        1.408397
   12        1.798362
 
  0.4166667E-01  0.5555556E-01  0.0000000E+00  0.4629630E-02
    1      -22.087682
    2      -16.967927
    3      -15.666769
    4      -10.204323
    5       -9.576416
    6       -6.164265
    7       -5.907275
    8       -4.992339
    9       -1.049926
   10        0.622042
   11        1.422547
   12        1.812693
 
  0.8333333E-01  0.5555556E-01  0.0000000E+00  0.4629630E-02
    1      -22.056728
    2      -17.321677
    3      -15.268454
    4      -10.167537
    5       -9.545176
    6       -6.264919
    7       -5.989358
    8       -5.183496
    9       -0.814591
   10        0.664043
   11        1.464993
   12        1.855686
 
  0.1250000E+00  0.5555556E-01  0.0000000E+00  0.4629630E-02
    1      -22.005161
    2      -17.707345
    3      -14.808847
    4      -10.106292
    5       -9.493256
    6       -6.428756
    7       -6.122348
    8       -5.460159
    9       -0.464888
   10        0.734043
   11        1.535724
   12        1.927341
 
  0.1666667E+00  0.5555556E-01  0.0000000E+00  0.4629630E-02
    1      -21.933016
    2      -18.092213
    3      -14.321174
    4      -10.020683
    5       -9.420880
    6       -6.652832
    7       -6.298541
    8       -5.787542
    9       -0.036496
   10        0.832038
   11        1.634720
   12        2.027658
 
  0.2083333E+00  0.5555556E-01  0.0000000E+00  0.4629630E-02
    1      -21.840342
    2      -18.466768
    3      -13.815691
    4       -9.910852
    5       -9.328370
    6       -6.934966
    7       -6.506926
    8       -6.140637
    9        0.444322
   10        0.958017
   11        1.761950
   12        2.156637
 
  0.2500000E+00  0.5555556E-01  0.0000000E+00  0.4629630E-02
    1      -21.727203
    2      -18.827213
    3      -13.297173
    4       -9.776987
    5       -9.216157
    6       -7.271996
    7       -6.736187
    8       -6.503216
    9        0.959707
   10        1.111959
   11        1.917370
   12        2.314276
 
  0.2916667E+00  0.5555556E-01  0.0000000E+00  0.4629630E-02
    1      -21.593684
    2      -19.171646
    3      -12.768778
    4       -9.619332
    5       -9.084792
    6       -7.658466
    7       -6.977149
    8       -6.864941
    9        1.293833
   10        1.497289
   11        2.100914
   12        2.500571
 
  0.3333333E+00  0.5555556E-01  0.0000000E+00  0.4629630E-02
    1      -21.439879
    2      -19.498945
    3      -12.233195
    4       -9.438193
    5       -8.934965
    6       -8.087143
    7       -7.223098
    8       -7.219100
    9        1.503596
   10        2.047849
   11        2.312483
   12        2.715516
 
  0.3750000E+00  0.5555556E-01  0.0000000E+00  0.4629630E-02
    1      -21.265906
    2      -19.808361
    3      -11.693092
    4       -9.233955
    5       -8.767527
    6       -8.550275
    7       -7.561199
    8       -7.469039
    9        1.741191
   10        2.551910
   11        2.603596
   12        2.959100
 
  0.4166667E+00  0.5555556E-01  0.0000000E+00  0.4629630E-02
    1      -21.071902
    2      -20.099354
    3      -11.151347
    4       -9.040474
    5       -9.007099
    6       -8.583511
    7       -7.888119
    8       -7.711049
    9        2.006542
   10        2.818859
   11        3.155374
   12        3.231305
 
  0.4583333E+00  0.5555556E-01  0.0000000E+00  0.4629630E-02
    1      -20.858032
    2      -20.371507
    3      -10.611193
    4       -9.551098
    5       -8.758221
    6       -8.384177
    7       -8.197628
    8       -7.945932
    9        2.299545
   10        2.967818
   11        3.112437
   12        3.532099
 
  0.5000000E+00  0.5555556E-01  0.0000000E+00  0.2314815E-02
    1      -20.624490
    2      -20.624490
    3      -10.076341
    4      -10.076341
    5       -8.488077
    6       -8.488077
    7       -8.171041
    8       -8.171041
    9        2.620051
   10        2.620051
   11        3.428343
   12        3.428343
 
  0.0000000E+00  0.8333333E-01  0.0000000E+00  0.2314815E-02
    1      -22.031700
    2      -16.728717
    3      -15.810321
    4      -10.137791
    5       -9.861631
    6       -6.384005
    7       -6.032365
    8       -4.842639
    9       -1.164456
   10        0.697931
   11        1.499469
   12        1.890600
 
  0.4166667E-01  0.8333333E-01  0.0000000E+00  0.4629630E-02
    1      -22.021387
    2      -16.910212
    3      -15.614252
    4      -10.125546
    5       -9.851049
    6       -6.423858
    7       -6.050960
    8       -4.912832
    9       -1.080139
   10        0.711932
   11        1.513613
   12        1.904931
 
  0.8333333E-01  0.8333333E-01  0.0000000E+00  0.4629630E-02
    1      -21.990455
    2      -17.262876
    3      -15.217976
    4      -10.088829
    5       -9.819335
    6       -6.536865
    7       -6.111419
    8       -5.105997
    9       -0.844783
   10        0.753938
   11        1.556042
   12        1.947925
 
  0.1250000E+00  0.8333333E-01  0.0000000E+00  0.4629630E-02
    1      -21.938925
    2      -17.647480
    3      -14.761066
    4      -10.027697
    5       -9.766590
    6       -6.710267
    7       -6.220965
    8       -5.384639
    9       -0.496418
   10        0.823949
   11        1.626743
   12        2.019582
 
  0.1666667E+00  0.8333333E-01  0.0000000E+00  0.4629630E-02
    1      -21.866833
    2      -18.031400
    3      -14.276727
    4       -9.942249
    5       -9.692984
    6       -6.933471
    7       -6.381372
    8       -5.713413
    9       -0.071285
   10        0.921963
   11        1.725698
   12        2.119904
 
  0.2083333E+00  0.8333333E-01  0.0000000E+00  0.4629630E-02
    1      -21.774229
    2      -18.405128
    3      -13.775314
    4       -9.832625
    5       -9.598758
    6       -7.200065
    7       -6.587648
    8       -6.067260
    9        0.404306
   10        1.047969
   11        1.852877
   12        2.248890
 
  0.2500000E+00  0.8333333E-01  0.0000000E+00  0.4629630E-02
    1      -21.661180
    2      -18.764859
    3      -13.261763
    4       -9.699013
    5       -9.484229
    6       -7.507267
    7       -6.829506
    8       -6.430090
    9        0.912665
   10        1.201946
   11        2.008235
   12        2.406538
 
  0.2916667E+00  0.8333333E-01  0.0000000E+00  0.4629630E-02
    1      -21.527769
    2      -19.108676
    3      -12.739447
    4       -9.541658
    5       -9.349794
    6       -7.854519
    7       -7.093777
    8       -6.791723
    9        1.383861
   10        1.441652
   11        2.191713
   12        2.592846
 
  0.3333333E+00  0.8333333E-01  0.0000000E+00  0.4629630E-02
    1      -21.374094
    2      -19.435443
    3      -12.211337
    4       -9.360865
    5       -9.195938
    6       -8.241323
    7       -7.367461
    8       -7.145572
    9        1.593670
   10        1.982346
   11        2.403218
   12        2.807806
 
  0.3750000E+00  0.8333333E-01  0.0000000E+00  0.4629630E-02
    1      -21.200275
    2      -19.744402
    3      -11.680469
    4       -9.157020
    5       -9.023235
    6       -8.665303
    7       -7.640297
    8       -7.487232
    9        1.831315
   10        2.527509
   11        2.642604
   12        3.051411
 
  0.4166667E+00  0.8333333E-01  0.0000000E+00  0.4629630E-02
    1      -21.006453
    2      -20.035002
    3      -11.150195
    4       -9.121759
    5       -8.930598
    6       -8.832363
    7       -7.905583
    8       -7.813649
    9        2.096723
   10        2.909582
   11        3.069988
   12        3.323648
 
  0.4583333E+00  0.8333333E-01  0.0000000E+00  0.4629630E-02
    1      -20.792798
    2      -20.306816
    3      -10.624358
    4       -9.604587
    5       -8.682193
    6       -8.624111
    7       -8.159392
    8       -8.122630
    9        2.389797
   10        3.058367
   11        3.203357
   12        3.588272
 
  0.5000000E+00  0.8333333E-01  0.0000000E+00  0.2314815E-02
    1      -20.559507
    2      -20.559507
    3      -10.107423
    4      -10.107423
    5       -8.412554
    6       -8.412554
    7       -8.399408
    8       -8.399408
    9        2.710409
   10        2.710409
   11        3.519324
   12        3.519324
 
  0.0000000E+00  0.1111111E+00  0.0000000E+00  0.2314815E-02
    1      -21.938962
    2      -16.648788
    3      -15.737024
    4      -10.218956
    5      -10.027704
    6       -6.715592
    7       -6.240225
    8       -4.730210
    9       -1.212630
   10        0.823812
   11        1.626918
   12        2.019741
 
  0.4166667E-01  0.1111111E+00  0.0000000E+00  0.4629630E-02
    1      -21.928660
    2      -16.829559
    3      -15.542165
    4      -10.208107
    5      -10.015492
    6       -6.759945
    7       -6.250103
    8       -4.801788
    9       -1.127891
   10        0.837811
   11        1.641052
   12        2.034072
 
  0.8333333E-01  0.1111111E+00  0.0000000E+00  0.4629630E-02
    1      -21.897759
    2      -17.180772
    3      -15.148821
    4      -10.175575
    5       -9.978875
    6       -6.882525
    7       -6.288934
    8       -4.998008
    9       -0.892370
   10        0.879813
   11        1.683452
   12        2.077065
 
  0.1250000E+00  0.1111111E+00  0.0000000E+00  0.4629630E-02
    1      -21.846282
    2      -17.563890
    3      -14.695947
    4      -10.121402
    5       -9.917910
    6       -7.064070
    7       -6.372082
    8       -5.279611
    9       -0.545862
   10        0.949822
   11        1.754106
   12        2.148722
 
  0.1666667E+00  0.1111111E+00  0.0000000E+00  0.4629630E-02
    1      -21.774265
    2      -17.946467
    3      -14.216700
    4      -10.045654
    5       -9.832696
    6       -7.289403
    7       -6.508139
    8       -5.610421
    9       -0.125438
   10        1.047839
   11        1.852993
   12        2.249046
 
  0.2083333E+00  0.1111111E+00  0.0000000E+00  0.4629630E-02
    1      -21.681760
    2      -18.319018
    3      -13.721607
    4       -9.948415
    5       -9.723374
    6       -7.548902
    7       -6.697607
    8       -5.965335
    9        0.342568
   10        1.173857
   11        1.980084
   12        2.378037
 
  0.2500000E+00  0.1111111E+00  0.0000000E+00  0.4629630E-02
    1      -21.568837
    2      -18.677729
    3      -13.215891
    4       -9.829777
    5       -9.590133
    6       -7.837226
    7       -6.934669
    8       -6.328489
    9        0.840741
   10        1.327857
   11        2.135337
   12        2.535693
 
  0.2916667E+00  0.1111111E+00  0.0000000E+00  0.4629630E-02
    1      -21.435578
    2      -19.020668
    3      -12.703332
    4       -9.689819
    5       -9.433217
    6       -8.152499
    7       -7.208795
    8       -6.689944
    9        1.357285
   10        1.509804
   11        2.318695
   12        2.722012
 
  0.3333333E+00  0.1111111E+00  0.0000000E+00  0.4629630E-02
    1      -21.282087
    2      -19.346679
    3      -12.187448
    4       -9.528592
    5       -9.252933
    6       -8.495622
    7       -7.506306
    8       -7.043302
    9        1.719649
   10        1.883670
   11        2.530077
   12        2.936988
 
  0.3750000E+00  0.1111111E+00  0.0000000E+00  0.4629630E-02
    1      -21.108486
    2      -19.654986
    3      -11.672003
    4       -9.346082
    5       -9.049663
    6       -8.868989
    7       -7.812421
    8       -7.384292
    9        1.957333
   10        2.413213
   11        2.769363
   12        3.180614
 
  0.4166667E+00  0.1111111E+00  0.0000000E+00  0.4629630E-02
    1      -20.914923
    2      -19.945026
    3      -11.161290
    4       -9.274364
    5       -9.142189
    6       -8.823880
    7       -8.113918
    8       -7.709949
    9        2.222779
   10        2.940134
   11        3.036337
   12        3.452877
 
  0.4583333E+00  0.1111111E+00  0.0000000E+00  0.4629630E-02
    1      -20.701572
    2      -20.216359
    3      -10.660311
    4       -9.710914
    5       -8.916746
    6       -8.576174
    7       -8.401374
    8       -8.018140
    9        2.515896
   10        3.184625
   11        3.330415
   12        3.457386
 
  0.5000000E+00  0.1111111E+00  0.0000000E+00  0.2314815E-02
    1      -20.468636
    2      -20.468636
    3      -10.174800
    4      -10.174800
    5       -8.669657
    6       -8.669657
    7       -8.307283
    8       -8.307283
    9        2.836565
   10        2.836565
   11        3.646307
   12        3.646307
 
  0.0000000E+00  0.1388889E+00  0.0000000E+00  0.2314815E-02
    1      -21.819881
    2      -16.546073
    3      -15.645765
    4      -10.638267
    5       -9.886571
    6       -7.107883
    7       -6.497873
    8       -4.585900
    9       -1.283830
   10        0.985700
   11        1.790688
   12        2.185789
 
  0.4166667E-01  0.1388889E+00  0.0000000E+00  0.4629630E-02
    1      -21.809592
    2      -16.726145
    3      -15.452333
    4      -10.626971
    5       -9.874404
    6       -7.155996
    7       -6.499098
    8       -4.659514
    9       -1.198349
   10        0.999693
   11        1.804807
   12        2.200118
 
  0.8333333E-01  0.1388889E+00  0.0000000E+00  0.4629630E-02
    1      -21.778731
    2      -17.075620
    3      -15.062954
    4      -10.593061
    5       -9.837923
    6       -7.286825
    7       -6.515603
    8       -4.860144
    9       -0.962292
   10        1.041677
   11        1.847162
   12        2.243109
 
  0.1250000E+00  0.1388889E+00  0.0000000E+00  0.4629630E-02
    1      -21.727322
    2      -17.456831
    3      -14.615848
    4      -10.536465
    5       -9.777185
    6       -7.476131
    7       -6.569392
    8       -5.145908
    9       -0.618073
   10        1.111660
   11        1.917738
   12        2.314763
 
  0.1666667E+00  0.1388889E+00  0.0000000E+00  0.4629630E-02
    1      -21.655404
    2      -17.837646
    3      -14.144097
    4      -10.457047
    5       -9.692289
    6       -7.705437
    7       -6.674727
    8       -5.479487
    9       -0.203879
   10        1.209652
   11        2.016515
   12        2.415083
 
  0.2083333E+00  0.1388889E+00  0.0000000E+00  0.4629630E-02
    1      -21.563028
    2      -18.208643
    3      -13.658533
    4      -10.354574
    5       -9.583379
    6       -7.963037
    7       -6.836778
    8       -5.835786
    9        0.254013
   10        1.335653
   11        2.143461
   12        2.544074
 
  0.2500000E+00  0.1388889E+00  0.0000000E+00  0.4629630E-02
    1      -21.450266
    2      -18.566008
    3      -13.164926
    4      -10.228669
    5       -9.450644
    6       -8.241748
    7       -7.053887
    8       -6.199294
    9        0.738635
   10        1.489646
   11        2.298532
   12        2.701733
 
  0.2916667E+00  0.1388889E+00  0.0000000E+00  0.4629630E-02
    1      -21.317206
    2      -18.907786
    3      -12.667841
    4      -10.078750
    5       -9.294328
    6       -8.537643
    7       -7.319313
    8       -6.560421
    9        1.238700
   10        1.671598
   11        2.481670
   12        2.888060
 
  0.3333333E+00  0.1388889E+00  0.0000000E+00  0.4629630E-02
    1      -21.163954
    2      -19.232799
    3      -12.171867
    4       -9.903944
    5       -9.114740
    6       -8.849582
    7       -7.622484
    8       -6.913038
    9        1.746188
   10        1.881455
   11        2.692799
   12        3.103048
 
  0.3750000E+00  0.1388889E+00  0.0000000E+00  0.4629630E-02
    1      -20.990638
    2      -19.540249
    3      -11.682159
    4       -9.703031
    5       -9.179045
    6       -8.912259
    7       -7.950006
    8       -7.253055
    9        2.119151
   10        2.254985
   11        2.931822
   12        3.346690
 
  0.4166667E+00  0.1388889E+00  0.0000000E+00  0.4629630E-02
    1      -20.797412
    2      -19.829552
    3      -11.204641
    4       -9.529721
    5       -9.474508
    6       -8.687357
    7       -8.286775
    8       -7.577630
    9        2.384604
   10        2.760115
   11        3.198603
   12        3.618974
 
  0.4583333E+00  0.1388889E+00  0.0000000E+00  0.4629630E-02
    1      -20.584458
    2      -20.100253
    3      -10.745782
    4       -9.906197
    5       -9.217009
    6       -8.617739
    7       -8.440616
    8       -7.884709
    9        2.677719
   10        3.257286
   11        3.346426
   12        3.492922
 
  0.5000000E+00  0.1388889E+00  0.0000000E+00  0.2314815E-02
    1      -20.351988
    2      -20.351988
    3      -10.311649
    4      -10.311649
    5       -8.930417
    6       -8.930417
    7       -8.172761
    8       -8.172761
    9        2.998376
   10        2.998376
   11        3.740822
   12        3.740823
 
  0.0000000E+00  0.1666667E+00  0.0000000E+00  0.2314815E-02
    1      -21.674575
    2      -16.420612
    3      -15.539751
    4      -11.098900
    5       -9.714715
    6       -7.544923
    7       -6.799166
    8       -4.409898
    9       -1.384365
   10        1.183596
   11        1.990699
   12        2.388748
 
  0.4166667E-01  0.1666667E+00  0.0000000E+00  0.4629630E-02
    1      -21.664303
    2      -16.600251
    3      -15.347860
    4      -11.086840
    5       -9.702607
    6       -7.596443
    7       -6.791702
    8       -4.486484
    9       -1.297556
   10        1.197576
   11        2.004794
   12        2.403075
 
  0.8333333E-01  0.1666667E+00  0.0000000E+00  0.4629630E-02
    1      -21.633493
    2      -16.947823
    3      -14.963791
    4      -11.050565
    5       -9.666304
    6       -7.734936
    7       -6.785226
    8       -4.693389
    9       -1.060149
   10        1.239525
   11        2.047076
   12        2.446060
 
  0.1250000E+00  0.1666667E+00  0.0000000E+00  0.4629630E-02
    1      -21.582169
    2      -17.326696
    3      -14.524990
    4      -10.989768
    5       -9.605863
    6       -7.931992
    7       -6.807432
    8       -4.984840
    9       -0.718411
   10        1.309456
   11        2.117527
   12        2.517704
 
  0.1666667E+00  0.1666667E+00  0.0000000E+00  0.4629630E-02
    1      -21.510371
    2      -17.705292
    3      -14.064462
    4      -10.903887
    5       -9.521386
    6       -8.166490
    7       -6.877500
    8       -5.322032
    9       -0.311946
   10        1.407386
   11        2.216121
   12        2.618014
 
  0.2083333E+00  0.1666667E+00  0.0000000E+00  0.4629630E-02
    1      -21.418154
    2      -18.074316
    3      -13.593654
    4      -10.792015
    5       -9.413017
    6       -8.425301
    7       -7.004672
    8       -5.680008
    9        0.133227
   10        1.533325
   11        2.342816
   12        2.746995
 
  0.2500000E+00  0.1666667E+00  0.0000000E+00  0.4629630E-02
    1      -21.305593
    2      -18.429967
    3      -13.119420
    4      -10.652780
    5       -9.280947
    6       -8.700203
    7       -7.190913
    8       -6.043811
    9        0.600871
   10        1.687267
   11        2.497554
   12        2.904649
 
  0.2916667E+00  0.1666667E+00  0.0000000E+00  0.4629630E-02
    1      -21.172779
    2      -18.770269
    3      -12.647867
    4      -10.484205
    5       -9.125425
    6       -8.986061
    7       -7.432808
    8       -6.404351
    9        1.080462
   10        1.869180
   11        2.680254
   12        3.090976
 
  0.3333333E+00  0.1666667E+00  0.0000000E+00  0.4629630E-02
    1      -21.019824
    2      -19.094016
    3      -12.185535
    4      -10.283661
    5       -9.280055
    6       -8.946757
    7       -7.722911
    8       -6.755860
    9        1.564692
   10        2.079010
   11        2.890803
   12        3.305970
 
  0.3750000E+00  0.1666667E+00  0.0000000E+00  0.4629630E-02
    1      -20.846863
    2      -19.400381
    3      -11.739580
    4      -10.048171
    5       -9.581477
    6       -8.745324
    7       -8.050791
    8       -7.094492
    9        2.048127
   10        2.316681
   11        3.129016
   12        3.549623
 
  0.4166667E+00  0.1666667E+00  0.0000000E+00  0.4629630E-02
    1      -20.654060
    2      -19.688754
    3      -11.316929
    4       -9.891810
    5       -9.775513
    6       -8.521595
    7       -8.403783
    8       -7.417561
    9        2.526450
   10        2.582102
   11        3.394473
   12        3.821923
 
  0.4583333E+00  0.1666667E+00  0.0000000E+00  0.4629630E-02
    1      -20.441602
    2      -19.958660
    3      -10.922332
    4      -10.214836
    5       -9.466374
    6       -8.767506
    7       -8.276145
    8       -7.723115
    9        2.875164
   10        2.995969
   11        3.543676
   12        3.683127
 
  0.5000000E+00  0.1666667E+00  0.0000000E+00  0.2314815E-02
    1      -20.209715
    2      -20.209715
    3      -10.556284
    4      -10.556284
    5       -9.126598
    6       -9.126598
    7       -8.009688
    8       -8.009688
    9        3.195740
   10        3.195740
   11        3.452667
   12        3.452667
 