<?xml version="1.0" encoding="ISO-8859-1"?>
<modeling>
 <generator>
  <i name="program" type="string">vasp </i>
  <i name="version" type="string">5.3.5  </i>
  <i name="subversion" type="string">31Mar14 (build Mar 02 2015 18:14:16) complex                          parallel </i>
  <i name="platform" type="string">LinuxIFC </i>
  <i name="date" type="string">2018 08 09 </i>
  <i name="time" type="string">20:03:22 </i>
 </generator>
 <incar>
  <i type="string" name="SYSTEM">  gr</i>
  <i type="string" name="PREC">accurate : accuracy</i>
  <i type="string" name="ALGO"> FAST.</i>
  <i type="int" name="NELM">   100</i>
  <i type="int" name="NELMDL">    -3</i>
  <i type="int" name="NELMIN">     5</i>
  <i type="int" name="IBRION">     1</i>
  <i name="EDIFF">      0.00000000</i>
  <i name="EDIFFG">     -0.00000100</i>
  <i type="int" name="NSW">   400</i>
  <i type="int" name="ISIF">     2</i>
  <i name="ENCUT">   2000.00000000</i>
  <i type="int" name="ISMEAR">     0</i>
  <i name="SIGMA">      0.05000000</i>
  <i type="int" name="NWRITE">     2</i>
  <i type="logical" name="LWAVE"> F  </i>
  <i type="logical" name="LCHARG"> F  </i>
  <i type="int" name="NELM">   100</i>
 </incar>
 <kpoints>
  <generation param="Gamma">
   <v type="int" name="divisions">      24       36        1 </v>
   <v name="usershift">      0.00000000       0.00000000       0.00000000 </v>
   <v name="genvec1">      0.04166667       0.00000000       0.00000000 </v>
   <v name="genvec2">      0.00000000       0.02777778       0.00000000 </v>
   <v name="genvec3">      0.00000000       0.00000000       1.00000000 </v>
   <v name="shift">      0.00000000       0.00000000       0.00000000 </v>
  </generation>
  <varray name="kpointlist" >
   <v>       0.00000000       0.00000000       0.00000000 </v>
   <v>       0.04166667       0.00000000       0.00000000 </v>
   <v>       0.08333333       0.00000000       0.00000000 </v>
   <v>       0.12500000       0.00000000       0.00000000 </v>
   <v>       0.16666667       0.00000000       0.00000000 </v>
   <v>       0.20833333       0.00000000       0.00000000 </v>
   <v>       0.25000000       0.00000000       0.00000000 </v>
   <v>       0.29166667       0.00000000       0.00000000 </v>
   <v>       0.33333333       0.00000000       0.00000000 </v>
   <v>       0.37500000       0.00000000       0.00000000 </v>
   <v>       0.41666667       0.00000000       0.00000000 </v>
   <v>       0.45833333       0.00000000       0.00000000 </v>
   <v>       0.50000000       0.00000000       0.00000000 </v>
   <v>       0.00000000       0.02777778       0.00000000 </v>
   <v>       0.04166667       0.02777778       0.00000000 </v>
   <v>       0.08333333       0.02777778       0.00000000 </v>
   <v>       0.12500000       0.02777778       0.00000000 </v>
   <v>       0.16666667       0.02777778       0.00000000 </v>
   <v>       0.20833333       0.02777778       0.00000000 </v>
   <v>       0.25000000       0.02777778       0.00000000 </v>
   <v>       0.29166667       0.02777778       0.00000000 </v>
   <v>       0.33333333       0.02777778       0.00000000 </v>
   <v>       0.37500000       0.02777778       0.00000000 </v>
   <v>       0.41666667       0.02777778       0.00000000 </v>
   <v>       0.45833333       0.02777778       0.00000000 </v>
   <v>       0.50000000       0.02777778       0.00000000 </v>
   <v>       0.00000000       0.05555556       0.00000000 </v>
   <v>       0.04166667       0.05555556       0.00000000 </v>
   <v>       0.08333333       0.05555556       0.00000000 </v>
   <v>       0.12500000       0.05555556       0.00000000 </v>
   <v>       0.16666667       0.05555556       0.00000000 </v>
   <v>       0.20833333       0.05555556       0.00000000 </v>
   <v>       0.25000000       0.05555556       0.00000000 </v>
   <v>       0.29166667       0.05555556       0.00000000 </v>
   <v>       0.33333333       0.05555556       0.00000000 </v>
   <v>       0.37500000       0.05555556       0.00000000 </v>
   <v>       0.41666667       0.05555556       0.00000000 </v>
   <v>       0.45833333       0.05555556       0.00000000 </v>
   <v>       0.50000000       0.05555556       0.00000000 </v>
   <v>       0.00000000       0.08333333       0.00000000 </v>
   <v>       0.04166667       0.08333333       0.00000000 </v>
   <v>       0.08333333       0.08333333       0.00000000 </v>
   <v>       0.12500000       0.08333333       0.00000000 </v>
   <v>       0.16666667       0.08333333       0.00000000 </v>
   <v>       0.20833333       0.08333333       0.00000000 </v>
   <v>       0.25000000       0.08333333       0.00000000 </v>
   <v>       0.29166667       0.08333333       0.00000000 </v>
   <v>       0.33333333       0.08333333       0.00000000 </v>
   <v>       0.37500000       0.08333333       0.00000000 </v>
   <v>       0.41666667       0.08333333       0.00000000 </v>
   <v>       0.45833333       0.08333333       0.00000000 </v>
   <v>       0.50000000       0.08333333       0.00000000 </v>
   <v>       0.00000000       0.11111111       0.00000000 </v>
   <v>       0.04166667       0.11111111       0.00000000 </v>
   <v>       0.08333333       0.11111111       0.00000000 </v>
   <v>       0.12500000       0.11111111       0.00000000 </v>
   <v>       0.16666667       0.11111111       0.00000000 </v>
   <v>       0.20833333       0.11111111       0.00000000 </v>
   <v>       0.25000000       0.11111111       0.00000000 </v>
   <v>       0.29166667       0.11111111       0.00000000 </v>
   <v>       0.33333333       0.11111111       0.00000000 </v>
   <v>       0.37500000       0.11111111       0.00000000 </v>
   <v>       0.41666667       0.11111111       0.00000000 </v>
   <v>       0.45833333       0.11111111       0.00000000 </v>
   <v>       0.50000000       0.11111111       0.00000000 </v>
   <v>       0.00000000       0.13888889       0.00000000 </v>
   <v>       0.04166667       0.13888889       0.00000000 </v>
   <v>       0.08333333       0.13888889       0.00000000 </v>
   <v>       0.12500000       0.13888889       0.00000000 </v>
   <v>       0.16666667       0.13888889       0.00000000 </v>
   <v>       0.20833333       0.13888889       0.00000000 </v>
   <v>       0.25000000       0.13888889       0.00000000 </v>
   <v>       0.29166667       0.13888889       0.00000000 </v>
   <v>       0.33333333       0.13888889       0.00000000 </v>
   <v>       0.37500000       0.13888889       0.00000000 </v>
   <v>       0.41666667       0.13888889       0.00000000 </v>
   <v>       0.45833333       0.13888889       0.00000000 </v>
   <v>       0.50000000       0.13888889       0.00000000 </v>
   <v>       0.00000000       0.16666667       0.00000000 </v>
   <v>       0.04166667       0.16666667       0.00000000 </v>
   <v>       0.08333333       0.16666667       0.00000000 </v>
   <v>       0.12500000       0.16666667       0.00000000 </v>
   <v>       0.16666667       0.16666667       0.00000000 </v>
   <v>       0.20833333       0.16666667       0.00000000 </v>
   <v>       0.25000000       0.16666667       0.00000000 </v>
   <v>       0.29166667       0.16666667       0.00000000 </v>
   <v>       0.33333333       0.16666667       0.00000000 </v>
   <v>       0.37500000       0.16666667       0.00000000 </v>
   <v>       0.41666667       0.16666667       0.00000000 </v>
   <v>       0.45833333       0.16666667       0.00000000 </v>
   <v>       0.50000000       0.16666667       0.00000000 </v>
   <v>       0.00000000       0.19444444       0.00000000 </v>
   <v>       0.04166667       0.19444444       0.00000000 </v>
   <v>       0.08333333       0.19444444       0.00000000 </v>
   <v>       0.12500000       0.19444444       0.00000000 </v>
   <v>       0.16666667       0.19444444       0.00000000 </v>
   <v>       0.20833333       0.19444444       0.00000000 </v>
   <v>       0.25000000       0.19444444       0.00000000 </v>
   <v>       0.29166667       0.19444444       0.00000000 </v>
   <v>       0.33333333       0.19444444       0.00000000 </v>
   <v>       0.37500000       0.19444444       0.00000000 </v>
   <v>       0.41666667       0.19444444       0.00000000 </v>
   <v>       0.45833333       0.19444444       0.00000000 </v>
   <v>       0.50000000       0.19444444       0.00000000 </v>
   <v>       0.00000000       0.22222222       0.00000000 </v>
   <v>       0.04166667       0.22222222       0.00000000 </v>
   <v>       0.08333333       0.22222222       0.00000000 </v>
   <v>       0.12500000       0.22222222       0.00000000 </v>
   <v>       0.16666667       0.22222222       0.00000000 </v>
   <v>       0.20833333       0.22222222       0.00000000 </v>
   <v>       0.25000000       0.22222222       0.00000000 </v>
   <v>       0.29166667       0.22222222       0.00000000 </v>
   <v>       0.33333333       0.22222222       0.00000000 </v>
   <v>       0.37500000       0.22222222       0.00000000 </v>
   <v>       0.41666667       0.22222222       0.00000000 </v>
   <v>       0.45833333       0.22222222       0.00000000 </v>
   <v>       0.50000000       0.22222222       0.00000000 </v>
   <v>       0.00000000       0.25000000       0.00000000 </v>
   <v>       0.04166667       0.25000000       0.00000000 </v>
   <v>       0.08333333       0.25000000       0.00000000 </v>
   <v>       0.12500000       0.25000000       0.00000000 </v>
   <v>       0.16666667       0.25000000       0.00000000 </v>
   <v>       0.20833333       0.25000000       0.00000000 </v>
   <v>       0.25000000       0.25000000       0.00000000 </v>
   <v>       0.29166667       0.25000000       0.00000000 </v>
   <v>       0.33333333       0.25000000       0.00000000 </v>
   <v>       0.37500000       0.25000000       0.00000000 </v>
   <v>       0.41666667       0.25000000       0.00000000 </v>
   <v>       0.45833333       0.25000000       0.00000000 </v>
   <v>       0.50000000       0.25000000       0.00000000 </v>
   <v>       0.00000000       0.27777778       0.00000000 </v>
   <v>       0.04166667       0.27777778       0.00000000 </v>
   <v>       0.08333333       0.27777778       0.00000000 </v>
   <v>       0.12500000       0.27777778       0.00000000 </v>
   <v>       0.16666667       0.27777778       0.00000000 </v>
   <v>       0.20833333       0.27777778       0.00000000 </v>
   <v>       0.25000000       0.27777778       0.00000000 </v>
   <v>       0.29166667       0.27777778       0.00000000 </v>
   <v>       0.33333333       0.27777778       0.00000000 </v>
   <v>       0.37500000       0.27777778       0.00000000 </v>
   <v>       0.41666667       0.27777778       0.00000000 </v>
   <v>       0.45833333       0.27777778       0.00000000 </v>
   <v>       0.50000000       0.27777778       0.00000000 </v>
   <v>       0.00000000       0.30555556       0.00000000 </v>
   <v>       0.04166667       0.30555556       0.00000000 </v>
   <v>       0.08333333       0.30555556       0.00000000 </v>
   <v>       0.12500000       0.30555556       0.00000000 </v>
   <v>       0.16666667       0.30555556       0.00000000 </v>
   <v>       0.20833333       0.30555556       0.00000000 </v>
   <v>       0.25000000       0.30555556       0.00000000 </v>
   <v>       0.29166667       0.30555556       0.00000000 </v>
   <v>       0.33333333       0.30555556       0.00000000 </v>
   <v>       0.37500000       0.30555556       0.00000000 </v>
   <v>       0.41666667       0.30555556       0.00000000 </v>
   <v>       0.45833333       0.30555556       0.00000000 </v>
   <v>       0.50000000       0.30555556       0.00000000 </v>
   <v>       0.00000000       0.33333333       0.00000000 </v>
   <v>       0.04166667       0.33333333       0.00000000 </v>
   <v>       0.08333333       0.33333333       0.00000000 </v>
   <v>       0.12500000       0.33333333       0.00000000 </v>
   <v>       0.16666667       0.33333333       0.00000000 </v>
   <v>       0.20833333       0.33333333       0.00000000 </v>
   <v>       0.25000000       0.33333333       0.00000000 </v>
   <v>       0.29166667       0.33333333       0.00000000 </v>
   <v>       0.33333333       0.33333333       0.00000000 </v>
   <v>       0.37500000       0.33333333       0.00000000 </v>
   <v>       0.41666667       0.33333333       0.00000000 </v>
   <v>       0.45833333       0.33333333       0.00000000 </v>
   <v>       0.50000000       0.33333333       0.00000000 </v>
   <v>       0.00000000       0.36111111       0.00000000 </v>
   <v>       0.04166667       0.36111111       0.00000000 </v>
   <v>       0.08333333       0.36111111       0.00000000 </v>
   <v>       0.12500000       0.36111111       0.00000000 </v>
   <v>       0.16666667       0.36111111       0.00000000 </v>
   <v>       0.20833333       0.36111111       0.00000000 </v>
   <v>       0.25000000       0.36111111       0.00000000 </v>
   <v>       0.29166667       0.36111111       0.00000000 </v>
   <v>       0.33333333       0.36111111       0.00000000 </v>
   <v>       0.37500000       0.36111111       0.00000000 </v>
   <v>       0.41666667       0.36111111       0.00000000 </v>
   <v>       0.45833333       0.36111111       0.00000000 </v>
   <v>       0.50000000       0.36111111       0.00000000 </v>
   <v>       0.00000000       0.38888889       0.00000000 </v>
   <v>       0.04166667       0.38888889       0.00000000 </v>
   <v>       0.08333333       0.38888889       0.00000000 </v>
   <v>       0.12500000       0.38888889       0.00000000 </v>
   <v>       0.16666667       0.38888889       0.00000000 </v>
   <v>       0.20833333       0.38888889       0.00000000 </v>
   <v>       0.25000000       0.38888889       0.00000000 </v>
   <v>       0.29166667       0.38888889       0.00000000 </v>
   <v>       0.33333333       0.38888889       0.00000000 </v>
   <v>       0.37500000       0.38888889       0.00000000 </v>
   <v>       0.41666667       0.38888889       0.00000000 </v>
   <v>       0.45833333       0.38888889       0.00000000 </v>
   <v>       0.50000000       0.38888889       0.00000000 </v>
   <v>       0.00000000       0.41666667       0.00000000 </v>
   <v>       0.04166667       0.41666667       0.00000000 </v>
   <v>       0.08333333       0.41666667       0.00000000 </v>
   <v>       0.12500000       0.41666667       0.00000000 </v>
   <v>       0.16666667       0.41666667       0.00000000 </v>
   <v>       0.20833333       0.41666667       0.00000000 </v>
   <v>       0.25000000       0.41666667       0.00000000 </v>
   <v>       0.29166667       0.41666667       0.00000000 </v>
   <v>       0.33333333       0.41666667       0.00000000 </v>
   <v>       0.37500000       0.41666667       0.00000000 </v>
   <v>       0.41666667       0.41666667       0.00000000 </v>
   <v>       0.45833333       0.41666667       0.00000000 </v>
   <v>       0.50000000       0.41666667       0.00000000 </v>
   <v>       0.00000000       0.44444444       0.00000000 </v>
   <v>       0.04166667       0.44444444       0.00000000 </v>
   <v>       0.08333333       0.44444444       0.00000000 </v>
   <v>       0.12500000       0.44444444       0.00000000 </v>
   <v>       0.16666667       0.44444444       0.00000000 </v>
   <v>       0.20833333       0.44444444       0.00000000 </v>
   <v>       0.25000000       0.44444444       0.00000000 </v>
   <v>       0.29166667       0.44444444       0.00000000 </v>
   <v>       0.33333333       0.44444444       0.00000000 </v>
   <v>       0.37500000       0.44444444       0.00000000 </v>
   <v>       0.41666667       0.44444444       0.00000000 </v>
   <v>       0.45833333       0.44444444       0.00000000 </v>
   <v>       0.50000000       0.44444444       0.00000000 </v>
   <v>       0.00000000       0.47222222       0.00000000 </v>
   <v>       0.04166667       0.47222222       0.00000000 </v>
   <v>       0.08333333       0.47222222       0.00000000 </v>
   <v>       0.12500000       0.47222222       0.00000000 </v>
   <v>       0.16666667       0.47222222       0.00000000 </v>
   <v>       0.20833333       0.47222222       0.00000000 </v>
   <v>       0.25000000       0.47222222       0.00000000 </v>
   <v>       0.29166667       0.47222222       0.00000000 </v>
   <v>       0.33333333       0.47222222       0.00000000 </v>
   <v>       0.37500000       0.47222222       0.00000000 </v>
   <v>       0.41666667       0.47222222       0.00000000 </v>
   <v>       0.45833333       0.47222222       0.00000000 </v>
   <v>       0.50000000       0.47222222       0.00000000 </v>
   <v>       0.00000000       0.50000000       0.00000000 </v>
   <v>       0.04166667       0.50000000       0.00000000 </v>
   <v>       0.08333333       0.50000000       0.00000000 </v>
   <v>       0.12500000       0.50000000       0.00000000 </v>
   <v>       0.16666667       0.50000000       0.00000000 </v>
   <v>       0.20833333       0.50000000       0.00000000 </v>
   <v>       0.25000000       0.50000000       0.00000000 </v>
   <v>       0.29166667       0.50000000       0.00000000 </v>
   <v>       0.33333333       0.50000000       0.00000000 </v>
   <v>       0.37500000       0.50000000       0.00000000 </v>
   <v>       0.41666667       0.50000000       0.00000000 </v>
   <v>       0.45833333       0.50000000       0.00000000 </v>
   <v>       0.50000000       0.50000000       0.00000000 </v>
  </varray>
  <varray name="weights" >
   <v>       0.00115741 </v>
   <v>       0.00231481 </v>
   <v>       0.00231481 </v>
   <v>       0.00231481 </v>
   <v>       0.00231481 </v>
   <v>       0.00231481 </v>
   <v>       0.00231481 </v>
   <v>       0.00231481 </v>
   <v>       0.00231481 </v>
   <v>       0.00231481 </v>
   <v>       0.00231481 </v>
   <v>       0.00231481 </v>
   <v>       0.00115741 </v>
   <v>       0.00231481 </v>
   <v>       0.00462963 </v>
   <v>       0.00462963 </v>
   <v>       0.00462963 </v>
   <v>       0.00462963 </v>
   <v>       0.00462963 </v>
   <v>       0.00462963 </v>
   <v>       0.00462963 </v>
   <v>       0.00462963 </v>
   <v>       0.00462963 </v>
   <v>       0.00462963 </v>
   <v>       0.00462963 </v>
   <v>       0.00231481 </v>
   <v>       0.00231481 </v>
   <v>       0.00462963 </v>
   <v>       0.00462963 </v>
   <v>       0.00462963 </v>
   <v>       0.00462963 </v>
   <v>       0.00462963 </v>
   <v>       0.00462963 </v>
   <v>       0.00462963 </v>
   <v>       0.00462963 </v>
   <v>       0.00462963 </v>
   <v>       0.00462963 </v>
   <v>       0.00462963 </v>
   <v>       0.00231481 </v>
   <v>       0.00231481 </v>
   <v>       0.00462963 </v>
   <v>       0.00462963 </v>
   <v>       0.00462963 </v>
   <v>       0.00462963 </v>
   <v>       0.00462963 </v>
   <v>       0.00462963 </v>
   <v>       0.00462963 </v>
   <v>       0.00462963 </v>
   <v>       0.00462963 </v>
   <v>       0.00462963 </v>
   <v>       0.00462963 </v>
   <v>       0.00231481 </v>
   <v>       0.00231481 </v>
   <v>       0.00462963 </v>
   <v>       0.00462963 </v>
   <v>       0.00462963 </v>
   <v>       0.00462963 </v>
   <v>       0.00462963 </v>
   <v>       0.00462963 </v>
   <v>       0.00462963 </v>
   <v>       0.00462963 </v>
   <v>       0.00462963 </v>
   <v>       0.00462963 </v>
   <v>       0.00462963 </v>
   <v>       0.00231481 </v>
   <v>       0.00231481 </v>
   <v>       0.00462963 </v>
   <v>       0.00462963 </v>
   <v>       0.00462963 </v>
   <v>       0.00462963 </v>
   <v>       0.00462963 </v>
   <v>       0.00462963 </v>
   <v>       0.00462963 </v>
   <v>       0.00462963 </v>
   <v>       0.00462963 </v>
   <v>       0.00462963 </v>
   <v>       0.00462963 </v>
   <v>       0.00231481 </v>
   <v>       0.00231481 </v>
   <v>       0.00462963 </v>
   <v>       0.00462963 </v>
   <v>       0.00462963 </v>
   <v>       0.00462963 </v>
   <v>       0.00462963 </v>
   <v>       0.00462963 </v>
   <v>       0.00462963 </v>
   <v>       0.00462963 </v>
   <v>       0.00462963 </v>
   <v>       0.00462963 </v>
   <v>       0.00462963 </v>
   <v>       0.00231481 </v>
   <v>       0.00231481 </v>
   <v>       0.00462963 </v>
   <v>       0.00462963 </v>
   <v>       0.00462963 </v>
   <v>       0.00462963 </v>
   <v>       0.00462963 </v>
   <v>       0.00462963 </v>
   <v>       0.00462963 </v>
   <v>       0.00462963 </v>
   <v>       0.00462963 </v>
   <v>       0.00462963 </v>
   <v>       0.00462963 </v>
   <v>       0.00231481 </v>
   <v>       0.00231481 </v>
   <v>       0.00462963 </v>
   <v>       0.00462963 </v>
   <v>       0.00462963 </v>
   <v>       0.00462963 </v>
   <v>       0.00462963 </v>
   <v>       0.00462963 </v>
   <v>       0.00462963 </v>
   <v>       0.00462963 </v>
   <v>       0.00462963 </v>
   <v>       0.00462963 </v>
   <v>       0.00462963 </v>
   <v>       0.00231481 </v>
   <v>       0.00231481 </v>
   <v>       0.00462963 </v>
   <v>       0.00462963 </v>
   <v>       0.00462963 </v>
   <v>       0.00462963 </v>
   <v>       0.00462963 </v>
   <v>       0.00462963 </v>
   <v>       0.00462963 </v>
   <v>       0.00462963 </v>
   <v>       0.00462963 </v>
   <v>       0.00462963 </v>
   <v>       0.00462963 </v>
   <v>       0.00231481 </v>
   <v>       0.00231481 </v>
   <v>       0.00462963 </v>
   <v>       0.00462963 </v>
   <v>       0.00462963 </v>
   <v>       0.00462963 </v>
   <v>       0.00462963 </v>
   <v>       0.00462963 </v>
   <v>       0.00462963 </v>
   <v>       0.00462963 </v>
   <v>       0.00462963 </v>
   <v>       0.00462963 </v>
   <v>       0.00462963 </v>
   <v>       0.00231481 </v>
   <v>       0.00231481 </v>
   <v>       0.00462963 </v>
   <v>       0.00462963 </v>
   <v>       0.00462963 </v>
   <v>       0.00462963 </v>
   <v>       0.00462963 </v>
   <v>       0.00462963 </v>
   <v>       0.00462963 </v>
   <v>       0.00462963 </v>
   <v>       0.00462963 </v>
   <v>       0.00462963 </v>
   <v>       0.00462963 </v>
   <v>       0.00231481 </v>
   <v>       0.00231481 </v>
   <v>       0.00462963 </v>
   <v>       0.00462963 </v>
   <v>       0.00462963 </v>
   <v>       0.00462963 </v>
   <v>       0.00462963 </v>
   <v>       0.00462963 </v>
   <v>       0.00462963 </v>
   <v>       0.00462963 </v>
   <v>       0.00462963 </v>
   <v>       0.00462963 </v>
   <v>       0.00462963 </v>
   <v>       0.00231481 </v>
   <v>       0.00231481 </v>
   <v>       0.00462963 </v>
   <v>       0.00462963 </v>
   <v>       0.00462963 </v>
   <v>       0.00462963 </v>
   <v>       0.00462963 </v>
   <v>       0.00462963 </v>
   <v>       0.00462963 </v>
   <v>       0.00462963 </v>
   <v>       0.00462963 </v>
   <v>       0.00462963 </v>
   <v>       0.00462963 </v>
   <v>       0.00231481 </v>
   <v>       0.00231481 </v>
   <v>       0.00462963 </v>
   <v>       0.00462963 </v>
   <v>       0.00462963 </v>
   <v>       0.00462963 </v>
   <v>       0.00462963 </v>
   <v>       0.00462963 </v>
   <v>       0.00462963 </v>
   <v>       0.00462963 </v>
   <v>       0.00462963 </v>
   <v>       0.00462963 </v>
   <v>       0.00462963 </v>
   <v>       0.00231481 </v>
   <v>       0.00231481 </v>
   <v>       0.00462963 </v>
   <v>       0.00462963 </v>
   <v>       0.00462963 </v>
   <v>       0.00462963 </v>
   <v>       0.00462963 </v>
   <v>       0.00462963 </v>
   <v>       0.00462963 </v>
   <v>       0.00462963 </v>
   <v>       0.00462963 </v>
   <v>       0.00462963 </v>
   <v>       0.00462963 </v>
   <v>       0.00231481 </v>
   <v>       0.00231481 </v>
   <v>       0.00462963 </v>
   <v>       0.00462963 </v>
   <v>       0.00462963 </v>
   <v>       0.00462963 </v>
   <v>       0.00462963 </v>
   <v>       0.00462963 </v>
   <v>       0.00462963 </v>
   <v>       0.00462963 </v>
   <v>       0.00462963 </v>
   <v>       0.00462963 </v>
   <v>       0.00462963 </v>
   <v>       0.00231481 </v>
   <v>       0.00231481 </v>
   <v>       0.00462963 </v>
   <v>       0.00462963 </v>
   <v>       0.00462963 </v>
   <v>       0.00462963 </v>
   <v>       0.00462963 </v>
   <v>       0.00462963 </v>
   <v>       0.00462963 </v>
   <v>       0.00462963 </v>
   <v>       0.00462963 </v>
   <v>       0.00462963 </v>
   <v>       0.00462963 </v>
   <v>       0.00231481 </v>
   <v>       0.00115741 </v>
   <v>       0.00231481 </v>
   <v>       0.00231481 </v>
   <v>       0.00231481 </v>
   <v>       0.00231481 </v>
   <v>       0.00231481 </v>
   <v>       0.00231481 </v>
   <v>       0.00231481 </v>
   <v>       0.00231481 </v>
   <v>       0.00231481 </v>
   <v>       0.00231481 </v>
   <v>       0.00231481 </v>
   <v>       0.00115741 </v>
  </varray>
 </kpoints>
 <parameters>
  <separator name="general" >
   <i type="string" name="SYSTEM">gr</i>
   <i type="logical" name="LCOMPAT"> F  </i>
  </separator>
  <separator name="electronic" >
   <i type="string" name="PREC">accura</i>
   <i name="ENMAX">   2000.00000000</i>
   <i name="ENAUG">    644.87300000</i>
   <i name="EDIFF">      0.00000000</i>
   <i type="int" name="IALGO">    68</i>
   <i type="int" name="IWAVPR">    11</i>
   <i type="int" name="NBANDS">    12</i>
   <i name="NELECT">     16.00000000</i>
   <i type="int" name="TURBO">     0</i>
   <i type="int" name="IRESTART">     0</i>
   <i type="int" name="NREBOOT">     0</i>
   <i type="int" name="NMIN">     0</i>
   <i name="EREF">      0.00000000</i>
   <separator name="electronic smearing" >
    <i type="int" name="ISMEAR">     0</i>
    <i name="SIGMA">      0.05000000</i>
    <i name="KSPACING">      0.50000000</i>
    <i type="logical" name="KGAMMA"> T  </i>
   </separator>
   <separator name="electronic projectors" >
    <i type="logical" name="LREAL"> F  </i>
    <v name="ROPT">      0.00000000</v>
    <i type="int" name="LMAXPAW">  -100</i>
    <i type="int" name="LMAXMIX">     2</i>
    <i type="logical" name="NLSPLINE"> F  </i>
   </separator>
   <separator name="electronic startup" >
    <i type="int" name="ISTART">     0</i>
    <i type="int" name="ICHARG">     2</i>
    <i type="int" name="INIWAV">     1</i>
   </separator>
   <separator name="electronic spin" >
    <i type="int" name="ISPIN">     1</i>
    <i type="logical" name="LNONCOLLINEAR"> F  </i>
    <v name="MAGMOM">      1.00000000      1.00000000      1.00000000      1.00000000</v>
    <i name="NUPDOWN">     -1.00000000</i>
    <i type="logical" name="LSORBIT"> F  </i>
    <v name="SAXIS">      0.00000000      0.00000000      1.00000000</v>
    <i type="logical" name="LSPIRAL"> F  </i>
    <v name="QSPIRAL">      0.00000000      0.00000000      0.00000000</v>
    <i type="logical" name="LZEROZ"> F  </i>
   </separator>
   <separator name="electronic exchange-correlation" >
    <i type="logical" name="LASPH"> F  </i>
    <i type="logical" name="LMETAGGA"> F  </i>
   </separator>
   <separator name="electronic convergence" >
    <i type="int" name="NELM">   100</i>
    <i type="int" name="NELMDL">    -3</i>
    <i type="int" name="NELMIN">     5</i>
    <i name="ENINI">   2000.00000000</i>
    <separator name="electronic convergence detail" >
     <i type="logical" name="LDIAG"> T  </i>
     <i type="logical" name="LSUBROT"> F  </i>
     <i name="WEIMIN">      0.00100000</i>
     <i name="EBREAK">      0.00000000</i>
     <i name="DEPER">      0.30000000</i>
     <i type="int" name="NRMM">     4</i>
     <i name="TIME">      0.40000000</i>
    </separator>
   </separator>
   <separator name="electronic mixer" >
    <i name="AMIX">      0.40000000</i>
    <i name="BMIX">      1.00000000</i>
    <i name="AMIN">      0.10000000</i>
    <i name="AMIX_MAG">      1.60000000</i>
    <i name="BMIX_MAG">      1.00000000</i>
    <separator name="electronic mixer details" >
     <i type="int" name="IMIX">     4</i>
     <i type="int" name="MAXMIX">   -45</i>
     <i name="WC">    100.00000000</i>
     <i type="int" name="INIMIX">     1</i>
     <i type="int" name="MIXPRE">     1</i>
     <i type="int" name="MREMOVE">     5</i>
    </separator>
   </separator>
   <separator name="electronic dipolcorrection" >
    <i type="logical" name="LDIPOL"> F  </i>
    <i type="logical" name="LMONO"> F  </i>
    <i type="int" name="IDIPOL">     0</i>
    <i name="EPSILON">      1.00000000</i>
    <v name="DIPOL">   -100.00000000   -100.00000000   -100.00000000</v>
    <i name="EFIELD">      0.00000000</i>
   </separator>
  </separator>
  <separator name="grids" >
   <i type="int" name="NGX">    64</i>
   <i type="int" name="NGY">    40</i>
   <i type="int" name="NGZ">   288</i>
   <i type="int" name="NGXF">   128</i>
   <i type="int" name="NGYF">    80</i>
   <i type="int" name="NGZF">   576</i>
   <i type="logical" name="ADDGRID"> F  </i>
  </separator>
  <separator name="ionic" >
   <i type="int" name="NSW">   400</i>
   <i type="int" name="IBRION">     1</i>
   <i type="int" name="ISIF">     2</i>
   <i name="PSTRESS">      0.00000000</i>
   <i name="EDIFFG">     -0.00000100</i>
   <i type="int" name="NFREE">     0</i>
   <i name="POTIM">      0.50000000</i>
   <i name="SMASS">     -3.00000000</i>
   <i name="SCALEE">      1.00000000</i>
  </separator>
  <separator name="ionic md" >
   <i name="TEBEG">      0.00010000</i>
   <i name="TEEND">      0.00010000</i>
   <i type="int" name="NBLOCK">     1</i>
   <i type="int" name="KBLOCK">   400</i>
   <i type="int" name="NPACO">   256</i>
   <i name="APACO">     16.00000000</i>
  </separator>
  <separator name="symmetry" >
   <i type="int" name="ISYM">     2</i>
   <i name="SYMPREC">      0.00001000</i>
  </separator>
  <separator name="dos" >
   <i type="logical" name="LORBIT"> F  </i>
   <v name="RWIGS">     -1.00000000</v>
   <i type="int" name="NEDOS">   301</i>
   <i name="EMIN">     10.00000000</i>
   <i name="EMAX">    -10.00000000</i>
   <i name="EFERMI">      0.00000000</i>
  </separator>
  <separator name="writing" >
   <i type="int" name="NWRITE">     2</i>
   <i type="logical" name="LWAVE"> F  </i>
   <i type="logical" name="LCHARG"> F  </i>
   <i type="logical" name="LPARD"> F  </i>
   <i type="logical" name="LVTOT"> F  </i>
   <i type="logical" name="LVHAR"> F  </i>
   <i type="logical" name="LELF"> F  </i>
   <i type="logical" name="LOPTICS"> F  </i>
   <v name="STM">      0.00000000      0.00000000      0.00000000      0.00000000      0.00000000      0.00000000      0.00000000</v>
  </separator>
  <separator name="performance" >
   <i type="int" name="NPAR">     4</i>
   <i type="int" name="NSIM">     4</i>
   <i type="int" name="NBLK">    -1</i>
   <i type="logical" name="LPLANE"> T  </i>
   <i type="logical" name="LSCALAPACK"> F  </i>
   <i type="logical" name="LSCAAWARE"> F  </i>
   <i type="logical" name="LSCALU"> F  </i>
   <i type="logical" name="LASYNC"> F  </i>
   <i type="logical" name="LORBITALREAL"> F  </i>
  </separator>
  <separator name="miscellaneous" >
   <i type="int" name="IDIOT">     3</i>
   <i type="logical" name="LMUSIC"> F  </i>
   <v name="POMASS">     12.01100000</v>
   <v name="DARWINR">      0.00000000</v>
   <v name="DARWINV">      1.00000000</v>
   <i type="logical" name="LCORR"> T  </i>
  </separator>
  <i type="logical" name="GGA_COMPAT"> T  </i>
  <i type="logical" name="LBERRY"> F  </i>
  <i type="int" name="ICORELEVEL">     0</i>
  <i type="logical" name="LDAU"> F  </i>
  <i type="int" name="I_CONSTRAINED_M">     0</i>
  <separator name="electronic exchange-correlation" >
   <i type="string" name="GGA">--</i>
   <i type="int" name="VOSKOWN">     0</i>
   <i type="logical" name="LHFCALC"> F  </i>
   <i type="string" name="PRECFOCK"></i>
   <i type="logical" name="LSYMGRAD"> F  </i>
   <i type="logical" name="LHFONE"> F  </i>
   <i type="logical" name="LRHFCALC"> F  </i>
   <i type="logical" name="LTHOMAS"> F  </i>
   <i type="logical" name="LMODELHF"> F  </i>
   <i name="ENCUT4O">     -1.00000000</i>
   <i type="int" name="EXXOEP">     0</i>
   <i type="int" name="FOURORBIT">     0</i>
   <i name="AEXX">      0.00000000</i>
   <i name="HFALPHA">      0.00000000</i>
   <i name="MCALPHA">      0.00000000</i>
   <i name="ALDAX">      1.00000000</i>
   <i name="AGGAX">      1.00000000</i>
   <i name="ALDAC">      1.00000000</i>
   <i name="AGGAC">      1.00000000</i>
   <i type="int" name="NKREDX">     1</i>
   <i type="int" name="NKREDY">     1</i>
   <i type="int" name="NKREDZ">     1</i>
   <i type="logical" name="SHIFTRED"> F  </i>
   <i type="logical" name="ODDONLY"> F  </i>
   <i type="logical" name="EVENONLY"> F  </i>
   <i type="int" name="LMAXFOCK">     0</i>
   <i type="int" name="NMAXFOCKAE">     0</i>
   <i type="logical" name="LFOCKAEDFT"> F  </i>
   <i name="HFSCREEN">      0.00000000</i>
   <i name="HFSCREENC">      0.00000000</i>
   <i type="int" name="NBANDSGWLOW">     0</i>
  </separator>
  <separator name="vdW DFT" >
   <i type="logical" name="LUSE_VDW"> F  </i>
   <i name="Zab_VDW">     -0.84910000</i>
   <i name="PARAM1">      0.12340000</i>
   <i name="PARAM2">      1.00000000</i>
   <i name="PARAM3">      0.00000000</i>
  </separator>
  <separator name="model GW" >
   <i type="int" name="MODEL_GW">     0</i>
   <i name="MODEL_EPS0">     31.62568521</i>
   <i name="MODEL_ALPHA">      1.00000000</i>
  </separator>
  <separator name="linear response parameters" >
   <i type="logical" name="LEPSILON"> F  </i>
   <i type="logical" name="LRPA"> F  </i>
   <i type="logical" name="LNABLA"> F  </i>
   <i type="logical" name="LVEL"> F  </i>
   <i type="int" name="KINTER">     0</i>
   <i name="CSHIFT">      0.10000000</i>
   <i name="OMEGAMAX">     -1.00000000</i>
   <i name="DEG_THRESHOLD">      0.00200000</i>
  </separator>
  <separator name="orbital magnetization" >
   <i type="logical" name="NUCIND"> F  </i>
   <v name="MAGPOS">      0.00000000      0.00000000      0.00000000</v>
   <i type="logical" name="LNICSALL"> T  </i>
   <i type="logical" name="ORBITALMAG"> F  </i>
   <i type="logical" name="LMAGBLOCH"> F  </i>
   <i type="logical" name="LCHIMAG"> F  </i>
   <i type="logical" name="LGAUGE"> T  </i>
   <i type="int" name="MAGATOM">     0</i>
   <v name="MAGDIPOL">      0.00000000      0.00000000      0.00000000</v>
   <v name="AVECCONST">      0.00000000      0.00000000      0.00000000</v>
  </separator>
  <separator name="response functions" >
   <i type="logical" name="LADDER"> F  </i>
   <i type="logical" name="LFXC"> F  </i>
   <i type="logical" name="LHARTREE"> T  </i>
   <i type="int" name="IBSE">     0</i>
   <i type="logical" name="LTCTE"> F  </i>
   <i type="logical" name="LTETE"> F  </i>
   <i type="logical" name="LTRIPLET"> F  </i>
   <i type="logical" name="LFXCEPS"> F  </i>
   <i type="logical" name="LFXHEG"> F  </i>
   <i type="logical" name="L2ORDER"> F  </i>
   <i type="logical" name="LUSEW"> F  </i>
   <i name="ENCUTGW">     -2.00000000</i>
   <i name="ENCUTGWSOFT">     -2.00000000</i>
   <i name="ENCUTLF">     -1.00000000</i>
   <i type="int" name="LMAXMP2">    -1</i>
   <i name="SCISSOR">      0.00000000</i>
   <i type="int" name="NOMEGA">     0</i>
   <i type="int" name="NOMEGAR">     0</i>
   <i type="int" name="NBANDSGW">    -1</i>
   <i type="int" name="NBANDSO">    -1</i>
   <i type="int" name="NBANDSV">    -1</i>
   <i type="int" name="NELM">   100</i>
   <i type="int" name="DIM">     3</i>
   <i type="int" name="ANTIRES">     0</i>
   <i name="OMEGAMAX">    -30.00000000</i>
   <i name="OMEGAMIN">    -30.00000000</i>
   <i name="OMEGATL">   -200.00000000</i>
   <i type="int" name="OMEGAGRID">     0</i>
   <i name="CSHIFT">     -0.10000000</i>
   <i type="logical" name="SELFENERGY"> F  </i>
   <i type="logical" name="LSPECTRAL"> F  </i>
   <i type="logical" name="ODDONLYGW"> F  </i>
   <i type="logical" name="EVENONLYGW"> F  </i>
   <i type="int" name="NKREDLFX">     1</i>
   <i type="int" name="NKREDLFY">     1</i>
   <i type="int" name="NKREDLFZ">     1</i>
   <i type="int" name="MAXMEM">  1800</i>
   <i type="int" name="TELESCOPE">     0</i>
   <i type="int" name="TAUPAR">     1</i>
  </separator>
  <separator name="External order field" >
   <i name="OFIELD_KAPPA">      0.00000000</i>
   <v name="OFIELD_K">      0.00000000      0.00000000      0.00000000</v>
   <i name="OFIELD_Q6_NEAR">      0.00000000</i>
   <i name="OFIELD_Q6_FAR">      0.00000000</i>
   <i name="OFIELD_A">      0.00000000</i>
  </separator>
 </parameters>
 <atominfo>
  <atoms>       4 </atoms>
  <types>       1 </types>
  <array name="atoms" >
   <dimension dim="1">ion</dimension>
   <field type="string">element</field>
   <field type="int">atomtype</field>
   <set>
    <rc><c>C </c><c>   1</c></rc>
    <rc><c>C </c><c>   1</c></rc>
    <rc><c>C </c><c>   1</c></rc>
    <rc><c>C </c><c>   1</c></rc>
   </set>
  </array>
  <array name="atomtypes" >
   <dimension dim="1">type</dimension>
   <field type="int">atomspertype</field>
   <field type="string">element</field>
   <field>mass</field>
   <field>valence</field>
   <field type="string">pseudopotential</field>
   <set>
    <rc><c>   4</c><c>C </c><c>     12.01100000</c><c>      4.00000000</c><c> PAW_PBE C 08Apr2002                    </c></rc>
   </set>
  </array>
 </atominfo>
 <structure name="initialpos" >
  <crystal>
   <varray name="basis" >
    <v>       4.26217166       0.00000000       0.00000000 </v>
    <v>       0.00000000       2.50394049       0.00000000 </v>
    <v>       0.00000000       0.00000000      19.75576015 </v>
   </varray>
   <i name="volume">    210.83790140 </i>
   <varray name="rec_basis" >
    <v>       0.23462218       0.00000000       0.00000000 </v>
    <v>       0.00000000       0.39937051       0.00000000 </v>
    <v>       0.00000000       0.00000000       0.05061815 </v>
   </varray>
  </crystal>
  <varray name="positions" >
   <v>       0.00039382       0.00000000       0.00000000 </v>
   <v>       0.16627284       0.50000000       0.00000000 </v>
   <v>       0.50039382       0.50000000       0.00000000 </v>
   <v>       0.66627284       0.00000000       0.00000000 </v>
  </varray>
 </structure>
 <calculation>
  <scstep>
   <time name="dav">  319.85  322.83</time>
   <time name="total">  322.58  325.62</time>
   <energy>
    <i name="alphaZ">      6.18334092 </i>
    <i name="ewald">   2504.55437983 </i>
    <i name="hartreedc">  -2932.39841249 </i>
    <i name="XCdc">     54.93061708 </i>
    <i name="pawpsdc">    151.32577238 </i>
    <i name="pawaedc">   -155.92769107 </i>
    <i name="eentropy">     -0.00234590 </i>
    <i name="bandstr">    -29.33471799 </i>
    <i name="atom">    588.62352690 </i>
    <i name="e_fr_energy">    187.95446967 </i>
    <i name="e_wo_entrp">    187.95681558 </i>
    <i name="e_0_energy">    187.95564262 </i>
   </energy>
  </scstep>
  <scstep>
   <time name="dav">  484.14  488.31</time>
   <time name="total">  484.15  488.33</time>
   <energy>
    <i name="e_fr_energy">     -8.80136263 </i>
    <i name="e_wo_entrp">     -8.80105135 </i>
    <i name="e_0_energy">     -8.80120699 </i>
   </energy>
  </scstep>
  <scstep>
   <time name="dav">  372.01  373.99</time>
   <time name="total">  404.55  406.91</time>
   <energy>
    <i name="e_fr_energy">    -38.23153177 </i>
    <i name="e_wo_entrp">    -38.23153086 </i>
    <i name="e_0_energy">    -38.23153131 </i>
   </energy>
  </scstep>
  <scstep>
   <time name="diag">   86.37   87.22</time>
   <time name="diis">  356.28  359.53</time>
   <time name="orth">    3.09    3.12</time>
   <time name="total">  481.12  485.66</time>
   <energy>
    <i name="e_fr_energy">    -37.64654867 </i>
    <i name="e_wo_entrp">    -37.64654517 </i>
    <i name="e_0_energy">    -37.64654692 </i>
   </energy>
  </scstep>
  <scstep>
   <time name="diag">   86.50   87.22</time>
   <time name="diis">  355.02  355.38</time>
   <time name="orth">    3.08    3.08</time>
   <time name="total">  480.04  481.18</time>
   <energy>
    <i name="e_fr_energy">    -36.91140714 </i>
    <i name="e_wo_entrp">    -36.91140143 </i>
    <i name="e_0_energy">    -36.91140428 </i>
   </energy>
  </scstep>
  <scstep>
   <time name="diag">   86.65   87.22</time>
   <time name="diis">  385.61  388.65</time>
   <time name="orth">    3.08    3.08</time>
   <time name="total">  510.32  514.44</time>
   <energy>
    <i name="e_fr_energy">    -36.91290402 </i>
    <i name="e_wo_entrp">    -36.91289858 </i>
    <i name="e_0_energy">    -36.91290130 </i>
   </energy>
  </scstep>
  <scstep>
   <time name="diag">   86.32   87.21</time>
   <time name="diis">  353.89  356.28</time>
   <time name="orth">    3.07    3.09</time>
   <time name="total">  478.59  482.20</time>
   <energy>
    <i name="e_fr_energy">    -36.90378093 </i>
    <i name="e_wo_entrp">    -36.90377618 </i>
    <i name="e_0_energy">    -36.90377856 </i>
   </energy>
  </scstep>
  <scstep>
   <time name="diag">   86.56   87.28</time>
   <time name="diis">  353.02  355.76</time>
   <time name="orth">    3.08    3.10</time>
   <time name="total">  477.87  481.58</time>
   <energy>
    <i name="e_fr_energy">    -36.89846740 </i>
    <i name="e_wo_entrp">    -36.89846245 </i>
    <i name="e_0_energy">    -36.89846492 </i>
   </energy>
  </scstep>
  <scstep>
   <time name="diag">   86.75   87.21</time>
   <time name="diis">  349.16  350.73</time>
   <time name="orth">    3.08    3.08</time>
   <time name="total">  474.06  476.22</time>
   <energy>
    <i name="e_fr_energy">    -36.89831574 </i>
    <i name="e_wo_entrp">    -36.89831044 </i>
    <i name="e_0_energy">    -36.89831309 </i>
   </energy>
  </scstep>
  <scstep>
   <time name="diag">   86.59   87.24</time>
   <time name="diis">  349.47  351.26</time>
   <time name="orth">    3.08    3.10</time>
   <time name="total">  474.36  477.16</time>
   <energy>
    <i name="e_fr_energy">    -36.89820768 </i>
    <i name="e_wo_entrp">    -36.89820259 </i>
    <i name="e_0_energy">    -36.89820513 </i>
   </energy>
  </scstep>
  <scstep>
   <time name="diag">   86.47   87.21</time>
   <time name="diis">  352.25  353.11</time>
   <time name="orth">    3.08    3.08</time>
   <time name="total">  477.17  479.60</time>
   <energy>
    <i name="e_fr_energy">    -36.90060509 </i>
    <i name="e_wo_entrp">    -36.90060010 </i>
    <i name="e_0_energy">    -36.90060259 </i>
   </energy>
  </scstep>
  <scstep>
   <time name="diag">   87.13   87.26</time>
   <time name="diis">  351.27  352.08</time>
   <time name="orth">    3.08    3.08</time>
   <time name="total">  476.59  477.82</time>
   <energy>
    <i name="e_fr_energy">    -36.90108407 </i>
    <i name="e_wo_entrp">    -36.90107899 </i>
    <i name="e_0_energy">    -36.90108153 </i>
   </energy>
  </scstep>
  <scstep>
   <time name="diag">   87.09   87.24</time>
   <time name="diis">  358.19  358.96</time>
   <time name="orth">    3.10    3.10</time>
   <time name="total">  483.71  484.72</time>
   <energy>
    <i name="e_fr_energy">    -36.90133250 </i>
    <i name="e_wo_entrp">    -36.90132741 </i>
    <i name="e_0_energy">    -36.90132996 </i>
   </energy>
  </scstep>
  <scstep>
   <time name="diag">   87.03   87.20</time>
   <time name="diis">  351.89  354.29</time>
   <time name="orth">    3.09    3.10</time>
   <time name="total">  477.31  480.11</time>
   <energy>
    <i name="e_fr_energy">    -36.90141457 </i>
    <i name="e_wo_entrp">    -36.90140950 </i>
    <i name="e_0_energy">    -36.90141203 </i>
   </energy>
  </scstep>
  <scstep>
   <time name="diag">   87.10   87.19</time>
   <time name="diis">  352.13  354.76</time>
   <time name="orth">    3.08    3.08</time>
   <time name="total">  477.26  480.58</time>
   <energy>
    <i name="e_fr_energy">    -36.90142428 </i>
    <i name="e_wo_entrp">    -36.90141920 </i>
    <i name="e_0_energy">    -36.90142174 </i>
   </energy>
  </scstep>
  <scstep>
   <time name="diag">   86.72   87.18</time>
   <time name="diis">  350.09  351.20</time>
   <time name="orth">    3.09    3.10</time>
   <time name="total">  475.49  477.33</time>
   <energy>
    <i name="e_fr_energy">    -36.90143645 </i>
    <i name="e_wo_entrp">    -36.90143136 </i>
    <i name="e_0_energy">    -36.90143390 </i>
   </energy>
  </scstep>
  <scstep>
   <time name="diag">   86.36   87.21</time>
   <time name="diis">  359.82  363.82</time>
   <time name="orth">    3.07    3.09</time>
   <time name="total">  484.84  490.13</time>
   <energy>
    <i name="e_fr_energy">    -36.90144181 </i>
    <i name="e_wo_entrp">    -36.90143673 </i>
    <i name="e_0_energy">    -36.90143927 </i>
   </energy>
  </scstep>
  <scstep>
   <time name="diag">   86.53   87.14</time>
   <time name="diis">  347.13  349.91</time>
   <time name="orth">    3.08    3.10</time>
   <time name="total">  472.18  475.87</time>
   <energy>
    <i name="e_fr_energy">    -36.90144295 </i>
    <i name="e_wo_entrp">    -36.90143787 </i>
    <i name="e_0_energy">    -36.90144041 </i>
   </energy>
  </scstep>
  <scstep>
   <time name="diag">   86.50   87.12</time>
   <time name="diis">  353.38  356.89</time>
   <time name="orth">    3.08    3.08</time>
   <time name="total">  477.56  482.04</time>
   <energy>
    <i name="e_fr_energy">    -36.90144374 </i>
    <i name="e_wo_entrp">    -36.90143866 </i>
    <i name="e_0_energy">    -36.90144120 </i>
   </energy>
  </scstep>
  <scstep>
   <time name="diag">   86.74   87.11</time>
   <time name="diis">  271.34  272.15</time>
   <time name="orth">    3.10    3.12</time>
   <time name="total">  396.11  397.76</time>
   <energy>
    <i name="e_fr_energy">    -36.90144380 </i>
    <i name="e_wo_entrp">    -36.90143872 </i>
    <i name="e_0_energy">    -36.90144126 </i>
   </energy>
  </scstep>
  <scstep>
   <time name="diag">   86.54   87.11</time>
   <time name="diis">  265.92  268.29</time>
   <time name="orth">    3.09    3.10</time>
   <time name="total">  390.80  394.19</time>
   <energy>
    <i name="e_fr_energy">    -36.90144381 </i>
    <i name="e_wo_entrp">    -36.90143873 </i>
    <i name="e_0_energy">    -36.90144127 </i>
   </energy>
  </scstep>
  <scstep>
   <time name="diag">   86.65   87.08</time>
   <time name="diis">  239.73  241.71</time>
   <time name="orth">    3.09    3.11</time>
   <time name="total">  365.02  367.53</time>
   <energy>
    <i name="e_fr_energy">    -36.90144381 </i>
    <i name="e_wo_entrp">    -36.90143873 </i>
    <i name="e_0_energy">    -36.90144127 </i>
   </energy>
  </scstep>
  <scstep>
   <time name="diag">   87.06   87.09</time>
   <time name="diis">  228.27  228.33</time>
   <time name="orth">    3.09    3.09</time>
   <time name="total">  353.93  373.14</time>
   <energy>
    <i name="e_fr_energy">    -36.90144381 </i>
    <i name="e_wo_entrp">    -36.90143873 </i>
    <i name="e_0_energy">    -36.90144127 </i>
   </energy>
  </scstep>
  <scstep>
   <time name="diag">   87.06   87.12</time>
   <time name="diis">  217.31  217.42</time>
   <time name="orth">    3.08    3.08</time>
   <time name="total">  342.90  343.13</time>
   <energy>
    <i name="e_fr_energy">    -36.90144381 </i>
    <i name="e_wo_entrp">    -36.90143874 </i>
    <i name="e_0_energy">    -36.90144127 </i>
   </energy>
  </scstep>
  <scstep>
   <time name="diag">   86.91   87.16</time>
   <time name="diis">  207.39  207.56</time>
   <time name="orth">    3.10    3.10</time>
   <time name="total">  300.02  300.45</time>
   <energy>
    <i name="alphaZ">      6.18334092 </i>
    <i name="ewald">   2504.55437983 </i>
    <i name="hartreedc">  -2998.70409993 </i>
    <i name="XCdc">     57.29583158 </i>
    <i name="pawpsdc">    272.12783468 </i>
    <i name="pawaedc">   -277.25422418 </i>
    <i name="eentropy">     -0.00000508 </i>
    <i name="bandstr">   -189.72802854 </i>
    <i name="atom">    588.62352690 </i>
    <i name="e_fr_energy">    -36.90144381 </i>
    <i name="e_wo_entrp">    -36.90143874 </i>
    <i name="e_0_energy">    -36.90144127 </i>
   </energy>
  </scstep>
  <structure>
   <crystal>
    <varray name="basis" >
     <v>       4.26217166       0.00000000       0.00000000 </v>
     <v>       0.00000000       2.50394049       0.00000000 </v>
     <v>       0.00000000       0.00000000      19.75576015 </v>
    </varray>
    <i name="volume">    210.83790140 </i>
    <varray name="rec_basis" >
     <v>       0.23462218       0.00000000       0.00000000 </v>
     <v>       0.00000000       0.39937051       0.00000000 </v>
     <v>       0.00000000       0.00000000       0.05061815 </v>
    </varray>
   </crystal>
   <varray name="positions" >
    <v>       0.00039382       0.00000000       0.00000000 </v>
    <v>       0.16627284       0.50000000       0.00000000 </v>
    <v>       0.50039382       0.50000000       0.00000000 </v>
    <v>       0.66627284       0.00000000       0.00000000 </v>
   </varray>
  </structure>
  <varray name="forces" >
   <v>      -0.00233852       0.00000000      -0.00000000 </v>
   <v>       0.00233852      -0.00000000       0.00000000 </v>
   <v>      -0.00233852       0.00000000      -0.00000000 </v>
   <v>       0.00233852       0.00000000       0.00000000 </v>
  </varray>
  <varray name="stress" >
   <v>      -0.01523098       0.00000000       0.00000000 </v>
   <v>       0.00000000     -24.66081370       0.00000000 </v>
   <v>       0.00000000       0.00000000      -0.01019362 </v>
  </varray>
  <energy>
   <i name="e_fr_energy">    -36.90144381 </i>
   <i name="e_wo_entrp">    -36.90144127 </i>
   <i name="e_0_energy">     -0.00000508 </i>
  </energy>
  <time name="totalsc">11141.4911227.19</time>
 </calculation>
 <calculation>
  <scstep>
   <time name="dav">  335.77  336.07</time>
   <time name="total">  371.40  371.70</time>
   <energy>
    <i name="alphaZ">      6.18334092 </i>
    <i name="ewald">   2504.55582540 </i>
    <i name="hartreedc">  -2998.70472506 </i>
    <i name="XCdc">     57.29587270 </i>
    <i name="pawpsdc">    272.12783524 </i>
    <i name="pawaedc">   -277.25422471 </i>
    <i name="eentropy">     -0.00000452 </i>
    <i name="bandstr">   -189.72888905 </i>
    <i name="atom">    588.62352690 </i>
    <i name="e_fr_energy">    -36.90144217 </i>
    <i name="e_wo_entrp">    -36.90143765 </i>
    <i name="e_0_energy">    -36.90143991 </i>
   </energy>
  </scstep>
  <scstep>
   <time name="diag">   86.99   87.02</time>
   <time name="diis">  350.64  350.76</time>
   <time name="orth">    3.10    3.10</time>
   <time name="total">  476.03  476.19</time>
   <energy>
    <i name="e_fr_energy">    -36.90144227 </i>
    <i name="e_wo_entrp">    -36.90143773 </i>
    <i name="e_0_energy">    -36.90144000 </i>
   </energy>
  </scstep>
  <scstep>
   <time name="diag">   87.04   87.07</time>
   <time name="diis">  354.03  354.14</time>
   <time name="orth">    3.10    3.10</time>
   <time name="total">  479.37  479.79</time>
   <energy>
    <i name="e_fr_energy">    -36.90144221 </i>
    <i name="e_wo_entrp">    -36.90143765 </i>
    <i name="e_0_energy">    -36.90143993 </i>
   </energy>
  </scstep>
  <scstep>
   <time name="diag">   87.03   87.05</time>
   <time name="diis">  360.95  361.04</time>
   <time name="orth">    3.20    3.20</time>
   <time name="total">  486.52  486.68</time>
   <energy>
    <i name="e_fr_energy">    -36.90144220 </i>
    <i name="e_wo_entrp">    -36.90143764 </i>
    <i name="e_0_energy">    -36.90143992 </i>
   </energy>
  </scstep>
  <scstep>
   <time name="diag">   87.05   87.07</time>
   <time name="diis">  352.92  353.01</time>
   <time name="orth">    3.16    3.16</time>
   <time name="total">  478.38  478.53</time>
   <energy>
    <i name="e_fr_energy">    -36.90144221 </i>
    <i name="e_wo_entrp">    -36.90143765 </i>
    <i name="e_0_energy">    -36.90143993 </i>
   </energy>
  </scstep>
  <scstep>
   <time name="diag">   87.06   87.08</time>
   <time name="diis">  257.19  257.27</time>
   <time name="orth">    3.08    3.08</time>
   <time name="total">  382.30  382.48</time>
   <energy>
    <i name="e_fr_energy">    -36.90144221 </i>
    <i name="e_wo_entrp">    -36.90143765 </i>
    <i name="e_0_energy">    -36.90143993 </i>
   </energy>
  </scstep>
  <scstep>
   <time name="diag">   87.00   87.03</time>
   <time name="diis">  233.75  233.96</time>
   <time name="orth">    3.09    3.09</time>
   <time name="total">  359.11  359.42</time>
   <energy>
    <i name="e_fr_energy">    -36.90144221 </i>
    <i name="e_wo_entrp">    -36.90143765 </i>
    <i name="e_0_energy">    -36.90143993 </i>
   </energy>
  </scstep>
  <scstep>
   <time name="diag">   86.88   87.10</time>
   <time name="diis">  224.62  225.20</time>
   <time name="orth">    3.08    3.08</time>
   <time name="total">  350.23  351.10</time>
   <energy>
    <i name="e_fr_energy">    -36.90144221 </i>
    <i name="e_wo_entrp">    -36.90143765 </i>
    <i name="e_0_energy">    -36.90143993 </i>
   </energy>
  </scstep>
  <scstep>
   <time name="diag">   87.11   87.14</time>
   <time name="diis">  217.63  217.69</time>
   <time name="orth">    3.10    3.10</time>
   <time name="total">  310.40  310.64</time>
   <energy>
    <i name="alphaZ">      6.18334092 </i>
    <i name="ewald">   2504.55582540 </i>
    <i name="hartreedc">  -2998.70532559 </i>
    <i name="XCdc">     57.29589750 </i>
    <i name="pawpsdc">    272.13034736 </i>
    <i name="pawaedc">   -277.25674787 </i>
    <i name="eentropy">     -0.00000456 </i>
    <i name="bandstr">   -189.72830228 </i>
    <i name="atom">    588.62352690 </i>
    <i name="e_fr_energy">    -36.90144221 </i>
    <i name="e_wo_entrp">    -36.90143765 </i>
    <i name="e_0_energy">    -36.90143993 </i>
   </energy>
  </scstep>
  <structure>
   <crystal>
    <varray name="basis" >
     <v>       4.26217166       0.00000000       0.00000000 </v>
     <v>       0.00000000       2.50394049       0.00000000 </v>
     <v>       0.00000000       0.00000000      19.75576015 </v>
    </varray>
    <i name="volume">    210.83790140 </i>
    <varray name="rec_basis" >
     <v>       0.23462218       0.00000000       0.00000000 </v>
     <v>       0.00000000       0.39937051       0.00000000 </v>
     <v>       0.00000000       0.00000000       0.05061815 </v>
    </varray>
   </crystal>
   <varray name="positions" >
    <v>       0.00036735       0.00000000      -0.00000000 </v>
    <v>       0.16629931       0.50000000       0.00000000 </v>
    <v>       0.50036735       0.50000000      -0.00000000 </v>
    <v>       0.66629931       0.00000000       0.00000000 </v>
   </varray>
  </structure>
  <varray name="forces" >
   <v>       0.00953775      -0.00000000       0.00000000 </v>
   <v>      -0.00953775      -0.00000000      -0.00000000 </v>
   <v>       0.00953775       0.00000000       0.00000000 </v>
   <v>      -0.00953775      -0.00000000      -0.00000000 </v>
  </varray>
  <varray name="stress" >
   <v>       0.02888094       0.00000000       0.00000000 </v>
   <v>       0.00000000     -24.69359314       0.00000000 </v>
   <v>       0.00000000       0.00000000      -0.01015086 </v>
  </varray>
  <energy>
   <i name="e_fr_energy">    -36.90144221 </i>
   <i name="e_wo_entrp">    -36.90143993 </i>
   <i name="e_0_energy">     -0.00000456 </i>
  </energy>
  <time name="totalsc"> 3799.84 3802.78</time>
 </calculation>
 <calculation>
  <scstep>
   <time name="dav">  343.59  343.85</time>
   <time name="total">  379.25  379.52</time>
   <energy>
    <i name="alphaZ">      6.18334092 </i>
    <i name="ewald">   2504.55466307 </i>
    <i name="hartreedc">  -2998.70483534 </i>
    <i name="XCdc">     57.29586450 </i>
    <i name="pawpsdc">    272.13034838 </i>
    <i name="pawaedc">   -277.25674887 </i>
    <i name="eentropy">     -0.00000501 </i>
    <i name="bandstr">   -189.72759847 </i>
    <i name="atom">    588.62352690 </i>
    <i name="e_fr_energy">    -36.90144392 </i>
    <i name="e_wo_entrp">    -36.90143891 </i>
    <i name="e_0_energy">    -36.90144142 </i>
   </energy>
  </scstep>
  <scstep>
   <time name="diag">   87.16   87.19</time>
   <time name="diis">  350.70  350.79</time>
   <time name="orth">    3.10    3.10</time>
   <time name="total">  476.35  476.48</time>
   <energy>
    <i name="e_fr_energy">    -36.90144398 </i>
    <i name="e_wo_entrp">    -36.90143898 </i>
    <i name="e_0_energy">    -36.90144148 </i>
   </energy>
  </scstep>
  <scstep>
   <time name="diag">   86.85   87.14</time>
   <time name="diis">  353.77  354.31</time>
   <time name="orth">    3.08    3.09</time>
   <time name="total">  478.71  480.28</time>
   <energy>
    <i name="e_fr_energy">    -36.90144393 </i>
    <i name="e_wo_entrp">    -36.90143896 </i>
    <i name="e_0_energy">    -36.90144144 </i>
   </energy>
  </scstep>
  <scstep>
   <time name="diag">   87.16   87.19</time>
   <time name="diis">  360.70  360.80</time>
   <time name="orth">    3.08    3.08</time>
   <time name="total">  486.53  486.68</time>
   <energy>
    <i name="e_fr_energy">    -36.90144392 </i>
    <i name="e_wo_entrp">    -36.90143895 </i>
    <i name="e_0_energy">    -36.90144144 </i>
   </energy>
  </scstep>
  <scstep>
   <time name="diag">   87.02   87.17</time>
   <time name="diis">  326.72  328.34</time>
   <time name="orth">    3.08    3.08</time>
   <time name="total">  451.77  453.73</time>
   <energy>
    <i name="e_fr_energy">    -36.90144392 </i>
    <i name="e_wo_entrp">    -36.90143895 </i>
    <i name="e_0_energy">    -36.90144143 </i>
   </energy>
  </scstep>
  <scstep>
   <time name="diag">   86.76   87.20</time>
   <time name="diis">  238.72  239.52</time>
   <time name="orth">    3.08    3.08</time>
   <time name="total">  364.47  365.77</time>
   <energy>
    <i name="e_fr_energy">    -36.90144392 </i>
    <i name="e_wo_entrp">    -36.90143895 </i>
    <i name="e_0_energy">    -36.90144143 </i>
   </energy>
  </scstep>
  <scstep>
   <time name="diag">   87.19   87.24</time>
   <time name="diis">  233.46  233.68</time>
   <time name="orth">    3.09    3.09</time>
   <time name="total">  326.38  326.66</time>
   <energy>
    <i name="alphaZ">      6.18334092 </i>
    <i name="ewald">   2504.55466307 </i>
    <i name="hartreedc">  -2998.70437061 </i>
    <i name="XCdc">     57.29584470 </i>
    <i name="pawpsdc">    272.12831677 </i>
    <i name="pawaedc">   -277.25470840 </i>
    <i name="eentropy">     -0.00000497 </i>
    <i name="bandstr">   -189.72805230 </i>
    <i name="atom">    588.62352690 </i>
    <i name="e_fr_energy">    -36.90144392 </i>
    <i name="e_wo_entrp">    -36.90143895 </i>
    <i name="e_0_energy">    -36.90144143 </i>
   </energy>
  </scstep>
  <structure>
   <crystal>
    <varray name="basis" >
     <v>       4.26217166       0.00000000       0.00000000 </v>
     <v>       0.00000000       2.50394049       0.00000000 </v>
     <v>       0.00000000       0.00000000      19.75576015 </v>
    </varray>
    <i name="volume">    210.83790140 </i>
    <varray name="rec_basis" >
     <v>       0.23462218       0.00000000       0.00000000 </v>
     <v>       0.00000000       0.39937051       0.00000000 </v>
     <v>       0.00000000       0.00000000       0.05061815 </v>
    </varray>
   </crystal>
   <varray name="positions" >
    <v>       0.00038861       0.00000000       0.00000000 </v>
    <v>       0.16627806       0.50000000      -0.00000000 </v>
    <v>       0.50038861       0.50000000       0.00000000 </v>
    <v>       0.66627806      -0.00000000      -0.00000000 </v>
   </varray>
  </structure>
  <varray name="forces" >
   <v>       0.00000803      -0.00000000      -0.00000000 </v>
   <v>      -0.00000803       0.00000000       0.00000000 </v>
   <v>       0.00000803       0.00000000      -0.00000000 </v>
   <v>      -0.00000803      -0.00000000       0.00000000 </v>
  </varray>
  <varray name="stress" >
   <v>      -0.00648630       0.00000000       0.00000000 </v>
   <v>       0.00000000     -24.66733140       0.00000000 </v>
   <v>       0.00000000       0.00000000      -0.01022001 </v>
  </varray>
  <energy>
   <i name="e_fr_energy">    -36.90144392 </i>
   <i name="e_wo_entrp">    -36.90144143 </i>
   <i name="e_0_energy">     -0.00000497 </i>
  </energy>
  <time name="totalsc"> 3068.68 3074.46</time>
 </calculation>
 <calculation>
  <scstep>
   <time name="dav">  277.96  279.04</time>
   <time name="total">  313.22  314.39</time>
   <energy>
    <i name="alphaZ">      6.18334092 </i>
    <i name="ewald">   2504.55466209 </i>
    <i name="hartreedc">  -2998.70436339 </i>
    <i name="XCdc">     57.29584458 </i>
    <i name="pawpsdc">    272.12832416 </i>
    <i name="pawaedc">   -277.25471577 </i>
    <i name="eentropy">     -0.00000497 </i>
    <i name="bandstr">   -189.72805844 </i>
    <i name="atom">    588.62352690 </i>
    <i name="e_fr_energy">    -36.90144392 </i>
    <i name="e_wo_entrp">    -36.90143895 </i>
    <i name="e_0_energy">    -36.90144143 </i>
   </energy>
  </scstep>
  <scstep>
   <time name="diag">   86.34   87.13</time>
   <time name="diis">  205.36  207.57</time>
   <time name="orth">    3.08    3.08</time>
   <time name="total">  329.97  333.24</time>
   <energy>
    <i name="e_fr_energy">    -36.90144392 </i>
    <i name="e_wo_entrp">    -36.90143895 </i>
    <i name="e_0_energy">    -36.90144143 </i>
   </energy>
  </scstep>
  <scstep>
   <time name="diag">   86.30   87.17</time>
   <time name="diis">  200.16  201.56</time>
   <time name="orth">    3.08    3.10</time>
   <time name="total">  324.50  326.99</time>
   <energy>
    <i name="e_fr_energy">    -36.90144392 </i>
    <i name="e_wo_entrp">    -36.90143895 </i>
    <i name="e_0_energy">    -36.90144143 </i>
   </energy>
  </scstep>
  <scstep>
   <time name="diag">   86.58   87.14</time>
   <time name="diis">  194.47  194.80</time>
   <time name="orth">    3.10    3.10</time>
   <time name="total">  319.29  320.33</time>
   <energy>
    <i name="e_fr_energy">    -36.90144392 </i>
    <i name="e_wo_entrp">    -36.90143895 </i>
    <i name="e_0_energy">    -36.90144143 </i>
   </energy>
  </scstep>
  <scstep>
   <time name="diag">   86.87   87.16</time>
   <time name="diis">  190.82  191.34</time>
   <time name="orth">    3.09    3.10</time>
   <time name="total">  315.14  316.03</time>
   <energy>
    <i name="e_fr_energy">    -36.90144392 </i>
    <i name="e_wo_entrp">    -36.90143895 </i>
    <i name="e_0_energy">    -36.90144143 </i>
   </energy>
  </scstep>
  <scstep>
   <time name="diag">   86.87   87.13</time>
   <time name="diis">  184.61  185.99</time>
   <time name="orth">    3.08    3.08</time>
   <time name="total">  277.17  278.83</time>
   <energy>
    <i name="alphaZ">      6.18334092 </i>
    <i name="ewald">   2504.55466209 </i>
    <i name="hartreedc">  -2998.70434084 </i>
    <i name="XCdc">     57.29584443 </i>
    <i name="pawpsdc">    272.12832471 </i>
    <i name="pawaedc">   -277.25471636 </i>
    <i name="eentropy">     -0.00000497 </i>
    <i name="bandstr">   -189.72808080 </i>
    <i name="atom">    588.62352690 </i>
    <i name="e_fr_energy">    -36.90144392 </i>
    <i name="e_wo_entrp">    -36.90143895 </i>
    <i name="e_0_energy">    -36.90144143 </i>
   </energy>
  </scstep>
  <structure>
   <crystal>
    <varray name="basis" >
     <v>       4.26217166       0.00000000       0.00000000 </v>
     <v>       0.00000000       2.50394049       0.00000000 </v>
     <v>       0.00000000       0.00000000      19.75576015 </v>
    </varray>
    <i name="volume">    210.83790140 </i>
    <varray name="rec_basis" >
     <v>       0.23462218       0.00000000       0.00000000 </v>
     <v>       0.00000000       0.39937051       0.00000000 </v>
     <v>       0.00000000       0.00000000       0.05061815 </v>
    </varray>
   </crystal>
   <varray name="positions" >
    <v>       0.00038863      -0.00000000      -0.00000000 </v>
    <v>       0.16627804       0.50000000       0.00000000 </v>
    <v>       0.50038863       0.50000000      -0.00000000 </v>
    <v>       0.66627804      -0.00000000       0.00000000 </v>
   </varray>
  </structure>
  <varray name="forces" >
   <v>      -0.00001181      -0.00000000       0.00000000 </v>
   <v>       0.00001181       0.00000000      -0.00000000 </v>
   <v>      -0.00001181      -0.00000000       0.00000000 </v>
   <v>       0.00001181       0.00000000      -0.00000000 </v>
  </varray>
  <varray name="stress" >
   <v>      -0.00657639       0.00000000       0.00000000 </v>
   <v>       0.00000000     -24.66723989       0.00000000 </v>
   <v>       0.00000000       0.00000000      -0.01019923 </v>
  </varray>
  <energy>
   <i name="e_fr_energy">    -36.90144392 </i>
   <i name="e_wo_entrp">    -36.90144143 </i>
   <i name="e_0_energy">     -0.00000497 </i>
  </energy>
  <time name="totalsc"> 1983.59 1994.36</time>
 </calculation>
 <calculation>
  <scstep>
   <time name="dav">  264.25  265.60</time>
   <time name="total">  299.28  300.85</time>
   <energy>
    <i name="alphaZ">      6.18334092 </i>
    <i name="ewald">   2504.55466267 </i>
    <i name="hartreedc">  -2998.70434100 </i>
    <i name="XCdc">     57.29584445 </i>
    <i name="pawpsdc">    272.12832479 </i>
    <i name="pawaedc">   -277.25471644 </i>
    <i name="eentropy">     -0.00000497 </i>
    <i name="bandstr">   -189.72808123 </i>
    <i name="atom">    588.62352690 </i>
    <i name="e_fr_energy">    -36.90144392 </i>
    <i name="e_wo_entrp">    -36.90143895 </i>
    <i name="e_0_energy">    -36.90144143 </i>
   </energy>
  </scstep>
  <scstep>
   <time name="diag">   86.97   87.13</time>
   <time name="diis">  159.04  160.04</time>
   <time name="orth">    3.07    3.10</time>
   <time name="total">  283.74  285.08</time>
   <energy>
    <i name="e_fr_energy">    -36.90144392 </i>
    <i name="e_wo_entrp">    -36.90143895 </i>
    <i name="e_0_energy">    -36.90144143 </i>
   </energy>
  </scstep>
  <scstep>
   <time name="diag">   86.71   87.17</time>
   <time name="diis">  158.30  158.61</time>
   <time name="orth">    3.09    3.10</time>
   <time name="total">  283.44  284.32</time>
   <energy>
    <i name="e_fr_energy">    -36.90144392 </i>
    <i name="e_wo_entrp">    -36.90143895 </i>
    <i name="e_0_energy">    -36.90144143 </i>
   </energy>
  </scstep>
  <scstep>
   <time name="diag">   86.99   87.15</time>
   <time name="diis">  156.98  157.29</time>
   <time name="orth">    3.08    3.08</time>
   <time name="total">  282.42  282.94</time>
   <energy>
    <i name="e_fr_energy">    -36.90144392 </i>
    <i name="e_wo_entrp">    -36.90143895 </i>
    <i name="e_0_energy">    -36.90144143 </i>
   </energy>
  </scstep>
  <scstep>
   <time name="diag">   86.55   87.17</time>
   <time name="diis">  155.48  156.98</time>
   <time name="orth">    3.07    3.10</time>
   <time name="total">  247.75  249.91</time>
   <energy>
    <i name="alphaZ">      6.18334092 </i>
    <i name="ewald">   2504.55466267 </i>
    <i name="hartreedc">  -2998.70434401 </i>
    <i name="XCdc">     57.29584455 </i>
    <i name="pawpsdc">    272.12832792 </i>
    <i name="pawaedc">   -277.25471960 </i>
    <i name="eentropy">     -0.00000497 </i>
    <i name="bandstr">   -189.72807831 </i>
    <i name="atom">    588.62352690 </i>
    <i name="e_fr_energy">    -36.90144392 </i>
    <i name="e_wo_entrp">    -36.90143895 </i>
    <i name="e_0_energy">    -36.90144143 </i>
   </energy>
  </scstep>
  <structure>
   <crystal>
    <varray name="basis" >
     <v>       4.26217166       0.00000000       0.00000000 </v>
     <v>       0.00000000       2.50394049       0.00000000 </v>
     <v>       0.00000000       0.00000000      19.75576015 </v>
    </varray>
    <i name="volume">    210.83790140 </i>
    <varray name="rec_basis" >
     <v>       0.23462218       0.00000000       0.00000000 </v>
     <v>       0.00000000       0.39937051       0.00000000 </v>
     <v>       0.00000000       0.00000000       0.05061815 </v>
    </varray>
   </crystal>
   <varray name="positions" >
    <v>       0.00038862      -0.00000000      -0.00000000 </v>
    <v>       0.16627805       0.50000000       0.00000000 </v>
    <v>       0.50038862       0.50000000      -0.00000000 </v>
    <v>       0.66627805      -0.00000000       0.00000000 </v>
   </varray>
  </structure>
  <varray name="forces" >
   <v>      -0.00000237       0.00000000      -0.00000000 </v>
   <v>       0.00000237      -0.00000000       0.00000000 </v>
   <v>      -0.00000237      -0.00000000      -0.00000000 </v>
   <v>       0.00000237       0.00000000       0.00000000 </v>
  </varray>
  <varray name="stress" >
   <v>      -0.00654166       0.00000000       0.00000000 </v>
   <v>       0.00000000     -24.66727501       0.00000000 </v>
   <v>       0.00000000       0.00000000      -0.01018041 </v>
  </varray>
  <energy>
   <i name="e_fr_energy">    -36.90144392 </i>
   <i name="e_wo_entrp">    -36.90144143 </i>
   <i name="e_0_energy">     -0.00000497 </i>
  </energy>
  <time name="totalsc"> 1499.87 1507.13</time>
 </calculation>
 <calculation>
  <scstep>
   <time name="dav">  282.03  283.97</time>
   <time name="total">  316.97  319.34</time>
   <energy>
    <i name="alphaZ">      6.18334092 </i>
    <i name="ewald">   2504.55466282 </i>
    <i name="hartreedc">  -2998.70434410 </i>
    <i name="XCdc">     57.29584456 </i>
    <i name="pawpsdc">    272.12832793 </i>
    <i name="pawaedc">   -277.25471961 </i>
    <i name="eentropy">     -0.00000497 </i>
    <i name="bandstr">   -189.72807837 </i>
    <i name="atom">    588.62352690 </i>
    <i name="e_fr_energy">    -36.90144392 </i>
    <i name="e_wo_entrp">    -36.90143895 </i>
    <i name="e_0_energy">    -36.90144143 </i>
   </energy>
  </scstep>
  <scstep>
   <time name="diag">   86.21   87.17</time>
   <time name="diis">  143.19  144.59</time>
   <time name="orth">    3.06    3.09</time>
   <time name="total">  267.39  270.19</time>
   <energy>
    <i name="e_fr_energy">    -36.90144392 </i>
    <i name="e_wo_entrp">    -36.90143895 </i>
    <i name="e_0_energy">    -36.90144143 </i>
   </energy>
  </scstep>
  <scstep>
   <time name="diag">   86.27   87.08</time>
   <time name="diis">  150.44  151.07</time>
   <time name="orth">    3.07    3.08</time>
   <time name="total">  274.92  276.73</time>
   <energy>
    <i name="e_fr_energy">    -36.90144392 </i>
    <i name="e_wo_entrp">    -36.90143895 </i>
    <i name="e_0_energy">    -36.90144143 </i>
   </energy>
  </scstep>
  <scstep>
   <time name="diag">   86.55   87.21</time>
   <time name="diis">  139.18  140.44</time>
   <time name="orth">    3.08    3.08</time>
   <time name="total">  263.67  265.92</time>
   <energy>
    <i name="e_fr_energy">    -36.90144392 </i>
    <i name="e_wo_entrp">    -36.90143895 </i>
    <i name="e_0_energy">    -36.90144143 </i>
   </energy>
  </scstep>
  <scstep>
   <time name="diag">   86.35   87.12</time>
   <time name="diis">  135.73  135.87</time>
   <time name="orth">    3.07    3.09</time>
   <time name="total">  260.34  261.52</time>
   <energy>
    <i name="e_fr_energy">    -36.90144392 </i>
    <i name="e_wo_entrp">    -36.90143895 </i>
    <i name="e_0_energy">    -36.90144143 </i>
   </energy>
  </scstep>
  <scstep>
   <time name="diag">   86.29   87.15</time>
   <time name="diis">  127.02  128.28</time>
   <time name="orth">    3.08    3.08</time>
   <time name="total">  251.26  253.75</time>
   <energy>
    <i name="e_fr_energy">    -36.90144392 </i>
    <i name="e_wo_entrp">    -36.90143895 </i>
    <i name="e_0_energy">    -36.90144143 </i>
   </energy>
  </scstep>
  <scstep>
   <time name="diag">   86.27   87.11</time>
   <time name="diis">  137.08  138.43</time>
   <time name="orth">    3.08    3.08</time>
   <time name="total">  261.09  263.76</time>
   <energy>
    <i name="e_fr_energy">    -36.90144392 </i>
    <i name="e_wo_entrp">    -36.90143895 </i>
    <i name="e_0_energy">    -36.90144143 </i>
   </energy>
  </scstep>
  <scstep>
   <time name="diag">   86.90   87.15</time>
   <time name="diis">  124.13  124.54</time>
   <time name="orth">    3.08    3.08</time>
   <time name="total">  216.78  217.43</time>
   <energy>
    <i name="alphaZ">      6.18334092 </i>
    <i name="ewald">   2504.55466282 </i>
    <i name="hartreedc">  -2998.70434376 </i>
    <i name="XCdc">     57.29584455 </i>
    <i name="pawpsdc">    272.12832796 </i>
    <i name="pawaedc">   -277.25471964 </i>
    <i name="eentropy">     -0.00000497 </i>
    <i name="bandstr">   -189.72807869 </i>
    <i name="atom">    588.62352690 </i>
    <i name="e_fr_energy">    -36.90144392 </i>
    <i name="e_wo_entrp">    -36.90143895 </i>
    <i name="e_0_energy">    -36.90144143 </i>
   </energy>
  </scstep>
  <structure>
   <crystal>
    <varray name="basis" >
     <v>       4.26217166       0.00000000       0.00000000 </v>
     <v>       0.00000000       2.50394049       0.00000000 </v>
     <v>       0.00000000       0.00000000      19.75576015 </v>
    </varray>
    <i name="volume">    210.83790140 </i>
    <varray name="rec_basis" >
     <v>       0.23462218       0.00000000       0.00000000 </v>
     <v>       0.00000000       0.39937051       0.00000000 </v>
     <v>       0.00000000       0.00000000       0.05061815 </v>
    </varray>
   </crystal>
   <varray name="positions" >
    <v>       0.00038862      -0.00000000      -0.00000000 </v>
    <v>       0.16627805       0.50000000       0.00000000 </v>
    <v>       0.50038862       0.50000000      -0.00000000 </v>
    <v>       0.66627805      -0.00000000       0.00000000 </v>
   </varray>
  </structure>
  <varray name="forces" >
   <v>      -0.00000187      -0.00000000      -0.00000000 </v>
   <v>       0.00000187       0.00000000       0.00000000 </v>
   <v>      -0.00000187       0.00000000      -0.00000000 </v>
   <v>       0.00000187      -0.00000000       0.00000000 </v>
  </varray>
  <varray name="stress" >
   <v>      -0.00654120       0.00000000       0.00000000 </v>
   <v>       0.00000000     -24.66727111       0.00000000 </v>
   <v>       0.00000000       0.00000000      -0.01018674 </v>
  </varray>
  <energy>
   <i name="e_fr_energy">    -36.90144392 </i>
   <i name="e_wo_entrp">    -36.90144143 </i>
   <i name="e_0_energy">     -0.00000497 </i>
  </energy>
  <time name="totalsc"> 2215.51 2232.06</time>
 </calculation>
 <calculation>
  <scstep>
   <time name="dav">  262.57  263.60</time>
   <time name="total">  297.65  299.04</time>
   <energy>
    <i name="alphaZ">      6.18334092 </i>
    <i name="ewald">   2504.55466336 </i>
    <i name="hartreedc">  -2998.70434401 </i>
    <i name="XCdc">     57.29584456 </i>
    <i name="pawpsdc">    272.12832796 </i>
    <i name="pawaedc">   -277.25471964 </i>
    <i name="eentropy">     -0.00000497 </i>
    <i name="bandstr">   -189.72807901 </i>
    <i name="atom">    588.62352690 </i>
    <i name="e_fr_energy">    -36.90144392 </i>
    <i name="e_wo_entrp">    -36.90143895 </i>
    <i name="e_0_energy">    -36.90144143 </i>
   </energy>
  </scstep>
  <scstep>
   <time name="diag">   86.56   87.14</time>
   <time name="diis">  119.76  120.12</time>
   <time name="orth">    3.07    3.08</time>
   <time name="total">  244.50  245.54</time>
   <energy>
    <i name="e_fr_energy">    -36.90144392 </i>
    <i name="e_wo_entrp">    -36.90143895 </i>
    <i name="e_0_energy">    -36.90144143 </i>
   </energy>
  </scstep>
  <scstep>
   <time name="diag">   86.84   87.18</time>
   <time name="diis">  117.59  117.80</time>
   <time name="orth">    3.10    3.11</time>
   <time name="total">  243.07  243.77</time>
   <energy>
    <i name="e_fr_energy">    -36.90144392 </i>
    <i name="e_wo_entrp">    -36.90143895 </i>
    <i name="e_0_energy">    -36.90144143 </i>
   </energy>
  </scstep>
  <scstep>
   <time name="diag">   86.76   87.15</time>
   <time name="diis">  112.95  113.87</time>
   <time name="orth">    3.07    3.11</time>
   <time name="total">  237.94  239.56</time>
   <energy>
    <i name="e_fr_energy">    -36.90144392 </i>
    <i name="e_wo_entrp">    -36.90143895 </i>
    <i name="e_0_energy">    -36.90144143 </i>
   </energy>
  </scstep>
  <scstep>
   <time name="diag">   86.17   87.18</time>
   <time name="diis">  129.30  130.88</time>
   <time name="orth">    3.07    3.08</time>
   <time name="total">  253.65  256.66</time>
   <energy>
    <i name="e_fr_energy">    -36.90144392 </i>
    <i name="e_wo_entrp">    -36.90143895 </i>
    <i name="e_0_energy">    -36.90144144 </i>
   </energy>
  </scstep>
  <scstep>
   <time name="diag">   86.57   87.14</time>
   <time name="diis">  134.88  135.04</time>
   <time name="orth">    3.08    3.08</time>
   <time name="total">  259.63  260.41</time>
   <energy>
    <i name="e_fr_energy">    -36.90144392 </i>
    <i name="e_wo_entrp">    -36.90143895 </i>
    <i name="e_0_energy">    -36.90144143 </i>
   </energy>
  </scstep>
  <scstep>
   <time name="diag">   86.98   87.17</time>
   <time name="diis">  132.94  133.38</time>
   <time name="orth">    3.15    3.17</time>
   <time name="total">  258.40  259.25</time>
   <energy>
    <i name="e_fr_energy">    -36.90144392 </i>
    <i name="e_wo_entrp">    -36.90143895 </i>
    <i name="e_0_energy">    -36.90144143 </i>
   </energy>
  </scstep>
  <scstep>
   <time name="diag">   86.74   87.14</time>
   <time name="diis">  122.41  123.18</time>
   <time name="orth">    3.09    3.11</time>
   <time name="total">  247.66  248.87</time>
   <energy>
    <i name="e_fr_energy">    -36.90144392 </i>
    <i name="e_wo_entrp">    -36.90143895 </i>
    <i name="e_0_energy">    -36.90144143 </i>
   </energy>
  </scstep>
  <scstep>
   <time name="diag">   86.80   87.12</time>
   <time name="diis">  121.33  121.55</time>
   <time name="orth">    3.07    3.08</time>
   <time name="total">  213.83  214.41</time>
   <energy>
    <i name="alphaZ">      6.18334092 </i>
    <i name="ewald">   2504.55466336 </i>
    <i name="hartreedc">  -2998.70434494 </i>
    <i name="XCdc">     57.29584459 </i>
    <i name="pawpsdc">    272.12832963 </i>
    <i name="pawaedc">   -277.25472132 </i>
    <i name="eentropy">     -0.00000497 </i>
    <i name="bandstr">   -189.72807811 </i>
    <i name="atom">    588.62352690 </i>
    <i name="e_fr_energy">    -36.90144392 </i>
    <i name="e_wo_entrp">    -36.90143895 </i>
    <i name="e_0_energy">    -36.90144143 </i>
   </energy>
  </scstep>
  <structure>
   <crystal>
    <varray name="basis" >
     <v>       4.26217166       0.00000000       0.00000000 </v>
     <v>       0.00000000       2.50394049       0.00000000 </v>
     <v>       0.00000000       0.00000000      19.75576015 </v>
    </varray>
    <i name="volume">    210.83790140 </i>
    <varray name="rec_basis" >
     <v>       0.23462218       0.00000000       0.00000000 </v>
     <v>       0.00000000       0.39937051       0.00000000 </v>
     <v>       0.00000000       0.00000000       0.05061815 </v>
    </varray>
   </crystal>
   <varray name="positions" >
    <v>       0.00038861      -0.00000000      -0.00000000 </v>
    <v>       0.16627806       0.50000000       0.00000000 </v>
    <v>       0.50038861       0.50000000      -0.00000000 </v>
    <v>       0.66627806      -0.00000000       0.00000000 </v>
   </varray>
  </structure>
  <varray name="forces" >
   <v>       0.00000240      -0.00000000       0.00000000 </v>
   <v>      -0.00000240       0.00000000       0.00000000 </v>
   <v>       0.00000240       0.00000000       0.00000000 </v>
   <v>      -0.00000240      -0.00000000       0.00000000 </v>
  </varray>
  <varray name="stress" >
   <v>      -0.00652911       0.00000000       0.00000000 </v>
   <v>       0.00000000     -24.66728211       0.00000000 </v>
   <v>       0.00000000       0.00000000      -0.01018125 </v>
  </varray>
  <energy>
   <i name="e_fr_energy">    -36.90144392 </i>
   <i name="e_wo_entrp">    -36.90144143 </i>
   <i name="e_0_energy">     -0.00000497 </i>
  </energy>
  <time name="totalsc"> 2359.50 2370.88</time>
 </calculation>
 <calculation>
  <scstep>
   <time name="dav">  232.86  233.09</time>
   <time name="total">  268.54  268.80</time>
   <energy>
    <i name="alphaZ">      6.18334092 </i>
    <i name="ewald">   2504.55466306 </i>
    <i name="hartreedc">  -2998.70434482 </i>
    <i name="XCdc">     57.29584458 </i>
    <i name="pawpsdc">    272.12832963 </i>
    <i name="pawaedc">   -277.25472132 </i>
    <i name="eentropy">     -0.00000497 </i>
    <i name="bandstr">   -189.72807791 </i>
    <i name="atom">    588.62352690 </i>
    <i name="e_fr_energy">    -36.90144392 </i>
[...]
       <r>   -9.0874    1.0000 </r>
       <r>   -5.6370    1.0000 </r>
       <r>   -5.6370    1.0000 </r>
       <r>   -0.5131    0.0000 </r>
       <r>   -0.5131    0.0000 </r>
       <r>    4.8234    0.0000 </r>
       <r>    4.8234    0.0000 </r>
      </set>
      <set comment="kpoint 209">
       <r>  -18.8401    1.0000 </r>
       <r>  -17.1115    1.0000 </r>
       <r>  -13.9369    1.0000 </r>
       <r>  -12.3560    1.0000 </r>
       <r>  -12.3527    1.0000 </r>
       <r>  -10.8648    1.0000 </r>
       <r>   -6.4676    1.0000 </r>
       <r>   -4.6312    1.0000 </r>
       <r>   -0.9923    0.0000 </r>
       <r>    1.1073    0.0000 </r>
       <r>    5.1186    0.0000 </r>
       <r>    5.9075    0.0000 </r>
      </set>
      <set comment="kpoint 210">
       <r>  -18.8303    1.0000 </r>
       <r>  -17.1039    1.0000 </r>
       <r>  -14.0270    1.0000 </r>
       <r>  -12.4369    1.0000 </r>
       <r>  -12.2578    1.0000 </r>
       <r>  -10.7824    1.0000 </r>
       <r>   -6.4588    1.0000 </r>
       <r>   -4.6336    1.0000 </r>
       <r>   -1.0029    0.0000 </r>
       <r>    1.0814    0.0000 </r>
       <r>    5.1322    0.0000 </r>
       <r>    5.9237    0.0000 </r>
      </set>
      <set comment="kpoint 211">
       <r>  -18.8011    1.0000 </r>
       <r>  -17.0815    1.0000 </r>
       <r>  -14.2482    1.0000 </r>
       <r>  -12.6476    1.0000 </r>
       <r>  -12.0120    1.0000 </r>
       <r>  -10.5779    1.0000 </r>
       <r>   -6.4324    1.0000 </r>
       <r>   -4.6413    1.0000 </r>
       <r>   -1.0328    0.0000 </r>
       <r>    1.0058    0.0000 </r>
       <r>    5.1732    0.0000 </r>
       <r>    5.9718    0.0000 </r>
      </set>
      <set comment="kpoint 212">
       <r>  -18.7525    1.0000 </r>
       <r>  -17.0457    1.0000 </r>
       <r>  -14.5279    1.0000 </r>
       <r>  -12.9212    1.0000 </r>
       <r>  -11.6916    1.0000 </r>
       <r>  -10.3169    1.0000 </r>
       <r>   -6.3888    1.0000 </r>
       <r>   -4.6557    1.0000 </r>
       <r>   -1.0768    0.0000 </r>
       <r>    0.8860    0.0000 </r>
       <r>    5.2412    0.0000 </r>
       <r>    6.0507    0.0000 </r>
      </set>
      <set comment="kpoint 213">
       <r>  -18.6848    1.0000 </r>
       <r>  -16.9990    1.0000 </r>
       <r>  -14.8234    1.0000 </r>
       <r>  -13.2205    1.0000 </r>
       <r>  -11.3388    1.0000 </r>
       <r>  -10.0400    1.0000 </r>
       <r>   -6.3285    1.0000 </r>
       <r>   -4.6794    1.0000 </r>
       <r>   -1.1269    0.0000 </r>
       <r>    0.7296    0.0000 </r>
       <r>    5.3352    0.0000 </r>
       <r>    6.1591    0.0000 </r>
      </set>
      <set comment="kpoint 214">
       <r>  -18.5980    1.0000 </r>
       <r>  -16.9466    1.0000 </r>
       <r>  -15.1110    1.0000 </r>
       <r>  -13.5272    1.0000 </r>
       <r>  -10.9756    1.0000 </r>
       <r>   -9.7702    1.0000 </r>
       <r>   -6.2522    1.0000 </r>
       <r>   -4.7150    1.0000 </r>
       <r>   -1.1738    0.0000 </r>
       <r>    0.5457    0.0000 </r>
       <r>    5.4514    0.0000 </r>
       <r>    6.1808    0.0000 </r>
      </set>
      <set comment="kpoint 215">
       <r>  -18.4926    1.0000 </r>
       <r>  -16.8984    1.0000 </r>
       <r>  -15.3718    1.0000 </r>
       <r>  -13.8319    1.0000 </r>
       <r>  -10.6155    1.0000 </r>
       <r>   -9.5226    1.0000 </r>
       <r>   -6.1609    1.0000 </r>
       <r>   -4.7654    1.0000 </r>
       <r>   -1.2083    0.0000 </r>
       <r>    0.3433    0.0000 </r>
       <r>    5.5451    0.0000 </r>
       <r>    5.7926    0.0000 </r>
      </set>
      <set comment="kpoint 216">
       <r>  -18.3691    1.0000 </r>
       <r>  -16.8723    1.0000 </r>
       <r>  -15.5829    1.0000 </r>
       <r>  -14.1288    1.0000 </r>
       <r>  -10.2689    1.0000 </r>
       <r>   -9.3096    1.0000 </r>
       <r>   -6.0561    1.0000 </r>
       <r>   -4.8327    1.0000 </r>
       <r>   -1.2217    0.0000 </r>
       <r>    0.1308    0.0000 </r>
       <r>    5.3062    0.0000 </r>
       <r>    5.8284    0.0000 </r>
      </set>
      <set comment="kpoint 217">
       <r>  -18.2282    1.0000 </r>
       <r>  -16.8956    1.0000 </r>
       <r>  -15.7142    1.0000 </r>
       <r>  -14.4142    1.0000 </r>
       <r>   -9.9454    1.0000 </r>
       <r>   -9.1416    1.0000 </r>
       <r>   -5.9393    1.0000 </r>
       <r>   -4.9178    1.0000 </r>
       <r>   -1.2080    0.0000 </r>
       <r>   -0.0840    0.0000 </r>
       <r>    5.0124    0.0000 </r>
       <r>    5.8352    0.0000 </r>
      </set>
      <set comment="kpoint 218">
       <r>  -18.0708    1.0000 </r>
       <r>  -16.9880    1.0000 </r>
       <r>  -15.7443    1.0000 </r>
       <r>  -14.6849    1.0000 </r>
       <r>   -9.6543    1.0000 </r>
       <r>   -9.0276    1.0000 </r>
       <r>   -5.8126    1.0000 </r>
       <r>   -5.0201    1.0000 </r>
       <r>   -1.1632    0.0000 </r>
       <r>   -0.2943    0.0000 </r>
       <r>    4.7944    0.0000 </r>
       <r>    5.4362    0.0000 </r>
      </set>
      <set comment="kpoint 219">
       <r>  -17.8984    1.0000 </r>
       <r>  -17.1399    1.0000 </r>
       <r>  -15.6814    1.0000 </r>
       <r>  -14.9381    1.0000 </r>
       <r>   -9.4048    1.0000 </r>
       <r>   -8.9745    1.0000 </r>
       <r>   -5.6787    1.0000 </r>
       <r>   -5.1371    1.0000 </r>
       <r>   -1.0861    0.0000 </r>
       <r>   -0.4939    0.0000 </r>
       <r>    4.6666    0.0000 </r>
       <r>    5.1076    0.0000 </r>
      </set>
      <set comment="kpoint 220">
       <r>  -17.7135    1.0000 </r>
       <r>  -17.3244    1.0000 </r>
       <r>  -15.5520    1.0000 </r>
       <r>  -15.1704    1.0000 </r>
       <r>   -9.2056    1.0000 </r>
       <r>   -8.9865    1.0000 </r>
       <r>   -5.5404    1.0000 </r>
       <r>   -5.2656    1.0000 </r>
       <r>   -0.9776    0.0000 </r>
       <r>   -0.6775    0.0000 </r>
       <r>    4.6347    0.0000 </r>
       <r>    4.8594    0.0000 </r>
      </set>
      <set comment="kpoint 221">
       <r>  -17.5199    1.0000 </r>
       <r>  -17.5199    1.0000 </r>
       <r>  -15.3775    1.0000 </r>
       <r>  -15.3775    1.0000 </r>
       <r>   -9.0644    1.0000 </r>
       <r>   -9.0644    1.0000 </r>
       <r>   -5.4014    1.0000 </r>
       <r>   -5.4014    1.0000 </r>
       <r>   -0.8402    0.0000 </r>
       <r>   -0.8402    0.0000 </r>
       <r>    4.6998    0.0000 </r>
       <r>    4.6998    0.0000 </r>
      </set>
      <set comment="kpoint 222">
       <r>  -18.4312    1.0000 </r>
       <r>  -17.5632    1.0000 </r>
       <r>  -13.5701    1.0000 </r>
       <r>  -12.7772    1.0000 </r>
       <r>  -12.0171    1.0000 </r>
       <r>  -11.2669    1.0000 </r>
       <r>   -6.0214    1.0000 </r>
       <r>   -5.0982    1.0000 </r>
       <r>   -0.4998    0.0000 </r>
       <r>    0.5519    0.0000 </r>
       <r>    5.6999    0.0000 </r>
       <r>    6.4553    0.0000 </r>
      </set>
      <set comment="kpoint 223">
       <r>  -18.4217    1.0000 </r>
       <r>  -17.5545    1.0000 </r>
       <r>  -13.6605    1.0000 </r>
       <r>  -12.8642    1.0000 </r>
       <r>  -11.9212    1.0000 </r>
       <r>  -11.1792    1.0000 </r>
       <r>   -6.0138    1.0000 </r>
       <r>   -5.0956    1.0000 </r>
       <r>   -0.5167    0.0000 </r>
       <r>    0.5281    0.0000 </r>
       <r>    5.7135    0.0000 </r>
       <r>    6.4723    0.0000 </r>
      </set>
      <set comment="kpoint 224">
       <r>  -18.3930    1.0000 </r>
       <r>  -17.5286    1.0000 </r>
       <r>  -13.8835    1.0000 </r>
       <r>  -13.0805    1.0000 </r>
       <r>  -11.6823    1.0000 </r>
       <r>  -10.9614    1.0000 </r>
       <r>   -5.9914    1.0000 </r>
       <r>   -5.0882    1.0000 </r>
       <r>   -0.5655    0.0000 </r>
       <r>    0.4586    0.0000 </r>
       <r>    5.7543    0.0000 </r>
       <r>    6.5228    0.0000 </r>
      </set>
      <set comment="kpoint 225">
       <r>  -18.3455    1.0000 </r>
       <r>  -17.4859    1.0000 </r>
       <r>  -14.1674    1.0000 </r>
       <r>  -13.3595    1.0000 </r>
       <r>  -11.3727    1.0000 </r>
       <r>  -10.6819    1.0000 </r>
       <r>   -5.9545    1.0000 </r>
       <r>   -5.0771    1.0000 </r>
       <r>   -0.6409    0.0000 </r>
       <r>    0.3487    0.0000 </r>
       <r>    5.8217    0.0000 </r>
       <r>    6.6053    0.0000 </r>
      </set>
      <set comment="kpoint 226">
       <r>  -18.2793    1.0000 </r>
       <r>  -17.4276    1.0000 </r>
       <r>  -14.4720    1.0000 </r>
       <r>  -13.6629    1.0000 </r>
       <r>  -11.0347    1.0000 </r>
       <r>  -10.3821    1.0000 </r>
       <r>   -5.9040    1.0000 </r>
       <r>   -5.0642    1.0000 </r>
       <r>   -0.7349    0.0000 </r>
       <r>    0.2062    0.0000 </r>
       <r>    5.9141    0.0000 </r>
       <r>    6.7180    0.0000 </r>
      </set>
      <set comment="kpoint 227">
       <r>  -18.1948    1.0000 </r>
       <r>  -17.3552    1.0000 </r>
       <r>  -14.7771    1.0000 </r>
       <r>  -13.9723    1.0000 </r>
       <r>  -10.6903    1.0000 </r>
       <r>  -10.0844    1.0000 </r>
       <r>   -5.8410    1.0000 </r>
       <r>   -5.0520    1.0000 </r>
       <r>   -0.8379    0.0000 </r>
       <r>    0.0401    0.0000 </r>
       <r>    6.0197    0.0000 </r>
       <r>    6.4530    0.0000 </r>
      </set>
      <set comment="kpoint 228">
       <r>  -18.0926    1.0000 </r>
       <r>  -17.2721    1.0000 </r>
       <r>  -15.0705    1.0000 </r>
       <r>  -14.2779    1.0000 </r>
       <r>  -10.3533    1.0000 </r>
       <r>   -9.8038    1.0000 </r>
       <r>   -5.7670    1.0000 </r>
       <r>   -5.0437    1.0000 </r>
       <r>   -0.9397    0.0000 </r>
       <r>   -0.1403    0.0000 </r>
       <r>    5.9004    0.0000 </r>
       <r>    6.2440    0.0000 </r>
      </set>
      <set comment="kpoint 229">
       <r>  -17.9736    1.0000 </r>
       <r>  -17.1836    1.0000 </r>
       <r>  -15.3419    1.0000 </r>
       <r>  -14.5739    1.0000 </r>
       <r>  -10.0348    1.0000 </r>
       <r>   -9.5522    1.0000 </r>
       <r>   -5.6841    1.0000 </r>
       <r>   -5.0427    1.0000 </r>
       <r>   -1.0301    0.0000 </r>
       <r>   -0.3257    0.0000 </r>
       <r>    5.5055    0.0000 </r>
       <r>    5.9986    0.0000 </r>
      </set>
      <set comment="kpoint 230">
       <r>  -17.8391    1.0000 </r>
       <r>  -17.1006    1.0000 </r>
       <r>  -15.5776    1.0000 </r>
       <r>  -14.8558    1.0000 </r>
       <r>   -9.7447    1.0000 </r>
       <r>   -9.3400    1.0000 </r>
       <r>   -5.5947    1.0000 </r>
       <r>   -5.0526    1.0000 </r>
       <r>   -1.1000    0.0000 </r>
       <r>   -0.5078    0.0000 </r>
       <r>    5.1588    0.0000 </r>
       <r>    5.5718    0.0000 </r>
      </set>
      <set comment="kpoint 231">
       <r>  -17.6914    1.0000 </r>
       <r>  -17.0421    1.0000 </r>
       <r>  -15.7566    1.0000 </r>
       <r>  -15.1194    1.0000 </r>
       <r>   -9.4926    1.0000 </r>
       <r>   -9.1768    1.0000 </r>
       <r>   -5.5020    1.0000 </r>
       <r>   -5.0763    1.0000 </r>
       <r>   -1.1417    0.0000 </r>
       <r>   -0.6788    0.0000 </r>
       <r>    4.8886    0.0000 </r>
       <r>    5.2112    0.0000 </r>
      </set>
      <set comment="kpoint 232">
       <r>  -17.5340    1.0000 </r>
       <r>  -17.0359    1.0000 </r>
       <r>  -15.8502    1.0000 </r>
       <r>  -15.3599    1.0000 </r>
       <r>   -9.2876    1.0000 </r>
       <r>   -9.0707    1.0000 </r>
       <r>   -5.4093    1.0000 </r>
       <r>   -5.1155    1.0000 </r>
       <r>   -1.1500    0.0000 </r>
       <r>   -0.8315    0.0000 </r>
       <r>    4.7055    0.0000 </r>
       <r>    4.9275    0.0000 </r>
      </set>
      <set comment="kpoint 233">
       <r>  -17.3734    1.0000 </r>
       <r>  -17.1000    1.0000 </r>
       <r>  -15.8395    1.0000 </r>
       <r>  -15.5699    1.0000 </r>
       <r>   -9.1380    1.0000 </r>
       <r>   -9.0274    1.0000 </r>
       <r>   -5.3205    1.0000 </r>
       <r>   -5.1704    1.0000 </r>
       <r>   -1.1221    0.0000 </r>
       <r>   -0.9597    0.0000 </r>
       <r>    4.6165    0.0000 </r>
       <r>    4.7297    0.0000 </r>
      </set>
      <set comment="kpoint 234">
       <r>  -17.2217    1.0000 </r>
       <r>  -17.2217    1.0000 </r>
       <r>  -15.7368    1.0000 </r>
       <r>  -15.7368    1.0000 </r>
       <r>   -9.0500    1.0000 </r>
       <r>   -9.0500    1.0000 </r>
       <r>   -5.2397    1.0000 </r>
       <r>   -5.2397    1.0000 </r>
       <r>   -1.0579    0.0000 </r>
       <r>   -1.0579    0.0000 </r>
       <r>    4.6247    0.0000 </r>
       <r>    4.6247    0.0000 </r>
      </set>
      <set comment="kpoint 235">
       <r>  -18.0046    1.0000 </r>
       <r>  -18.0046    1.0000 </r>
       <r>  -13.1833    1.0000 </r>
       <r>  -13.1833    1.0000 </r>
       <r>  -11.6523    1.0000 </r>
       <r>  -11.6523    1.0000 </r>
       <r>   -5.5634    1.0000 </r>
       <r>   -5.5634    1.0000 </r>
       <r>    0.0155    0.0000 </r>
       <r>    0.0155    0.0000 </r>
       <r>    6.3111    0.0000 </r>
       <r>    6.3111    0.0000 </r>
      </set>
      <set comment="kpoint 236">
       <r>  -17.9953    1.0000 </r>
       <r>  -17.9953    1.0000 </r>
       <r>  -13.2725    1.0000 </r>
       <r>  -13.2725    1.0000 </r>
       <r>  -11.5601    1.0000 </r>
       <r>  -11.5601    1.0000 </r>
       <r>   -5.5578    1.0000 </r>
       <r>   -5.5578    1.0000 </r>
       <r>   -0.0055    0.0000 </r>
       <r>   -0.0055    0.0000 </r>
       <r>    6.3247    0.0000 </r>
       <r>    6.3247    0.0000 </r>
      </set>
      <set comment="kpoint 237">
       <r>  -17.9677    1.0000 </r>
       <r>  -17.9677    1.0000 </r>
       <r>  -13.4931    1.0000 </r>
       <r>  -13.4931    1.0000 </r>
       <r>  -11.3307    1.0000 </r>
       <r>  -11.3307    1.0000 </r>
       <r>   -5.5412    1.0000 </r>
       <r>   -5.5412    1.0000 </r>
       <r>   -0.0666    0.0000 </r>
       <r>   -0.0666    0.0000 </r>
       <r>    6.3651    0.0000 </r>
       <r>    6.3651    0.0000 </r>
      </set>
      <set comment="kpoint 238">
       <r>  -17.9219    1.0000 </r>
       <r>  -17.9219    1.0000 </r>
       <r>  -13.7760    1.0000 </r>
       <r>  -13.7760    1.0000 </r>
       <r>  -11.0350    1.0000 </r>
       <r>  -11.0350    1.0000 </r>
       <r>   -5.5144    1.0000 </r>
       <r>   -5.5144    1.0000 </r>
       <r>   -0.1625    0.0000 </r>
       <r>   -0.1625    0.0000 </r>
       <r>    6.4318    0.0000 </r>
       <r>    6.4318    0.0000 </r>
      </set>
      <set comment="kpoint 239">
       <r>  -17.8583    1.0000 </r>
       <r>  -17.8583    1.0000 </r>
       <r>  -14.0817    1.0000 </r>
       <r>  -14.0817    1.0000 </r>
       <r>  -10.7147    1.0000 </r>
       <r>  -10.7147    1.0000 </r>
       <r>   -5.4786    1.0000 </r>
       <r>   -5.4786    1.0000 </r>
       <r>   -0.2853    0.0000 </r>
       <r>   -0.2853    0.0000 </r>
       <r>    6.5208    0.0000 </r>
       <r>    6.5208    0.0000 </r>
      </set>
      <set comment="kpoint 240">
       <r>  -17.7778    1.0000 </r>
       <r>  -17.7778    1.0000 </r>
       <r>  -14.3914    1.0000 </r>
       <r>  -14.3914    1.0000 </r>
       <r>  -10.3922    1.0000 </r>
       <r>  -10.3922    1.0000 </r>
       <r>   -5.4356    1.0000 </r>
       <r>   -5.4356    1.0000 </r>
       <r>   -0.4260    0.0000 </r>
       <r>   -0.4260    0.0000 </r>
       <r>    6.5730    0.0000 </r>
       <r>    6.5730    0.0000 </r>
      </set>
      <set comment="kpoint 241">
       <r>  -17.6816    1.0000 </r>
       <r>  -17.6816    1.0000 </r>
       <r>  -14.6948    1.0000 </r>
       <r>  -14.6948    1.0000 </r>
       <r>  -10.0818    1.0000 </r>
       <r>  -10.0818    1.0000 </r>
       <r>   -5.3877    1.0000 </r>
       <r>   -5.3877    1.0000 </r>
       <r>   -0.5744    0.0000 </r>
       <r>   -0.5744    0.0000 </r>
       <r>    6.1819    0.0000 </r>
       <r>    6.1819    0.0000 </r>
      </set>
      <set comment="kpoint 242">
       <r>  -17.5715    1.0000 </r>
       <r>  -17.5715    1.0000 </r>
       <r>  -14.9850    1.0000 </r>
       <r>  -14.9850    1.0000 </r>
       <r>   -9.7949    1.0000 </r>
       <r>   -9.7949    1.0000 </r>
       <r>   -5.3377    1.0000 </r>
       <r>   -5.3377    1.0000 </r>
       <r>   -0.7209    0.0000 </r>
       <r>   -0.7209    0.0000 </r>
       <r>    5.7354    0.0000 </r>
       <r>    5.7354    0.0000 </r>
      </set>
      <set comment="kpoint 243">
       <r>  -17.4511    1.0000 </r>
       <r>  -17.4511    1.0000 </r>
       <r>  -15.2556    1.0000 </r>
       <r>  -15.2556    1.0000 </r>
       <r>   -9.5419    1.0000 </r>
       <r>   -9.5419    1.0000 </r>
       <r>   -5.2892    1.0000 </r>
       <r>   -5.2892    1.0000 </r>
       <r>   -0.8562    0.0000 </r>
       <r>   -0.8562    0.0000 </r>
       <r>    5.3457    0.0000 </r>
       <r>    5.3457    0.0000 </r>
      </set>
      <set comment="kpoint 244">
       <r>  -17.3264    1.0000 </r>
       <r>  -17.3264    1.0000 </r>
       <r>  -15.4987    1.0000 </r>
       <r>  -15.4987    1.0000 </r>
       <r>   -9.3326    1.0000 </r>
       <r>   -9.3326    1.0000 </r>
       <r>   -5.2458    1.0000 </r>
       <r>   -5.2458    1.0000 </r>
       <r>   -0.9718    0.0000 </r>
       <r>   -0.9718    0.0000 </r>
       <r>    5.0280    0.0000 </r>
       <r>    5.0280    0.0000 </r>
      </set>
      <set comment="kpoint 245">
       <r>  -17.2086    1.0000 </r>
       <r>  -17.2086    1.0000 </r>
       <r>  -15.7018    1.0000 </r>
       <r>  -15.7018    1.0000 </r>
       <r>   -9.1756    1.0000 </r>
       <r>   -9.1756    1.0000 </r>
       <r>   -5.2113    1.0000 </r>
       <r>   -5.2113    1.0000 </r>
       <r>   -1.0604    0.0000 </r>
       <r>   -1.0604    0.0000 </r>
       <r>    4.7929    0.0000 </r>
       <r>    4.7929    0.0000 </r>
      </set>
      <set comment="kpoint 246">
       <r>  -17.1180    1.0000 </r>
       <r>  -17.1180    1.0000 </r>
       <r>  -15.8438    1.0000 </r>
       <r>  -15.8438    1.0000 </r>
       <r>   -9.0782    1.0000 </r>
       <r>   -9.0782    1.0000 </r>
       <r>   -5.1891    1.0000 </r>
       <r>   -5.1891    1.0000 </r>
       <r>   -1.1160    0.0000 </r>
       <r>   -1.1160    0.0000 </r>
       <r>    4.6483    0.0000 </r>
       <r>    4.6483    0.0000 </r>
      </set>
      <set comment="kpoint 247">
       <r>  -17.0827    1.0000 </r>
       <r>  -17.0827    1.0000 </r>
       <r>  -15.8964    1.0000 </r>
       <r>  -15.8964    1.0000 </r>
       <r>   -9.0451    1.0000 </r>
       <r>   -9.0451    1.0000 </r>
       <r>   -5.1814    1.0000 </r>
       <r>   -5.1814    1.0000 </r>
       <r>   -1.1350    0.0000 </r>
       <r>   -1.1350    0.0000 </r>
       <r>    4.5995    0.0000 </r>
       <r>    4.5995    0.0000 </r>
      </set>
     </set>
    </set>
   </array>
  </eigenvalues>
  <separator name="orbital magnetization" >
   <v name="MAGDIPOLOUT">      0.00000000      0.00000000      0.00000000</v>
  </separator>
 </calculation>
 <structure name="finalpos" >
  <crystal>
   <varray name="basis" >
    <v>       4.26217166       0.00000000       0.00000000 </v>
    <v>       0.00000000       2.50394049       0.00000000 </v>
    <v>       0.00000000       0.00000000      19.75576015 </v>
   </varray>
   <i name="volume">    210.83790140 </i>
   <varray name="rec_basis" >
    <v>       0.23462218       0.00000000       0.00000000 </v>
    <v>       0.00000000       0.39937051       0.00000000 </v>
    <v>       0.00000000       0.00000000       0.05061815 </v>
   </varray>
  </crystal>
  <varray name="positions" >
   <v>       0.00038861      -0.00000000      -0.00000000 </v>
   <v>       0.16627806       0.50000000       0.00000000 </v>
   <v>       0.50038861       0.50000000      -0.00000000 </v>
   <v>       0.66627806      -0.00000000       0.00000000 </v>
  </varray>
 </structure>
</modeling>
