gr                                      
           1
     4.262172    0.000000    0.000000
     0.000000    2.503940    0.000000
     0.000000    0.000000   19.755760
   C 
   4
Direct configuration=     1
   0.00039382  0.00000000  0.00000000
   0.16627284  0.50000000  0.00000000
   0.50039382  0.50000000  0.00000000
   0.66627284  0.00000000  0.00000000
Direct configuration=     2
   0.00036735  0.00000000 -0.00000000
   0.16629931  0.50000000  0.00000000
   0.50036735  0.50000000 -0.00000000
   0.66629931  0.00000000  0.00000000
Direct configuration=     3
   0.00038861  0.00000000  0.00000000
   0.16627806  0.50000000 -0.00000000
   0.50038861  0.50000000  0.00000000
   0.66627806 -0.00000000 -0.00000000
Direct configuration=     4
   0.00038863 -0.00000000 -0.00000000
   0.16627804  0.50000000  0.00000000
   0.50038863  0.50000000 -0.00000000
   0.66627804 -0.00000000  0.00000000
Direct configuration=     5
   0.00038862 -0.00000000 -0.00000000
   0.16627805  0.50000000  0.00000000
   0.50038862  0.50000000 -0.00000000
   0.66627805 -0.00000000  0.00000000
Direct configuration=     6
   0.00038862 -0.00000000 -0.00000000
   0.16627805  0.50000000  0.00000000
   0.50038862  0.50000000 -0.00000000
   0.66627805 -0.00000000  0.00000000
Direct configuration=     7
   0.00038861 -0.00000000 -0.00000000
   0.16627806  0.50000000  0.00000000
   0.50038861  0.50000000 -0.00000000
   0.66627806 -0.00000000  0.00000000
Direct configuration=     8
   0.00038861 -0.00000000 -0.00000000
   0.16627806  0.50000000  0.00000000
   0.50038861  0.50000000 -0.00000000
   0.66627806 -0.00000000  0.00000000
Direct configuration=     9
   0.00038861 -0.00000000 -0.00000000
   0.16627806  0.50000000  0.00000000
   0.50038861  0.50000000 -0.00000000
   0.66627806 -0.00000000  0.00000000
Direct configuration=    10
   0.00038861 -0.00000000 -0.00000000
   0.16627806  0.50000000  0.00000000
   0.50038861  0.50000000 -0.00000000
   0.66627806 -0.00000000  0.00000000
