    4    4  400    1
  0.5270948E+02  0.4269470E-09  0.2479390E-09  0.1991727E-08  0.5000000E-15
  1.000000000000000E-004
  CAR 
 gr                                      
     16    247     12
 
  0.0000000E+00  0.0000000E+00  0.0000000E+00  0.1157407E-02
    1      -22.219467
    2      -16.957147
    3      -15.950877
    4      -10.332539
    5       -9.225528
    6       -5.830788
    7       -5.774366
    8       -5.069045
    9       -1.086748
   10        0.527923
   11        1.328448
   12        1.713401
 
  0.4166667E-01  0.0000000E+00  0.0000000E+00  0.2314815E-02
    1      -22.209192
    2      -17.127795
    3      -15.765012
    4      -10.320279
    5       -9.215294
    6       -5.853595
    7       -5.816613
    8       -5.136252
    9       -1.003779
   10        0.541858
   11        1.342557
   12        1.727682
 
  0.8333333E-01  0.0000000E+00  0.0000000E+00  0.2314815E-02
    1      -22.178371
    2      -17.470736
    3      -15.376501
    4      -10.283520
    5       -9.184645
    6       -5.941654
    7       -5.920742
    8       -5.322495
    9       -0.770422
   10        0.583663
   11        1.384881
   12        1.770525
 
  0.1250000E+00  0.0000000E+00  0.0000000E+00  0.2314815E-02
    1      -22.127025
    2      -17.850624
    3      -14.920959
    4      -10.222319
    5       -9.133732
    6       -6.144676
    7       -6.028627
    8       -5.593740
    9       -0.421232
   10        0.653343
   11        1.455406
   12        1.841932
 
  0.1666667E+00  0.0000000E+00  0.0000000E+00  0.2314815E-02
    1      -22.055188
    2      -18.231972
    3      -14.434318
    4      -10.136772
    5       -9.062817
    6       -6.418477
    7       -6.171896
    8       -5.916520
    9        0.009448
   10        0.750897
   11        1.554113
   12        1.941902
 
  0.2083333E+00  0.0000000E+00  0.0000000E+00  0.2314815E-02
    1      -21.962908
    2      -18.604048
    3      -13.927962
    4      -10.027021
    5       -8.972277
    6       -6.754417
    7       -6.344170
    8       -6.266118
    9        0.495650
   10        0.876323
   11        1.680967
   12        2.070436
 
  0.2500000E+00  0.0000000E+00  0.0000000E+00  0.2314815E-02
    1      -21.850248
    2      -18.962551
    3      -13.407047
    4       -9.893255
    5       -8.862617
    6       -7.143316
    7       -6.626169
    8       -6.538740
    9        1.019341
   10        1.029604
   11        1.835920
   12        2.227534
 
  0.2916667E+00  0.0000000E+00  0.0000000E+00  0.2314815E-02
    1      -21.717289
    2      -19.305349
    3      -12.874799
    4       -9.735717
    5       -8.734487
    6       -7.576145
    7       -6.986096
    8       -6.749096
    9        1.210715
   10        1.567798
   11        2.018896
   12        2.413191
 
  0.3333333E+00  0.0000000E+00  0.0000000E+00  0.2314815E-02
    1      -21.564128
    2      -19.631205
    3      -12.333812
    4       -9.554718
    5       -8.588702
    6       -8.044480
    7       -7.338979
    8       -6.969256
    9        1.419616
   10        2.131261
   11        2.229779
   12        2.627402
 
  0.3750000E+00  0.0000000E+00  0.0000000E+00  0.2314815E-02
    1      -21.390880
    2      -19.939315
    3      -11.786553
    4       -9.350645
    5       -8.540728
    6       -8.426272
    7       -7.680162
    8       -7.193937
    9        1.656255
   10        2.468361
   11        2.700733
   12        2.870158
 
  0.4166667E+00  0.0000000E+00  0.0000000E+00  0.2314815E-02
    1      -21.197678
    2      -20.229107
    3      -11.235604
    4       -9.123985
    5       -9.058205
    6       -8.248436
    7       -8.006416
    8       -7.418579
    9        1.920556
   10        2.734224
   11        3.141441
   12        3.251309
 
  0.4583333E+00  0.0000000E+00  0.0000000E+00  0.2314815E-02
    1      -20.984687
    2      -20.500148
    3      -10.683812
    4       -9.591100
    5       -8.875346
    6       -8.315429
    7       -8.056709
    8       -7.639320
    9        2.212415
   10        2.878128
   11        3.026274
   12        3.441220
 
  0.5000000E+00  0.0000000E+00  0.0000000E+00  0.1157407E-02
    1      -20.752100
    2      -20.752100
    3      -10.134406
    4      -10.134406
    5       -8.605499
    6       -8.605499
    7       -7.852927
    8       -7.852927
    9        2.531685
   10        2.531685
   11        3.340031
   12        3.340031
 
  0.0000000E+00  0.2777778E-01  0.0000000E+00  0.2314815E-02
    1      -22.205934
    2      -16.945523
    3      -15.939522
    4      -10.316393
    5       -9.286425
    6       -5.886905
    7       -5.804991
    8       -5.052593
    9       -1.091145
   10        0.546269
   11        1.347040
   12        1.732219
 
  0.4166667E-01  0.2777778E-01  0.0000000E+00  0.4629630E-02
    1      -22.195660
    2      -17.116010
    3      -15.753870
    4      -10.304138
    5       -9.276173
    6       -5.917828
    7       -5.838434
    8       -5.119952
    9       -1.008145
   10        0.560204
   11        1.361148
   12        1.746500
 
  0.8333333E-01  0.2777778E-01  0.0000000E+00  0.4629630E-02
    1      -22.164843
    2      -17.458702
    3      -15.365770
    4      -10.267391
    5       -9.245464
    6       -6.019892
    7       -5.926623
    8       -5.306541
    9       -0.774807
   10        0.602012
   11        1.403469
   12        1.789344
 
  0.1250000E+00  0.2777778E-01  0.0000000E+00  0.4629630E-02
    1      -22.113505
    2      -17.838367
    3      -14.910726
    4      -10.206211
    5       -9.194448
    6       -6.205772
    7       -6.048789
    8       -5.578138
    9       -0.425874
   10        0.671696
   11        1.473990
   12        1.860751
 
  0.1666667E+00  0.2777778E-01  0.0000000E+00  0.4629630E-02
    1      -22.041678
    2      -18.219524
    3      -14.424675
    4      -10.120695
    5       -9.123380
    6       -6.467928
    7       -6.200317
    8       -5.901175
    9        0.004208
   10        0.769257
   11        1.572690
   12        1.960723
 
  0.2083333E+00  0.2777778E-01  0.0000000E+00  0.4629630E-02
    1      -21.949412
    2      -18.591436
    3      -13.919020
    4      -10.010982
    5       -9.032625
    6       -6.794408
    7       -6.378512
    8       -6.250921
    9        0.489455
   10        0.894691
   11        1.699537
   12        2.089259
 
  0.2500000E+00  0.2777778E-01  0.0000000E+00  0.4629630E-02
    1      -21.836770
    2      -18.949798
    3      -13.398941
    4       -9.877263
    5       -8.922677
    6       -7.175076
    7       -6.611029
    8       -6.577897
    9        1.011861
   10        1.047983
   11        1.854481
   12        2.246359
 
  0.2916667E+00  0.2777778E-01  0.0000000E+00  0.4629630E-02
    1      -21.703833
    2      -19.292474
    3      -12.867692
    4       -9.719780
    5       -8.794167
    6       -7.600717
    7       -6.970949
    8       -6.792316
    9        1.229106
   10        1.558747
   11        2.037449
   12        2.432019
 
  0.3333333E+00  0.2777778E-01  0.0000000E+00  0.4629630E-02
    1      -21.550698
    2      -19.618226
    3      -12.327904
    4       -9.538845
    5       -8.647889
    6       -8.062853
    7       -7.323783
    8       -7.015914
    9        1.438021
   10        2.120430
   11        2.248324
   12        2.646235
 
  0.3750000E+00  0.2777778E-01  0.0000000E+00  0.4629630E-02
    1      -21.377480
    2      -19.926247
    3      -11.782087
    4       -9.334844
    5       -8.553832
    6       -8.484826
    7       -7.664892
    8       -7.243474
    9        1.674676
   10        2.486905
   11        2.688115
   12        2.888996
 
  0.4166667E+00  0.2777778E-01  0.0000000E+00  0.4629630E-02
    1      -21.184315
    2      -20.215961
    3      -11.232877
    4       -9.108263
    5       -9.066879
    6       -8.306186
    7       -7.991059
    8       -7.470500
    9        1.938995
   10        2.752778
   11        3.160288
   12        3.247991
 
  0.4583333E+00  0.2777778E-01  0.0000000E+00  0.4629630E-02
    1      -20.971366
    2      -20.486935
    3      -10.683186
    4       -9.596080
    5       -8.859711
    6       -8.299978
    7       -8.113442
    8       -7.693196
    9        2.230878
   10        2.896686
   11        3.044859
   12        3.460080
 
  0.5000000E+00  0.2777778E-01  0.0000000E+00  0.2314815E-02
    1      -20.738830
    2      -20.738830
    3      -10.136319
    4      -10.136319
    5       -8.589955
    6       -8.589955
    7       -7.908387
    8       -7.908387
    9        2.550183
   10        2.550183
   11        3.358605
   12        3.358605
 
  0.0000000E+00  0.5555556E-01  0.0000000E+00  0.2314815E-02
    1      -22.165345
    2      -16.910656
    3      -15.905617
    4      -10.267989
    5       -9.464220
    6       -6.050814
    7       -5.896072
    8       -5.003257
    9       -1.105159
   10        0.601311
   11        1.402809
   12        1.788675
 
  0.4166667E-01  0.5555556E-01  0.0000000E+00  0.4629630E-02
    1      -22.155075
    2      -17.080672
    3      -15.720600
    4      -10.255747
    5       -9.453904
    6       -6.088721
    7       -5.920525
    8       -5.071085
    9       -1.022060
   10        0.615248
   11        1.416914
   12        1.802956
 
  0.8333333E-01  0.5555556E-01  0.0000000E+00  0.4629630E-02
    1      -22.124271
    2      -17.422623
    3      -15.333738
    4      -10.219039
    5       -9.423001
    6       -6.199783
    7       -5.994042
    8       -5.258739
    9       -0.788770
   10        0.657061
   11        1.459226
   12        1.845801
 
  0.1250000E+00  0.5555556E-01  0.0000000E+00  0.4629630E-02
    1      -22.072955
    2      -17.801620
    3      -14.880210
    4      -10.157924
    5       -9.371647
    6       -6.379013
    7       -6.114426
    8       -5.531416
    9       -0.440615
   10        0.726754
   11        1.529733
   12        1.917210
 
  0.1666667E+00  0.5555556E-01  0.0000000E+00  0.4629630E-02
    1      -22.001161
    2      -18.182202
    3      -14.395968
    4      -10.072498
    5       -9.300075
    6       -6.621950
    7       -6.275147
    8       -5.855237
    9       -0.012358
   10        0.824330
   11        1.628413
   12        2.017185
 
  0.2083333E+00  0.5555556E-01  0.0000000E+00  0.4629630E-02
    1      -21.908937
    2      -18.553620
    3      -13.892470
    4       -9.962902
    5       -9.208619
    6       -6.924100
    7       -6.467146
    8       -6.205428
    9        0.469975
   10        0.949785
   11        1.755236
   12        2.145726
 
  0.2500000E+00  0.5555556E-01  0.0000000E+00  0.4629630E-02
    1      -21.796348
    2      -18.911558
    3      -13.374972
    4       -9.829326
    5       -9.097725
    6       -7.279849
    7       -6.681249
    8       -6.565705
    9        0.988457
   10        1.103103
   11        1.910153
   12        2.302832
 
  0.2916667E+00  0.5555556E-01  0.0000000E+00  0.4629630E-02
    1      -21.663477
    2      -19.253869
    3      -12.846822
    4       -9.672012
    5       -8.967968
    6       -7.682361
    7       -6.925600
    8       -6.909427
    9        1.284258
   10        1.530543
   11        2.093092
   12        2.488501
 
  0.3333333E+00  0.5555556E-01  0.0000000E+00  0.4629630E-02
    1      -21.510420
    2      -19.579307
    3      -12.310770
    4       -9.491272
    5       -8.820068
    6       -8.124163
    7       -7.278282
    8       -7.145049
    9        1.493209
   10        2.086764
   11        2.303945
   12        2.702727
 
  0.3750000E+00  0.5555556E-01  0.0000000E+00  0.4629630E-02
    1      -21.337295
    2      -19.887057
    3      -11.769471
    4       -9.287490
    5       -8.654916
    6       -8.597819
    7       -7.619164
    8       -7.382725
    9        1.729903
   10        2.542517
   11        2.648847
   12        2.945503
 
  0.4166667E+00  0.5555556E-01  0.0000000E+00  0.4629630E-02
    1      -21.144239
    2      -20.176538
    3      -11.225740
    4       -9.096377
    5       -9.061152
    6       -8.473602
    7       -7.945062
    8       -7.618069
    9        1.994268
   10        2.808420
   11        3.205705
   12        3.216814
 
  0.4583333E+00  0.5555556E-01  0.0000000E+00  0.4629630E-02
    1      -20.931418
    2      -20.447310
    3      -10.682711
    4       -9.613586
    5       -8.812862
    6       -8.277456
    7       -8.253695
    8       -7.847503
    9        2.286208
   10        2.952235
   11        3.100603
   12        3.516639
 
  0.5000000E+00  0.5555556E-01  0.0000000E+00  0.2314815E-02
    1      -20.699031
    2      -20.699031
    3      -10.143953
    4      -10.143953
    5       -8.543384
    6       -8.543384
    7       -8.068099
    8       -8.068099
    9        2.605595
   10        2.605595
   11        3.414305
   12        3.414305
 
  0.0000000E+00  0.8333333E-01  0.0000000E+00  0.2314815E-02
    1      -22.097735
    2      -16.852556
    3      -15.849681
    4      -10.187427
    5       -9.745566
    6       -6.310521
    7       -6.045286
    8       -4.921098
    9       -1.131260
   10        0.693065
   11        1.495733
   12        1.882771
 
  0.4166667E-01  0.8333333E-01  0.0000000E+00  0.4629630E-02
    1      -22.087473
    2      -17.021828
    3      -15.665697
    4      -10.175207
    5       -9.735126
    6       -6.352466
    7       -6.062514
    8       -4.989756
    9       -1.047968
   10        0.707002
   11        1.509833
   12        1.897052
 
  0.8333333E-01  0.8333333E-01  0.0000000E+00  0.4629630E-02
    1      -22.056691
    2      -17.362573
    3      -15.280920
    4      -10.138566
    5       -9.703841
    6       -6.470056
    7       -6.120462
    8       -5.179283
    9       -0.814717
   10        0.748817
   11        1.552129
   12        1.939897
 
  0.1250000E+00  0.8333333E-01  0.0000000E+00  0.4629630E-02
    1      -22.005413
    2      -17.740461
    3      -14.830005
    4      -10.077562
    5       -9.651824
    6       -6.649272
    7       -6.227327
    8       -5.453840
    9       -0.467876
   10        0.818516
   11        1.622609
   12        2.011308
 
  0.1666667E+00  0.8333333E-01  0.0000000E+00  0.4629630E-02
    1      -21.933672
    2      -18.120080
    3      -14.348915
    4       -9.992292
    5       -9.579260
    6       -6.880314
    7       -6.383694
    8       -5.779011
    9       -0.042752
   10        0.916105
   11        1.721253
   12        2.111286
 
  0.2083333E+00  0.8333333E-01  0.0000000E+00  0.4629630E-02
    1      -21.841519
    2      -18.490668
    3      -13.849211
    4       -9.882896
    5       -9.486420
    6       -7.157929
    7       -6.582996
    8       -6.129954
    9        0.434565
   10        1.041580
   11        1.848030
   12        2.239833
 
  0.2500000E+00  0.8333333E-01  0.0000000E+00  0.4629630E-02
    1      -21.729020
    2      -18.847893
    3      -13.336294
    4       -9.749565
    5       -9.373658
    6       -7.479715
    7       -6.814211
    8       -6.490505
    9        0.946294
   10        1.194928
   11        2.002894
   12        2.396947
 
  0.2916667E+00  0.8333333E-01  0.0000000E+00  0.4629630E-02
    1      -21.596259
    2      -19.189591
    3      -12.813698
    4       -9.592542
    5       -9.241426
    6       -7.844136
    7       -7.064882
    8       -6.850340
    9        1.376118
   10        1.480111
   11        2.185779
   12        2.582627
 
  0.3333333E+00  0.8333333E-01  0.0000000E+00  0.4629630E-02
    1      -21.443333
    2      -19.514500
    3      -12.284406
    4       -9.412136
    5       -9.090284
    6       -8.248648
    7       -7.323885
    8       -7.202748
    9        1.585111
   10        2.026862
   11        2.396583
   12        2.796867
 
  0.3750000E+00  0.8333333E-01  0.0000000E+00  0.4629630E-02
    1      -21.270363
    2      -19.821794
    3      -11.751376
    4       -9.208732
    5       -8.920911
    6       -8.688872
    7       -7.582884
    8       -7.543227
    9        1.821850
   10        2.578938
   11        2.635133
   12        3.039660
 
  0.4166667E+00  0.8333333E-01  0.0000000E+00  0.4629630E-02
    1      -21.077489
    2      -20.110883
    3      -11.217803
    4       -9.159008
    5       -8.982811
    6       -8.734130
    7       -7.868654
    8       -7.836262
    9        2.086265
   10        2.901082
   11        3.128070
   12        3.310996
 
  0.4583333E+00  0.8333333E-01  0.0000000E+00  0.4629630E-02
    1      -20.864884
    2      -20.381318
    3      -10.687295
    4       -9.652748
    5       -8.734974
    6       -8.530927
    7       -8.176789
    8       -8.080317
    9        2.378264
   10        3.044499
   11        3.193457
   12        3.610874
 
  0.5000000E+00  0.8333333E-01  0.0000000E+00  0.2314815E-02
    1      -20.632747
    2      -20.632747
    3      -10.164009
    4      -10.164009
    5       -8.465979
    6       -8.465979
    7       -8.312499
    8       -8.312499
    9        2.697730
   10        2.697730
   11        3.507044
   12        3.507044
 
  0.0000000E+00  0.1111111E+00  0.0000000E+00  0.2314815E-02
    1      -22.003168
    2      -16.771245
    3      -15.772693
    4      -10.111830
    5      -10.074879
    6       -6.649603
    7       -6.248930
    8       -4.806218
    9       -1.173515
   10        0.821548
   11        1.625775
   12        2.014511
 
  0.4166667E-01  0.1111111E+00  0.0000000E+00  0.4629630E-02
    1      -21.992915
    2      -16.939567
    3      -15.590104
    4      -10.101172
    5      -10.062691
    6       -6.694531
    7       -6.259037
    8       -4.876151
    9       -1.089878
   10        0.835482
   11        1.639866
   12        2.028792
 
  0.8333333E-01  0.1111111E+00  0.0000000E+00  0.4629630E-02
    1      -21.962166
    2      -17.278684
    3      -15.208307
    4      -10.069221
    5      -10.026147
    6       -6.817972
    7       -6.299309
    8       -5.068526
    9       -0.856573
   10        0.877289
   11        1.682136
   12        2.071636
 
  0.1250000E+00  0.1111111E+00  0.0000000E+00  0.4629630E-02
    1      -21.910940
    2      -17.655027
    3      -14.761260
    4      -10.016039
    5       -9.965305
    6       -7.000285
    7       -6.385179
    8       -5.345897
    9       -0.511581
   10        0.946980
   11        1.752573
   12        2.143046
 
  0.1666667E+00  0.1111111E+00  0.0000000E+00  0.4629630E-02
    1      -21.839275
    2      -18.033286
    3      -14.284931
    4       -9.941731
    5       -9.880262
    6       -7.227124
    7       -6.523970
    8       -5.673046
    9       -0.091011
   10        1.044565
   11        1.851157
   12        2.243025
 
  0.2083333E+00  0.1111111E+00  0.0000000E+00  0.4629630E-02
    1      -21.747222
    2      -18.402698
    3      -13.791049
    4       -9.846439
    5       -9.771160
    6       -7.489981
    7       -6.714606
    8       -6.025062
    9        0.378987
   10        1.170045
   11        1.977858
   12        2.371575
 
  0.2500000E+00  0.1111111E+00  0.0000000E+00  0.4629630E-02
    1      -21.634850
    2      -18.758910
    3      -13.285266
    4       -9.730338
    5       -9.638187
    6       -7.784591
    7       -6.949778
    8       -6.385975
    9        0.880868
   10        1.323407
   11        2.132631
   12        2.528696
 
  0.2916667E+00  0.1111111E+00  0.0000000E+00  0.4629630E-02
    1      -21.502241
    2      -19.099736
    3      -12.771455
    4       -9.593631
    5       -9.481590
    6       -8.109937
    7       -7.217791
    8       -6.745685
    9        1.402628
   10        1.504622
   11        2.315416
   12        2.714385
 
  0.3333333E+00  0.1111111E+00  0.0000000E+00  0.4629630E-02
    1      -21.349500
    2      -19.423896
    3      -12.253051
    4       -9.436540
    5       -9.301674
    6       -8.467114
    7       -7.504579
    8       -7.097657
    9        1.713644
   10        1.935510
   11        2.526124
   12        2.928638
 
  0.3750000E+00  0.1111111E+00  0.0000000E+00  0.4629630E-02
    1      -21.176748
    2      -19.730544
    3      -11.733598
    4       -9.259290
    5       -9.098825
    6       -8.857515
    7       -7.796279
    8       -7.437519
    9        1.950415
   10        2.472547
   11        2.764613
   12        3.171449
 
  0.4166667E+00  0.1111111E+00  0.0000000E+00  0.4629630E-02
    1      -20.984133
    2      -20.019076
    3      -11.217051
    4       -9.280794
    5       -9.062101
    6       -8.873519
    7       -8.081769
    8       -7.762235
    9        2.214861
   10        3.007414
   11        3.030604
   12        3.442807
 
  0.4583333E+00  0.1111111E+00  0.0000000E+00  0.4629630E-02
    1      -20.771831
    2      -20.289032
    3      -10.707973
    4       -9.733892
    5       -8.845202
    6       -8.626352
    7       -8.353888
    8       -8.069624
    9        2.506891
   10        3.173219
   11        3.323297
   12        3.529688
 
  0.5000000E+00  0.1111111E+00  0.0000000E+00  0.2314815E-02
    1      -20.540048
    2      -20.540048
    3      -10.211628
    4      -10.211628
    5       -8.608910
    6       -8.608910
    7       -8.358071
    8       -8.358071
    9        2.826393
   10        2.826393
   11        3.636442
   12        3.636442
 
  0.0000000E+00  0.1388889E+00  0.0000000E+00  0.2314815E-02
    1      -21.881731
    2      -16.666751
    3      -15.676320
    4      -10.542381
    5       -9.930590
    6       -7.050520
    7       -6.502183
    8       -4.658761
    9       -1.237456
   10        0.986769
   11        1.792878
   12        2.183899
 
  0.4166667E-01  0.1388889E+00  0.0000000E+00  0.4629630E-02
    1      -21.871492
    2      -16.834025
    3      -15.495434
    4      -10.531355
    5       -9.918447
    6       -7.098137
    7       -6.504768
    8       -4.730562
    9       -1.153208
   10        1.000696
   11        1.806955
   12        2.198179
 
  0.8333333E-01  0.1388889E+00  0.0000000E+00  0.4629630E-02
    1      -21.840783
    2      -17.171166
    3      -15.117621
    4      -10.498270
    5       -9.882035
    6       -7.227431
    7       -6.525285
    8       -4.927043
    9       -0.919565
   10        1.042482
   11        1.849185
   12        2.241020
 
  0.1250000E+00  0.1388889E+00  0.0000000E+00  0.4629630E-02
    1      -21.789626
    2      -17.545534
    3      -14.676018
    4      -10.443097
    5       -9.821413
    6       -7.414613
    7       -6.584979
    8       -5.208368
    9       -0.576896
   10        1.112143
   11        1.919553
   12        2.312426
 
  0.1666667E+00  0.1388889E+00  0.0000000E+00  0.4629630E-02
    1      -21.718059
    2      -17.922024
    3      -14.206589
    4      -10.365778
    5       -9.736679
    6       -7.642009
    7       -6.696856
    8       -5.538219
    9       -0.162398
   10        1.209695
   11        2.018039
   12        2.412401
 
  0.2083333E+00  0.1388889E+00  0.0000000E+00  0.4629630E-02
    1      -21.626136
    2      -18.289893
    3      -13.721343
    4      -10.266201
    5       -9.627976
    6       -7.898646
    7       -6.864846
    8       -5.891640
    9        0.297771
   10        1.335148
   11        2.144612
   12        2.540949
 
  0.2500000E+00  0.1388889E+00  0.0000000E+00  0.4629630E-02
    1      -21.513926
    2      -18.644773
    3      -13.226394
    4      -10.144173
    5       -9.495494
    6       -8.178020
    7       -7.086154
    8       -6.252968
    9        0.786451
   10        1.488493
   11        2.299229
   12        2.698071
 
  0.2916667E+00  0.1388889E+00  0.0000000E+00  0.4629630E-02
    1      -21.381517
    2      -18.984454
    3      -12.726264
    4       -9.999369
    5       -9.339477
    6       -8.476931
    7       -7.352950
    8       -6.612429
    9        1.292103
   10        1.669702
   11        2.481832
   12        2.883766
 
  0.3333333E+00  0.1388889E+00  0.0000000E+00  0.4629630E-02
    1      -21.229014
    2      -19.307628
    3      -12.225270
    4       -9.831276
    5       -9.160234
    6       -8.795066
    7       -7.653612
    8       -6.963740
    9        1.806459
   10        1.878727
   11        2.692344
   12        3.098029
 
  0.3750000E+00  0.1388889E+00  0.0000000E+00  0.4629630E-02
    1      -21.056547
    2      -19.613429
    3      -11.728125
    4       -9.639131
    5       -9.134657
    6       -8.958147
    7       -7.973889
    8       -7.302706
    9        2.115501
   10        2.323156
   11        2.930655
   12        3.340853
 
  0.4166667E+00  0.1388889E+00  0.0000000E+00  0.4629630E-02
    1      -20.864269
    2      -19.901233
    3      -11.240237
    4       -9.499570
    5       -9.421918
    6       -8.733688
    7       -8.298491
    8       -7.626408
    9        2.379945
   10        2.836933
   11        3.196594
   12        3.612228
 
  0.4583333E+00  0.1388889E+00  0.0000000E+00  0.4629630E-02
    1      -20.652362
    2      -20.170564
    3      -10.767734
    4       -9.893364
    5       -9.178560
    6       -8.613440
    7       -8.487447
    8       -7.932746
    9        2.671962
   10        3.338224
   11        3.342982
   12        3.489728
 
  0.5000000E+00  0.1388889E+00  0.0000000E+00  0.2314815E-02
    1      -20.421042
    2      -20.421042
    3      -10.316981
    4      -10.316981
    5       -8.908571
    6       -8.908571
    7       -8.220157
    8       -8.220157
    9        2.991436
   10        2.991436
   11        3.791193
   12        3.791193
 
  0.0000000E+00  0.1666667E+00  0.0000000E+00  0.2314815E-02
    1      -21.733543
    2      -16.539115
    3      -15.563365
    4      -11.016646
    5       -9.754890
    6       -7.496920
    7       -6.799393
    8       -4.478919
    9       -1.329764
   10        1.188724
   11        1.996962
   12        2.390938
 
  0.4166667E-01  0.1666667E+00  0.0000000E+00  0.4629630E-02
    1      -21.723321
    2      -16.705419
    3      -15.384432
    4      -11.004988
    5       -9.742804
    6       -7.547203
    7       -6.794055
    8       -4.553438
    9       -1.244410
   10        1.202638
   11        2.011018
   12        2.405216
 
  0.8333333E-01  0.1666667E+00  0.0000000E+00  0.4629630E-02
    1      -21.692663
    2      -17.040343
    3      -15.011858
    4      -10.969947
    5       -9.706566
    6       -7.682584
    7       -6.793260
    8       -4.755746
    9       -1.009762
   10        1.244387
   11        2.053182
   12        2.448051
 
  0.1250000E+00  0.1666667E+00  0.0000000E+00  0.4629630E-02
    1      -21.641591
    2      -17.412311
    3      -14.577931
    4      -10.911306
    5       -9.646233
    6       -7.875765
    7       -6.823292
    8       -5.042485
    9       -0.669690
   10        1.313991
   11        2.123437
   12        2.519447
 
  0.1666667E+00  0.1666667E+00  0.0000000E+00  0.4629630E-02
    1      -21.570145
    2      -17.786593
    3      -14.118627
    4      -10.828665
    5       -9.561906
    6       -8.106466
    7       -6.902054
    8       -5.375877
    9       -0.262796
   10        1.411475
   11        2.221761
   12        2.619411
 
  0.2083333E+00  0.1666667E+00  0.0000000E+00  0.4629630E-02
    1      -21.478381
    2      -18.152521
    3      -13.646495
    4      -10.721369
    5       -9.453729
    6       -8.362065
    7       -7.037769
    8       -5.731024
    9        0.184912
   10        1.536856
   11        2.348114
   12        2.747948
 
  0.2500000E+00  0.1666667E+00  0.0000000E+00  0.4629630E-02
    1      -21.366371
    2      -18.505721
    3      -13.168558
    4      -10.588415
    5       -9.321893
    6       -8.634695
    7       -7.231548
    8       -6.092748
    9        0.656910
   10        1.690137
   11        2.502447
   12        2.905063
 
  0.2916667E+00  0.1666667E+00  0.0000000E+00  0.4629630E-02
    1      -21.234207
    2      -18.843957
    3      -12.690649
    4      -10.428321
    5       -9.166644
    6       -8.919571
    7       -7.479220
    8       -6.451737
    9        1.142352
   10        1.871294
   11        2.684690
   12        3.090756
 
  0.3333333E+00  0.1666667E+00  0.0000000E+00  0.4629630E-02
    1      -21.082001
    2      -19.165890
    3      -12.218830
    4      -10.239021
    5       -9.214324
    6       -8.988291
    7       -7.772619
    8       -6.802056
    9        1.633637
   10        2.080278
   11        2.894750
   12        3.305023
 
  0.3750000E+00  0.1666667E+00  0.0000000E+00  0.4629630E-02
    1      -20.909887
    2      -19.470626
    3      -11.759857
    4      -10.017940
    5       -9.518864
    6       -8.787215
    7       -8.100558
    8       -7.139742
    9        2.125063
   10        2.317016
   11        3.132500
   12        3.547855
 
  0.4166667E+00  0.1666667E+00  0.0000000E+00  0.4629630E-02
    1      -20.718028
    2      -19.757516
    3      -11.320887
    4       -9.835477
    5       -9.762592
    6       -8.563886
    7       -8.449549
    8       -7.462034
    9        2.581415
   10        2.612076
   11        3.397735
   12        3.819243
 
  0.4583333E+00  0.1666667E+00  0.0000000E+00  0.4629630E-02
    1      -20.506613
    2      -20.026063
    3      -10.908114
    4      -10.168731
    5       -9.472158
    6       -8.804477
    7       -8.318885
    8       -7.766930
    9        2.873369
   10        3.090822
   11        3.539403
   12        3.689685
 
  0.5000000E+00  0.1666667E+00  0.0000000E+00  0.2314815E-02
    1      -20.275869
    2      -20.275869
    3      -10.524576
    4      -10.524576
    5       -9.149848
    6       -9.149848
    7       -8.052932
    8       -8.052932
    9        3.192749
   10        3.192749
   11        3.557567
   12        3.557567
 