       N       E                     dE             d eps       ncg     rms          rms(c)
DAV:   1     0.189696302777E+03    0.18970E+03   -0.10622E+04  5928   0.275E+03
DAV:   2    -0.934462661933E+01   -0.19904E+03   -0.17677E+03 10468   0.261E+02
DAV:   3    -0.383718284833E+02   -0.29027E+02   -0.28416E+02  7352   0.119E+02    0.732E+00
RMM:   4    -0.376922247407E+02    0.67960E+00   -0.92936E+00  5928   0.260E+01    0.423E+00
RMM:   5    -0.369337997748E+02    0.75842E+00   -0.28274E+00  5931   0.115E+01    0.727E-01
RMM:   6    -0.369352014959E+02   -0.14017E-02   -0.81279E-02  6374   0.203E+00    0.523E-01
RMM:   7    -0.369258279506E+02    0.93735E-02   -0.33800E-02  5934   0.161E+00    0.350E-01
RMM:   8    -0.369199162267E+02    0.59117E-02   -0.78712E-03  5928   0.589E-01    0.136E-01
RMM:   9    -0.369196600334E+02    0.25619E-03   -0.21400E-02  5928   0.868E-01    0.166E-01
RMM:  10    -0.369194207356E+02    0.23930E-03   -0.27720E-03  5928   0.379E-01    0.299E-02
RMM:  11    -0.369219938082E+02   -0.25731E-02   -0.78776E-04  5929   0.184E-01    0.475E-02
RMM:  12    -0.369224315969E+02   -0.43779E-03   -0.23049E-04  5942   0.101E-01    0.628E-03
RMM:  13    -0.369226996111E+02   -0.26801E-03   -0.60885E-05  5991   0.451E-02    0.490E-03
RMM:  14    -0.369227844216E+02   -0.84810E-04   -0.12208E-05  5933   0.206E-02    0.236E-03
RMM:  15    -0.369227931316E+02   -0.87101E-05   -0.15959E-06  6015   0.750E-03    0.795E-04
RMM:  16    -0.369228049428E+02   -0.11811E-04   -0.38064E-07  6017   0.355E-03    0.409E-04
RMM:  17    -0.369228086233E+02   -0.36806E-05   -0.36020E-08  6072   0.154E-03    0.777E-04
RMM:  18    -0.369228104183E+02   -0.17950E-05   -0.86334E-08  5928   0.205E-03    0.807E-05
RMM:  19    -0.369228108961E+02   -0.47780E-06   -0.66632E-09  6070   0.445E-04    0.206E-05
RMM:  20    -0.369228109479E+02   -0.51818E-07   -0.72950E-10  4465   0.135E-04    0.300E-05
RMM:  21    -0.369228109673E+02   -0.19399E-07   -0.29662E-10  4437   0.102E-04    0.622E-06
RMM:  22    -0.369228109673E+02    0.39108E-10   -0.89173E-12  3889   0.465E-05
   1 F= -.36922811E+02 E0= -.36922766E+02  d E =-.369228E+02
       N       E                     dE             d eps       ncg     rms          rms(c)
DAV:   1    -0.369228100683E+02    0.89901E-06   -0.80094E-05  6656   0.843E-02    0.180E-03
RMM:   2    -0.369228101128E+02   -0.44478E-07   -0.13100E-06  5944   0.101E-02    0.129E-03
RMM:   3    -0.369228100765E+02    0.36264E-07   -0.22832E-07  5972   0.385E-03    0.323E-04
RMM:   4    -0.369228100721E+02    0.44623E-08   -0.13638E-08  6057   0.926E-04    0.923E-05
RMM:   5    -0.369228100726E+02   -0.57616E-09   -0.10233E-09  5360   0.234E-04    0.438E-05
RMM:   6    -0.369228100727E+02   -0.89699E-10   -0.15110E-10  3862   0.103E-04
   2 F= -.36922810E+02 E0= -.36922766E+02  d E =0.894553E-06
       N       E                     dE             d eps       ncg     rms          rms(c)
DAV:   1    -0.369228110345E+02   -0.96189E-06   -0.51351E-05  6548   0.675E-02    0.145E-03
RMM:   2    -0.369228110594E+02   -0.24813E-07   -0.81142E-07  5940   0.810E-03    0.103E-03
RMM:   3    -0.369228110297E+02    0.29660E-07   -0.14511E-07  5968   0.307E-03    0.248E-04
RMM:   4    -0.369228110278E+02    0.18553E-08   -0.84365E-09  6042   0.736E-04    0.733E-05
RMM:   5    -0.369228110276E+02    0.25511E-09   -0.68167E-10  4872   0.191E-04    0.358E-05
RMM:   6    -0.369228110274E+02    0.22578E-09   -0.99938E-11  3790   0.882E-05    0.372E-06
RMM:   7    -0.369228110274E+02   -0.81855E-11   -0.14623E-11  3723   0.506E-05
   3 F= -.36922811E+02 E0= -.36922766E+02  d E =-.954630E-06
       N       E                     dE             d eps       ncg     rms          rms(c)
DAV:   1    -0.369228110268E+02    0.54001E-09    0.56956E-09  4616   0.879E-05    0.110E-06
RMM:   2    -0.369228110277E+02   -0.84708E-09    0.24110E-12  3145   0.287E-05    0.656E-07
RMM:   3    -0.369228110278E+02   -0.13836E-09   -0.22488E-12  2819   0.285E-05    0.102E-07
RMM:   4    -0.369228110277E+02    0.11528E-09   -0.11079E-12  2570   0.272E-05    0.122E-07
RMM:   5    -0.369228110275E+02    0.18031E-09   -0.28581E-12  2329   0.249E-05    0.130E-07
RMM:   6    -0.369228110274E+02    0.69804E-10   -0.86013E-13  2180   0.234E-05
   4 F= -.36922811E+02 E0= -.36922766E+02  d E =-.718501E-10
       N       E                     dE             d eps       ncg     rms          rms(c)
DAV:   1    -0.369228110272E+02    0.34743E-09    0.57464E-09  4468   0.484E-05    0.560E-07
RMM:   2    -0.369228110277E+02   -0.53001E-09    0.63015E-14  1471   0.140E-05    0.348E-07
RMM:   3    -0.369228110277E+02   -0.35470E-10   -0.54033E-13  1430   0.137E-05    0.135E-08
RMM:   4    -0.369228110276E+02    0.16985E-09   -0.24589E-13  1395   0.136E-05    0.598E-09
RMM:   5    -0.369228110273E+02    0.23590E-09   -0.71030E-13  1235   0.135E-05    0.122E-08
RMM:   6    -0.369228110274E+02   -0.95383E-10    0.39039E-13  1075   0.133E-05
   5 F= -.36922811E+02 E0= -.36922766E+02  d E =0.225100E-10
       N       E                     dE             d eps       ncg     rms          rms(c)
DAV:   1    -0.369228110272E+02    0.12471E-09    0.57668E-09  4572   0.177E-05    0.421E-07
RMM:   2    -0.369228110273E+02   -0.13597E-09    0.74611E-14  1071   0.595E-06    0.258E-07
RMM:   3    -0.369228110274E+02   -0.90495E-10    0.16941E-14  1130   0.589E-06    0.492E-09
RMM:   4    -0.369228110276E+02   -0.19054E-09    0.45067E-14  1122   0.585E-06    0.211E-09
RMM:   5    -0.369228110276E+02    0.10687E-10   -0.25494E-15  1121   0.584E-06
   6 F= -.36922811E+02 E0= -.36922766E+02  d E =-.186219E-09
       N       E                     dE             d eps       ncg     rms          rms(c)
DAV:   1    -0.369228110270E+02    0.58958E-09    0.57379E-09  4240   0.555E-05    0.108E-06
RMM:   2    -0.369228110275E+02   -0.45156E-09    0.42394E-14   611   0.141E-05    0.669E-07
RMM:   3    -0.369228110273E+02    0.14677E-09   -0.60445E-15   949   0.139E-05    0.127E-08
RMM:   4    -0.369228110273E+02    0.68212E-12   -0.33553E-14   595   0.139E-05    0.578E-09
RMM:   5    -0.369228110273E+02    0.73896E-11    0.17599E-14   878   0.139E-05
   7 F= -.36922811E+02 E0= -.36922766E+02  d E =0.282171E-09
       N       E                     dE             d eps       ncg     rms          rms(c)
DAV:   1    -0.369228110270E+02    0.33117E-09    0.57524E-09  3956   0.387E-05    0.721E-07
RMM:   2    -0.369228110277E+02   -0.69667E-09    0.00000E+00   742   0.101E-05    0.447E-07
RMM:   3    -0.369228110278E+02   -0.13529E-09    0.00000E+00   755   0.974E-06    0.104E-08
RMM:   4    -0.369228110276E+02    0.23192E-09    0.00000E+00   510   0.973E-06    0.334E-09
RMM:   5    -0.369228110276E+02    0.21828E-10    0.00000E+00   464   0.973E-06
   8 F= -.36922811E+02 E0= -.36922766E+02  d E =-.254431E-09
       N       E                     dE             d eps       ncg     rms          rms(c)
DAV:   1    -0.369228110269E+02    0.67644E-09    0.57684E-09  3292   0.118E-05    0.187E-07
RMM:   2    -0.369228110277E+02   -0.78535E-09    0.00000E+00   255   0.308E-06    0.115E-07
RMM:   3    -0.369228110275E+02    0.20873E-09    0.00000E+00   271   0.300E-06    0.339E-09
RMM:   4    -0.369228110278E+02   -0.27251E-09    0.00000E+00   242   0.300E-06    0.115E-09
RMM:   5    -0.369228110278E+02   -0.10459E-10    0.00000E+00   511   0.300E-06
   9 F= -.36922811E+02 E0= -.36922766E+02  d E =-.204977E-09
       N       E                     dE             d eps       ncg     rms          rms(c)
DAV:   1    -0.369228110269E+02    0.88539E-09    0.57712E-09  3320   0.517E-06    0.709E-08
RMM:   2    -0.369228110277E+02   -0.82025E-09    0.00000E+00   459   0.173E-06    0.435E-08
RMM:   3    -0.369228110273E+02    0.37176E-09    0.00000E+00   460   0.175E-06    0.124E-09
RMM:   4    -0.369228110278E+02   -0.48215E-09    0.00000E+00   482   0.175E-06    0.844E-10
RMM:   5    -0.369228110278E+02   -0.56843E-12    0.00000E+00   609   0.175E-06
  10 F= -.36922811E+02 E0= -.36922766E+02  d E =-.353566E-10
