<?xml version="1.0" encoding="ISO-8859-1"?>
<modeling>
 <generator>
  <i name="program" type="string">vasp </i>
  <i name="version" type="string">5.3.5  </i>
  <i name="subversion" type="string">31Mar14 (build Mar 02 2015 18:14:16) complex                          parallel </i>
  <i name="platform" type="string">LinuxIFC </i>
  <i name="date" type="string">2018 08 09 </i>
  <i name="time" type="string">18:43:48 </i>
 </generator>
 <incar>
  <i type="string" name="SYSTEM">  gr</i>
  <i type="string" name="PREC">accurate : accuracy</i>
  <i type="string" name="ALGO"> FAST.</i>
  <i type="int" name="NELM">   100</i>
  <i type="int" name="NELMDL">    -3</i>
  <i type="int" name="NELMIN">     5</i>
  <i type="int" name="IBRION">     1</i>
  <i name="EDIFF">      0.00000000</i>
  <i name="EDIFFG">     -0.00000100</i>
  <i type="int" name="NSW">   400</i>
  <i type="int" name="ISIF">     2</i>
  <i name="ENCUT">   2000.00000000</i>
  <i type="int" name="ISMEAR">     0</i>
  <i name="SIGMA">      0.05000000</i>
  <i type="int" name="NWRITE">     2</i>
  <i type="logical" name="LWAVE"> F  </i>
  <i type="logical" name="LCHARG"> F  </i>
  <i type="int" name="NELM">   100</i>
 </incar>
 <kpoints>
  <generation param="Gamma">
   <v type="int" name="divisions">      24       36        1 </v>
   <v name="usershift">      0.00000000       0.00000000       0.00000000 </v>
   <v name="genvec1">      0.04166667       0.00000000       0.00000000 </v>
   <v name="genvec2">      0.00000000       0.02777778       0.00000000 </v>
   <v name="genvec3">      0.00000000       0.00000000       1.00000000 </v>
   <v name="shift">      0.00000000       0.00000000       0.00000000 </v>
  </generation>
  <varray name="kpointlist" >
   <v>       0.00000000       0.00000000       0.00000000 </v>
   <v>       0.04166667       0.00000000       0.00000000 </v>
   <v>       0.08333333       0.00000000       0.00000000 </v>
   <v>       0.12500000       0.00000000       0.00000000 </v>
   <v>       0.16666667       0.00000000       0.00000000 </v>
   <v>       0.20833333       0.00000000       0.00000000 </v>
   <v>       0.25000000       0.00000000       0.00000000 </v>
   <v>       0.29166667       0.00000000       0.00000000 </v>
   <v>       0.33333333       0.00000000       0.00000000 </v>
   <v>       0.37500000       0.00000000       0.00000000 </v>
   <v>       0.41666667       0.00000000       0.00000000 </v>
   <v>       0.45833333       0.00000000       0.00000000 </v>
   <v>       0.50000000       0.00000000       0.00000000 </v>
   <v>       0.00000000       0.02777778       0.00000000 </v>
   <v>       0.04166667       0.02777778       0.00000000 </v>
   <v>       0.08333333       0.02777778       0.00000000 </v>
   <v>       0.12500000       0.02777778       0.00000000 </v>
   <v>       0.16666667       0.02777778       0.00000000 </v>
   <v>       0.20833333       0.02777778       0.00000000 </v>
   <v>       0.25000000       0.02777778       0.00000000 </v>
   <v>       0.29166667       0.02777778       0.00000000 </v>
   <v>       0.33333333       0.02777778       0.00000000 </v>
   <v>       0.37500000       0.02777778       0.00000000 </v>
   <v>       0.41666667       0.02777778       0.00000000 </v>
   <v>       0.45833333       0.02777778       0.00000000 </v>
   <v>       0.50000000       0.02777778       0.00000000 </v>
   <v>       0.00000000       0.05555556       0.00000000 </v>
   <v>       0.04166667       0.05555556       0.00000000 </v>
   <v>       0.08333333       0.05555556       0.00000000 </v>
   <v>       0.12500000       0.05555556       0.00000000 </v>
   <v>       0.16666667       0.05555556       0.00000000 </v>
   <v>       0.20833333       0.05555556       0.00000000 </v>
   <v>       0.25000000       0.05555556       0.00000000 </v>
   <v>       0.29166667       0.05555556       0.00000000 </v>
   <v>       0.33333333       0.05555556       0.00000000 </v>
   <v>       0.37500000       0.05555556       0.00000000 </v>
   <v>       0.41666667       0.05555556       0.00000000 </v>
   <v>       0.45833333       0.05555556       0.00000000 </v>
   <v>       0.50000000       0.05555556       0.00000000 </v>
   <v>       0.00000000       0.08333333       0.00000000 </v>
   <v>       0.04166667       0.08333333       0.00000000 </v>
   <v>       0.08333333       0.08333333       0.00000000 </v>
   <v>       0.12500000       0.08333333       0.00000000 </v>
   <v>       0.16666667       0.08333333       0.00000000 </v>
   <v>       0.20833333       0.08333333       0.00000000 </v>
   <v>       0.25000000       0.08333333       0.00000000 </v>
   <v>       0.29166667       0.08333333       0.00000000 </v>
   <v>       0.33333333       0.08333333       0.00000000 </v>
   <v>       0.37500000       0.08333333       0.00000000 </v>
   <v>       0.41666667       0.08333333       0.00000000 </v>
   <v>       0.45833333       0.08333333       0.00000000 </v>
   <v>       0.50000000       0.08333333       0.00000000 </v>
   <v>       0.00000000       0.11111111       0.00000000 </v>
   <v>       0.04166667       0.11111111       0.00000000 </v>
   <v>       0.08333333       0.11111111       0.00000000 </v>
   <v>       0.12500000       0.11111111       0.00000000 </v>
   <v>       0.16666667       0.11111111       0.00000000 </v>
   <v>       0.20833333       0.11111111       0.00000000 </v>
   <v>       0.25000000       0.11111111       0.00000000 </v>
   <v>       0.29166667       0.11111111       0.00000000 </v>
   <v>       0.33333333       0.11111111       0.00000000 </v>
   <v>       0.37500000       0.11111111       0.00000000 </v>
   <v>       0.41666667       0.11111111       0.00000000 </v>
   <v>       0.45833333       0.11111111       0.00000000 </v>
   <v>       0.50000000       0.11111111       0.00000000 </v>
   <v>       0.00000000       0.13888889       0.00000000 </v>
   <v>       0.04166667       0.13888889       0.00000000 </v>
   <v>       0.08333333       0.13888889       0.00000000 </v>
   <v>       0.12500000       0.13888889       0.00000000 </v>
   <v>       0.16666667       0.13888889       0.00000000 </v>
   <v>       0.20833333       0.13888889       0.00000000 </v>
   <v>       0.25000000       0.13888889       0.00000000 </v>
   <v>       0.29166667       0.13888889       0.00000000 </v>
   <v>       0.33333333       0.13888889       0.00000000 </v>
   <v>       0.37500000       0.13888889       0.00000000 </v>
   <v>       0.41666667       0.13888889       0.00000000 </v>
   <v>       0.45833333       0.13888889       0.00000000 </v>
   <v>       0.50000000       0.13888889       0.00000000 </v>
   <v>       0.00000000       0.16666667       0.00000000 </v>
   <v>       0.04166667       0.16666667       0.00000000 </v>
   <v>       0.08333333       0.16666667       0.00000000 </v>
   <v>       0.12500000       0.16666667       0.00000000 </v>
   <v>       0.16666667       0.16666667       0.00000000 </v>
   <v>       0.20833333       0.16666667       0.00000000 </v>
   <v>       0.25000000       0.16666667       0.00000000 </v>
   <v>       0.29166667       0.16666667       0.00000000 </v>
   <v>       0.33333333       0.16666667       0.00000000 </v>
   <v>       0.37500000       0.16666667       0.00000000 </v>
   <v>       0.41666667       0.16666667       0.00000000 </v>
   <v>       0.45833333       0.16666667       0.00000000 </v>
   <v>       0.50000000       0.16666667       0.00000000 </v>
   <v>       0.00000000       0.19444444       0.00000000 </v>
   <v>       0.04166667       0.19444444       0.00000000 </v>
   <v>       0.08333333       0.19444444       0.00000000 </v>
   <v>       0.12500000       0.19444444       0.00000000 </v>
   <v>       0.16666667       0.19444444       0.00000000 </v>
   <v>       0.20833333       0.19444444       0.00000000 </v>
   <v>       0.25000000       0.19444444       0.00000000 </v>
   <v>       0.29166667       0.19444444       0.00000000 </v>
   <v>       0.33333333       0.19444444       0.00000000 </v>
   <v>       0.37500000       0.19444444       0.00000000 </v>
   <v>       0.41666667       0.19444444       0.00000000 </v>
   <v>       0.45833333       0.19444444       0.00000000 </v>
   <v>       0.50000000       0.19444444       0.00000000 </v>
   <v>       0.00000000       0.22222222       0.00000000 </v>
   <v>       0.04166667       0.22222222       0.00000000 </v>
   <v>       0.08333333       0.22222222       0.00000000 </v>
   <v>       0.12500000       0.22222222       0.00000000 </v>
   <v>       0.16666667       0.22222222       0.00000000 </v>
   <v>       0.20833333       0.22222222       0.00000000 </v>
   <v>       0.25000000       0.22222222       0.00000000 </v>
   <v>       0.29166667       0.22222222       0.00000000 </v>
   <v>       0.33333333       0.22222222       0.00000000 </v>
   <v>       0.37500000       0.22222222       0.00000000 </v>
   <v>       0.41666667       0.22222222       0.00000000 </v>
   <v>       0.45833333       0.22222222       0.00000000 </v>
   <v>       0.50000000       0.22222222       0.00000000 </v>
   <v>       0.00000000       0.25000000       0.00000000 </v>
   <v>       0.04166667       0.25000000       0.00000000 </v>
   <v>       0.08333333       0.25000000       0.00000000 </v>
   <v>       0.12500000       0.25000000       0.00000000 </v>
   <v>       0.16666667       0.25000000       0.00000000 </v>
   <v>       0.20833333       0.25000000       0.00000000 </v>
   <v>       0.25000000       0.25000000       0.00000000 </v>
   <v>       0.29166667       0.25000000       0.00000000 </v>
   <v>       0.33333333       0.25000000       0.00000000 </v>
   <v>       0.37500000       0.25000000       0.00000000 </v>
   <v>       0.41666667       0.25000000       0.00000000 </v>
   <v>       0.45833333       0.25000000       0.00000000 </v>
   <v>       0.50000000       0.25000000       0.00000000 </v>
   <v>       0.00000000       0.27777778       0.00000000 </v>
   <v>       0.04166667       0.27777778       0.00000000 </v>
   <v>       0.08333333       0.27777778       0.00000000 </v>
   <v>       0.12500000       0.27777778       0.00000000 </v>
   <v>       0.16666667       0.27777778       0.00000000 </v>
   <v>       0.20833333       0.27777778       0.00000000 </v>
   <v>       0.25000000       0.27777778       0.00000000 </v>
   <v>       0.29166667       0.27777778       0.00000000 </v>
   <v>       0.33333333       0.27777778       0.00000000 </v>
   <v>       0.37500000       0.27777778       0.00000000 </v>
   <v>       0.41666667       0.27777778       0.00000000 </v>
   <v>       0.45833333       0.27777778       0.00000000 </v>
   <v>       0.50000000       0.27777778       0.00000000 </v>
   <v>       0.00000000       0.30555556       0.00000000 </v>
   <v>       0.04166667       0.30555556       0.00000000 </v>
   <v>       0.08333333       0.30555556       0.00000000 </v>
   <v>       0.12500000       0.30555556       0.00000000 </v>
   <v>       0.16666667       0.30555556       0.00000000 </v>
   <v>       0.20833333       0.30555556       0.00000000 </v>
   <v>       0.25000000       0.30555556       0.00000000 </v>
   <v>       0.29166667       0.30555556       0.00000000 </v>
   <v>       0.33333333       0.30555556       0.00000000 </v>
   <v>       0.37500000       0.30555556       0.00000000 </v>
   <v>       0.41666667       0.30555556       0.00000000 </v>
   <v>       0.45833333       0.30555556       0.00000000 </v>
   <v>       0.50000000       0.30555556       0.00000000 </v>
   <v>       0.00000000       0.33333333       0.00000000 </v>
   <v>       0.04166667       0.33333333       0.00000000 </v>
   <v>       0.08333333       0.33333333       0.00000000 </v>
   <v>       0.12500000       0.33333333       0.00000000 </v>
   <v>       0.16666667       0.33333333       0.00000000 </v>
   <v>       0.20833333       0.33333333       0.00000000 </v>
   <v>       0.25000000       0.33333333       0.00000000 </v>
   <v>       0.29166667       0.33333333       0.00000000 </v>
   <v>       0.33333333       0.33333333       0.00000000 </v>
   <v>       0.37500000       0.33333333       0.00000000 </v>
   <v>       0.41666667       0.33333333       0.00000000 </v>
   <v>       0.45833333       0.33333333       0.00000000 </v>
   <v>       0.50000000       0.33333333       0.00000000 </v>
   <v>       0.00000000       0.36111111       0.00000000 </v>
   <v>       0.04166667       0.36111111       0.00000000 </v>
   <v>       0.08333333       0.36111111       0.00000000 </v>
   <v>       0.12500000       0.36111111       0.00000000 </v>
   <v>       0.16666667       0.36111111       0.00000000 </v>
   <v>       0.20833333       0.36111111       0.00000000 </v>
   <v>       0.25000000       0.36111111       0.00000000 </v>
   <v>       0.29166667       0.36111111       0.00000000 </v>
   <v>       0.33333333       0.36111111       0.00000000 </v>
   <v>       0.37500000       0.36111111       0.00000000 </v>
   <v>       0.41666667       0.36111111       0.00000000 </v>
   <v>       0.45833333       0.36111111       0.00000000 </v>
   <v>       0.50000000       0.36111111       0.00000000 </v>
   <v>       0.00000000       0.38888889       0.00000000 </v>
   <v>       0.04166667       0.38888889       0.00000000 </v>
   <v>       0.08333333       0.38888889       0.00000000 </v>
   <v>       0.12500000       0.38888889       0.00000000 </v>
   <v>       0.16666667       0.38888889       0.00000000 </v>
   <v>       0.20833333       0.38888889       0.00000000 </v>
   <v>       0.25000000       0.38888889       0.00000000 </v>
   <v>       0.29166667       0.38888889       0.00000000 </v>
   <v>       0.33333333       0.38888889       0.00000000 </v>
   <v>       0.37500000       0.38888889       0.00000000 </v>
   <v>       0.41666667       0.38888889       0.00000000 </v>
   <v>       0.45833333       0.38888889       0.00000000 </v>
   <v>       0.50000000       0.38888889       0.00000000 </v>
   <v>       0.00000000       0.41666667       0.00000000 </v>
   <v>       0.04166667       0.41666667       0.00000000 </v>
   <v>       0.08333333       0.41666667       0.00000000 </v>
   <v>       0.12500000       0.41666667       0.00000000 </v>
   <v>       0.16666667       0.41666667       0.00000000 </v>
   <v>       0.20833333       0.41666667       0.00000000 </v>
   <v>       0.25000000       0.41666667       0.00000000 </v>
   <v>       0.29166667       0.41666667       0.00000000 </v>
   <v>       0.33333333       0.41666667       0.00000000 </v>
   <v>       0.37500000       0.41666667       0.00000000 </v>
   <v>       0.41666667       0.41666667       0.00000000 </v>
   <v>       0.45833333       0.41666667       0.00000000 </v>
   <v>       0.50000000       0.41666667       0.00000000 </v>
   <v>       0.00000000       0.44444444       0.00000000 </v>
   <v>       0.04166667       0.44444444       0.00000000 </v>
   <v>       0.08333333       0.44444444       0.00000000 </v>
   <v>       0.12500000       0.44444444       0.00000000 </v>
   <v>       0.16666667       0.44444444       0.00000000 </v>
   <v>       0.20833333       0.44444444       0.00000000 </v>
   <v>       0.25000000       0.44444444       0.00000000 </v>
   <v>       0.29166667       0.44444444       0.00000000 </v>
   <v>       0.33333333       0.44444444       0.00000000 </v>
   <v>       0.37500000       0.44444444       0.00000000 </v>
   <v>       0.41666667       0.44444444       0.00000000 </v>
   <v>       0.45833333       0.44444444       0.00000000 </v>
   <v>       0.50000000       0.44444444       0.00000000 </v>
   <v>       0.00000000       0.47222222       0.00000000 </v>
   <v>       0.04166667       0.47222222       0.00000000 </v>
   <v>       0.08333333       0.47222222       0.00000000 </v>
   <v>       0.12500000       0.47222222       0.00000000 </v>
   <v>       0.16666667       0.47222222       0.00000000 </v>
   <v>       0.20833333       0.47222222       0.00000000 </v>
   <v>       0.25000000       0.47222222       0.00000000 </v>
   <v>       0.29166667       0.47222222       0.00000000 </v>
   <v>       0.33333333       0.47222222       0.00000000 </v>
   <v>       0.37500000       0.47222222       0.00000000 </v>
   <v>       0.41666667       0.47222222       0.00000000 </v>
   <v>       0.45833333       0.47222222       0.00000000 </v>
   <v>       0.50000000       0.47222222       0.00000000 </v>
   <v>       0.00000000       0.50000000       0.00000000 </v>
   <v>       0.04166667       0.50000000       0.00000000 </v>
   <v>       0.08333333       0.50000000       0.00000000 </v>
   <v>       0.12500000       0.50000000       0.00000000 </v>
   <v>       0.16666667       0.50000000       0.00000000 </v>
   <v>       0.20833333       0.50000000       0.00000000 </v>
   <v>       0.25000000       0.50000000       0.00000000 </v>
   <v>       0.29166667       0.50000000       0.00000000 </v>
   <v>       0.33333333       0.50000000       0.00000000 </v>
   <v>       0.37500000       0.50000000       0.00000000 </v>
   <v>       0.41666667       0.50000000       0.00000000 </v>
   <v>       0.45833333       0.50000000       0.00000000 </v>
   <v>       0.50000000       0.50000000       0.00000000 </v>
  </varray>
  <varray name="weights" >
   <v>       0.00115741 </v>
   <v>       0.00231481 </v>
   <v>       0.00231481 </v>
   <v>       0.00231481 </v>
   <v>       0.00231481 </v>
   <v>       0.00231481 </v>
   <v>       0.00231481 </v>
   <v>       0.00231481 </v>
   <v>       0.00231481 </v>
   <v>       0.00231481 </v>
   <v>       0.00231481 </v>
   <v>       0.00231481 </v>
   <v>       0.00115741 </v>
   <v>       0.00231481 </v>
   <v>       0.00462963 </v>
   <v>       0.00462963 </v>
   <v>       0.00462963 </v>
   <v>       0.00462963 </v>
   <v>       0.00462963 </v>
   <v>       0.00462963 </v>
   <v>       0.00462963 </v>
   <v>       0.00462963 </v>
   <v>       0.00462963 </v>
   <v>       0.00462963 </v>
   <v>       0.00462963 </v>
   <v>       0.00231481 </v>
   <v>       0.00231481 </v>
   <v>       0.00462963 </v>
   <v>       0.00462963 </v>
   <v>       0.00462963 </v>
   <v>       0.00462963 </v>
   <v>       0.00462963 </v>
   <v>       0.00462963 </v>
   <v>       0.00462963 </v>
   <v>       0.00462963 </v>
   <v>       0.00462963 </v>
   <v>       0.00462963 </v>
   <v>       0.00462963 </v>
   <v>       0.00231481 </v>
   <v>       0.00231481 </v>
   <v>       0.00462963 </v>
   <v>       0.00462963 </v>
   <v>       0.00462963 </v>
   <v>       0.00462963 </v>
   <v>       0.00462963 </v>
   <v>       0.00462963 </v>
   <v>       0.00462963 </v>
   <v>       0.00462963 </v>
   <v>       0.00462963 </v>
   <v>       0.00462963 </v>
   <v>       0.00462963 </v>
   <v>       0.00231481 </v>
   <v>       0.00231481 </v>
   <v>       0.00462963 </v>
   <v>       0.00462963 </v>
   <v>       0.00462963 </v>
   <v>       0.00462963 </v>
   <v>       0.00462963 </v>
   <v>       0.00462963 </v>
   <v>       0.00462963 </v>
   <v>       0.00462963 </v>
   <v>       0.00462963 </v>
   <v>       0.00462963 </v>
   <v>       0.00462963 </v>
   <v>       0.00231481 </v>
   <v>       0.00231481 </v>
   <v>       0.00462963 </v>
   <v>       0.00462963 </v>
   <v>       0.00462963 </v>
   <v>       0.00462963 </v>
   <v>       0.00462963 </v>
   <v>       0.00462963 </v>
   <v>       0.00462963 </v>
   <v>       0.00462963 </v>
   <v>       0.00462963 </v>
   <v>       0.00462963 </v>
   <v>       0.00462963 </v>
   <v>       0.00231481 </v>
   <v>       0.00231481 </v>
   <v>       0.00462963 </v>
   <v>       0.00462963 </v>
   <v>       0.00462963 </v>
   <v>       0.00462963 </v>
   <v>       0.00462963 </v>
   <v>       0.00462963 </v>
   <v>       0.00462963 </v>
   <v>       0.00462963 </v>
   <v>       0.00462963 </v>
   <v>       0.00462963 </v>
   <v>       0.00462963 </v>
   <v>       0.00231481 </v>
   <v>       0.00231481 </v>
   <v>       0.00462963 </v>
   <v>       0.00462963 </v>
   <v>       0.00462963 </v>
   <v>       0.00462963 </v>
   <v>       0.00462963 </v>
   <v>       0.00462963 </v>
   <v>       0.00462963 </v>
   <v>       0.00462963 </v>
   <v>       0.00462963 </v>
   <v>       0.00462963 </v>
   <v>       0.00462963 </v>
   <v>       0.00231481 </v>
   <v>       0.00231481 </v>
   <v>       0.00462963 </v>
   <v>       0.00462963 </v>
   <v>       0.00462963 </v>
   <v>       0.00462963 </v>
   <v>       0.00462963 </v>
   <v>       0.00462963 </v>
   <v>       0.00462963 </v>
   <v>       0.00462963 </v>
   <v>       0.00462963 </v>
   <v>       0.00462963 </v>
   <v>       0.00462963 </v>
   <v>       0.00231481 </v>
   <v>       0.00231481 </v>
   <v>       0.00462963 </v>
   <v>       0.00462963 </v>
   <v>       0.00462963 </v>
   <v>       0.00462963 </v>
   <v>       0.00462963 </v>
   <v>       0.00462963 </v>
   <v>       0.00462963 </v>
   <v>       0.00462963 </v>
   <v>       0.00462963 </v>
   <v>       0.00462963 </v>
   <v>       0.00462963 </v>
   <v>       0.00231481 </v>
   <v>       0.00231481 </v>
   <v>       0.00462963 </v>
   <v>       0.00462963 </v>
   <v>       0.00462963 </v>
   <v>       0.00462963 </v>
   <v>       0.00462963 </v>
   <v>       0.00462963 </v>
   <v>       0.00462963 </v>
   <v>       0.00462963 </v>
   <v>       0.00462963 </v>
   <v>       0.00462963 </v>
   <v>       0.00462963 </v>
   <v>       0.00231481 </v>
   <v>       0.00231481 </v>
   <v>       0.00462963 </v>
   <v>       0.00462963 </v>
   <v>       0.00462963 </v>
   <v>       0.00462963 </v>
   <v>       0.00462963 </v>
   <v>       0.00462963 </v>
   <v>       0.00462963 </v>
   <v>       0.00462963 </v>
   <v>       0.00462963 </v>
   <v>       0.00462963 </v>
   <v>       0.00462963 </v>
   <v>       0.00231481 </v>
   <v>       0.00231481 </v>
   <v>       0.00462963 </v>
   <v>       0.00462963 </v>
   <v>       0.00462963 </v>
   <v>       0.00462963 </v>
   <v>       0.00462963 </v>
   <v>       0.00462963 </v>
   <v>       0.00462963 </v>
   <v>       0.00462963 </v>
   <v>       0.00462963 </v>
   <v>       0.00462963 </v>
   <v>       0.00462963 </v>
   <v>       0.00231481 </v>
   <v>       0.00231481 </v>
   <v>       0.00462963 </v>
   <v>       0.00462963 </v>
   <v>       0.00462963 </v>
   <v>       0.00462963 </v>
   <v>       0.00462963 </v>
   <v>       0.00462963 </v>
   <v>       0.00462963 </v>
   <v>       0.00462963 </v>
   <v>       0.00462963 </v>
   <v>       0.00462963 </v>
   <v>       0.00462963 </v>
   <v>       0.00231481 </v>
   <v>       0.00231481 </v>
   <v>       0.00462963 </v>
   <v>       0.00462963 </v>
   <v>       0.00462963 </v>
   <v>       0.00462963 </v>
   <v>       0.00462963 </v>
   <v>       0.00462963 </v>
   <v>       0.00462963 </v>
   <v>       0.00462963 </v>
   <v>       0.00462963 </v>
   <v>       0.00462963 </v>
   <v>       0.00462963 </v>
   <v>       0.00231481 </v>
   <v>       0.00231481 </v>
   <v>       0.00462963 </v>
   <v>       0.00462963 </v>
   <v>       0.00462963 </v>
   <v>       0.00462963 </v>
   <v>       0.00462963 </v>
   <v>       0.00462963 </v>
   <v>       0.00462963 </v>
   <v>       0.00462963 </v>
   <v>       0.00462963 </v>
   <v>       0.00462963 </v>
   <v>       0.00462963 </v>
   <v>       0.00231481 </v>
   <v>       0.00231481 </v>
   <v>       0.00462963 </v>
   <v>       0.00462963 </v>
   <v>       0.00462963 </v>
   <v>       0.00462963 </v>
   <v>       0.00462963 </v>
   <v>       0.00462963 </v>
   <v>       0.00462963 </v>
   <v>       0.00462963 </v>
   <v>       0.00462963 </v>
   <v>       0.00462963 </v>
   <v>       0.00462963 </v>
   <v>       0.00231481 </v>
   <v>       0.00231481 </v>
   <v>       0.00462963 </v>
   <v>       0.00462963 </v>
   <v>       0.00462963 </v>
   <v>       0.00462963 </v>
   <v>       0.00462963 </v>
   <v>       0.00462963 </v>
   <v>       0.00462963 </v>
   <v>       0.00462963 </v>
   <v>       0.00462963 </v>
   <v>       0.00462963 </v>
   <v>       0.00462963 </v>
   <v>       0.00231481 </v>
   <v>       0.00115741 </v>
   <v>       0.00231481 </v>
   <v>       0.00231481 </v>
   <v>       0.00231481 </v>
   <v>       0.00231481 </v>
   <v>       0.00231481 </v>
   <v>       0.00231481 </v>
   <v>       0.00231481 </v>
   <v>       0.00231481 </v>
   <v>       0.00231481 </v>
   <v>       0.00231481 </v>
   <v>       0.00231481 </v>
   <v>       0.00115741 </v>
  </varray>
 </kpoints>
 <parameters>
  <separator name="general" >
   <i type="string" name="SYSTEM">gr</i>
   <i type="logical" name="LCOMPAT"> F  </i>
  </separator>
  <separator name="electronic" >
   <i type="string" name="PREC">accura</i>
   <i name="ENMAX">   2000.00000000</i>
   <i name="ENAUG">    644.87300000</i>
   <i name="EDIFF">      0.00000000</i>
   <i type="int" name="IALGO">    68</i>
   <i type="int" name="IWAVPR">    11</i>
   <i type="int" name="NBANDS">    12</i>
   <i name="NELECT">     16.00000000</i>
   <i type="int" name="TURBO">     0</i>
   <i type="int" name="IRESTART">     0</i>
   <i type="int" name="NREBOOT">     0</i>
   <i type="int" name="NMIN">     0</i>
   <i name="EREF">      0.00000000</i>
   <separator name="electronic smearing" >
    <i type="int" name="ISMEAR">     0</i>
    <i name="SIGMA">      0.05000000</i>
    <i name="KSPACING">      0.50000000</i>
    <i type="logical" name="KGAMMA"> T  </i>
   </separator>
   <separator name="electronic projectors" >
    <i type="logical" name="LREAL"> F  </i>
    <v name="ROPT">      0.00000000</v>
    <i type="int" name="LMAXPAW">  -100</i>
    <i type="int" name="LMAXMIX">     2</i>
    <i type="logical" name="NLSPLINE"> F  </i>
   </separator>
   <separator name="electronic startup" >
    <i type="int" name="ISTART">     0</i>
    <i type="int" name="ICHARG">     2</i>
    <i type="int" name="INIWAV">     1</i>
   </separator>
   <separator name="electronic spin" >
    <i type="int" name="ISPIN">     1</i>
    <i type="logical" name="LNONCOLLINEAR"> F  </i>
    <v name="MAGMOM">      1.00000000      1.00000000      1.00000000      1.00000000</v>
    <i name="NUPDOWN">     -1.00000000</i>
    <i type="logical" name="LSORBIT"> F  </i>
    <v name="SAXIS">      0.00000000      0.00000000      1.00000000</v>
    <i type="logical" name="LSPIRAL"> F  </i>
    <v name="QSPIRAL">      0.00000000      0.00000000      0.00000000</v>
    <i type="logical" name="LZEROZ"> F  </i>
   </separator>
   <separator name="electronic exchange-correlation" >
    <i type="logical" name="LASPH"> F  </i>
    <i type="logical" name="LMETAGGA"> F  </i>
   </separator>
   <separator name="electronic convergence" >
    <i type="int" name="NELM">   100</i>
    <i type="int" name="NELMDL">    -3</i>
    <i type="int" name="NELMIN">     5</i>
    <i name="ENINI">   2000.00000000</i>
    <separator name="electronic convergence detail" >
     <i type="logical" name="LDIAG"> T  </i>
     <i type="logical" name="LSUBROT"> F  </i>
     <i name="WEIMIN">      0.00100000</i>
     <i name="EBREAK">      0.00000000</i>
     <i name="DEPER">      0.30000000</i>
     <i type="int" name="NRMM">     4</i>
     <i name="TIME">      0.40000000</i>
    </separator>
   </separator>
   <separator name="electronic mixer" >
    <i name="AMIX">      0.40000000</i>
    <i name="BMIX">      1.00000000</i>
    <i name="AMIN">      0.10000000</i>
    <i name="AMIX_MAG">      1.60000000</i>
    <i name="BMIX_MAG">      1.00000000</i>
    <separator name="electronic mixer details" >
     <i type="int" name="IMIX">     4</i>
     <i type="int" name="MAXMIX">   -45</i>
     <i name="WC">    100.00000000</i>
     <i type="int" name="INIMIX">     1</i>
     <i type="int" name="MIXPRE">     1</i>
     <i type="int" name="MREMOVE">     5</i>
    </separator>
   </separator>
   <separator name="electronic dipolcorrection" >
    <i type="logical" name="LDIPOL"> F  </i>
    <i type="logical" name="LMONO"> F  </i>
    <i type="int" name="IDIPOL">     0</i>
    <i name="EPSILON">      1.00000000</i>
    <v name="DIPOL">   -100.00000000   -100.00000000   -100.00000000</v>
    <i name="EFIELD">      0.00000000</i>
   </separator>
  </separator>
  <separator name="grids" >
   <i type="int" name="NGX">    64</i>
   <i type="int" name="NGY">    36</i>
   <i type="int" name="NGZ">   294</i>
   <i type="int" name="NGXF">   128</i>
   <i type="int" name="NGYF">    72</i>
   <i type="int" name="NGZF">   588</i>
   <i type="logical" name="ADDGRID"> F  </i>
  </separator>
  <separator name="ionic" >
   <i type="int" name="NSW">   400</i>
   <i type="int" name="IBRION">     1</i>
   <i type="int" name="ISIF">     2</i>
   <i name="PSTRESS">      0.00000000</i>
   <i name="EDIFFG">     -0.00000100</i>
   <i type="int" name="NFREE">     0</i>
   <i name="POTIM">      0.50000000</i>
   <i name="SMASS">     -3.00000000</i>
   <i name="SCALEE">      1.00000000</i>
  </separator>
  <separator name="ionic md" >
   <i name="TEBEG">      0.00010000</i>
   <i name="TEEND">      0.00010000</i>
   <i type="int" name="NBLOCK">     1</i>
   <i type="int" name="KBLOCK">   400</i>
   <i type="int" name="NPACO">   256</i>
   <i name="APACO">     16.00000000</i>
  </separator>
  <separator name="symmetry" >
   <i type="int" name="ISYM">     2</i>
   <i name="SYMPREC">      0.00001000</i>
  </separator>
  <separator name="dos" >
   <i type="logical" name="LORBIT"> F  </i>
   <v name="RWIGS">     -1.00000000</v>
   <i type="int" name="NEDOS">   301</i>
   <i name="EMIN">     10.00000000</i>
   <i name="EMAX">    -10.00000000</i>
   <i name="EFERMI">      0.00000000</i>
  </separator>
  <separator name="writing" >
   <i type="int" name="NWRITE">     2</i>
   <i type="logical" name="LWAVE"> F  </i>
   <i type="logical" name="LCHARG"> F  </i>
   <i type="logical" name="LPARD"> F  </i>
   <i type="logical" name="LVTOT"> F  </i>
   <i type="logical" name="LVHAR"> F  </i>
   <i type="logical" name="LELF"> F  </i>
   <i type="logical" name="LOPTICS"> F  </i>
   <v name="STM">      0.00000000      0.00000000      0.00000000      0.00000000      0.00000000      0.00000000      0.00000000</v>
  </separator>
  <separator name="performance" >
   <i type="int" name="NPAR">     4</i>
   <i type="int" name="NSIM">     4</i>
   <i type="int" name="NBLK">    -1</i>
   <i type="logical" name="LPLANE"> T  </i>
   <i type="logical" name="LSCALAPACK"> F  </i>
   <i type="logical" name="LSCAAWARE"> F  </i>
   <i type="logical" name="LSCALU"> F  </i>
   <i type="logical" name="LASYNC"> F  </i>
   <i type="logical" name="LORBITALREAL"> F  </i>
  </separator>
  <separator name="miscellaneous" >
   <i type="int" name="IDIOT">     3</i>
   <i type="logical" name="LMUSIC"> F  </i>
   <v name="POMASS">     12.01100000</v>
   <v name="DARWINR">      0.00000000</v>
   <v name="DARWINV">      1.00000000</v>
   <i type="logical" name="LCORR"> T  </i>
  </separator>
  <i type="logical" name="GGA_COMPAT"> T  </i>
  <i type="logical" name="LBERRY"> F  </i>
  <i type="int" name="ICORELEVEL">     0</i>
  <i type="logical" name="LDAU"> F  </i>
  <i type="int" name="I_CONSTRAINED_M">     0</i>
  <separator name="electronic exchange-correlation" >
   <i type="string" name="GGA">--</i>
   <i type="int" name="VOSKOWN">     0</i>
   <i type="logical" name="LHFCALC"> F  </i>
   <i type="string" name="PRECFOCK"></i>
   <i type="logical" name="LSYMGRAD"> F  </i>
   <i type="logical" name="LHFONE"> F  </i>
   <i type="logical" name="LRHFCALC"> F  </i>
   <i type="logical" name="LTHOMAS"> F  </i>
   <i type="logical" name="LMODELHF"> F  </i>
   <i name="ENCUT4O">     -1.00000000</i>
   <i type="int" name="EXXOEP">     0</i>
   <i type="int" name="FOURORBIT">     0</i>
   <i name="AEXX">      0.00000000</i>
   <i name="HFALPHA">      0.00000000</i>
   <i name="MCALPHA">      0.00000000</i>
   <i name="ALDAX">      1.00000000</i>
   <i name="AGGAX">      1.00000000</i>
   <i name="ALDAC">      1.00000000</i>
   <i name="AGGAC">      1.00000000</i>
   <i type="int" name="NKREDX">     1</i>
   <i type="int" name="NKREDY">     1</i>
   <i type="int" name="NKREDZ">     1</i>
   <i type="logical" name="SHIFTRED"> F  </i>
   <i type="logical" name="ODDONLY"> F  </i>
   <i type="logical" name="EVENONLY"> F  </i>
   <i type="int" name="LMAXFOCK">     0</i>
   <i type="int" name="NMAXFOCKAE">     0</i>
   <i type="logical" name="LFOCKAEDFT"> F  </i>
   <i name="HFSCREEN">      0.00000000</i>
   <i name="HFSCREENC">      0.00000000</i>
   <i type="int" name="NBANDSGWLOW">     0</i>
  </separator>
  <separator name="vdW DFT" >
   <i type="logical" name="LUSE_VDW"> F  </i>
   <i name="Zab_VDW">     -0.84910000</i>
   <i name="PARAM1">      0.12340000</i>
   <i name="PARAM2">      1.00000000</i>
   <i name="PARAM3">      0.00000000</i>
  </separator>
  <separator name="model GW" >
   <i type="int" name="MODEL_GW">     0</i>
   <i name="MODEL_EPS0">     31.62568521</i>
   <i name="MODEL_ALPHA">      1.00000000</i>
  </separator>
  <separator name="linear response parameters" >
   <i type="logical" name="LEPSILON"> F  </i>
   <i type="logical" name="LRPA"> F  </i>
   <i type="logical" name="LNABLA"> F  </i>
   <i type="logical" name="LVEL"> F  </i>
   <i type="int" name="KINTER">     0</i>
   <i name="CSHIFT">      0.10000000</i>
   <i name="OMEGAMAX">     -1.00000000</i>
   <i name="DEG_THRESHOLD">      0.00200000</i>
  </separator>
  <separator name="orbital magnetization" >
   <i type="logical" name="NUCIND"> F  </i>
   <v name="MAGPOS">      0.00000000      0.00000000      0.00000000</v>
   <i type="logical" name="LNICSALL"> T  </i>
   <i type="logical" name="ORBITALMAG"> F  </i>
   <i type="logical" name="LMAGBLOCH"> F  </i>
   <i type="logical" name="LCHIMAG"> F  </i>
   <i type="logical" name="LGAUGE"> T  </i>
   <i type="int" name="MAGATOM">     0</i>
   <v name="MAGDIPOL">      0.00000000      0.00000000      0.00000000</v>
   <v name="AVECCONST">      0.00000000      0.00000000      0.00000000</v>
  </separator>
  <separator name="response functions" >
   <i type="logical" name="LADDER"> F  </i>
   <i type="logical" name="LFXC"> F  </i>
   <i type="logical" name="LHARTREE"> T  </i>
   <i type="int" name="IBSE">     0</i>
   <i type="logical" name="LTCTE"> F  </i>
   <i type="logical" name="LTETE"> F  </i>
   <i type="logical" name="LTRIPLET"> F  </i>
   <i type="logical" name="LFXCEPS"> F  </i>
   <i type="logical" name="LFXHEG"> F  </i>
   <i type="logical" name="L2ORDER"> F  </i>
   <i type="logical" name="LUSEW"> F  </i>
   <i name="ENCUTGW">     -2.00000000</i>
   <i name="ENCUTGWSOFT">     -2.00000000</i>
   <i name="ENCUTLF">     -1.00000000</i>
   <i type="int" name="LMAXMP2">    -1</i>
   <i name="SCISSOR">      0.00000000</i>
   <i type="int" name="NOMEGA">     0</i>
   <i type="int" name="NOMEGAR">     0</i>
   <i type="int" name="NBANDSGW">    -1</i>
   <i type="int" name="NBANDSO">    -1</i>
   <i type="int" name="NBANDSV">    -1</i>
   <i type="int" name="NELM">   100</i>
   <i type="int" name="DIM">     3</i>
   <i type="int" name="ANTIRES">     0</i>
   <i name="OMEGAMAX">    -30.00000000</i>
   <i name="OMEGAMIN">    -30.00000000</i>
   <i name="OMEGATL">   -200.00000000</i>
   <i type="int" name="OMEGAGRID">     0</i>
   <i name="CSHIFT">     -0.10000000</i>
   <i type="logical" name="SELFENERGY"> F  </i>
   <i type="logical" name="LSPECTRAL"> F  </i>
   <i type="logical" name="ODDONLYGW"> F  </i>
   <i type="logical" name="EVENONLYGW"> F  </i>
   <i type="int" name="NKREDLFX">     1</i>
   <i type="int" name="NKREDLFY">     1</i>
   <i type="int" name="NKREDLFZ">     1</i>
   <i type="int" name="MAXMEM">  1800</i>
   <i type="int" name="TELESCOPE">     0</i>
   <i type="int" name="TAUPAR">     1</i>
  </separator>
  <separator name="External order field" >
   <i name="OFIELD_KAPPA">      0.00000000</i>
   <v name="OFIELD_K">      0.00000000      0.00000000      0.00000000</v>
   <i name="OFIELD_Q6_NEAR">      0.00000000</i>
   <i name="OFIELD_Q6_FAR">      0.00000000</i>
   <i name="OFIELD_A">      0.00000000</i>
  </separator>
 </parameters>
 <atominfo>
  <atoms>       4 </atoms>
  <types>       1 </types>
  <array name="atoms" >
   <dimension dim="1">ion</dimension>
   <field type="string">element</field>
   <field type="int">atomtype</field>
   <set>
    <rc><c>C </c><c>   1</c></rc>
    <rc><c>C </c><c>   1</c></rc>
    <rc><c>C </c><c>   1</c></rc>
    <rc><c>C </c><c>   1</c></rc>
   </set>
  </array>
  <array name="atomtypes" >
   <dimension dim="1">type</dimension>
   <field type="int">atomspertype</field>
   <field type="string">element</field>
   <field>mass</field>
   <field>valence</field>
   <field type="string">pseudopotential</field>
   <set>
    <rc><c>   4</c><c>C </c><c>     12.01100000</c><c>      4.00000000</c><c> PAW_PBE C 08Apr2002                    </c></rc>
   </set>
  </array>
 </atominfo>
 <structure name="initialpos" >
  <crystal>
   <varray name="basis" >
    <v>       4.26947033       0.00000000       0.00000000 </v>
    <v>       0.00000000       2.47938964       0.00000000 </v>
    <v>       0.00000000       0.00000000      19.91727424 </v>
   </varray>
   <i name="volume">    210.83790140 </i>
   <varray name="rec_basis" >
    <v>       0.23422109       0.00000000       0.00000000 </v>
    <v>       0.00000000       0.40332507       0.00000000 </v>
    <v>       0.00000000       0.00000000       0.05020767 </v>
   </varray>
  </crystal>
  <varray name="positions" >
   <v>       0.00013158       0.00000000       0.00000000 </v>
   <v>       0.16653509       0.50000000       0.00000000 </v>
   <v>       0.50013158       0.50000000       0.00000000 </v>
   <v>       0.66653509       0.00000000       0.00000000 </v>
  </varray>
 </structure>
 <calculation>
  <scstep>
   <time name="dav">  297.37  299.27</time>
   <time name="total">  299.88  301.81</time>
   <energy>
    <i name="alphaZ">      6.18334092 </i>
    <i name="ewald">   2558.85968540 </i>
    <i name="hartreedc">  -2985.07732877 </i>
    <i name="XCdc">     55.04118946 </i>
    <i name="pawpsdc">    151.32577238 </i>
    <i name="pawaedc">   -155.92769107 </i>
    <i name="eentropy">     -0.00183807 </i>
    <i name="bandstr">    -29.33035438 </i>
    <i name="atom">    588.62352690 </i>
    <i name="e_fr_energy">    189.69630278 </i>
    <i name="e_wo_entrp">    189.69814085 </i>
    <i name="e_0_energy">    189.69722181 </i>
   </energy>
  </scstep>
  <scstep>
   <time name="dav">  455.33  457.34</time>
   <time name="total">  455.34  457.36</time>
   <energy>
    <i name="e_fr_energy">     -9.34462662 </i>
    <i name="e_wo_entrp">     -9.34436273 </i>
    <i name="e_0_energy">     -9.34449468 </i>
   </energy>
  </scstep>
  <scstep>
   <time name="dav">  345.52  347.28</time>
   <time name="total">  375.83  377.85</time>
   <energy>
    <i name="e_fr_energy">    -38.37182848 </i>
    <i name="e_wo_entrp">    -38.37178365 </i>
    <i name="e_0_energy">    -38.37180607 </i>
   </energy>
  </scstep>
  <scstep>
   <time name="diag">   79.57   79.89</time>
   <time name="diis">  342.79  343.03</time>
   <time name="orth">    3.08    3.10</time>
   <time name="total">  458.07  458.86</time>
   <energy>
    <i name="e_fr_energy">    -37.69222474 </i>
    <i name="e_wo_entrp">    -37.69214250 </i>
    <i name="e_0_energy">    -37.69218362 </i>
   </energy>
  </scstep>
  <scstep>
   <time name="diag">   79.52   79.95</time>
   <time name="diis">  340.78  341.70</time>
   <time name="orth">    3.08    3.08</time>
   <time name="total">  456.19  457.56</time>
   <energy>
    <i name="e_fr_energy">    -36.93379977 </i>
    <i name="e_wo_entrp">    -36.93370894 </i>
    <i name="e_0_energy">    -36.93375436 </i>
   </energy>
  </scstep>
  <scstep>
   <time name="diag">   79.93   79.95</time>
   <time name="diis">  374.75  374.91</time>
   <time name="orth">    3.10    3.10</time>
   <time name="total">  490.56  491.05</time>
   <energy>
    <i name="e_fr_energy">    -36.93520150 </i>
    <i name="e_wo_entrp">    -36.93511056 </i>
    <i name="e_0_energy">    -36.93515603 </i>
   </energy>
  </scstep>
  <scstep>
   <time name="diag">   79.89   79.93</time>
   <time name="diis">  338.72  338.79</time>
   <time name="orth">    3.10    3.10</time>
   <time name="total">  454.58  454.72</time>
   <energy>
    <i name="e_fr_energy">    -36.92582795 </i>
    <i name="e_wo_entrp">    -36.92573805 </i>
    <i name="e_0_energy">    -36.92578300 </i>
   </energy>
  </scstep>
  <scstep>
   <time name="diag">   79.96   79.99</time>
   <time name="diis">  340.71  340.77</time>
   <time name="orth">    3.09    3.09</time>
   <time name="total">  456.58  456.74</time>
   <energy>
    <i name="e_fr_energy">    -36.91991623 </i>
    <i name="e_wo_entrp">    -36.91982592 </i>
    <i name="e_0_energy">    -36.91987107 </i>
   </energy>
  </scstep>
  <scstep>
   <time name="diag">   79.84   79.86</time>
   <time name="diis">  323.35  323.41</time>
   <time name="orth">    3.10    3.10</time>
   <time name="total">  439.13  439.29</time>
   <energy>
    <i name="e_fr_energy">    -36.91966003 </i>
    <i name="e_wo_entrp">    -36.91956907 </i>
    <i name="e_0_energy">    -36.91961455 </i>
   </energy>
  </scstep>
  <scstep>
   <time name="diag">   79.84   79.88</time>
   <time name="diis">  323.57  323.68</time>
   <time name="orth">    3.10    3.10</time>
   <time name="total">  439.30  439.46</time>
   <energy>
    <i name="e_fr_energy">    -36.91942074 </i>
    <i name="e_wo_entrp">    -36.91933015 </i>
    <i name="e_0_energy">    -36.91937545 </i>
   </energy>
  </scstep>
  <scstep>
   <time name="diag">   79.80   79.97</time>
   <time name="diis">  323.76  325.38</time>
   <time name="orth">    3.08    3.10</time>
   <time name="total">  439.51  441.37</time>
   <energy>
    <i name="e_fr_energy">    -36.92199381 </i>
    <i name="e_wo_entrp">    -36.92190340 </i>
    <i name="e_0_energy">    -36.92194860 </i>
   </energy>
  </scstep>
  <scstep>
   <time name="diag">   79.91   79.93</time>
   <time name="diis">  325.00  325.06</time>
   <time name="orth">    3.08    3.08</time>
   <time name="total">  440.86  440.97</time>
   <energy>
    <i name="e_fr_energy">    -36.92243160 </i>
    <i name="e_wo_entrp">    -36.92234103 </i>
    <i name="e_0_energy">    -36.92238631 </i>
   </energy>
  </scstep>
  <scstep>
   <time name="diag">   79.84   79.92</time>
   <time name="diis">  329.54  329.61</time>
   <time name="orth">    3.07    3.08</time>
   <time name="total">  445.24  445.43</time>
   <energy>
    <i name="e_fr_energy">    -36.92269961 </i>
    <i name="e_wo_entrp">    -36.92260901 </i>
    <i name="e_0_energy">    -36.92265431 </i>
   </energy>
  </scstep>
  <scstep>
   <time name="diag">   79.89   79.90</time>
   <time name="diis">  324.02  324.80</time>
   <time name="orth">    3.08    3.08</time>
   <time name="total">  439.79  440.64</time>
   <energy>
    <i name="e_fr_energy">    -36.92278442 </i>
    <i name="e_wo_entrp">    -36.92269387 </i>
    <i name="e_0_energy">    -36.92273915 </i>
   </energy>
  </scstep>
  <scstep>
   <time name="diag">   79.56   79.94</time>
   <time name="diis">  329.08  330.72</time>
   <time name="orth">    3.09    3.10</time>
   <time name="total">  444.40  446.82</time>
   <energy>
    <i name="e_fr_energy">    -36.92279313 </i>
    <i name="e_wo_entrp">    -36.92270257 </i>
    <i name="e_0_energy">    -36.92274785 </i>
   </energy>
  </scstep>
  <scstep>
   <time name="diag">   79.69   79.86</time>
   <time name="diis">  329.55  331.60</time>
   <time name="orth">    3.08    3.08</time>
   <time name="total">  444.84  447.36</time>
   <energy>
    <i name="e_fr_energy">    -36.92280494 </i>
    <i name="e_wo_entrp">    -36.92271436 </i>
    <i name="e_0_energy">    -36.92275965 </i>
   </energy>
  </scstep>
  <scstep>
   <time name="diag">   79.42   79.87</time>
   <time name="diis">  333.76  334.46</time>
   <time name="orth">    3.08    3.08</time>
   <time name="total">  449.01  450.23</time>
   <energy>
    <i name="e_fr_energy">    -36.92280862 </i>
    <i name="e_wo_entrp">    -36.92271805 </i>
    <i name="e_0_energy">    -36.92276334 </i>
   </energy>
  </scstep>
  <scstep>
   <time name="diag">   79.74   79.84</time>
   <time name="diis">  322.22  322.95</time>
   <time name="orth">    3.10    3.10</time>
   <time name="total">  437.85  438.76</time>
   <energy>
    <i name="e_fr_energy">    -36.92281042 </i>
    <i name="e_wo_entrp">    -36.92271985 </i>
    <i name="e_0_energy">    -36.92276513 </i>
   </energy>
  </scstep>
  <scstep>
   <time name="diag">   79.96   80.00</time>
   <time name="diis">  340.88  341.37</time>
   <time name="orth">    3.08    3.08</time>
   <time name="total">  456.35  457.12</time>
   <energy>
    <i name="e_fr_energy">    -36.92281090 </i>
    <i name="e_wo_entrp">    -36.92272032 </i>
    <i name="e_0_energy">    -36.92276561 </i>
   </energy>
  </scstep>
  <scstep>
   <time name="diag">   79.92   79.95</time>
   <time name="diis">  256.19  256.23</time>
   <time name="orth">    3.10    3.10</time>
   <time name="total">  371.76  371.94</time>
   <energy>
    <i name="e_fr_energy">    -36.92281095 </i>
    <i name="e_wo_entrp">    -36.92272037 </i>
    <i name="e_0_energy">    -36.92276566 </i>
   </energy>
  </scstep>
  <scstep>
   <time name="diag">   79.92   79.95</time>
   <time name="diis">  254.50  255.40</time>
   <time name="orth">    3.10    3.10</time>
   <time name="total">  370.14  371.09</time>
   <energy>
    <i name="e_fr_energy">    -36.92281097 </i>
    <i name="e_wo_entrp">    -36.92272039 </i>
    <i name="e_0_energy">    -36.92276568 </i>
   </energy>
  </scstep>
  <scstep>
   <time name="diag">   79.94   80.05</time>
   <time name="diis">  225.85  225.90</time>
   <time name="orth">    3.08    3.08</time>
   <time name="total">  311.29  311.46</time>
   <energy>
    <i name="alphaZ">      6.18334092 </i>
    <i name="ewald">   2558.85968540 </i>
    <i name="hartreedc">  -3052.87454541 </i>
    <i name="XCdc">     57.44599157 </i>
    <i name="pawpsdc">    275.39621813 </i>
    <i name="pawaedc">   -280.53741690 </i>
    <i name="eentropy">     -0.00009057 </i>
    <i name="bandstr">   -190.01952101 </i>
    <i name="atom">    588.62352690 </i>
    <i name="e_fr_energy">    -36.92281097 </i>
    <i name="e_wo_entrp">    -36.92272039 </i>
    <i name="e_0_energy">    -36.92276568 </i>
   </energy>
  </scstep>
  <structure>
   <crystal>
    <varray name="basis" >
     <v>       4.26947033       0.00000000       0.00000000 </v>
     <v>       0.00000000       2.47938964       0.00000000 </v>
     <v>       0.00000000       0.00000000      19.91727424 </v>
    </varray>
    <i name="volume">    210.83790140 </i>
    <varray name="rec_basis" >
     <v>       0.23422109       0.00000000       0.00000000 </v>
     <v>       0.00000000       0.40332507       0.00000000 </v>
     <v>       0.00000000       0.00000000       0.05020767 </v>
    </varray>
   </crystal>
   <varray name="positions" >
    <v>       0.00013158       0.00000000       0.00000000 </v>
    <v>       0.16653509       0.50000000       0.00000000 </v>
    <v>       0.50013158       0.50000000       0.00000000 </v>
    <v>       0.66653509       0.00000000       0.00000000 </v>
   </varray>
  </structure>
  <varray name="forces" >
   <v>      -0.00175496       0.00000000       0.00000000 </v>
   <v>       0.00175496       0.00000000       0.00000000 </v>
   <v>      -0.00175496      -0.00000000       0.00000000 </v>
   <v>       0.00175496       0.00000000       0.00000000 </v>
  </varray>
  <varray name="stress" >
   <v>      -0.01131861       0.00000000       0.00000000 </v>
   <v>       0.00000000      -8.25298171       0.00000000 </v>
   <v>       0.00000000       0.00000000      -0.01016301 </v>
  </varray>
  <energy>
   <i name="e_fr_energy">    -36.92281097 </i>
   <i name="e_wo_entrp">    -36.92276568 </i>
   <i name="e_0_energy">     -0.00009057 </i>
  </energy>
  <time name="totalsc"> 9478.88 9500.48</time>
 </calculation>
 <calculation>
  <scstep>
   <time name="dav">  319.34  320.32</time>
   <time name="total">  351.81  352.81</time>
   <energy>
    <i name="alphaZ">      6.18334092 </i>
    <i name="ewald">   2558.86005432 </i>
    <i name="hartreedc">  -3052.87470832 </i>
    <i name="XCdc">     57.44600218 </i>
    <i name="pawpsdc">    275.39624287 </i>
    <i name="pawaedc">   -280.53744170 </i>
    <i name="eentropy">     -0.00008788 </i>
    <i name="bandstr">   -190.01973936 </i>
    <i name="atom">    588.62352690 </i>
    <i name="e_fr_energy">    -36.92281007 </i>
    <i name="e_wo_entrp">    -36.92272219 </i>
    <i name="e_0_energy">    -36.92276613 </i>
   </energy>
  </scstep>
  <scstep>
   <time name="diag">   79.80   79.94</time>
   <time name="diis">  326.61  327.28</time>
   <time name="orth">    3.08    3.09</time>
   <time name="total">  441.79  442.80</time>
   <energy>
    <i name="e_fr_energy">    -36.92281011 </i>
    <i name="e_wo_entrp">    -36.92272214 </i>
    <i name="e_0_energy">    -36.92276613 </i>
   </energy>
  </scstep>
  <scstep>
   <time name="diag">   79.56   79.93</time>
   <time name="diis">  328.43  329.11</time>
   <time name="orth">    3.12    3.12</time>
   <time name="total">  443.78  444.89</time>
   <energy>
    <i name="e_fr_energy">    -36.92281008 </i>
    <i name="e_wo_entrp">    -36.92272194 </i>
    <i name="e_0_energy">    -36.92276601 </i>
   </energy>
  </scstep>
  <scstep>
   <time name="diag">   79.92   79.97</time>
   <time name="diis">  333.81  334.38</time>
   <time name="orth">    3.08    3.10</time>
   <time name="total">  449.26  450.06</time>
   <energy>
    <i name="e_fr_energy">    -36.92281007 </i>
    <i name="e_wo_entrp">    -36.92272198 </i>
    <i name="e_0_energy">    -36.92276603 </i>
   </energy>
  </scstep>
  <scstep>
   <time name="diag">   79.52   79.93</time>
   <time name="diis">  304.90  305.03</time>
   <time name="orth">    3.08    3.08</time>
   <time name="total">  420.03  421.04</time>
   <energy>
    <i name="e_fr_energy">    -36.92281007 </i>
    <i name="e_wo_entrp">    -36.92272198 </i>
    <i name="e_0_energy">    -36.92276603 </i>
   </energy>
  </scstep>
  <scstep>
   <time name="diag">   79.89   79.93</time>
   <time name="diis">  224.39  224.53</time>
   <time name="orth">    3.08    3.08</time>
   <time name="total">  309.69  309.94</time>
   <energy>
    <i name="alphaZ">      6.18334092 </i>
    <i name="ewald">   2558.86005432 </i>
    <i name="hartreedc">  -3052.87487643 </i>
    <i name="XCdc">     57.44600933 </i>
    <i name="pawpsdc">    275.39692491 </i>
    <i name="pawaedc">   -280.53812692 </i>
    <i name="eentropy">     -0.00008809 </i>
    <i name="bandstr">   -190.01957502 </i>
    <i name="atom">    588.62352690 </i>
    <i name="e_fr_energy">    -36.92281007 </i>
    <i name="e_wo_entrp">    -36.92272198 </i>
    <i name="e_0_energy">    -36.92276603 </i>
   </energy>
  </scstep>
  <structure>
   <crystal>
    <varray name="basis" >
     <v>       4.26947033       0.00000000       0.00000000 </v>
     <v>       0.00000000       2.47938964       0.00000000 </v>
     <v>       0.00000000       0.00000000      19.91727424 </v>
    </varray>
    <i name="volume">    210.83790140 </i>
    <varray name="rec_basis" >
     <v>       0.23422109       0.00000000       0.00000000 </v>
     <v>       0.00000000       0.40332507       0.00000000 </v>
     <v>       0.00000000       0.00000000       0.05020767 </v>
    </varray>
   </crystal>
   <varray name="positions" >
    <v>       0.00011175       0.00000000       0.00000000 </v>
    <v>       0.16655492       0.50000000       0.00000000 </v>
    <v>       0.50011175       0.50000000       0.00000000 </v>
    <v>       0.66655492       0.00000000       0.00000000 </v>
   </varray>
  </structure>
  <varray name="forces" >
   <v>       0.00705849      -0.00000000       0.00000000 </v>
   <v>      -0.00705849       0.00000000       0.00000000 </v>
   <v>       0.00705849      -0.00000000       0.00000000 </v>
   <v>      -0.00705849      -0.00000000       0.00000000 </v>
  </varray>
  <varray name="stress" >
   <v>       0.01626089       0.00000000       0.00000000 </v>
   <v>       0.00000000      -8.27763927       0.00000000 </v>
   <v>       0.00000000       0.00000000      -0.01004721 </v>
  </varray>
  <energy>
   <i name="e_fr_energy">    -36.92281007 </i>
   <i name="e_wo_entrp">    -36.92276603 </i>
   <i name="e_0_energy">     -0.00008809 </i>
  </energy>
  <time name="totalsc"> 2518.95 2524.30</time>
 </calculation>
 <calculation>
  <scstep>
   <time name="dav">  313.27  313.37</time>
   <time name="total">  345.89  346.00</time>
   <energy>
    <i name="alphaZ">      6.18334092 </i>
    <i name="ewald">   2558.85975805 </i>
    <i name="hartreedc">  -3052.87475232 </i>
    <i name="XCdc">     57.44600103 </i>
    <i name="pawpsdc">    275.39692189 </i>
    <i name="pawaedc">   -280.53812395 </i>
    <i name="eentropy">     -0.00009025 </i>
    <i name="bandstr">   -190.01939330 </i>
    <i name="atom">    588.62352690 </i>
    <i name="e_fr_energy">    -36.92281103 </i>
    <i name="e_wo_entrp">    -36.92272078 </i>
    <i name="e_0_energy">    -36.92276591 </i>
   </energy>
  </scstep>
  <scstep>
   <time name="diag">   80.01   80.02</time>
   <time name="diis">  325.64  326.52</time>
   <time name="orth">    3.08    3.08</time>
   <time name="total">  441.28  442.32</time>
   <energy>
    <i name="e_fr_energy">    -36.92281106 </i>
    <i name="e_wo_entrp">    -36.92272088 </i>
    <i name="e_0_energy">    -36.92276597 </i>
   </energy>
  </scstep>
  <scstep>
   <time name="diag">   79.57   79.96</time>
   <time name="diis">  329.03  329.39</time>
   <time name="orth">    3.08    3.08</time>
   <time name="total">  444.15  445.01</time>
   <energy>
    <i name="e_fr_energy">    -36.92281103 </i>
    <i name="e_wo_entrp">    -36.92272098 </i>
    <i name="e_0_energy">    -36.92276600 </i>
   </energy>
  </scstep>
  <scstep>
   <time name="diag">   79.76   79.92</time>
   <time name="diis">  332.61  334.26</time>
   <time name="orth">    3.08    3.08</time>
   <time name="total">  447.67  449.65</time>
   <energy>
    <i name="e_fr_energy">    -36.92281103 </i>
    <i name="e_wo_entrp">    -36.92272095 </i>
    <i name="e_0_energy">    -36.92276599 </i>
   </energy>
  </scstep>
  <scstep>
   <time name="diag">   79.54   79.92</time>
   <time name="diis">  277.22  277.36</time>
   <time name="orth">    3.12    3.12</time>
   <time name="total">  392.32  393.04</time>
   <energy>
    <i name="e_fr_energy">    -36.92281103 </i>
    <i name="e_wo_entrp">    -36.92272094 </i>
    <i name="e_0_energy">    -36.92276599 </i>
   </energy>
  </scstep>
  <scstep>
   <time name="diag">   79.91   79.93</time>
   <time name="diis">  220.19  220.24</time>
   <time name="orth">    3.08    3.08</time>
   <time name="total">  335.90  336.09</time>
   <energy>
    <i name="e_fr_energy">    -36.92281103 </i>
    <i name="e_wo_entrp">    -36.92272095 </i>
    <i name="e_0_energy">    -36.92276599 </i>
   </energy>
  </scstep>
  <scstep>
   <time name="diag">   79.93   79.96</time>
   <time name="diis">  220.97  221.01</time>
   <time name="orth">    3.10    3.10</time>
   <time name="total">  306.42  306.49</time>
   <energy>
    <i name="alphaZ">      6.18334092 </i>
    <i name="ewald">   2558.85975805 </i>
    <i name="hartreedc">  -3052.87463480 </i>
    <i name="XCdc">     57.44599600 </i>
    <i name="pawpsdc">    275.39638633 </i>
    <i name="pawaedc">   -280.53758615 </i>
    <i name="eentropy">     -0.00009008 </i>
    <i name="bandstr">   -190.01950820 </i>
    <i name="atom">    588.62352690 </i>
    <i name="e_fr_energy">    -36.92281103 </i>
    <i name="e_wo_entrp">    -36.92272095 </i>
    <i name="e_0_energy">    -36.92276599 </i>
   </energy>
  </scstep>
  <structure>
   <crystal>
    <varray name="basis" >
     <v>       4.26947033       0.00000000       0.00000000 </v>
     <v>       0.00000000       2.47938964       0.00000000 </v>
     <v>       0.00000000       0.00000000      19.91727424 </v>
    </varray>
    <i name="volume">    210.83790140 </i>
    <varray name="rec_basis" >
     <v>       0.23422109       0.00000000       0.00000000 </v>
     <v>       0.00000000       0.40332507       0.00000000 </v>
     <v>       0.00000000       0.00000000       0.05020767 </v>
    </varray>
   </crystal>
   <varray name="positions" >
    <v>       0.00012763      -0.00000000       0.00000000 </v>
    <v>       0.16653904       0.50000000       0.00000000 </v>
    <v>       0.50012763       0.50000000       0.00000000 </v>
    <v>       0.66653904       0.00000000       0.00000000 </v>
   </varray>
  </structure>
  <varray name="forces" >
   <v>       0.00000923      -0.00000000       0.00000000 </v>
   <v>      -0.00000923       0.00000000      -0.00000000 </v>
   <v>       0.00000923       0.00000000       0.00000000 </v>
   <v>      -0.00000923      -0.00000000      -0.00000000 </v>
  </varray>
  <varray name="stress" >
   <v>      -0.00572825       0.00000000       0.00000000 </v>
   <v>       0.00000000      -8.25796158       0.00000000 </v>
   <v>       0.00000000       0.00000000      -0.01006107 </v>
  </varray>
  <energy>
   <i name="e_fr_energy">    -36.92281103 </i>
   <i name="e_wo_entrp">    -36.92276599 </i>
   <i name="e_0_energy">     -0.00009008 </i>
  </energy>
  <time name="totalsc"> 2815.51 2820.84</time>
 </calculation>
 <calculation>
  <scstep>
   <time name="dav">  250.13  250.47</time>
   <time name="total">  282.74  283.09</time>
   <energy>
    <i name="alphaZ">      6.18334092 </i>
    <i name="ewald">   2558.85975766 </i>
    <i name="hartreedc">  -3052.87463383 </i>
    <i name="XCdc">     57.44599596 </i>
    <i name="pawpsdc">    275.39639286 </i>
    <i name="pawaedc">   -280.53759266 </i>
    <i name="eentropy">     -0.00009008 </i>
    <i name="bandstr">   -190.01950877 </i>
    <i name="atom">    588.62352690 </i>
    <i name="e_fr_energy">    -36.92281103 </i>
    <i name="e_wo_entrp">    -36.92272094 </i>
    <i name="e_0_energy">    -36.92276599 </i>
   </energy>
  </scstep>
  <scstep>
   <time name="diag">   79.97   80.00</time>
   <time name="diis">  202.32  203.15</time>
   <time name="orth">    3.08    3.08</time>
   <time name="total">  317.97  318.97</time>
   <energy>
    <i name="e_fr_energy">    -36.92281103 </i>
    <i name="e_wo_entrp">    -36.92272094 </i>
    <i name="e_0_energy">    -36.92276599 </i>
   </energy>
  </scstep>
  <scstep>
   <time name="diag">   79.56   79.95</time>
   <time name="diis">  192.58  193.35</time>
   <time name="orth">    3.08    3.08</time>
   <time name="total">  307.93  309.14</time>
   <energy>
    <i name="e_fr_energy">    -36.92281103 </i>
    <i name="e_wo_entrp">    -36.92272094 </i>
    <i name="e_0_energy">    -36.92276599 </i>
   </energy>
  </scstep>
  <scstep>
   <time name="diag">   79.94   79.96</time>
   <time name="diis">  185.28  185.31</time>
   <time name="orth">    3.08    3.08</time>
   <time name="total">  301.04  301.09</time>
   <energy>
    <i name="e_fr_energy">    -36.92281103 </i>
    <i name="e_wo_entrp">    -36.92272094 </i>
    <i name="e_0_energy">    -36.92276599 </i>
   </energy>
  </scstep>
  <scstep>
   <time name="diag">   79.21   79.97</time>
   <time name="diis">  177.95  178.31</time>
   <time name="orth">    3.08    3.08</time>
   <time name="total">  292.51  294.05</time>
   <energy>
    <i name="e_fr_energy">    -36.92281103 </i>
    <i name="e_wo_entrp">    -36.92272094 </i>
    <i name="e_0_energy">    -36.92276599 </i>
   </energy>
  </scstep>
  <scstep>
   <time name="diag">   79.83   79.97</time>
   <time name="diis">  173.43  173.68</time>
   <time name="orth">    3.12    3.17</time>
   <time name="total">  258.79  259.24</time>
   <energy>
    <i name="alphaZ">      6.18334092 </i>
    <i name="ewald">   2558.85975766 </i>
    <i name="hartreedc">  -3052.87463224 </i>
    <i name="XCdc">     57.44599595 </i>
    <i name="pawpsdc">    275.39639216 </i>
    <i name="pawaedc">   -280.53759197 </i>
    <i name="eentropy">     -0.00009008 </i>
    <i name="bandstr">   -190.01951034 </i>
    <i name="atom">    588.62352690 </i>
    <i name="e_fr_energy">    -36.92281103 </i>
    <i name="e_wo_entrp">    -36.92272094 </i>
    <i name="e_0_energy">    -36.92276599 </i>
   </energy>
  </scstep>
  <structure>
   <crystal>
    <varray name="basis" >
     <v>       4.26947033       0.00000000       0.00000000 </v>
     <v>       0.00000000       2.47938964       0.00000000 </v>
     <v>       0.00000000       0.00000000      19.91727424 </v>
    </varray>
    <i name="volume">    210.83790140 </i>
    <varray name="rec_basis" >
     <v>       0.23422109       0.00000000       0.00000000 </v>
     <v>       0.00000000       0.40332507       0.00000000 </v>
     <v>       0.00000000       0.00000000       0.05020767 </v>
    </varray>
   </crystal>
   <varray name="positions" >
    <v>       0.00012765      -0.00000000       0.00000000 </v>
    <v>       0.16653902       0.50000000      -0.00000000 </v>
    <v>       0.50012765       0.50000000       0.00000000 </v>
    <v>       0.66653902      -0.00000000      -0.00000000 </v>
   </varray>
  </structure>
  <varray name="forces" >
   <v>      -0.00001147      -0.00000000       0.00000000 </v>
   <v>       0.00001147       0.00000000      -0.00000000 </v>
   <v>      -0.00001147       0.00000000       0.00000000 </v>
   <v>       0.00001147      -0.00000000      -0.00000000 </v>
  </varray>
  <varray name="stress" >
   <v>      -0.00582276       0.00000000       0.00000000 </v>
   <v>       0.00000000      -8.25786165       0.00000000 </v>
   <v>       0.00000000       0.00000000      -0.01005946 </v>
  </varray>
  <energy>
   <i name="e_fr_energy">    -36.92281103 </i>
   <i name="e_wo_entrp">    -36.92276599 </i>
   <i name="e_0_energy">     -0.00009008 </i>
  </energy>
  <time name="totalsc"> 1862.95 1872.27</time>
 </calculation>
 <calculation>
  <scstep>
   <time name="dav">  244.84  245.47</time>
   <time name="total">  277.45  278.13</time>
   <energy>
    <i name="alphaZ">      6.18334092 </i>
    <i name="ewald">   2558.85975788 </i>
    <i name="hartreedc">  -3052.87463221 </i>
    <i name="XCdc">     57.44599595 </i>
    <i name="pawpsdc">    275.39639216 </i>
    <i name="pawaedc">   -280.53759197 </i>
    <i name="eentropy">     -0.00009008 </i>
    <i name="bandstr">   -190.01951059 </i>
    <i name="atom">    588.62352690 </i>
    <i name="e_fr_energy">    -36.92281103 </i>
    <i name="e_wo_entrp">    -36.92272095 </i>
    <i name="e_0_energy">    -36.92276599 </i>
   </energy>
  </scstep>
  <scstep>
   <time name="diag">   79.76   79.97</time>
   <time name="diis">  152.86  154.09</time>
   <time name="orth">    3.09    3.10</time>
   <time name="total">  267.85  269.57</time>
   <energy>
    <i name="e_fr_energy">    -36.92281103 </i>
    <i name="e_wo_entrp">    -36.92272095 </i>
    <i name="e_0_energy">    -36.92276599 </i>
   </energy>
  </scstep>
  <scstep>
   <time name="diag">   79.28   79.97</time>
   <time name="diis">  150.61  151.79</time>
   <time name="orth">    3.08    3.08</time>
   <time name="total">  265.59  267.82</time>
   <energy>
    <i name="e_fr_energy">    -36.92281103 </i>
    <i name="e_wo_entrp">    -36.92272095 </i>
    <i name="e_0_energy">    -36.92276599 </i>
   </energy>
  </scstep>
  <scstep>
   <time name="diag">   80.08   80.11</time>
   <time name="diis">  145.70  145.78</time>
   <time name="orth">    3.09    3.10</time>
   <time name="total">  260.13  260.26</time>
   <energy>
    <i name="e_fr_energy">    -36.92281103 </i>
    <i name="e_wo_entrp">    -36.92272095 </i>
    <i name="e_0_energy">    -36.92276599 </i>
   </energy>
  </scstep>
  <scstep>
   <time name="diag">   79.79   79.93</time>
   <time name="diis">  141.00  141.16</time>
   <time name="orth">    3.10    3.10</time>
   <time name="total">  255.95  256.29</time>
   <energy>
    <i name="e_fr_energy">    -36.92281103 </i>
    <i name="e_wo_entrp">    -36.92272095 </i>
    <i name="e_0_energy">    -36.92276599 </i>
   </energy>
  </scstep>
  <scstep>
   <time name="diag">   79.88   79.90</time>
   <time name="diis">  132.85  132.92</time>
   <time name="orth">    3.08    3.08</time>
   <time name="total">  218.23  218.35</time>
   <energy>
    <i name="alphaZ">      6.18334092 </i>
    <i name="ewald">   2558.85975788 </i>
    <i name="hartreedc">  -3052.87463235 </i>
    <i name="XCdc">     57.44599597 </i>
    <i name="pawpsdc">    275.39639377 </i>
    <i name="pawaedc">   -280.53759359 </i>
    <i name="eentropy">     -0.00009008 </i>
    <i name="bandstr">   -190.01951045 </i>
    <i name="atom">    588.62352690 </i>
    <i name="e_fr_energy">    -36.92281103 </i>
    <i name="e_wo_entrp">    -36.92272095 </i>
    <i name="e_0_energy">    -36.92276599 </i>
   </energy>
  </scstep>
  <structure>
   <crystal>
    <varray name="basis" >
     <v>       4.26947033       0.00000000       0.00000000 </v>
     <v>       0.00000000       2.47938964       0.00000000 </v>
     <v>       0.00000000       0.00000000      19.91727424 </v>
    </varray>
    <i name="volume">    210.83790140 </i>
    <varray name="rec_basis" >
     <v>       0.23422109       0.00000000       0.00000000 </v>
     <v>       0.00000000       0.40332507       0.00000000 </v>
     <v>       0.00000000       0.00000000       0.05020767 </v>
    </varray>
   </crystal>
   <varray name="positions" >
    <v>       0.00012764      -0.00000000       0.00000000 </v>
    <v>       0.16653903       0.50000000      -0.00000000 </v>
    <v>       0.50012764       0.50000000       0.00000000 </v>
    <v>       0.66653903      -0.00000000      -0.00000000 </v>
   </varray>
  </structure>
  <varray name="forces" >
   <v>      -0.00000156       0.00000000       0.00000000 </v>
   <v>       0.00000156       0.00000000       0.00000000 </v>
   <v>      -0.00000156       0.00000000       0.00000000 </v>
   <v>       0.00000156      -0.00000000       0.00000000 </v>
  </varray>
  <varray name="stress" >
   <v>      -0.00578985       0.00000000       0.00000000 </v>
   <v>       0.00000000      -8.25789584       0.00000000 </v>
   <v>       0.00000000       0.00000000      -0.01005540 </v>
  </varray>
  <energy>
   <i name="e_fr_energy">    -36.92281103 </i>
   <i name="e_wo_entrp">    -36.92276599 </i>
   <i name="e_0_energy">     -0.00009008 </i>
  </energy>
  <time name="totalsc"> 1646.71 1652.21</time>
 </calculation>
 <calculation>
  <scstep>
   <time name="dav">  250.56  251.18</time>
   <time name="total">  281.98  282.61</time>
   <energy>
    <i name="alphaZ">      6.18334092 </i>
    <i name="ewald">   2558.85975791 </i>
    <i name="hartreedc">  -3052.87463237 </i>
    <i name="XCdc">     57.44599597 </i>
    <i name="pawpsdc">    275.39639377 </i>
    <i name="pawaedc">   -280.53759359 </i>
    <i name="eentropy">     -0.00009008 </i>
    <i name="bandstr">   -190.01951047 </i>
    <i name="atom">    588.62352690 </i>
    <i name="e_fr_energy">    -36.92281103 </i>
    <i name="e_wo_entrp">    -36.92272095 </i>
    <i name="e_0_energy">    -36.92276599 </i>
   </energy>
  </scstep>
  <scstep>
   <time name="diag">   79.85   79.88</time>
   <time name="diis">  136.47  136.53</time>
   <time name="orth">    3.09    3.09</time>
   <time name="total">  251.38  251.50</time>
   <energy>
    <i name="e_fr_energy">    -36.92281103 </i>
    <i name="e_wo_entrp">    -36.92272095 </i>
    <i name="e_0_energy">    -36.92276599 </i>
   </energy>
  </scstep>
  <scstep>
   <time name="diag">   79.59   79.85</time>
   <time name="diis">  139.69  140.39</time>
   <time name="orth">    3.08    3.10</time>
   <time name="total">  254.10  255.36</time>
   <energy>
    <i name="e_fr_energy">    -36.92281103 </i>
    <i name="e_wo_entrp">    -36.92272095 </i>
    <i name="e_0_energy">    -36.92276599 </i>
   </energy>
  </scstep>
  <scstep>
   <time name="diag">   79.51   79.90</time>
   <time name="diis">  137.46  138.10</time>
   <time name="orth">    3.08    3.08</time>
   <time name="total">  251.68  252.88</time>
   <energy>
    <i name="e_fr_energy">    -36.92281103 </i>
    <i name="e_wo_entrp">    -36.92272095 </i>
    <i name="e_0_energy">    -36.92276599 </i>
   </energy>
  </scstep>
  <scstep>
   <time name="diag">   79.47   79.86</time>
   <time name="diis">  137.95  138.19</time>
   <time name="orth">    3.10    3.10</time>
   <time name="total">  222.87  223.63</time>
   <energy>
    <i name="alphaZ">      6.18334092 </i>
    <i name="ewald">   2558.85975791 </i>
    <i name="hartreedc">  -3052.87463212 </i>
    <i name="XCdc">     57.44599597 </i>
    <i name="pawpsdc">    275.39639368 </i>
    <i name="pawaedc">   -280.53759349 </i>
    <i name="eentropy">     -0.00009008 </i>
    <i name="bandstr">   -190.01951072 </i>
    <i name="atom">    588.62352690 </i>
    <i name="e_fr_energy">    -36.92281103 </i>
    <i name="e_wo_entrp">    -36.92272095 </i>
    <i name="e_0_energy">    -36.92276599 </i>
   </energy>
  </scstep>
  <structure>
   <crystal>
    <varray name="basis" >
     <v>       4.26947033       0.00000000       0.00000000 </v>
     <v>       0.00000000       2.47938964       0.00000000 </v>
     <v>       0.00000000       0.00000000      19.91727424 </v>
    </varray>
    <i name="volume">    210.83790140 </i>
    <varray name="rec_basis" >
     <v>       0.23422109       0.00000000       0.00000000 </v>
     <v>       0.00000000       0.40332507       0.00000000 </v>
     <v>       0.00000000       0.00000000       0.05020767 </v>
    </varray>
   </crystal>
   <varray name="positions" >
    <v>       0.00012764      -0.00000000       0.00000000 </v>
    <v>       0.16653903       0.50000000      -0.00000000 </v>
    <v>       0.50012764       0.50000000       0.00000000 </v>
    <v>       0.66653903      -0.00000000      -0.00000000 </v>
   </varray>
  </structure>
  <varray name="forces" >
   <v>      -0.00000136      -0.00000000       0.00000000 </v>
   <v>       0.00000136       0.00000000      -0.00000000 </v>
   <v>      -0.00000136       0.00000000       0.00000000 </v>
   <v>       0.00000136      -0.00000000      -0.00000000 </v>
  </varray>
  <varray name="stress" >
   <v>      -0.00579103       0.00000000       0.00000000 </v>
   <v>       0.00000000      -8.25789275       0.00000000 </v>
   <v>       0.00000000       0.00000000      -0.01005684 </v>
  </varray>
  <energy>
   <i name="e_fr_energy">    -36.92281103 </i>
   <i name="e_wo_entrp">    -36.92276599 </i>
   <i name="e_0_energy">     -0.00009008 </i>
  </energy>
  <time name="totalsc"> 1361.75 1365.82</time>
 </calculation>
 <calculation>
  <scstep>
   <time name="dav">  237.89  237.95</time>
   <time name="total">  270.86  270.93</time>
   <energy>
    <i name="alphaZ">      6.18334092 </i>
    <i name="ewald">   2558.85975814 </i>
    <i name="hartreedc">  -3052.87463221 </i>
    <i name="XCdc">     57.44599597 </i>
    <i name="pawpsdc">    275.39639368 </i>
    <i name="pawaedc">   -280.53759349 </i>
    <i name="eentropy">     -0.00009008 </i>
    <i name="bandstr">   -190.01951087 </i>
    <i name="atom">    588.62352690 </i>
    <i name="e_fr_energy">    -36.92281103 </i>
    <i name="e_wo_entrp">    -36.92272095 </i>
    <i name="e_0_energy">    -36.92276599 </i>
   </energy>
  </scstep>
  <scstep>
   <time name="diag">   79.89   79.92</time>
   <time name="diis">  119.46  119.48</time>
   <time name="orth">    3.12    3.13</time>
   <time name="total">  235.10  235.44</time>
   <energy>
    <i name="e_fr_energy">    -36.92281103 </i>
    <i name="e_wo_entrp">    -36.92272095 </i>
    <i name="e_0_energy">    -36.92276599 </i>
   </energy>
  </scstep>
  <scstep>
   <time name="diag">   79.37   79.98</time>
   <time name="diis">  131.64  132.51</time>
   <time name="orth">    3.08    3.10</time>
   <time name="total">  246.83  248.53</time>
   <energy>
    <i name="e_fr_energy">    -36.92281103 </i>
    <i name="e_wo_entrp">    -36.92272095 </i>
    <i name="e_0_energy">    -36.92276599 </i>
   </energy>
  </scstep>
  <scstep>
   <time name="diag">   79.32   79.98</time>
   <time name="diis">  116.89  117.59</time>
   <time name="orth">    3.08    3.10</time>
   <time name="total">  231.85  233.59</time>
   <energy>
    <i name="e_fr_energy">    -36.92281103 </i>
    <i name="e_wo_entrp">    -36.92272095 </i>
    <i name="e_0_energy">    -36.92276599 </i>
   </energy>
  </scstep>
  <scstep>
   <time name="diag">   79.48   79.95</time>
   <time name="diis">  130.17  130.56</time>
   <time name="orth">    3.08    3.10</time>
   <time name="total">  215.12  216.33</time>
   <energy>
    <i name="alphaZ">      6.18334092 </i>
    <i name="ewald">   2558.85975814 </i>
    <i name="hartreedc">  -3052.87463234 </i>
    <i name="XCdc">     57.44599598 </i>
    <i name="pawpsdc">    275.39639462 </i>
    <i name="pawaedc">   -280.53759443 </i>
    <i name="eentropy">     -0.00009008 </i>
    <i name="bandstr">   -190.01951074 </i>
    <i name="atom">    588.62352690 </i>
    <i name="e_fr_energy">    -36.92281103 </i>
    <i name="e_wo_entrp">    -36.92272095 </i>
    <i name="e_0_energy">    -36.92276599 </i>
   </energy>
  </scstep>
  <structure>
   <crystal>
    <varray name="basis" >
     <v>       4.26947033       0.00000000       0.00000000 </v>
     <v>       0.00000000       2.47938964       0.00000000 </v>
     <v>       0.00000000       0.00000000      19.91727424 </v>
    </varray>
    <i name="volume">    210.83790140 </i>
    <varray name="rec_basis" >
     <v>       0.23422109       0.00000000       0.00000000 </v>
     <v>       0.00000000       0.40332507       0.00000000 </v>
     <v>       0.00000000       0.00000000       0.05020767 </v>
    </varray>
   </crystal>
   <varray name="positions" >
    <v>       0.00012763      -0.00000000       0.00000000 </v>
    <v>       0.16653904       0.50000000      -0.00000000 </v>
    <v>       0.50012763       0.50000000       0.00000000 </v>
    <v>       0.66653904      -0.00000000      -0.00000000 </v>
   </varray>
  </structure>
  <varray name="forces" >
   <v>       0.00000362       0.00000000      -0.00000000 </v>
   <v>      -0.00000362       0.00000000       0.00000000 </v>
   <v>       0.00000362      -0.00000000      -0.00000000 </v>
   <v>      -0.00000362       0.00000000       0.00000000 </v>
  </varray>
  <varray name="stress" >
   <v>      -0.00578051       0.00000000       0.00000000 </v>
   <v>       0.00000000      -8.25790377       0.00000000 </v>
   <v>       0.00000000       0.00000000      -0.01005587 </v>
  </varray>
  <energy>
   <i name="e_fr_energy">    -36.92281103 </i>
   <i name="e_wo_entrp">    -36.92276599 </i>
   <i name="e_0_energy">     -0.00009008 </i>
  </energy>
  <time name="totalsc"> 1301.03 1306.49</time>
 </calculation>
 <calculation>
  <scstep>
   <time name="dav">  228.04  228.74</time>
   <time name="total">  260.49  261.58</time>
   <energy>
    <i name="alphaZ">      6.18334092 </i>
    <i name="ewald">   2558.85975797 </i>
    <i name="hartreedc">  -3052.87463227 </i>
    <i name="XCdc">     57.44599597 </i>
    <i name="pawpsdc">    275.39639462 </i>
    <i name="pawaedc">   -280.53759443 </i>
    <i name="eentropy">     -0.00009008 </i>
    <i name="bandstr">   -190.01951063 </i>
    <i name="atom">    588.62352690 </i>
    <i name="e_fr_energy">    -36.92281103 </i>
    <i name="e_wo_entrp">    -36.92272095 </i>
    <i name="e_0_energy">    -36.92276599 </i>
   </energy>
  </scstep>
  <scstep>
   <time name="diag">   79.25   79.92</time>
   <time name="diis">  133.25  134.10</time>
   <time name="orth">    3.09    3.10</time>
   <time name="total">  248.25  250.03</time>
   <energy>
    <i name="e_fr_energy">    -36.92281103 </i>
    <i name="e_wo_entrp">    -36.92272095 </i>
    <i name="e_0_energy">    -36.92276599 </i>
   </energy>
  </scstep>
  <scstep>
   <time name="diag">   79.32   79.98</time>
   <time name="diis">  137.30  137.91</time>
   <time name="orth">    3.08    3.09</time>
   <time name="total">  252.37  253.88</time>
   <energy>
    <i name="e_fr_energy">    -36.92281103 </i>
    <i name="e_wo_entrp">    -36.92272095 </i>
    <i name="e_0_energy">    -36.92276599 </i>
   </energy>
  </scstep>
  <scstep>
   <time name="diag">   79.46   79.97</time>
   <time name="diis">  116.34  116.92</time>
   <time name="orth">    3.06    3.16</time>
   <time name="total">  231.58  232.89</time>
   <energy>
    <i name="e_fr_energy">    -36.92281103 </i>
    <i name="e_wo_entrp">    -36.92272095 </i>
    <i name="e_0_energy">    -36.92276599 </i>
   </energy>
  </scstep>
  <scstep>
   <time name="diag">   79.32   79.91</time>
   <time name="diis">  125.19  125.37</time>
   <time name="orth">    3.09    3.10</time>
   <time name="total">  209.99  211.09</time>
   <energy>
    <i name="alphaZ">      6.18334092 </i>
    <i name="ewald">   2558.85975797 </i>
    <i name="hartreedc">  -3052.87463204 </i>
    <i name="XCdc">     57.44599597 </i>
    <i name="pawpsdc">    275.39639313 </i>
    <i name="pawaedc">   -280.53759294 </i>
    <i name="eentropy">     -0.00009008 </i>
    <i name="bandstr">   -190.01951085 </i>
    <i name="atom">    588.62352690 </i>
    <i name="e_fr_energy">    -36.92281103 </i>
    <i name="e_wo_entrp">    -36.92272095 </i>
    <i name="e_0_energy">    -36.92276599 </i>
   </energy>
  </scstep>
  <structure>
   <crystal>
    <varray name="basis" >
     <v>       4.26947033       0.00000000       0.00000000 </v>
     <v>       0.00000000       2.47938964       0.00000000 </v>
     <v>       0.00000000       0.00000000      19.91727424 </v>
    </varray>
    <i name="volume">    210.83790140 </i>
    <varray name="rec_basis" >
     <v>       0.23422109       0.00000000       0.00000000 </v>
     <v>       0.00000000       0.40332507       0.00000000 </v>
     <v>       0.00000000       0.00000000       0.05020767 </v>
    </varray>
   </crystal>
   <varray name="positions" >
    <v>       0.00012763      -0.00000000       0.00000000 </v>
    <v>       0.16653903       0.50000000      -0.00000000 </v>
    <v>       0.50012763       0.50000000       0.00000000 </v>
    <v>       0.66653903      -0.00000000      -0.00000000 </v>
   </varray>
  </structure>
  <varray name="forces" >
   <v>      -0.00000172       0.00000000       0.00000000 </v>
   <v>       0.00000172      -0.00000000       0.00000000 </v>
   <v>      -0.00000172       0.00000000       0.00000000 </v>
   <v>       0.00000172      -0.00000000       0.00000000 </v>
  </varray>
  <varray name="stress" >
   <v>      -0.00578922       0.00000000       0.00000000 </v>
   <v>       0.00000000      -8.25789053       0.00000000 </v>
   <v>       0.00000000       0.00000000      -0.01005728 </v>
  </varray>
  <energy>
   <i name="e_fr_energy">    -36.92281103 </i>
   <i name="e_wo_entrp">    -36.92276599 </i>
   <i name="e_0_energy">     -0.00009008 </i>
  </energy>
  <time name="totalsc"> 1304.77 1312.06</time>
 </calculation>
 <calculation>
  <scstep>
   <time name="dav">  206.61  206.89</time>
   <time name="total">  239.42  239.73</time>
   <energy>
    <i name="alphaZ">      6.18334092 </i>
    <i name="ewald">   2558.85975803 </i>
    <i name="hartreedc">  -3052.87463204 </i>
    <i name="XCdc">     57.44599597 </i>
    <i name="pawpsdc">    275.39639313 </i>
    <i name="pawaedc">   -280.53759294 </i>
    <i name="eentropy">     -0.00009008 </i>
    <i name="bandstr">   -190.01951091 </i>
    <i name="atom">    588.62352690 </i>
    <i name="e_fr_energy">    -36.92281103 </i>
    <i name="e_wo_entrp">    -36.92272095 </i>
    <i name="e_0_energy">    -36.92276599 </i>
   </energy>
  </scstep>
  <scstep>
   <time name="diag">   79.67   80.00</time>
   <time name="diis">  103.24  103.86</time>
   <time name="orth">    3.07    3.10</time>
[...]
       <r>   -9.1653    1.0000 </r>
       <r>   -5.6096    1.0000 </r>
       <r>   -5.6096    1.0000 </r>
       <r>   -0.4526    0.0000 </r>
       <r>   -0.4526    0.0000 </r>
       <r>    4.8347    0.0000 </r>
       <r>    4.8347    0.0000 </r>
      </set>
      <set comment="kpoint 209">
       <r>  -18.8400    1.0000 </r>
       <r>  -17.0701    1.0000 </r>
       <r>  -14.0116    1.0000 </r>
       <r>  -12.3984    1.0000 </r>
       <r>  -12.3984    1.0000 </r>
       <r>  -10.8793    1.0000 </r>
       <r>   -6.4361    1.0000 </r>
       <r>   -4.5634    1.0000 </r>
       <r>   -0.9869    0.0000 </r>
       <r>    1.1580    0.0000 </r>
       <r>    5.2048    0.0000 </r>
       <r>    5.9935    0.0000 </r>
      </set>
      <set comment="kpoint 210">
       <r>  -18.8303    1.0000 </r>
       <r>  -17.0624    1.0000 </r>
       <r>  -14.0992    1.0000 </r>
       <r>  -12.4795    1.0000 </r>
       <r>  -12.3028    1.0000 </r>
       <r>  -10.8004    1.0000 </r>
       <r>   -6.4272    1.0000 </r>
       <r>   -4.5661    1.0000 </r>
       <r>   -0.9968    0.0000 </r>
       <r>    1.1323    0.0000 </r>
       <r>    5.2184    0.0000 </r>
       <r>    6.0096    0.0000 </r>
      </set>
      <set comment="kpoint 211">
       <r>  -18.8011    1.0000 </r>
       <r>  -17.0395    1.0000 </r>
       <r>  -14.3161    1.0000 </r>
       <r>  -12.6840    1.0000 </r>
       <r>  -12.0624    1.0000 </r>
       <r>  -10.6029    1.0000 </r>
       <r>   -6.4009    1.0000 </r>
       <r>   -4.5748    1.0000 </r>
       <r>   -1.0249    0.0000 </r>
       <r>    1.0572    0.0000 </r>
       <r>    5.2592    0.0000 </r>
       <r>    6.0575    0.0000 </r>
      </set>
      <set comment="kpoint 212">
       <r>  -18.7526    1.0000 </r>
       <r>  -17.0029    1.0000 </r>
       <r>  -14.5922    1.0000 </r>
       <r>  -12.9517    1.0000 </r>
       <r>  -11.7471    1.0000 </r>
       <r>  -10.3494    1.0000 </r>
       <r>   -6.3572    1.0000 </r>
       <r>   -4.5911    1.0000 </r>
       <r>   -1.0659    0.0000 </r>
       <r>    0.9380    0.0000 </r>
       <r>    5.3269    0.0000 </r>
       <r>    6.1361    0.0000 </r>
      </set>
      <set comment="kpoint 213">
       <r>  -18.6849    1.0000 </r>
       <r>  -16.9551    1.0000 </r>
       <r>  -14.8854    1.0000 </r>
       <r>  -13.2460    1.0000 </r>
       <r>  -11.3988    1.0000 </r>
       <r>  -10.0795    1.0000 </r>
       <r>   -6.2968    1.0000 </r>
       <r>   -4.6172    1.0000 </r>
       <r>   -1.1121    0.0000 </r>
       <r>    0.7824    0.0000 </r>
       <r>    5.4204    0.0000 </r>
       <r>    6.2441    0.0000 </r>
      </set>
      <set comment="kpoint 214">
       <r>  -18.5982    1.0000 </r>
       <r>  -16.9011    1.0000 </r>
       <r>  -15.1718    1.0000 </r>
       <r>  -13.5486    1.0000 </r>
       <r>  -11.0396    1.0000 </r>
       <r>   -9.8163    1.0000 </r>
       <r>   -6.2204    1.0000 </r>
       <r>   -4.6558    1.0000 </r>
       <r>   -1.1545    0.0000 </r>
       <r>    0.5992    0.0000 </r>
       <r>    5.5349    0.0000 </r>
       <r>    6.1746    0.0000 </r>
      </set>
      <set comment="kpoint 215">
       <r>  -18.4929    1.0000 </r>
       <r>  -16.8514    1.0000 </r>
       <r>  -15.4320    1.0000 </r>
       <r>  -13.8500    1.0000 </r>
       <r>  -10.6831    1.0000 </r>
       <r>   -9.5750    1.0000 </r>
       <r>   -6.1290    1.0000 </r>
       <r>   -4.7097    1.0000 </r>
       <r>   -1.1837    0.0000 </r>
       <r>    0.3974    0.0000 </r>
       <r>    5.5977    0.0000 </r>
       <r>    5.8184    0.0000 </r>
      </set>
      <set comment="kpoint 216">
       <r>  -18.3693    1.0000 </r>
       <r>  -16.8256    1.0000 </r>
       <r>  -15.6411    1.0000 </r>
       <r>  -14.1444    1.0000 </r>
       <r>  -10.3397    1.0000 </r>
       <r>   -9.3678    1.0000 </r>
       <r>   -6.0239    1.0000 </r>
       <r>   -4.7808    1.0000 </r>
       <r>   -1.1919    0.0000 </r>
       <r>    0.1853    0.0000 </r>
       <r>    5.3085    0.0000 </r>
       <r>    5.9062    0.0000 </r>
      </set>
      <set comment="kpoint 217">
       <r>  -18.2281    1.0000 </r>
       <r>  -16.8542    1.0000 </r>
       <r>  -15.7659    1.0000 </r>
       <r>  -14.4278    1.0000 </r>
       <r>  -10.0188    1.0000 </r>
       <r>   -9.2052    1.0000 </r>
       <r>   -5.9067    1.0000 </r>
       <r>   -4.8697    1.0000 </r>
       <r>   -1.1729    0.0000 </r>
       <r>   -0.0294    0.0000 </r>
       <r>    5.0141    0.0000 </r>
       <r>    5.8414    0.0000 </r>
      </set>
      <set comment="kpoint 218">
       <r>  -18.0702    1.0000 </r>
       <r>  -16.9575    1.0000 </r>
       <r>  -15.7842    1.0000 </r>
       <r>  -14.6974    1.0000 </r>
       <r>   -9.7298    1.0000 </r>
       <r>   -9.0959    1.0000 </r>
       <r>   -5.7795    1.0000 </r>
       <r>   -4.9754    1.0000 </r>
       <r>   -1.1233    0.0000 </r>
       <r>   -0.2400    0.0000 </r>
       <r>    4.7981    0.0000 </r>
       <r>    5.4435    0.0000 </r>
      </set>
      <set comment="kpoint 219">
       <r>  -17.8968    1.0000 </r>
       <r>  -17.1206    1.0000 </r>
       <r>  -15.7097    1.0000 </r>
       <r>  -14.9502    1.0000 </r>
       <r>   -9.4817    1.0000 </r>
       <r>   -9.0467    1.0000 </r>
       <r>   -5.6446    1.0000 </r>
       <r>   -5.0956    1.0000 </r>
       <r>   -1.0420    0.0000 </r>
       <r>   -0.4404    0.0000 </r>
       <r>    4.6725    0.0000 </r>
       <r>    5.1158    0.0000 </r>
      </set>
      <set comment="kpoint 220">
       <r>  -17.7101    1.0000 </r>
       <r>  -17.3131    1.0000 </r>
       <r>  -15.5722    1.0000 </r>
       <r>  -15.1834    1.0000 </r>
       <r>   -9.2830    1.0000 </r>
       <r>   -9.0615    1.0000 </r>
       <r>   -5.5052    1.0000 </r>
       <r>   -5.2266    1.0000 </r>
       <r>   -0.9301    0.0000 </r>
       <r>   -0.6254    0.0000 </r>
       <r>    4.6422    0.0000 </r>
       <r>    4.8681    0.0000 </r>
      </set>
      <set comment="kpoint 221">
       <r>  -17.5135    1.0000 </r>
       <r>  -17.5135    1.0000 </r>
       <r>  -15.3929    1.0000 </r>
       <r>  -15.3929    1.0000 </r>
       <r>   -9.1411    1.0000 </r>
       <r>   -9.1411    1.0000 </r>
       <r>   -5.3646    1.0000 </r>
       <r>   -5.3646    1.0000 </r>
       <r>   -0.7900    0.0000 </r>
       <r>   -0.7900    0.0000 </r>
       <r>    4.7083    0.0000 </r>
       <r>    4.7083    0.0000 </r>
      </set>
      <set comment="kpoint 222">
       <r>  -18.4220    1.0000 </r>
       <r>  -17.5333    1.0000 </r>
       <r>  -13.6381    1.0000 </r>
       <r>  -12.8308    1.0000 </r>
       <r>  -12.0517    1.0000 </r>
       <r>  -11.2875    1.0000 </r>
       <r>   -5.9804    1.0000 </r>
       <r>   -5.0388    1.0000 </r>
       <r>   -0.4837    0.0000 </r>
       <r>    0.5908    0.0000 </r>
       <r>    5.7987    0.0000 </r>
       <r>    6.5516    0.0000 </r>
      </set>
      <set comment="kpoint 223">
       <r>  -18.4124    1.0000 </r>
       <r>  -17.5245    1.0000 </r>
       <r>  -13.7258    1.0000 </r>
       <r>  -12.9146    1.0000 </r>
       <r>  -11.9589    1.0000 </r>
       <r>  -11.2032    1.0000 </r>
       <r>   -5.9729    1.0000 </r>
       <r>   -5.0364    1.0000 </r>
       <r>   -0.5002    0.0000 </r>
       <r>    0.5672    0.0000 </r>
       <r>    5.8122    0.0000 </r>
       <r>    6.5686    0.0000 </r>
      </set>
      <set comment="kpoint 224">
       <r>  -18.3838    1.0000 </r>
       <r>  -17.4983    1.0000 </r>
       <r>  -13.9436    1.0000 </r>
       <r>  -13.1250    1.0000 </r>
       <r>  -11.7258    1.0000 </r>
       <r>  -10.9923    1.0000 </r>
       <r>   -5.9505    1.0000 </r>
       <r>   -5.0294    1.0000 </r>
       <r>   -0.5479    0.0000 </r>
       <r>    0.4982    0.0000 </r>
       <r>    5.8528    0.0000 </r>
       <r>    6.6189    0.0000 </r>
      </set>
      <set comment="kpoint 225">
       <r>  -18.3362    1.0000 </r>
       <r>  -17.4552    1.0000 </r>
       <r>  -14.2232    1.0000 </r>
       <r>  -13.3984    1.0000 </r>
       <r>  -11.4221    1.0000 </r>
       <r>  -10.7197    1.0000 </r>
       <r>   -5.9137    1.0000 </r>
       <r>   -5.0190    1.0000 </r>
       <r>   -0.6216    0.0000 </r>
       <r>    0.3891    0.0000 </r>
       <r>    5.9200    0.0000 </r>
       <r>    6.7012    0.0000 </r>
      </set>
      <set comment="kpoint 226">
       <r>  -18.2699    1.0000 </r>
       <r>  -17.3961    1.0000 </r>
       <r>  -14.5246    1.0000 </r>
       <r>  -13.6973    1.0000 </r>
       <r>  -11.0892    1.0000 </r>
       <r>  -10.4262    1.0000 </r>
       <r>   -5.8632    1.0000 </r>
       <r>   -5.0070    1.0000 </r>
       <r>   -0.7134    0.0000 </r>
       <r>    0.2475    0.0000 </r>
       <r>    6.0117    0.0000 </r>
       <r>    6.8136    0.0000 </r>
      </set>
      <set comment="kpoint 227">
       <r>  -18.1852    1.0000 </r>
       <r>  -17.3227    1.0000 </r>
       <r>  -14.8278    1.0000 </r>
       <r>  -14.0031    1.0000 </r>
       <r>  -10.7494    1.0000 </r>
       <r>  -10.1345    1.0000 </r>
       <r>   -5.8002    1.0000 </r>
       <r>   -4.9961    1.0000 </r>
       <r>   -0.8139    0.0000 </r>
       <r>    0.0824    0.0000 </r>
       <r>    6.1110    0.0000 </r>
       <r>    6.4521    0.0000 </r>
      </set>
      <set comment="kpoint 228">
       <r>  -18.0827    1.0000 </r>
       <r>  -17.2378    1.0000 </r>
       <r>  -15.1205    1.0000 </r>
       <r>  -14.3061    1.0000 </r>
       <r>  -10.4166    1.0000 </r>
       <r>   -9.8594    1.0000 </r>
       <r>   -5.7262    1.0000 </r>
       <r>   -4.9893    1.0000 </r>
       <r>   -0.9128    0.0000 </r>
       <r>   -0.0969    0.0000 </r>
       <r>    5.9080    0.0000 </r>
       <r>    6.3276    0.0000 </r>
      </set>
      <set comment="kpoint 229">
       <r>  -17.9631    1.0000 </r>
       <r>  -17.1469    1.0000 </r>
       <r>  -15.3924    1.0000 </r>
       <r>  -14.6002    1.0000 </r>
       <r>  -10.1019    1.0000 </r>
       <r>   -9.6129    1.0000 </r>
       <r>   -5.6432    1.0000 </r>
       <r>   -4.9900    1.0000 </r>
       <r>   -1.0002    0.0000 </r>
       <r>   -0.2816    0.0000 </r>
       <r>    5.5054    0.0000 </r>
       <r>    6.0009    0.0000 </r>
      </set>
      <set comment="kpoint 230">
       <r>  -17.8277    1.0000 </r>
       <r>  -17.0607    1.0000 </r>
       <r>  -15.6297    1.0000 </r>
       <r>  -14.8811    1.0000 </r>
       <r>   -9.8151    1.0000 </r>
       <r>   -9.4053    1.0000 </r>
       <r>   -5.5537    1.0000 </r>
       <r>   -5.0018    1.0000 </r>
       <r>   -1.0670    0.0000 </r>
       <r>   -0.4632    0.0000 </r>
       <r>    5.1597    0.0000 </r>
       <r>    5.5752    0.0000 </r>
      </set>
      <set comment="kpoint 231">
       <r>  -17.6784    1.0000 </r>
       <r>  -16.9998    1.0000 </r>
       <r>  -15.8102    1.0000 </r>
       <r>  -15.1448    1.0000 </r>
       <r>   -9.5657    1.0000 </r>
       <r>   -9.2462    1.0000 </r>
       <r>   -5.4605    1.0000 </r>
       <r>   -5.0274    1.0000 </r>
       <r>   -1.1058    0.0000 </r>
       <r>   -0.6340    0.0000 </r>
       <r>    4.8914    0.0000 </r>
       <r>    5.2160    0.0000 </r>
      </set>
      <set comment="kpoint 232">
       <r>  -17.5184    1.0000 </r>
       <r>  -16.9949    1.0000 </r>
       <r>  -15.9016    1.0000 </r>
       <r>  -15.3868    1.0000 </r>
       <r>   -9.3626    1.0000 </r>
       <r>   -9.1432    1.0000 </r>
       <r>   -5.3673    1.0000 </r>
       <r>   -5.0684    1.0000 </r>
       <r>   -1.1115    0.0000 </r>
       <r>   -0.7870    0.0000 </r>
       <r>    4.7102    0.0000 </r>
       <r>    4.9334    0.0000 </r>
      </set>
      <set comment="kpoint 233">
       <r>  -17.3537    1.0000 </r>
       <r>  -17.0658    1.0000 </r>
       <r>  -15.8838    1.0000 </r>
       <r>  -15.6001    1.0000 </r>
       <r>   -9.2140    1.0000 </r>
       <r>   -9.1023    1.0000 </r>
       <r>   -5.2777    1.0000 </r>
       <r>   -5.1250    1.0000 </r>
       <r>   -1.0814    0.0000 </r>
       <r>   -0.9159    0.0000 </r>
       <r>    4.6225    0.0000 </r>
       <r>    4.7363    0.0000 </r>
      </set>
      <set comment="kpoint 234">
       <r>  -17.1957    1.0000 </r>
       <r>  -17.1957    1.0000 </r>
       <r>  -15.7730    1.0000 </r>
       <r>  -15.7730    1.0000 </r>
       <r>   -9.1260    1.0000 </r>
       <r>   -9.1260    1.0000 </r>
       <r>   -5.1957    1.0000 </r>
       <r>   -5.1957    1.0000 </r>
       <r>   -1.0154    0.0000 </r>
       <r>   -1.0154    0.0000 </r>
       <r>    4.6314    0.0000 </r>
       <r>    4.6314    0.0000 </r>
      </set>
      <set comment="kpoint 235">
       <r>  -17.9854    1.0000 </r>
       <r>  -17.9854    1.0000 </r>
       <r>  -13.2443    1.0000 </r>
       <r>  -13.2443    1.0000 </r>
       <r>  -11.6797    1.0000 </r>
       <r>  -11.6797    1.0000 </r>
       <r>   -5.5131    1.0000 </r>
       <r>   -5.5131    1.0000 </r>
       <r>    0.0428    0.0000 </r>
       <r>    0.0428    0.0000 </r>
       <r>    6.4235    0.0000 </r>
       <r>    6.4235    0.0000 </r>
      </set>
      <set comment="kpoint 236">
       <r>  -17.9761    1.0000 </r>
       <r>  -17.9761    1.0000 </r>
       <r>  -13.3305    1.0000 </r>
       <r>  -13.3305    1.0000 </r>
       <r>  -11.5907    1.0000 </r>
       <r>  -11.5907    1.0000 </r>
       <r>   -5.5075    1.0000 </r>
       <r>   -5.5075    1.0000 </r>
       <r>    0.0221    0.0000 </r>
       <r>    0.0221    0.0000 </r>
       <r>    6.4370    0.0000 </r>
       <r>    6.4370    0.0000 </r>
      </set>
      <set comment="kpoint 237">
       <r>  -17.9484    1.0000 </r>
       <r>  -17.9484    1.0000 </r>
       <r>  -13.5455    1.0000 </r>
       <r>  -13.5455    1.0000 </r>
       <r>  -11.3677    1.0000 </r>
       <r>  -11.3677    1.0000 </r>
       <r>   -5.4911    1.0000 </r>
       <r>   -5.4911    1.0000 </r>
       <r>   -0.0383    0.0000 </r>
       <r>   -0.0383    0.0000 </r>
       <r>    6.4773    0.0000 </r>
       <r>    6.4773    0.0000 </r>
      </set>
      <set comment="kpoint 238">
       <r>  -17.9023    1.0000 </r>
       <r>  -17.9023    1.0000 </r>
       <r>  -13.8233    1.0000 </r>
       <r>  -13.8233    1.0000 </r>
       <r>  -11.0784    1.0000 </r>
       <r>  -11.0784    1.0000 </r>
       <r>   -5.4645    1.0000 </r>
       <r>   -5.4645    1.0000 </r>
       <r>   -0.1331    0.0000 </r>
       <r>   -0.1331    0.0000 </r>
       <r>    6.5436    0.0000 </r>
       <r>    6.5436    0.0000 </r>
      </set>
      <set comment="kpoint 239">
       <r>  -17.8384    1.0000 </r>
       <r>  -17.8384    1.0000 </r>
       <r>  -14.1251    1.0000 </r>
       <r>  -14.1251    1.0000 </r>
       <r>  -10.7639    1.0000 </r>
       <r>  -10.7639    1.0000 </r>
       <r>   -5.4291    1.0000 </r>
       <r>   -5.4291    1.0000 </r>
       <r>   -0.2546    0.0000 </r>
       <r>   -0.2546    0.0000 </r>
       <r>    6.6314    0.0000 </r>
       <r>    6.6314    0.0000 </r>
      </set>
      <set comment="kpoint 240">
       <r>  -17.7574    1.0000 </r>
       <r>  -17.7574    1.0000 </r>
       <r>  -14.4320    1.0000 </r>
       <r>  -14.4320    1.0000 </r>
       <r>  -10.4466    1.0000 </r>
       <r>  -10.4466    1.0000 </r>
       <r>   -5.3864    1.0000 </r>
       <r>   -5.3864    1.0000 </r>
       <r>   -0.3937    0.0000 </r>
       <r>   -0.3937    0.0000 </r>
       <r>    6.6309    0.0000 </r>
       <r>    6.6309    0.0000 </r>
      </set>
      <set comment="kpoint 241">
       <r>  -17.6602    1.0000 </r>
       <r>  -17.6602    1.0000 </r>
       <r>  -14.7335    1.0000 </r>
       <r>  -14.7335    1.0000 </r>
       <r>  -10.1410    1.0000 </r>
       <r>  -10.1410    1.0000 </r>
       <r>   -5.3389    1.0000 </r>
       <r>   -5.3389    1.0000 </r>
       <r>   -0.5406    0.0000 </r>
       <r>   -0.5406    0.0000 </r>
       <r>    6.1836    0.0000 </r>
       <r>    6.1836    0.0000 </r>
      </set>
      <set comment="kpoint 242">
       <r>  -17.5488    1.0000 </r>
       <r>  -17.5488    1.0000 </r>
       <r>  -15.0229    1.0000 </r>
       <r>  -15.0229    1.0000 </r>
       <r>   -9.8586    1.0000 </r>
       <r>   -9.8586    1.0000 </r>
       <r>   -5.2895    1.0000 </r>
       <r>   -5.2895    1.0000 </r>
       <r>   -0.6856    0.0000 </r>
       <r>   -0.6856    0.0000 </r>
       <r>    5.7357    0.0000 </r>
       <r>    5.7357    0.0000 </r>
      </set>
      <set comment="kpoint 243">
       <r>  -17.4262    1.0000 </r>
       <r>  -17.4262    1.0000 </r>
       <r>  -15.2940    1.0000 </r>
       <r>  -15.2940    1.0000 </r>
       <r>   -9.6096    1.0000 </r>
       <r>   -9.6096    1.0000 </r>
       <r>   -5.2414    1.0000 </r>
       <r>   -5.2414    1.0000 </r>
       <r>   -0.8195    0.0000 </r>
       <r>   -0.8195    0.0000 </r>
       <r>    5.3472    0.0000 </r>
       <r>    5.3472    0.0000 </r>
      </set>
      <set comment="kpoint 244">
       <r>  -17.2982    1.0000 </r>
       <r>  -17.2982    1.0000 </r>
       <r>  -15.5391    1.0000 </r>
       <r>  -15.5391    1.0000 </r>
       <r>   -9.4036    1.0000 </r>
       <r>   -9.4036    1.0000 </r>
       <r>   -5.1984    1.0000 </r>
       <r>   -5.1984    1.0000 </r>
       <r>   -0.9339    0.0000 </r>
       <r>   -0.9339    0.0000 </r>
       <r>    5.0312    0.0000 </r>
       <r>    5.0312    0.0000 </r>
      </set>
      <set comment="kpoint 245">
       <r>  -17.1757    1.0000 </r>
       <r>  -17.1757    1.0000 </r>
       <r>  -15.7459    1.0000 </r>
       <r>  -15.7459    1.0000 </r>
       <r>   -9.2491    1.0000 </r>
       <r>   -9.2491    1.0000 </r>
       <r>   -5.1643    1.0000 </r>
       <r>   -5.1643    1.0000 </r>
       <r>   -1.0215    0.0000 </r>
       <r>   -1.0215    0.0000 </r>
       <r>    4.7976    0.0000 </r>
       <r>    4.7976    0.0000 </r>
      </set>
      <set comment="kpoint 246">
       <r>  -17.0799    1.0000 </r>
       <r>  -17.0799    1.0000 </r>
       <r>  -15.8927    1.0000 </r>
       <r>  -15.8927    1.0000 </r>
       <r>   -9.1533    1.0000 </r>
       <r>   -9.1533    1.0000 </r>
       <r>   -5.1424    1.0000 </r>
       <r>   -5.1424    1.0000 </r>
       <r>   -1.0766    0.0000 </r>
       <r>   -1.0766    0.0000 </r>
       <r>    4.6540    0.0000 </r>
       <r>    4.6540    0.0000 </r>
      </set>
      <set comment="kpoint 247">
       <r>  -17.0418    1.0000 </r>
       <r>  -17.0418    1.0000 </r>
       <r>  -15.9478    1.0000 </r>
       <r>  -15.9478    1.0000 </r>
       <r>   -9.1209    1.0000 </r>
       <r>   -9.1209    1.0000 </r>
       <r>   -5.1348    1.0000 </r>
       <r>   -5.1348    1.0000 </r>
       <r>   -1.0954    0.0000 </r>
       <r>   -1.0954    0.0000 </r>
       <r>    4.6056    0.0000 </r>
       <r>    4.6056    0.0000 </r>
      </set>
     </set>
    </set>
   </array>
  </eigenvalues>
  <separator name="orbital magnetization" >
   <v name="MAGDIPOLOUT">      0.00000000      0.00000000      0.00000000</v>
  </separator>
 </calculation>
 <structure name="finalpos" >
  <crystal>
   <varray name="basis" >
    <v>       4.26947033       0.00000000       0.00000000 </v>
    <v>       0.00000000       2.47938964       0.00000000 </v>
    <v>       0.00000000       0.00000000      19.91727424 </v>
   </varray>
   <i name="volume">    210.83790140 </i>
   <varray name="rec_basis" >
    <v>       0.23422109       0.00000000       0.00000000 </v>
    <v>       0.00000000       0.40332507       0.00000000 </v>
    <v>       0.00000000       0.00000000       0.05020767 </v>
   </varray>
  </crystal>
  <varray name="positions" >
   <v>       0.00012763      -0.00000000       0.00000000 </v>
   <v>       0.16653903       0.50000000      -0.00000000 </v>
   <v>       0.50012763       0.50000000       0.00000000 </v>
   <v>       0.66653903      -0.00000000      -0.00000000 </v>
  </varray>
 </structure>
</modeling>
