gr                                      
           1
     4.269470    0.000000    0.000000
     0.000000    2.479390    0.000000
     0.000000    0.000000   19.917274
   C 
   4
Direct configuration=     1
   0.00013158  0.00000000  0.00000000
   0.16653509  0.50000000  0.00000000
   0.50013158  0.50000000  0.00000000
   0.66653509  0.00000000  0.00000000
Direct configuration=     2
   0.00011175  0.00000000  0.00000000
   0.16655492  0.50000000  0.00000000
   0.50011175  0.50000000  0.00000000
   0.66655492  0.00000000  0.00000000
Direct configuration=     3
   0.00012763 -0.00000000  0.00000000
   0.16653904  0.50000000  0.00000000
   0.50012763  0.50000000  0.00000000
   0.66653904  0.00000000  0.00000000
Direct configuration=     4
   0.00012765 -0.00000000  0.00000000
   0.16653902  0.50000000 -0.00000000
   0.50012765  0.50000000  0.00000000
   0.66653902 -0.00000000 -0.00000000
Direct configuration=     5
   0.00012764 -0.00000000  0.00000000
   0.16653903  0.50000000 -0.00000000
   0.50012764  0.50000000  0.00000000
   0.66653903 -0.00000000 -0.00000000
Direct configuration=     6
   0.00012764 -0.00000000  0.00000000
   0.16653903  0.50000000 -0.00000000
   0.50012764  0.50000000  0.00000000
   0.66653903 -0.00000000 -0.00000000
Direct configuration=     7
   0.00012763 -0.00000000  0.00000000
   0.16653904  0.50000000 -0.00000000
   0.50012763  0.50000000  0.00000000
   0.66653904 -0.00000000 -0.00000000
Direct configuration=     8
   0.00012763 -0.00000000  0.00000000
   0.16653903  0.50000000 -0.00000000
   0.50012763  0.50000000  0.00000000
   0.66653903 -0.00000000 -0.00000000
Direct configuration=     9
   0.00012763 -0.00000000  0.00000000
   0.16653904  0.50000000 -0.00000000
   0.50012763  0.50000000  0.00000000
   0.66653904 -0.00000000 -0.00000000
Direct configuration=    10
   0.00012763 -0.00000000  0.00000000
   0.16653903  0.50000000 -0.00000000
   0.50012763  0.50000000  0.00000000
   0.66653903 -0.00000000 -0.00000000
