 running on    8 total cores
 distrk:  each k-point on    8 cores,    1 groups
 distr:  one band on    2 cores,    4 groups
 using from now: INCAR     
 vasp.5.3.5 31Mar14 (build Mar 02 2015 18:14:16) complex                        
  
 POSCAR found type information on POSCAR  C 
 POSCAR found :  1 types and       4 ions
 LDA part: xc-table for Pade appr. of Perdew
 POSCAR, INCAR and KPOINTS ok, starting setup
 FFT: planning ...
 WAVECAR not read
 entering main loop
       N       E                     dE             d eps       ncg     rms          rms(c)
DAV:   1     0.190171611392E+03    0.19017E+03   -0.10637E+04  5928   0.275E+03
DAV:   2    -0.889908188505E+01   -0.19907E+03   -0.17663E+03 10448   0.260E+02
DAV:   3    -0.382875305171E+02   -0.29388E+02   -0.28693E+02  7392   0.119E+02    0.730E+00
RMM:   4    -0.376946454712E+02    0.59289E+00   -0.99749E+00  5928   0.267E+01    0.423E+00
RMM:   5    -0.369338996587E+02    0.76075E+00   -0.28550E+00  5932   0.116E+01    0.732E-01
RMM:   6    -0.369348877152E+02   -0.98806E-03   -0.80072E-02  6373   0.202E+00    0.518E-01
RMM:   7    -0.369253230824E+02    0.95646E-02   -0.33041E-02  5939   0.159E+00    0.343E-01
RMM:   8    -0.369195802240E+02    0.57429E-02   -0.78297E-03  5928   0.585E-01    0.132E-01
RMM:   9    -0.369192468978E+02    0.33333E-03   -0.20020E-02  5928   0.836E-01    0.158E-01
RMM:  10    -0.369191921853E+02    0.54712E-04   -0.26305E-03  5928   0.370E-01    0.312E-02
RMM:  11    -0.369217244397E+02   -0.25323E-02   -0.68920E-04  5928   0.169E-01    0.445E-02
RMM:  12    -0.369221914634E+02   -0.46702E-03   -0.24216E-04  5934   0.102E-01    0.388E-03
RMM:  13    -0.369224318451E+02   -0.24038E-03   -0.44771E-05  6015   0.365E-02    0.431E-03
RMM:  14    -0.369225175035E+02   -0.85658E-04   -0.11883E-05  5945   0.194E-02    0.230E-03
RMM:  15    -0.369225246482E+02   -0.71447E-05   -0.13078E-06  5986   0.694E-03    0.778E-04
RMM:  16    -0.369225365780E+02   -0.11930E-04   -0.38381E-07  6017   0.361E-03    0.451E-04
RMM:  17    -0.369225399663E+02   -0.33883E-05   -0.20325E-08  6137   0.115E-03    0.592E-04
RMM:  18    -0.369225419825E+02   -0.20162E-05   -0.71991E-08  5928   0.181E-03    0.129E-04
RMM:  19    -0.369225422785E+02   -0.29600E-06   -0.42292E-09  5941   0.407E-04    0.166E-05
RMM:  20    -0.369225423250E+02   -0.46519E-07   -0.41029E-10  4455   0.102E-04    0.141E-05
RMM:  21    -0.369225423404E+02   -0.15370E-07   -0.14782E-10  4227   0.665E-05    0.604E-06
RMM:  22    -0.369225423401E+02    0.21805E-09   -0.12800E-11  3868   0.440E-05    0.945E-07
RMM:  23    -0.369225423407E+02   -0.52387E-09   -0.16117E-11  3516   0.366E-05    0.156E-06
RMM:  24    -0.369225423405E+02    0.18463E-09   -0.67847E-12  3056   0.280E-05    0.879E-07
RMM:  25    -0.369225423404E+02    0.60595E-10   -0.52980E-12  2730   0.238E-05
   1 F= -.36922542E+02 E0= -.36922499E+02  d E =-.369225E+02
 BRION: g(F)=  0.240E-06 g(S)=  0.000E+00
 bond charge predicted
       N       E                     dE             d eps       ncg     rms          rms(c)
DAV:   1    -0.369225419838E+02    0.35667E-06   -0.32312E-05  6312   0.535E-02    0.114E-03
RMM:   2    -0.369225420003E+02   -0.16438E-07   -0.52624E-07  5942   0.643E-03    0.812E-04
RMM:   3    -0.369225419835E+02    0.16721E-07   -0.93191E-08  5959   0.246E-03    0.209E-04
RMM:   4    -0.369225419822E+02    0.13224E-08   -0.58234E-09  6075   0.608E-04    0.588E-05
RMM:   5    -0.369225419816E+02    0.59106E-09   -0.41223E-10  4444   0.150E-04    0.274E-05
RMM:   6    -0.369225419821E+02   -0.48021E-09   -0.55281E-11  3750   0.725E-05    0.356E-06
RMM:   7    -0.369225419819E+02    0.15859E-09   -0.18752E-11  3745   0.507E-05    0.228E-06
RMM:   8    -0.369225419817E+02    0.20611E-09   -0.11467E-11  3219   0.360E-05    0.957E-07
RMM:   9    -0.369225419818E+02   -0.75374E-10   -0.57682E-12  2874   0.288E-05
   2 F= -.36922542E+02 E0= -.36922498E+02  d E =0.358614E-06
 BRION: g(F)=  0.377E-05 g(S)=  0.000E+00 retain N=  1 mean eig= 0.20
 eig:   0.202
 bond charge predicted
       N       E                     dE             d eps       ncg     rms          rms(c)
DAV:   1    -0.369225423628E+02   -0.38102E-06   -0.20588E-05  6636   0.427E-02    0.912E-04
RMM:   2    -0.369225423749E+02   -0.12138E-07   -0.32232E-07  5938   0.511E-03    0.647E-04
RMM:   3    -0.369225423652E+02    0.97183E-08   -0.57959E-08  5956   0.194E-03    0.159E-04
WARNING in EDDRMM: call to ZHEGV failed, returncode =   6  3  1
RMM:   4    -0.369225423641E+02    0.11033E-08   -0.34776E-09  6073   0.472E-04    0.466E-05
RMM:   5    -0.369225423642E+02   -0.14143E-09   -0.24260E-10  4137   0.118E-04    0.218E-05
 num prob  num prob  num prob  num prob  num prob  num prob RMM:   6    -0.369225423639E+02    0.28069E-09   -0.30980E-11  3668   0.613E-05    0.315E-06
RMM:   7    -0.369225423641E+02   -0.12085E-09   -0.16840E-11  3662   0.486E-05    0.205E-06
RMM:   8    -0.369225423642E+02   -0.11778E-09   -0.11538E-11  3142   0.356E-05    0.784E-07
RMM:   9    -0.369225423640E+02    0.14484E-09   -0.36724E-12  2796   0.285E-05    0.312E-07
RMM:  10    -0.369225423643E+02   -0.28331E-09   -0.49431E-12  2518   0.251E-05    0.163E-07
RMM:  11    -0.369225423640E+02    0.30411E-09   -0.41636E-13  2275   0.227E-05    0.138E-07
RMM:  12    -0.369225423641E+02   -0.12949E-09   -0.24467E-12  2140   0.212E-05    0.425E-08
RMM:  13    -0.369225423639E+02    0.26887E-09   -0.98382E-13  2027   0.199E-05    0.307E-08
RMM:  14    -0.369225423640E+02   -0.15700E-09   -0.10016E-12  1943   0.191E-05    0.699E-08
RMM:  15    -0.369225423642E+02   -0.16098E-09   -0.14346E-12  1756   0.184E-05    0.761E-08
RMM:  16    -0.369225423643E+02   -0.14279E-09   -0.87251E-13  1808   0.179E-05    0.896E-08
RMM:  17    -0.369225423643E+02   -0.19099E-10    0.35568E-14  1744   0.172E-05
   3 F= -.36922542E+02 E0= -.36922499E+02  d E =-.382539E-06
 BRION: g(F)=  0.406E-13 g(S)=  0.000E+00 retain N=  1 mean eig= 0.20
 eig:   0.202
 reached required accuracy - stopping structural energy minimisation
