    4    4  400    1
  0.5270948E+02  0.4295478E-09  0.2464865E-09  0.1991333E-08  0.5000000E-15
  1.000000000000000E-004
  CAR 
 gr                                      
     16    247     12
 
  0.0000000E+00  0.0000000E+00  0.0000000E+00  0.1157407E-02
    1      -22.217803
    2      -17.072525
    3      -15.945312
    4      -10.331254
    5       -9.082505
    6       -5.833576
    7       -5.773188
    8       -5.159141
    9       -1.099437
   10        0.528118
   11        1.328600
   12        1.713597
 
  0.4166667E-01  0.0000000E+00  0.0000000E+00  0.2314815E-02
    1      -22.207658
    2      -17.225818
    3      -15.776813
    4      -10.319151
    5       -9.072475
    6       -5.876669
    7       -5.795221
    8       -5.223944
    9       -1.018691
   10        0.541870
   11        1.342537
   12        1.727704
 
  0.8333333E-01  0.0000000E+00  0.0000000E+00  0.2314815E-02
    1      -22.177229
    2      -17.548799
    3      -15.408295
    4      -10.282861
    5       -9.042438
    6       -6.004111
    7       -5.860116
    8       -5.404092
    9       -0.790883
   10        0.583130
   11        1.384344
   12        1.770024
 
  0.1250000E+00  0.0000000E+00  0.0000000E+00  0.2314815E-02
    1      -22.126534
    2      -17.915720
    3      -14.965758
    4      -10.222441
    5       -8.992547
    6       -6.210722
    7       -5.964463
    8       -5.667632
    9       -0.448472
   10        0.651906
   11        1.454009
   12        1.840560
 
  0.1666667E+00  0.0000000E+00  0.0000000E+00  0.2314815E-02
    1      -22.055609
    2      -18.287857
    3      -14.488358
    4      -10.137990
    5       -8.923063
    6       -6.488804
    7       -6.103172
    8       -5.982537
    9       -0.024340
   10        0.748206
   11        1.551507
   12        1.939313
 
  0.2083333E+00  0.0000000E+00  0.0000000E+00  0.2314815E-02
    1      -21.964502
    2      -18.652686
    3      -13.989241
    4      -10.029648
    5       -8.834364
    6       -6.829208
    7       -6.324706
    8       -6.270159
    9        0.456179
   10        0.872032
   11        1.676805
   12        2.066285
 
  0.2500000E+00  0.0000000E+00  0.0000000E+00  0.2314815E-02
    1      -21.853276
    2      -19.005095
    3      -13.474337
    4       -9.897604
    5       -8.726955
    6       -7.222313
    7       -6.677930
    8       -6.458990
    9        0.975230
   10        1.023376
   11        1.829847
   12        2.221475
 
  0.2916667E+00  0.0000000E+00  0.0000000E+00  0.2314815E-02
    1      -21.722012
    2      -19.342561
    3      -12.947223
    4       -9.742105
    5       -8.601487
    6       -7.658765
    7       -7.031624
    8       -6.663393
    9        1.202215
   10        1.520074
   11        2.010551
   12        2.404881
 
  0.3333333E+00  0.0000000E+00  0.0000000E+00  0.2314815E-02
    1      -21.570809
    2      -19.663643
    3      -12.410645
    4       -9.563461
    5       -8.458775
    6       -8.129930
    7       -7.378809
    8       -6.877573
    9        1.408514
   10        2.080826
   11        2.218784
   12        2.616499
 
  0.3750000E+00  0.0000000E+00  0.0000000E+00  0.2314815E-02
    1      -21.399781
    2      -19.967419
    3      -11.867126
    4       -9.362063
    5       -8.628105
    6       -8.299826
    7       -7.714774
    8       -7.096386
    9        1.642221
   10        2.454305
   11        2.648168
   12        2.856317
 
  0.4166667E+00  0.0000000E+00  0.0000000E+00  0.2314815E-02
    1      -21.209068
    2      -20.253249
    3      -11.319249
    4       -9.146573
    5       -9.138402
    6       -8.125877
    7       -8.036242
    8       -7.315375
    9        1.903267
   10        2.716615
   11        3.124340
   12        3.217215
 
  0.4583333E+00  0.0000000E+00  0.0000000E+00  0.2314815E-02
    1      -20.998836
    2      -20.520659
    3      -10.769828
    4       -9.679538
    5       -8.893093
    6       -8.340864
    7       -7.938434
    8       -7.530749
    9        2.191557
   10        2.849278
   11        3.004382
   12        3.420517
 
  0.5000000E+00  0.0000000E+00  0.0000000E+00  0.1157407E-02
    1      -20.769287
    2      -20.769287
    3      -10.222039
    4      -10.222039
    5       -8.626914
    6       -8.626914
    7       -7.739322
    8       -7.739322
    9        2.506960
   10        2.506960
   11        3.312047
   12        3.312047
 
  0.0000000E+00  0.2777778E-01  0.0000000E+00  0.2314815E-02
    1      -22.204101
    2      -17.060740
    3      -15.933679
    4      -10.314907
    5       -9.144467
    6       -5.862880
    7       -5.830490
    8       -5.142496
    9       -1.103046
   10        0.546700
   11        1.347414
   12        1.732640
 
  0.4166667E-01  0.2777778E-01  0.0000000E+00  0.4629630E-02
    1      -22.193957
    2      -17.213876
    3      -15.765386
    4      -10.302808
    5       -9.134422
    6       -5.913406
    7       -5.844430
    8       -5.207438
    9       -1.022276
   10        0.560453
   11        1.361350
   12        1.746747
 
  0.8333333E-01  0.2777778E-01  0.0000000E+00  0.4629630E-02
    1      -22.163532
    2      -17.536603
    3      -15.397272
    4      -10.266531
    5       -9.104338
    6       -6.045258
    7       -5.903055
    8       -5.387905
    9       -0.794494
   10        0.601714
   11        1.403155
   12        1.789068
 
  0.1250000E+00  0.2777778E-01  0.0000000E+00  0.4629630E-02
    1      -22.112845
    2      -17.903299
    3      -14.955218
    4      -10.206132
    5       -9.054363
    6       -6.250815
    7       -6.005705
    8       -5.651776
    9       -0.452328
   10        0.670493
   11        1.472815
   12        1.859604
 
  0.1666667E+00  0.2777778E-01  0.0000000E+00  0.4629630E-02
    1      -22.041930
    2      -18.275244
    3      -14.478382
    4      -10.121709
    5       -8.984755
    6       -6.524884
    7       -6.145171
    8       -5.966929
    9       -0.028758
   10        0.766797
   11        1.570308
   12        1.958359
 
  0.2083333E+00  0.2777778E-01  0.0000000E+00  0.4629630E-02
    1      -21.950838
    2      -18.639909
    3      -13.979928
    4      -10.013404
    5       -8.895883
    6       -6.859962
    7       -6.314076
    8       -6.309243
    9        0.450864
   10        0.890631
   11        1.695599
   12        2.085332
 
  0.2500000E+00  0.2777778E-01  0.0000000E+00  0.4629630E-02
    1      -21.839630
    2      -18.992177
    3      -13.465809
    4       -9.881406
    5       -8.788240
    6       -7.247399
    7       -6.662528
    8       -6.505281
    9        0.968706
   10        1.041984
   11        1.848634
   12        2.240524
 
  0.2916667E+00  0.2777778E-01  0.0000000E+00  0.4629630E-02
    1      -21.708389
    2      -19.329522
    3      -12.939625
    4       -9.725960
    5       -8.662464
    6       -7.678388
    7       -7.016220
    8       -6.712122
    9        1.220833
   10        1.512071
   11        2.029331
   12        2.423933
 
  0.3333333E+00  0.2777778E-01  0.0000000E+00  0.4629630E-02
    1      -21.557212
    2      -19.650499
    3      -12.404155
    4       -9.547378
    5       -8.519351
    6       -8.144574
    7       -7.363364
    8       -6.928600
    9        1.427144
   10        2.071153
   11        2.237559
   12        2.635553
 
  0.3750000E+00  0.2777778E-01  0.0000000E+00  0.4629630E-02
    1      -21.386215
    2      -19.954185
    3      -11.861959
    4       -9.346049
    5       -8.638366
    6       -8.359890
    7       -7.699262
    8       -7.149466
    9        1.660865
   10        2.473081
   11        2.636844
   12        2.875378
 
  0.4166667E+00  0.2777778E-01  0.0000000E+00  0.4629630E-02
    1      -21.195539
    2      -20.239938
    3      -11.315665
    4       -9.153057
    5       -9.122464
    6       -8.185293
    7       -8.020649
    8       -7.370230
    9        1.921927
   10        2.735403
   11        3.143406
   12        3.229750
 
  0.4583333E+00  0.2777778E-01  0.0000000E+00  0.4629630E-02
    1      -20.985350
    2      -20.507281
    3      -10.768137
    4       -9.682815
    5       -8.877237
    6       -8.325183
    7       -7.997035
    8       -7.587101
    9        2.210236
   10        2.868030
   11        3.023200
   12        3.451919
 
  0.5000000E+00  0.2777778E-01  0.0000000E+00  0.2314815E-02
    1      -20.755850
    2      -20.755850
    3      -10.222614
    4      -10.222614
    5       -8.611145
    6       -8.611145
    7       -7.796912
    8       -7.796912
    9        2.525666
   10        2.525666
   11        3.330798
   12        3.330799
 
  0.0000000E+00  0.5555556E-01  0.0000000E+00  0.2314815E-02
    1      -22.163005
    2      -17.025388
    3      -15.898927
    4      -10.265902
    5       -9.325382
    6       -5.997802
    7       -5.950136
    8       -5.092580
    9       -1.114697
   10        0.602450
   11        1.403848
   12        1.789770
 
  0.4166667E-01  0.5555556E-01  0.0000000E+00  0.4629630E-02
    1      -22.152865
    2      -17.178060
    3      -15.731251
    4      -10.253816
    5       -9.315286
    6       -6.052098
    7       -5.958374
    8       -5.157950
    9       -1.033850
   10        0.616203
   11        1.417782
   12        1.803877
 
  0.8333333E-01  0.5555556E-01  0.0000000E+00  0.4629630E-02
    1      -22.122453
    2      -17.500037
    3      -15.364351
    4      -10.217576
    5       -9.285043
    6       -6.184800
    7       -6.010685
    8       -5.339400
    9       -0.806138
   10        0.657467
   11        1.459578
   12        1.846199
 
  0.1250000E+00  0.5555556E-01  0.0000000E+00  0.4629630E-02
    1      -22.071789
    2      -17.866058
    3      -14.923763
    4      -10.157240
    5       -9.234794
    6       -6.383274
    7       -6.112295
    8       -5.604287
    9       -0.464717
   10        0.726251
   11        1.529226
   12        1.916737
 
  0.1666667E+00  0.5555556E-01  0.0000000E+00  0.4629630E-02
    1      -22.000907
    2      -18.237426
    3      -14.448651
    4      -10.072905
    5       -9.164776
    6       -6.643664
    7       -6.255778
    8       -5.920195
    9       -0.042864
   10        0.822567
   11        1.626701
   12        2.015493
 
  0.2083333E+00  0.5555556E-01  0.0000000E+00  0.4629630E-02
    1      -21.909858
    2      -18.601597
    3      -13.952231
    4       -9.964713
    5       -9.075330
    6       -6.961320
    7       -6.431954
    8       -6.262950
    9        0.434017
   10        0.946416
   11        1.751971
   12        2.142471
 
  0.2500000E+00  0.5555556E-01  0.0000000E+00  0.4629630E-02
    1      -21.798704
    2      -18.953441
    3      -13.440527
    4       -9.832853
    5       -8.966917
    6       -7.330199
    7       -6.631863
    8       -6.616416
    9        0.948161
   10        1.097790
   11        1.904982
   12        2.297668
 
  0.2916667E+00  0.5555556E-01  0.0000000E+00  0.4629630E-02
    1      -21.667530
    2      -19.290422
    3      -12.917219
    4       -9.677569
    5       -8.840123
    6       -7.743281
    7       -6.970101
    8       -6.847539
    9        1.276666
   10        1.486999
   11        2.085657
   12        2.481084
 
  0.3333333E+00  0.5555556E-01  0.0000000E+00  0.4629630E-02
    1      -21.516432
    2      -19.611086
    3      -12.385189
    4       -9.499174
    5       -8.695691
    6       -8.193187
    7       -7.317114
    8       -7.072228
    9        1.483007
   10        2.040943
   11        2.293869
   12        2.692715
 
  0.3750000E+00  0.5555556E-01  0.0000000E+00  0.4629630E-02
    1      -21.345530
    2      -19.914501
    3      -11.847116
    4       -9.298056
    5       -8.672718
    6       -8.534535
    7       -7.652806
    8       -7.300332
    9        1.716762
   10        2.529392
   11        2.601436
   12        2.932552
 
  0.4166667E+00  0.5555556E-01  0.0000000E+00  0.4629630E-02
    1      -21.154964
    2      -20.200019
    3      -11.305776
    4       -9.175206
    5       -9.074703
    6       -8.357781
    7       -7.973943
    8       -7.527262
    9        1.977862
   10        2.791753
   11        3.156431
   12        3.200626
 
  0.4583333E+00  0.5555556E-01  0.0000000E+00  0.4629630E-02
    1      -20.944903
    2      -20.467160
    3      -10.764209
    4       -9.694668
    5       -8.829727
    6       -8.278210
    7       -8.166803
    8       -7.749266
    9        2.266218
   10        2.924174
   11        3.079644
   12        3.502781
 
  0.5000000E+00  0.5555556E-01  0.0000000E+00  0.2314815E-02
    1      -20.715555
    2      -20.715555
    3      -10.225856
    4      -10.225856
    5       -8.563899
    6       -8.563899
    7       -7.963282
    8       -7.963282
    9        2.581711
   10        2.581711
   11        3.387011
   12        3.387025
 
  0.0000000E+00  0.8333333E-01  0.0000000E+00  0.2314815E-02
    1      -22.094550
    2      -16.966481
    3      -15.841532
    4      -10.184340
    5       -9.611718
    6       -6.262739
    7       -6.093414
    8       -5.009456
    9       -1.136872
   10        0.695377
   11        1.497881
   12        1.884990
 
  0.4166667E-01  0.8333333E-01  0.0000000E+00  0.4629630E-02
    1      -22.084418
    2      -17.118412
    3      -15.674866
    4      -10.172276
    5       -9.601519
    6       -6.309863
    7       -6.105741
    8       -5.075582
    9       -1.055873
   10        0.709129
   11        1.511810
   12        1.899096
 
  0.8333333E-01  0.8333333E-01  0.0000000E+00  0.4629630E-02
    1      -22.054028
    2      -17.439163
    3      -15.310009
    4      -10.136100
    5       -9.570962
    6       -6.436434
    7       -6.155435
    8       -5.258761
    9       -0.828248
   10        0.750391
   11        1.553592
   12        1.941418
 
  0.1250000E+00  0.8333333E-01  0.0000000E+00  0.4629630E-02
    1      -22.003402
    2      -17.804065
    3      -14.871933
    4      -10.075871
    5       -9.520164
    6       -6.624764
    7       -6.254097
    8       -5.525416
    9       -0.488089
   10        0.819177
   11        1.623215
   12        2.011957
 
  0.1666667E+00  0.8333333E-01  0.0000000E+00  0.4629630E-02
    1      -21.932575
    2      -18.174468
    3      -14.399809
    4       -9.991687
    5       -9.449329
    6       -6.866335
    7       -6.400686
    8       -5.842624
    9       -0.069192
   10        0.915498
   11        1.720658
   12        2.110716
 
  0.2083333E+00  0.8333333E-01  0.0000000E+00  0.4629630E-02
    1      -21.841598
    2      -18.537811
    3      -13.906948
    4       -9.883689
    5       -9.358742
    6       -7.156921
    7       -6.587265
    8       -6.186128
    9        0.402959
   10        1.039360
   11        1.845888
   12        2.237697
 
  0.2500000E+00  0.8333333E-01  0.0000000E+00  0.4629630E-02
    1      -21.730536
    2      -18.888945
    3      -13.399500
    4       -9.752066
    5       -9.248791
    6       -7.493709
    7       -6.802952
    8       -6.539889
    9        0.910723
   10        1.190755
   11        1.998854
   12        2.392902
 
  0.2916667E+00  0.8333333E-01  0.0000000E+00  0.4629630E-02
    1      -21.599472
    2      -19.225315
    3      -12.881304
    4       -9.597062
    5       -9.119968
    6       -7.873574
    7       -7.036722
    8       -6.893548
    9        1.369659
   10        1.441738
   11        2.179484
   12        2.576327
 
  0.3333333E+00  0.8333333E-01  0.0000000E+00  0.4629630E-02
    1      -21.448507
    2      -19.545451
    3      -12.355439
    4       -9.418989
    5       -8.972888
    6       -8.292160
    7       -7.279214
    8       -7.240324
    9        1.576033
   10        1.986732
   11        2.387661
   12        2.787969
 
  0.3750000E+00  0.8333333E-01  0.0000000E+00  0.4629630E-02
    1      -21.277762
    2      -19.848411
    3      -11.824830
    4       -9.218234
    5       -8.808309
    6       -8.743913
    7       -7.575649
    8       -7.523297
    9        1.809824
   10        2.537856
   11        2.623180
   12        3.027822
 
  0.4166667E+00  0.8333333E-01  0.0000000E+00  0.4629630E-02
    1      -21.087380
    2      -20.133537
    3      -11.292555
    4       -9.222675
    5       -8.995281
    6       -8.627158
    7       -7.896350
    8       -7.763794
    9        2.070963
   10        2.885606
   11        3.086122
   12        3.295878
 
  0.4583333E+00  0.8333333E-01  0.0000000E+00  0.4629630E-02
    1      -20.877537
    2      -20.400339
    3      -10.762026
    4       -9.722312
    5       -8.750737
    6       -8.430565
    7       -8.200149
    8       -7.996938
    9        2.359364
   10        3.017465
   11        3.173682
   12        3.592084
 
  0.5000000E+00  0.8333333E-01  0.0000000E+00  0.2314815E-02
    1      -20.648440
    2      -20.648440
    3      -10.237126
    4      -10.237126
    5       -8.485367
    6       -8.485367
    7       -8.219919
    8       -8.219919
    9        2.674914
   10        2.674914
   11        3.480500
   12        3.480501
 
  0.0000000E+00  0.1111111E+00  0.0000000E+00  0.2314815E-02
    1      -21.998797
    2      -16.884040
    3      -15.762390
    4      -10.070397
    5       -9.984628
    6       -6.608389
    7       -6.289586
    8       -4.893228
    9       -1.173679
   10        0.825489
   11        1.629474
   12        2.018301
 
  0.4166667E-01  0.1111111E+00  0.0000000E+00  0.4629630E-02
    1      -21.988676
    2      -17.035002
    3      -15.597103
    4      -10.058364
    5       -9.974248
    6       -6.654604
    7       -6.298789
    8       -4.960514
    9       -1.092405
   10        0.839238
   11        1.643395
   12        2.032407
 
  0.8333333E-01  0.1111111E+00  0.0000000E+00  0.4629630E-02
    1      -21.958318
    2      -17.354092
    3      -15.235152
    4      -10.022282
    5       -9.943133
    6       -6.779962
    7       -6.338184
    8       -5.146318
    9       -0.864813
   10        0.880490
   11        1.685153
   12        2.074727
 
  0.1250000E+00  0.1111111E+00  0.0000000E+00  0.4629630E-02
    1      -21.907746
    2      -17.717440
    3      -14.800768
    4       -9.962211
    5       -9.891364
    6       -6.963856
    7       -6.423875
    8       -5.415621
    9       -0.526444
   10        0.949262
   11        1.754738
   12        2.145265
 
  0.1666667E+00  0.1111111E+00  0.0000000E+00  0.4629630E-02
    1      -21.836996
    2      -18.086487
    3      -14.333117
    4       -9.878246
    5       -9.819074
    6       -7.193113
    7       -6.561613
    8       -5.734739
    9       -0.111861
   10        1.045572
   11        1.852127
   12        2.244023
 
  0.2083333E+00  0.1111111E+00  0.0000000E+00  0.4629630E-02
    1      -21.746120
    2      -18.448660
    3      -13.845661
    4       -9.770531
    5       -9.726451
    6       -7.460668
    7       -6.748472
    8       -6.079316
    9        0.353363
   10        1.169430
   11        1.977289
   12        2.371007
 
  0.2500000E+00  0.1111111E+00  0.0000000E+00  0.4629630E-02
    1      -21.635186
    2      -18.798788
    3      -13.344766
    4       -9.639255
    5       -9.613739
    6       -7.763372
    7       -6.975695
    8       -6.433476
    9        0.851784
   10        1.320828
   11        2.130178
   12        2.526216
 
  0.2916667E+00  0.1111111E+00  0.0000000E+00  0.4629630E-02
    1      -21.504278
    2      -19.134290
    3      -12.834553
    4       -9.484662
    5       -9.481237
    6       -8.100609
    7       -7.230975
    8       -6.787062
    9        1.371335
   10        1.499745
   11        2.310726
   12        2.709649
 
  0.3333333E+00  0.1111111E+00  0.0000000E+00  0.4629630E-02
    1      -21.353500
    2      -19.453680
    3      -12.318466
    4       -9.329302
    5       -9.307061
    6       -8.472707
    7       -7.500930
    8       -7.133459
    9        1.706137
   10        1.903132
   11        2.518832
   12        2.921303
 
  0.3750000E+00  0.1111111E+00  0.0000000E+00  0.4629630E-02
    1      -21.182976
    2      -19.755995
    3      -11.799901
    4       -9.158350
    5       -9.106838
    6       -8.879102
    7       -7.773674
    8       -7.468223
    9        1.939949
   10        2.440016
   11        2.754323
   12        3.161170
 
  0.4166667E+00  0.1111111E+00  0.0000000E+00  0.4629630E-02
    1      -20.992855
    2      -20.040566
    3      -11.282532
    4       -9.317152
    5       -8.968864
    6       -8.884475
    7       -8.040465
    8       -7.788264
    9        2.201107
   10        2.975227
   11        3.016837
   12        3.429244
 
  0.4583333E+00  0.1111111E+00  0.0000000E+00  0.4629630E-02
    1      -20.783317
    2      -20.306889
    3      -10.770516
    4       -9.782223
    5       -8.761415
    6       -8.640570
    7       -8.295842
    8       -8.091363
    9        2.489523
   10        3.147661
   11        3.305241
   12        3.495964
 
  0.5000000E+00  0.1111111E+00  0.0000000E+00  0.2314815E-02
    1      -20.554576
    2      -20.554576
    3      -10.268617
    4      -10.268617
    5       -8.536729
    6       -8.536729
    7       -8.375880
    8       -8.375880
    9        2.805088
   10        2.805088
   11        3.610417
   12        3.610475
 
  0.0000000E+00  0.1388889E+00  0.0000000E+00  0.2314815E-02
    1      -21.875834
    2      -16.778092
    3      -15.663021
    4      -10.423323
    5       -9.924323
    6       -7.016754
    7       -6.534480
    8       -4.744044
    9       -1.230749
   10        0.992790
   11        1.798570
   12        2.189707
 
  0.4166667E-01  0.1388889E+00  0.0000000E+00  0.4629630E-02
    1      -21.865727
    2      -16.927938
    3      -15.499450
    4      -10.412632
    5       -9.912332
    6       -7.063795
    7       -6.538116
    8       -4.813025
    9       -1.148980
   10        1.006530
   11        1.812479
   12        2.203812
 
  0.8333333E-01  0.1388889E+00  0.0000000E+00  0.4629630E-02
    1      -21.835410
    2      -17.245000
    3      -15.141358
    4      -10.380563
    5       -9.876379
    6       -7.191212
    7       -6.561825
    8       -5.002607
    9       -0.921209
   10        1.047760
   11        1.854200
   12        2.246128
 
  0.1250000E+00  0.1388889E+00  0.0000000E+00  0.4629630E-02
    1      -21.784908
    2      -17.606369
    3      -14.712104
    4      -10.327121
    5       -9.816521
    6       -7.375710
    7       -6.626055
    8       -5.275635
    9       -0.585117
   10        1.116498
   11        1.923722
   12        2.316661
 
  0.1666667E+00  0.1388889E+00  0.0000000E+00  0.4629630E-02
    1      -21.714259
    2      -17.973660
    3      -14.250848
    4      -10.252312
    5       -9.732857
    6       -7.600648
    7       -6.742350
    8       -5.597368
    9       -0.176314
   10        1.212769
   11        2.021023
   12        2.415414
 
  0.2083333E+00  0.1388889E+00  0.0000000E+00  0.4629630E-02
    1      -21.623515
    2      -18.334307
    3      -13.771293
    4      -10.156123
    5       -9.625528
    6       -7.856042
    7       -6.913198
    8       -5.943360
    9        0.279561
   10        1.336589
   11        2.146072
   12        2.542394
 
  0.2500000E+00  0.1388889E+00  0.0000000E+00  0.4629630E-02
    1      -21.512745
    2      -18.683118
    3      -13.280185
    4      -10.038510
    5       -9.494725
    6       -8.136298
    7       -7.134494
    8       -6.297996
    9        0.765388
   10        1.487959
   11        2.298826
   12        2.697603
 
  0.2916667E+00  0.1388889E+00  0.0000000E+00  0.4629630E-02
    1      -21.382038
    2      -19.017487
    3      -12.782172
    4       -9.899365
    5       -9.340693
    6       -8.439134
    7       -7.397222
    8       -6.651413
    9        1.269520
   10        1.666856
   11        2.479223
   12        2.881039
 
  0.3333333E+00  0.1388889E+00  0.0000000E+00  0.4629630E-02
    1      -21.231501
    2      -19.335899
    3      -12.281405
    4       -9.738483
    5       -9.163740
    6       -8.765051
    7       -7.688813
    8       -6.997232
    9        1.783543
   10        1.873236
   11        2.687180
   12        3.092700
 
  0.3750000E+00  0.1388889E+00  0.0000000E+00  0.4629630E-02
    1      -21.061264
    2      -19.637373
    3      -11.782212
    4       -9.555518
    5       -9.116595
    6       -8.964249
    7       -7.994698
    8       -7.331180
    9        2.107037
   10        2.300912
   11        2.922566
   12        3.332579
 
  0.4166667E+00  0.1388889E+00  0.0000000E+00  0.4629630E-02
    1      -20.871482
    2      -19.921218
    3      -11.289454
    4       -9.496819
    5       -9.349977
    6       -8.742698
    7       -8.300481
    8       -7.650280
    9        2.368179
   10        2.816123
   11        3.185138
   12        3.600666
 
  0.4583333E+00  0.1388889E+00  0.0000000E+00  0.4629630E-02
    1      -20.662342
    2      -20.186916
    3      -10.808669
    4       -9.907147
    5       -9.121295
    6       -8.594448
    7       -8.499677
    8       -7.952393
    9        2.656566
   10        3.314591
   11        3.323750
   12        3.474108
 
  0.5000000E+00  0.1388889E+00  0.0000000E+00  0.2314815E-02
    1      -20.434065
    2      -20.434065
    3      -10.345924
    4      -10.345924
    5       -8.869179
    6       -8.869179
    7       -8.235929
    8       -8.235929
    9        2.972083
   10        2.972083
   11        3.758831
   12        3.758876
 
  0.0000000E+00  0.1666667E+00  0.0000000E+00  0.2314815E-02
    1      -21.725779
    2      -16.648679
    3      -15.545976
    4      -10.907217
    5       -9.746455
    6       -7.471118
    7       -6.823086
    8       -4.562102
    9       -1.314962
   10        1.197268
   11        2.005089
   12        2.399210
 
  0.4166667E-01  0.1666667E+00  0.0000000E+00  0.4629630E-02
    1      -21.715688
    2      -16.797388
    3      -15.384427
    4      -10.895993
    5       -9.734520
    6       -7.519742
    7       -6.819946
    8       -4.633535
    9       -1.232286
   10        1.210996
   11        2.018977
   12        2.413313
 
  0.8333333E-01  0.1666667E+00  0.0000000E+00  0.4629630E-02
    1      -21.685424
    2      -17.112152
    3      -15.031348
    4      -10.862274
    5       -9.698735
    6       -7.650973
    7       -6.824810
    8       -4.828471
    9       -1.003793
   10        1.252188
   11        2.060638
   12        2.455623
 
  0.1250000E+00  0.1666667E+00  0.0000000E+00  0.4629630E-02
    1      -21.635008
    2      -17.471133
    3      -14.609202
    4      -10.805918
    5       -9.639157
    6       -7.838975
    7       -6.862216
    8       -5.106603
    9       -0.670297
   10        1.320866
   11        2.130058
   12        2.526145
 
  0.1666667E+00  0.1666667E+00  0.0000000E+00  0.4629630E-02
    1      -21.564481
    2      -17.836252
    3      -14.157160
    4      -10.726660
    5       -9.555888
    6       -8.064528
    7       -6.948581
    8       -5.431781
    9       -0.268777
   10        1.417062
   11        2.227212
   12        2.624886
 
  0.2083333E+00  0.1666667E+00  0.0000000E+00  0.4629630E-02
    1      -21.473898
    2      -18.194993
    3      -13.689365
    4      -10.624060
    5       -9.449068
    6       -8.315675
    7       -7.090983
    8       -5.779536
    9        0.175175
   10        1.540801
   11        2.352067
   12        2.751853
 
  0.2500000E+00  0.1666667E+00  0.0000000E+00  0.4629630E-02
    1      -21.363331
    2      -18.542153
    3      -13.213303
    4      -10.497441
    5       -9.318890
    6       -8.585055
    7       -7.289583
    8       -6.134664
    9        0.644982
   10        1.692094
   11        2.504573
   12        2.907052
 
  0.2916667E+00  0.1666667E+00  0.0000000E+00  0.4629630E-02
    1      -21.232872
    2      -18.875100
    3      -12.734683
    4      -10.345784
    5       -9.165600
    6       -8.868398
    7       -7.539360
    8       -6.487728
    9        1.129619
   10        1.870924
   11        2.684668
   12        3.090484
 
  0.3333333E+00  0.1666667E+00  0.0000000E+00  0.4629630E-02
    1      -21.082634
    2      -19.192287
    3      -12.259091
    4      -10.167630
    5       -9.163967
    6       -8.989505
    7       -7.831329
    8       -6.832675
    9        1.621288
   10        2.077247
   11        2.892268
   12        3.302146
 
  0.3750000E+00  0.1666667E+00  0.0000000E+00  0.4629630E-02
    1      -20.912752
    2      -19.492708
    3      -11.792657
    4       -9.961059
    5       -9.472454
    6       -8.790987
    7       -8.153475
    8       -7.165455
    9        2.114087
   10        2.310994
   11        3.127266
   12        3.542030
 
  0.4166667E+00  0.1666667E+00  0.0000000E+00  0.4629630E-02
    1      -20.723391
    2      -19.775645
    3      -11.342134
    4       -9.796940
    5       -9.723949
    6       -8.570519
    7       -8.491577
    8       -7.483245
    9        2.572075
   10        2.603272
   11        3.389520
   12        3.810139
 
  0.4583333E+00  0.1666667E+00  0.0000000E+00  0.4629630E-02
    1      -20.514744
    2      -20.040565
    3      -10.914207
    4      -10.142355
    5       -9.454900
    6       -8.830286
    7       -8.328683
    8       -7.784004
    9        2.860381
   10        3.084822
   11        3.518134
   12        3.678833
 
  0.5000000E+00  0.1666667E+00  0.0000000E+00  0.2314815E-02
    1      -20.287043
    2      -20.287043
    3      -10.513843
    4      -10.513843
    5       -9.155075
    6       -9.155075
    7       -8.066207
    8       -8.066207
    9        3.175785
   10        3.175785
   11        3.555151
   12        3.555220
 