<?xml version="1.0" encoding="ISO-8859-1"?>
<modeling>
 <generator>
  <i name="program" type="string">vasp </i>
  <i name="version" type="string">5.3.5  </i>
  <i name="subversion" type="string">31Mar14 (build Mar 02 2015 18:14:16) complex                          parallel </i>
  <i name="platform" type="string">LinuxIFC </i>
  <i name="date" type="string">2018 08 08 </i>
  <i name="time" type="string">16:49:24 </i>
 </generator>
 <incar>
  <i type="string" name="SYSTEM">  gr</i>
  <i type="string" name="PREC">accurate : accuracy</i>
  <i type="string" name="ALGO"> FAST.</i>
  <i type="int" name="NELM">   100</i>
  <i type="int" name="NELMDL">    -3</i>
  <i type="int" name="NELMIN">     5</i>
  <i type="int" name="IBRION">     1</i>
  <i name="EDIFF">      0.00000000</i>
  <i name="EDIFFG">     -0.00000100</i>
  <i type="int" name="NSW">   400</i>
  <i type="int" name="ISIF">     2</i>
  <i name="ENCUT">   2000.00000000</i>
  <i type="int" name="ISMEAR">     0</i>
  <i name="SIGMA">      0.05000000</i>
  <i type="int" name="NWRITE">     2</i>
  <i type="logical" name="LWAVE"> F  </i>
  <i type="logical" name="LCHARG"> F  </i>
  <i type="int" name="NELM">   100</i>
 </incar>
 <kpoints>
  <generation param="Gamma">
   <v type="int" name="divisions">      24       36        1 </v>
   <v name="usershift">      0.00000000       0.00000000       0.00000000 </v>
   <v name="genvec1">      0.04166667       0.00000000       0.00000000 </v>
   <v name="genvec2">      0.00000000       0.02777778       0.00000000 </v>
   <v name="genvec3">      0.00000000       0.00000000       1.00000000 </v>
   <v name="shift">      0.00000000       0.00000000       0.00000000 </v>
  </generation>
  <varray name="kpointlist" >
   <v>       0.00000000       0.00000000       0.00000000 </v>
   <v>       0.04166667       0.00000000       0.00000000 </v>
   <v>       0.08333333       0.00000000       0.00000000 </v>
   <v>       0.12500000       0.00000000       0.00000000 </v>
   <v>       0.16666667       0.00000000       0.00000000 </v>
   <v>       0.20833333       0.00000000       0.00000000 </v>
   <v>       0.25000000       0.00000000       0.00000000 </v>
   <v>       0.29166667       0.00000000       0.00000000 </v>
   <v>       0.33333333       0.00000000       0.00000000 </v>
   <v>       0.37500000       0.00000000       0.00000000 </v>
   <v>       0.41666667       0.00000000       0.00000000 </v>
   <v>       0.45833333       0.00000000       0.00000000 </v>
   <v>       0.50000000       0.00000000       0.00000000 </v>
   <v>       0.00000000       0.02777778       0.00000000 </v>
   <v>       0.04166667       0.02777778       0.00000000 </v>
   <v>       0.08333333       0.02777778       0.00000000 </v>
   <v>       0.12500000       0.02777778       0.00000000 </v>
   <v>       0.16666667       0.02777778       0.00000000 </v>
   <v>       0.20833333       0.02777778       0.00000000 </v>
   <v>       0.25000000       0.02777778       0.00000000 </v>
   <v>       0.29166667       0.02777778       0.00000000 </v>
   <v>       0.33333333       0.02777778       0.00000000 </v>
   <v>       0.37500000       0.02777778       0.00000000 </v>
   <v>       0.41666667       0.02777778       0.00000000 </v>
   <v>       0.45833333       0.02777778       0.00000000 </v>
   <v>       0.50000000       0.02777778       0.00000000 </v>
   <v>       0.00000000       0.05555556       0.00000000 </v>
   <v>       0.04166667       0.05555556       0.00000000 </v>
   <v>       0.08333333       0.05555556       0.00000000 </v>
   <v>       0.12500000       0.05555556       0.00000000 </v>
   <v>       0.16666667       0.05555556       0.00000000 </v>
   <v>       0.20833333       0.05555556       0.00000000 </v>
   <v>       0.25000000       0.05555556       0.00000000 </v>
   <v>       0.29166667       0.05555556       0.00000000 </v>
   <v>       0.33333333       0.05555556       0.00000000 </v>
   <v>       0.37500000       0.05555556       0.00000000 </v>
   <v>       0.41666667       0.05555556       0.00000000 </v>
   <v>       0.45833333       0.05555556       0.00000000 </v>
   <v>       0.50000000       0.05555556       0.00000000 </v>
   <v>       0.00000000       0.08333333       0.00000000 </v>
   <v>       0.04166667       0.08333333       0.00000000 </v>
   <v>       0.08333333       0.08333333       0.00000000 </v>
   <v>       0.12500000       0.08333333       0.00000000 </v>
   <v>       0.16666667       0.08333333       0.00000000 </v>
   <v>       0.20833333       0.08333333       0.00000000 </v>
   <v>       0.25000000       0.08333333       0.00000000 </v>
   <v>       0.29166667       0.08333333       0.00000000 </v>
   <v>       0.33333333       0.08333333       0.00000000 </v>
   <v>       0.37500000       0.08333333       0.00000000 </v>
   <v>       0.41666667       0.08333333       0.00000000 </v>
   <v>       0.45833333       0.08333333       0.00000000 </v>
   <v>       0.50000000       0.08333333       0.00000000 </v>
   <v>       0.00000000       0.11111111       0.00000000 </v>
   <v>       0.04166667       0.11111111       0.00000000 </v>
   <v>       0.08333333       0.11111111       0.00000000 </v>
   <v>       0.12500000       0.11111111       0.00000000 </v>
   <v>       0.16666667       0.11111111       0.00000000 </v>
   <v>       0.20833333       0.11111111       0.00000000 </v>
   <v>       0.25000000       0.11111111       0.00000000 </v>
   <v>       0.29166667       0.11111111       0.00000000 </v>
   <v>       0.33333333       0.11111111       0.00000000 </v>
   <v>       0.37500000       0.11111111       0.00000000 </v>
   <v>       0.41666667       0.11111111       0.00000000 </v>
   <v>       0.45833333       0.11111111       0.00000000 </v>
   <v>       0.50000000       0.11111111       0.00000000 </v>
   <v>       0.00000000       0.13888889       0.00000000 </v>
   <v>       0.04166667       0.13888889       0.00000000 </v>
   <v>       0.08333333       0.13888889       0.00000000 </v>
   <v>       0.12500000       0.13888889       0.00000000 </v>
   <v>       0.16666667       0.13888889       0.00000000 </v>
   <v>       0.20833333       0.13888889       0.00000000 </v>
   <v>       0.25000000       0.13888889       0.00000000 </v>
   <v>       0.29166667       0.13888889       0.00000000 </v>
   <v>       0.33333333       0.13888889       0.00000000 </v>
   <v>       0.37500000       0.13888889       0.00000000 </v>
   <v>       0.41666667       0.13888889       0.00000000 </v>
   <v>       0.45833333       0.13888889       0.00000000 </v>
   <v>       0.50000000       0.13888889       0.00000000 </v>
   <v>       0.00000000       0.16666667       0.00000000 </v>
   <v>       0.04166667       0.16666667       0.00000000 </v>
   <v>       0.08333333       0.16666667       0.00000000 </v>
   <v>       0.12500000       0.16666667       0.00000000 </v>
   <v>       0.16666667       0.16666667       0.00000000 </v>
   <v>       0.20833333       0.16666667       0.00000000 </v>
   <v>       0.25000000       0.16666667       0.00000000 </v>
   <v>       0.29166667       0.16666667       0.00000000 </v>
   <v>       0.33333333       0.16666667       0.00000000 </v>
   <v>       0.37500000       0.16666667       0.00000000 </v>
   <v>       0.41666667       0.16666667       0.00000000 </v>
   <v>       0.45833333       0.16666667       0.00000000 </v>
   <v>       0.50000000       0.16666667       0.00000000 </v>
   <v>       0.00000000       0.19444444       0.00000000 </v>
   <v>       0.04166667       0.19444444       0.00000000 </v>
   <v>       0.08333333       0.19444444       0.00000000 </v>
   <v>       0.12500000       0.19444444       0.00000000 </v>
   <v>       0.16666667       0.19444444       0.00000000 </v>
   <v>       0.20833333       0.19444444       0.00000000 </v>
   <v>       0.25000000       0.19444444       0.00000000 </v>
   <v>       0.29166667       0.19444444       0.00000000 </v>
   <v>       0.33333333       0.19444444       0.00000000 </v>
   <v>       0.37500000       0.19444444       0.00000000 </v>
   <v>       0.41666667       0.19444444       0.00000000 </v>
   <v>       0.45833333       0.19444444       0.00000000 </v>
   <v>       0.50000000       0.19444444       0.00000000 </v>
   <v>       0.00000000       0.22222222       0.00000000 </v>
   <v>       0.04166667       0.22222222       0.00000000 </v>
   <v>       0.08333333       0.22222222       0.00000000 </v>
   <v>       0.12500000       0.22222222       0.00000000 </v>
   <v>       0.16666667       0.22222222       0.00000000 </v>
   <v>       0.20833333       0.22222222       0.00000000 </v>
   <v>       0.25000000       0.22222222       0.00000000 </v>
   <v>       0.29166667       0.22222222       0.00000000 </v>
   <v>       0.33333333       0.22222222       0.00000000 </v>
   <v>       0.37500000       0.22222222       0.00000000 </v>
   <v>       0.41666667       0.22222222       0.00000000 </v>
   <v>       0.45833333       0.22222222       0.00000000 </v>
   <v>       0.50000000       0.22222222       0.00000000 </v>
   <v>       0.00000000       0.25000000       0.00000000 </v>
   <v>       0.04166667       0.25000000       0.00000000 </v>
   <v>       0.08333333       0.25000000       0.00000000 </v>
   <v>       0.12500000       0.25000000       0.00000000 </v>
   <v>       0.16666667       0.25000000       0.00000000 </v>
   <v>       0.20833333       0.25000000       0.00000000 </v>
   <v>       0.25000000       0.25000000       0.00000000 </v>
   <v>       0.29166667       0.25000000       0.00000000 </v>
   <v>       0.33333333       0.25000000       0.00000000 </v>
   <v>       0.37500000       0.25000000       0.00000000 </v>
   <v>       0.41666667       0.25000000       0.00000000 </v>
   <v>       0.45833333       0.25000000       0.00000000 </v>
   <v>       0.50000000       0.25000000       0.00000000 </v>
   <v>       0.00000000       0.27777778       0.00000000 </v>
   <v>       0.04166667       0.27777778       0.00000000 </v>
   <v>       0.08333333       0.27777778       0.00000000 </v>
   <v>       0.12500000       0.27777778       0.00000000 </v>
   <v>       0.16666667       0.27777778       0.00000000 </v>
   <v>       0.20833333       0.27777778       0.00000000 </v>
   <v>       0.25000000       0.27777778       0.00000000 </v>
   <v>       0.29166667       0.27777778       0.00000000 </v>
   <v>       0.33333333       0.27777778       0.00000000 </v>
   <v>       0.37500000       0.27777778       0.00000000 </v>
   <v>       0.41666667       0.27777778       0.00000000 </v>
   <v>       0.45833333       0.27777778       0.00000000 </v>
   <v>       0.50000000       0.27777778       0.00000000 </v>
   <v>       0.00000000       0.30555556       0.00000000 </v>
   <v>       0.04166667       0.30555556       0.00000000 </v>
   <v>       0.08333333       0.30555556       0.00000000 </v>
   <v>       0.12500000       0.30555556       0.00000000 </v>
   <v>       0.16666667       0.30555556       0.00000000 </v>
   <v>       0.20833333       0.30555556       0.00000000 </v>
   <v>       0.25000000       0.30555556       0.00000000 </v>
   <v>       0.29166667       0.30555556       0.00000000 </v>
   <v>       0.33333333       0.30555556       0.00000000 </v>
   <v>       0.37500000       0.30555556       0.00000000 </v>
   <v>       0.41666667       0.30555556       0.00000000 </v>
   <v>       0.45833333       0.30555556       0.00000000 </v>
   <v>       0.50000000       0.30555556       0.00000000 </v>
   <v>       0.00000000       0.33333333       0.00000000 </v>
   <v>       0.04166667       0.33333333       0.00000000 </v>
   <v>       0.08333333       0.33333333       0.00000000 </v>
   <v>       0.12500000       0.33333333       0.00000000 </v>
   <v>       0.16666667       0.33333333       0.00000000 </v>
   <v>       0.20833333       0.33333333       0.00000000 </v>
   <v>       0.25000000       0.33333333       0.00000000 </v>
   <v>       0.29166667       0.33333333       0.00000000 </v>
   <v>       0.33333333       0.33333333       0.00000000 </v>
   <v>       0.37500000       0.33333333       0.00000000 </v>
   <v>       0.41666667       0.33333333       0.00000000 </v>
   <v>       0.45833333       0.33333333       0.00000000 </v>
   <v>       0.50000000       0.33333333       0.00000000 </v>
   <v>       0.00000000       0.36111111       0.00000000 </v>
   <v>       0.04166667       0.36111111       0.00000000 </v>
   <v>       0.08333333       0.36111111       0.00000000 </v>
   <v>       0.12500000       0.36111111       0.00000000 </v>
   <v>       0.16666667       0.36111111       0.00000000 </v>
   <v>       0.20833333       0.36111111       0.00000000 </v>
   <v>       0.25000000       0.36111111       0.00000000 </v>
   <v>       0.29166667       0.36111111       0.00000000 </v>
   <v>       0.33333333       0.36111111       0.00000000 </v>
   <v>       0.37500000       0.36111111       0.00000000 </v>
   <v>       0.41666667       0.36111111       0.00000000 </v>
   <v>       0.45833333       0.36111111       0.00000000 </v>
   <v>       0.50000000       0.36111111       0.00000000 </v>
   <v>       0.00000000       0.38888889       0.00000000 </v>
   <v>       0.04166667       0.38888889       0.00000000 </v>
   <v>       0.08333333       0.38888889       0.00000000 </v>
   <v>       0.12500000       0.38888889       0.00000000 </v>
   <v>       0.16666667       0.38888889       0.00000000 </v>
   <v>       0.20833333       0.38888889       0.00000000 </v>
   <v>       0.25000000       0.38888889       0.00000000 </v>
   <v>       0.29166667       0.38888889       0.00000000 </v>
   <v>       0.33333333       0.38888889       0.00000000 </v>
   <v>       0.37500000       0.38888889       0.00000000 </v>
   <v>       0.41666667       0.38888889       0.00000000 </v>
   <v>       0.45833333       0.38888889       0.00000000 </v>
   <v>       0.50000000       0.38888889       0.00000000 </v>
   <v>       0.00000000       0.41666667       0.00000000 </v>
   <v>       0.04166667       0.41666667       0.00000000 </v>
   <v>       0.08333333       0.41666667       0.00000000 </v>
   <v>       0.12500000       0.41666667       0.00000000 </v>
   <v>       0.16666667       0.41666667       0.00000000 </v>
   <v>       0.20833333       0.41666667       0.00000000 </v>
   <v>       0.25000000       0.41666667       0.00000000 </v>
   <v>       0.29166667       0.41666667       0.00000000 </v>
   <v>       0.33333333       0.41666667       0.00000000 </v>
   <v>       0.37500000       0.41666667       0.00000000 </v>
   <v>       0.41666667       0.41666667       0.00000000 </v>
   <v>       0.45833333       0.41666667       0.00000000 </v>
   <v>       0.50000000       0.41666667       0.00000000 </v>
   <v>       0.00000000       0.44444444       0.00000000 </v>
   <v>       0.04166667       0.44444444       0.00000000 </v>
   <v>       0.08333333       0.44444444       0.00000000 </v>
   <v>       0.12500000       0.44444444       0.00000000 </v>
   <v>       0.16666667       0.44444444       0.00000000 </v>
   <v>       0.20833333       0.44444444       0.00000000 </v>
   <v>       0.25000000       0.44444444       0.00000000 </v>
   <v>       0.29166667       0.44444444       0.00000000 </v>
   <v>       0.33333333       0.44444444       0.00000000 </v>
   <v>       0.37500000       0.44444444       0.00000000 </v>
   <v>       0.41666667       0.44444444       0.00000000 </v>
   <v>       0.45833333       0.44444444       0.00000000 </v>
   <v>       0.50000000       0.44444444       0.00000000 </v>
   <v>       0.00000000       0.47222222       0.00000000 </v>
   <v>       0.04166667       0.47222222       0.00000000 </v>
   <v>       0.08333333       0.47222222       0.00000000 </v>
   <v>       0.12500000       0.47222222       0.00000000 </v>
   <v>       0.16666667       0.47222222       0.00000000 </v>
   <v>       0.20833333       0.47222222       0.00000000 </v>
   <v>       0.25000000       0.47222222       0.00000000 </v>
   <v>       0.29166667       0.47222222       0.00000000 </v>
   <v>       0.33333333       0.47222222       0.00000000 </v>
   <v>       0.37500000       0.47222222       0.00000000 </v>
   <v>       0.41666667       0.47222222       0.00000000 </v>
   <v>       0.45833333       0.47222222       0.00000000 </v>
   <v>       0.50000000       0.47222222       0.00000000 </v>
   <v>       0.00000000       0.50000000       0.00000000 </v>
   <v>       0.04166667       0.50000000       0.00000000 </v>
   <v>       0.08333333       0.50000000       0.00000000 </v>
   <v>       0.12500000       0.50000000       0.00000000 </v>
   <v>       0.16666667       0.50000000       0.00000000 </v>
   <v>       0.20833333       0.50000000       0.00000000 </v>
   <v>       0.25000000       0.50000000       0.00000000 </v>
   <v>       0.29166667       0.50000000       0.00000000 </v>
   <v>       0.33333333       0.50000000       0.00000000 </v>
   <v>       0.37500000       0.50000000       0.00000000 </v>
   <v>       0.41666667       0.50000000       0.00000000 </v>
   <v>       0.45833333       0.50000000       0.00000000 </v>
   <v>       0.50000000       0.50000000       0.00000000 </v>
  </varray>
  <varray name="weights" >
   <v>       0.00115741 </v>
   <v>       0.00231481 </v>
   <v>       0.00231481 </v>
   <v>       0.00231481 </v>
   <v>       0.00231481 </v>
   <v>       0.00231481 </v>
   <v>       0.00231481 </v>
   <v>       0.00231481 </v>
   <v>       0.00231481 </v>
   <v>       0.00231481 </v>
   <v>       0.00231481 </v>
   <v>       0.00231481 </v>
   <v>       0.00115741 </v>
   <v>       0.00231481 </v>
   <v>       0.00462963 </v>
   <v>       0.00462963 </v>
   <v>       0.00462963 </v>
   <v>       0.00462963 </v>
   <v>       0.00462963 </v>
   <v>       0.00462963 </v>
   <v>       0.00462963 </v>
   <v>       0.00462963 </v>
   <v>       0.00462963 </v>
   <v>       0.00462963 </v>
   <v>       0.00462963 </v>
   <v>       0.00231481 </v>
   <v>       0.00231481 </v>
   <v>       0.00462963 </v>
   <v>       0.00462963 </v>
   <v>       0.00462963 </v>
   <v>       0.00462963 </v>
   <v>       0.00462963 </v>
   <v>       0.00462963 </v>
   <v>       0.00462963 </v>
   <v>       0.00462963 </v>
   <v>       0.00462963 </v>
   <v>       0.00462963 </v>
   <v>       0.00462963 </v>
   <v>       0.00231481 </v>
   <v>       0.00231481 </v>
   <v>       0.00462963 </v>
   <v>       0.00462963 </v>
   <v>       0.00462963 </v>
   <v>       0.00462963 </v>
   <v>       0.00462963 </v>
   <v>       0.00462963 </v>
   <v>       0.00462963 </v>
   <v>       0.00462963 </v>
   <v>       0.00462963 </v>
   <v>       0.00462963 </v>
   <v>       0.00462963 </v>
   <v>       0.00231481 </v>
   <v>       0.00231481 </v>
   <v>       0.00462963 </v>
   <v>       0.00462963 </v>
   <v>       0.00462963 </v>
   <v>       0.00462963 </v>
   <v>       0.00462963 </v>
   <v>       0.00462963 </v>
   <v>       0.00462963 </v>
   <v>       0.00462963 </v>
   <v>       0.00462963 </v>
   <v>       0.00462963 </v>
   <v>       0.00462963 </v>
   <v>       0.00231481 </v>
   <v>       0.00231481 </v>
   <v>       0.00462963 </v>
   <v>       0.00462963 </v>
   <v>       0.00462963 </v>
   <v>       0.00462963 </v>
   <v>       0.00462963 </v>
   <v>       0.00462963 </v>
   <v>       0.00462963 </v>
   <v>       0.00462963 </v>
   <v>       0.00462963 </v>
   <v>       0.00462963 </v>
   <v>       0.00462963 </v>
   <v>       0.00231481 </v>
   <v>       0.00231481 </v>
   <v>       0.00462963 </v>
   <v>       0.00462963 </v>
   <v>       0.00462963 </v>
   <v>       0.00462963 </v>
   <v>       0.00462963 </v>
   <v>       0.00462963 </v>
   <v>       0.00462963 </v>
   <v>       0.00462963 </v>
   <v>       0.00462963 </v>
   <v>       0.00462963 </v>
   <v>       0.00462963 </v>
   <v>       0.00231481 </v>
   <v>       0.00231481 </v>
   <v>       0.00462963 </v>
   <v>       0.00462963 </v>
   <v>       0.00462963 </v>
   <v>       0.00462963 </v>
   <v>       0.00462963 </v>
   <v>       0.00462963 </v>
   <v>       0.00462963 </v>
   <v>       0.00462963 </v>
   <v>       0.00462963 </v>
   <v>       0.00462963 </v>
   <v>       0.00462963 </v>
   <v>       0.00231481 </v>
   <v>       0.00231481 </v>
   <v>       0.00462963 </v>
   <v>       0.00462963 </v>
   <v>       0.00462963 </v>
   <v>       0.00462963 </v>
   <v>       0.00462963 </v>
   <v>       0.00462963 </v>
   <v>       0.00462963 </v>
   <v>       0.00462963 </v>
   <v>       0.00462963 </v>
   <v>       0.00462963 </v>
   <v>       0.00462963 </v>
   <v>       0.00231481 </v>
   <v>       0.00231481 </v>
   <v>       0.00462963 </v>
   <v>       0.00462963 </v>
   <v>       0.00462963 </v>
   <v>       0.00462963 </v>
   <v>       0.00462963 </v>
   <v>       0.00462963 </v>
   <v>       0.00462963 </v>
   <v>       0.00462963 </v>
   <v>       0.00462963 </v>
   <v>       0.00462963 </v>
   <v>       0.00462963 </v>
   <v>       0.00231481 </v>
   <v>       0.00231481 </v>
   <v>       0.00462963 </v>
   <v>       0.00462963 </v>
   <v>       0.00462963 </v>
   <v>       0.00462963 </v>
   <v>       0.00462963 </v>
   <v>       0.00462963 </v>
   <v>       0.00462963 </v>
   <v>       0.00462963 </v>
   <v>       0.00462963 </v>
   <v>       0.00462963 </v>
   <v>       0.00462963 </v>
   <v>       0.00231481 </v>
   <v>       0.00231481 </v>
   <v>       0.00462963 </v>
   <v>       0.00462963 </v>
   <v>       0.00462963 </v>
   <v>       0.00462963 </v>
   <v>       0.00462963 </v>
   <v>       0.00462963 </v>
   <v>       0.00462963 </v>
   <v>       0.00462963 </v>
   <v>       0.00462963 </v>
   <v>       0.00462963 </v>
   <v>       0.00462963 </v>
   <v>       0.00231481 </v>
   <v>       0.00231481 </v>
   <v>       0.00462963 </v>
   <v>       0.00462963 </v>
   <v>       0.00462963 </v>
   <v>       0.00462963 </v>
   <v>       0.00462963 </v>
   <v>       0.00462963 </v>
   <v>       0.00462963 </v>
   <v>       0.00462963 </v>
   <v>       0.00462963 </v>
   <v>       0.00462963 </v>
   <v>       0.00462963 </v>
   <v>       0.00231481 </v>
   <v>       0.00231481 </v>
   <v>       0.00462963 </v>
   <v>       0.00462963 </v>
   <v>       0.00462963 </v>
   <v>       0.00462963 </v>
   <v>       0.00462963 </v>
   <v>       0.00462963 </v>
   <v>       0.00462963 </v>
   <v>       0.00462963 </v>
   <v>       0.00462963 </v>
   <v>       0.00462963 </v>
   <v>       0.00462963 </v>
   <v>       0.00231481 </v>
   <v>       0.00231481 </v>
   <v>       0.00462963 </v>
   <v>       0.00462963 </v>
   <v>       0.00462963 </v>
   <v>       0.00462963 </v>
   <v>       0.00462963 </v>
   <v>       0.00462963 </v>
   <v>       0.00462963 </v>
   <v>       0.00462963 </v>
   <v>       0.00462963 </v>
   <v>       0.00462963 </v>
   <v>       0.00462963 </v>
   <v>       0.00231481 </v>
   <v>       0.00231481 </v>
   <v>       0.00462963 </v>
   <v>       0.00462963 </v>
   <v>       0.00462963 </v>
   <v>       0.00462963 </v>
   <v>       0.00462963 </v>
   <v>       0.00462963 </v>
   <v>       0.00462963 </v>
   <v>       0.00462963 </v>
   <v>       0.00462963 </v>
   <v>       0.00462963 </v>
   <v>       0.00462963 </v>
   <v>       0.00231481 </v>
   <v>       0.00231481 </v>
   <v>       0.00462963 </v>
   <v>       0.00462963 </v>
   <v>       0.00462963 </v>
   <v>       0.00462963 </v>
   <v>       0.00462963 </v>
   <v>       0.00462963 </v>
   <v>       0.00462963 </v>
   <v>       0.00462963 </v>
   <v>       0.00462963 </v>
   <v>       0.00462963 </v>
   <v>       0.00462963 </v>
   <v>       0.00231481 </v>
   <v>       0.00231481 </v>
   <v>       0.00462963 </v>
   <v>       0.00462963 </v>
   <v>       0.00462963 </v>
   <v>       0.00462963 </v>
   <v>       0.00462963 </v>
   <v>       0.00462963 </v>
   <v>       0.00462963 </v>
   <v>       0.00462963 </v>
   <v>       0.00462963 </v>
   <v>       0.00462963 </v>
   <v>       0.00462963 </v>
   <v>       0.00231481 </v>
   <v>       0.00115741 </v>
   <v>       0.00231481 </v>
   <v>       0.00231481 </v>
   <v>       0.00231481 </v>
   <v>       0.00231481 </v>
   <v>       0.00231481 </v>
   <v>       0.00231481 </v>
   <v>       0.00231481 </v>
   <v>       0.00231481 </v>
   <v>       0.00231481 </v>
   <v>       0.00231481 </v>
   <v>       0.00231481 </v>
   <v>       0.00115741 </v>
  </varray>
 </kpoints>
 <parameters>
  <separator name="general" >
   <i type="string" name="SYSTEM">gr</i>
   <i type="logical" name="LCOMPAT"> F  </i>
  </separator>
  <separator name="electronic" >
   <i type="string" name="PREC">accura</i>
   <i name="ENMAX">   2000.00000000</i>
   <i name="ENAUG">    644.87300000</i>
   <i name="EDIFF">      0.00000000</i>
   <i type="int" name="IALGO">    68</i>
   <i type="int" name="IWAVPR">    11</i>
   <i type="int" name="NBANDS">    12</i>
   <i name="NELECT">     16.00000000</i>
   <i type="int" name="TURBO">     0</i>
   <i type="int" name="IRESTART">     0</i>
   <i type="int" name="NREBOOT">     0</i>
   <i type="int" name="NMIN">     0</i>
   <i name="EREF">      0.00000000</i>
   <separator name="electronic smearing" >
    <i type="int" name="ISMEAR">     0</i>
    <i name="SIGMA">      0.05000000</i>
    <i name="KSPACING">      0.50000000</i>
    <i type="logical" name="KGAMMA"> T  </i>
   </separator>
   <separator name="electronic projectors" >
    <i type="logical" name="LREAL"> F  </i>
    <v name="ROPT">      0.00000000</v>
    <i type="int" name="LMAXPAW">  -100</i>
    <i type="int" name="LMAXMIX">     2</i>
    <i type="logical" name="NLSPLINE"> F  </i>
   </separator>
   <separator name="electronic startup" >
    <i type="int" name="ISTART">     0</i>
    <i type="int" name="ICHARG">     2</i>
    <i type="int" name="INIWAV">     1</i>
   </separator>
   <separator name="electronic spin" >
    <i type="int" name="ISPIN">     1</i>
    <i type="logical" name="LNONCOLLINEAR"> F  </i>
    <v name="MAGMOM">      1.00000000      1.00000000      1.00000000      1.00000000</v>
    <i name="NUPDOWN">     -1.00000000</i>
    <i type="logical" name="LSORBIT"> F  </i>
    <v name="SAXIS">      0.00000000      0.00000000      1.00000000</v>
    <i type="logical" name="LSPIRAL"> F  </i>
    <v name="QSPIRAL">      0.00000000      0.00000000      0.00000000</v>
    <i type="logical" name="LZEROZ"> F  </i>
   </separator>
   <separator name="electronic exchange-correlation" >
    <i type="logical" name="LASPH"> F  </i>
    <i type="logical" name="LMETAGGA"> F  </i>
   </separator>
   <separator name="electronic convergence" >
    <i type="int" name="NELM">   100</i>
    <i type="int" name="NELMDL">    -3</i>
    <i type="int" name="NELMIN">     5</i>
    <i name="ENINI">   2000.00000000</i>
    <separator name="electronic convergence detail" >
     <i type="logical" name="LDIAG"> T  </i>
     <i type="logical" name="LSUBROT"> F  </i>
     <i name="WEIMIN">      0.00100000</i>
     <i name="EBREAK">      0.00000000</i>
     <i name="DEPER">      0.30000000</i>
     <i type="int" name="NRMM">     4</i>
     <i name="TIME">      0.40000000</i>
    </separator>
   </separator>
   <separator name="electronic mixer" >
    <i name="AMIX">      0.40000000</i>
    <i name="BMIX">      1.00000000</i>
    <i name="AMIN">      0.10000000</i>
    <i name="AMIX_MAG">      1.60000000</i>
    <i name="BMIX_MAG">      1.00000000</i>
    <separator name="electronic mixer details" >
     <i type="int" name="IMIX">     4</i>
     <i type="int" name="MAXMIX">   -45</i>
     <i name="WC">    100.00000000</i>
     <i type="int" name="INIMIX">     1</i>
     <i type="int" name="MIXPRE">     1</i>
     <i type="int" name="MREMOVE">     5</i>
    </separator>
   </separator>
   <separator name="electronic dipolcorrection" >
    <i type="logical" name="LDIPOL"> F  </i>
    <i type="logical" name="LMONO"> F  </i>
    <i type="int" name="IDIPOL">     0</i>
    <i name="EPSILON">      1.00000000</i>
    <v name="DIPOL">   -100.00000000   -100.00000000   -100.00000000</v>
    <i name="EFIELD">      0.00000000</i>
   </separator>
  </separator>
  <separator name="grids" >
   <i type="int" name="NGX">    64</i>
   <i type="int" name="NGY">    36</i>
   <i type="int" name="NGZ">   294</i>
   <i type="int" name="NGXF">   128</i>
   <i type="int" name="NGYF">    72</i>
   <i type="int" name="NGZF">   588</i>
   <i type="logical" name="ADDGRID"> F  </i>
  </separator>
  <separator name="ionic" >
   <i type="int" name="NSW">   400</i>
   <i type="int" name="IBRION">     1</i>
   <i type="int" name="ISIF">     2</i>
   <i name="PSTRESS">      0.00000000</i>
   <i name="EDIFFG">     -0.00000100</i>
   <i type="int" name="NFREE">     0</i>
   <i name="POTIM">      0.50000000</i>
   <i name="SMASS">     -3.00000000</i>
   <i name="SCALEE">      1.00000000</i>
  </separator>
  <separator name="ionic md" >
   <i name="TEBEG">      0.00010000</i>
   <i name="TEEND">      0.00010000</i>
   <i type="int" name="NBLOCK">     1</i>
   <i type="int" name="KBLOCK">   400</i>
   <i type="int" name="NPACO">   256</i>
   <i name="APACO">     16.00000000</i>
  </separator>
  <separator name="symmetry" >
   <i type="int" name="ISYM">     2</i>
   <i name="SYMPREC">      0.00001000</i>
  </separator>
  <separator name="dos" >
   <i type="logical" name="LORBIT"> F  </i>
   <v name="RWIGS">     -1.00000000</v>
   <i type="int" name="NEDOS">   301</i>
   <i name="EMIN">     10.00000000</i>
   <i name="EMAX">    -10.00000000</i>
   <i name="EFERMI">      0.00000000</i>
  </separator>
  <separator name="writing" >
   <i type="int" name="NWRITE">     2</i>
   <i type="logical" name="LWAVE"> F  </i>
   <i type="logical" name="LCHARG"> F  </i>
   <i type="logical" name="LPARD"> F  </i>
   <i type="logical" name="LVTOT"> F  </i>
   <i type="logical" name="LVHAR"> F  </i>
   <i type="logical" name="LELF"> F  </i>
   <i type="logical" name="LOPTICS"> F  </i>
   <v name="STM">      0.00000000      0.00000000      0.00000000      0.00000000      0.00000000      0.00000000      0.00000000</v>
  </separator>
  <separator name="performance" >
   <i type="int" name="NPAR">     4</i>
   <i type="int" name="NSIM">     4</i>
   <i type="int" name="NBLK">    -1</i>
   <i type="logical" name="LPLANE"> T  </i>
   <i type="logical" name="LSCALAPACK"> F  </i>
   <i type="logical" name="LSCAAWARE"> F  </i>
   <i type="logical" name="LSCALU"> F  </i>
   <i type="logical" name="LASYNC"> F  </i>
   <i type="logical" name="LORBITALREAL"> F  </i>
  </separator>
  <separator name="miscellaneous" >
   <i type="int" name="IDIOT">     3</i>
   <i type="logical" name="LMUSIC"> F  </i>
   <v name="POMASS">     12.01100000</v>
   <v name="DARWINR">      0.00000000</v>
   <v name="DARWINV">      1.00000000</v>
   <i type="logical" name="LCORR"> T  </i>
  </separator>
  <i type="logical" name="GGA_COMPAT"> T  </i>
  <i type="logical" name="LBERRY"> F  </i>
  <i type="int" name="ICORELEVEL">     0</i>
  <i type="logical" name="LDAU"> F  </i>
  <i type="int" name="I_CONSTRAINED_M">     0</i>
  <separator name="electronic exchange-correlation" >
   <i type="string" name="GGA">--</i>
   <i type="int" name="VOSKOWN">     0</i>
   <i type="logical" name="LHFCALC"> F  </i>
   <i type="string" name="PRECFOCK"></i>
   <i type="logical" name="LSYMGRAD"> F  </i>
   <i type="logical" name="LHFONE"> F  </i>
   <i type="logical" name="LRHFCALC"> F  </i>
   <i type="logical" name="LTHOMAS"> F  </i>
   <i type="logical" name="LMODELHF"> F  </i>
   <i name="ENCUT4O">     -1.00000000</i>
   <i type="int" name="EXXOEP">     0</i>
   <i type="int" name="FOURORBIT">     0</i>
   <i name="AEXX">      0.00000000</i>
   <i name="HFALPHA">      0.00000000</i>
   <i name="MCALPHA">      0.00000000</i>
   <i name="ALDAX">      1.00000000</i>
   <i name="AGGAX">      1.00000000</i>
   <i name="ALDAC">      1.00000000</i>
   <i name="AGGAC">      1.00000000</i>
   <i type="int" name="NKREDX">     1</i>
   <i type="int" name="NKREDY">     1</i>
   <i type="int" name="NKREDZ">     1</i>
   <i type="logical" name="SHIFTRED"> F  </i>
   <i type="logical" name="ODDONLY"> F  </i>
   <i type="logical" name="EVENONLY"> F  </i>
   <i type="int" name="LMAXFOCK">     0</i>
   <i type="int" name="NMAXFOCKAE">     0</i>
   <i type="logical" name="LFOCKAEDFT"> F  </i>
   <i name="HFSCREEN">      0.00000000</i>
   <i name="HFSCREENC">      0.00000000</i>
   <i type="int" name="NBANDSGWLOW">     0</i>
  </separator>
  <separator name="vdW DFT" >
   <i type="logical" name="LUSE_VDW"> F  </i>
   <i name="Zab_VDW">     -0.84910000</i>
   <i name="PARAM1">      0.12340000</i>
   <i name="PARAM2">      1.00000000</i>
   <i name="PARAM3">      0.00000000</i>
  </separator>
  <separator name="model GW" >
   <i type="int" name="MODEL_GW">     0</i>
   <i name="MODEL_EPS0">     31.62568521</i>
   <i name="MODEL_ALPHA">      1.00000000</i>
  </separator>
  <separator name="linear response parameters" >
   <i type="logical" name="LEPSILON"> F  </i>
   <i type="logical" name="LRPA"> F  </i>
   <i type="logical" name="LNABLA"> F  </i>
   <i type="logical" name="LVEL"> F  </i>
   <i type="int" name="KINTER">     0</i>
   <i name="CSHIFT">      0.10000000</i>
   <i name="OMEGAMAX">     -1.00000000</i>
   <i name="DEG_THRESHOLD">      0.00200000</i>
  </separator>
  <separator name="orbital magnetization" >
   <i type="logical" name="NUCIND"> F  </i>
   <v name="MAGPOS">      0.00000000      0.00000000      0.00000000</v>
   <i type="logical" name="LNICSALL"> T  </i>
   <i type="logical" name="ORBITALMAG"> F  </i>
   <i type="logical" name="LMAGBLOCH"> F  </i>
   <i type="logical" name="LCHIMAG"> F  </i>
   <i type="logical" name="LGAUGE"> T  </i>
   <i type="int" name="MAGATOM">     0</i>
   <v name="MAGDIPOL">      0.00000000      0.00000000      0.00000000</v>
   <v name="AVECCONST">      0.00000000      0.00000000      0.00000000</v>
  </separator>
  <separator name="response functions" >
   <i type="logical" name="LADDER"> F  </i>
   <i type="logical" name="LFXC"> F  </i>
   <i type="logical" name="LHARTREE"> T  </i>
   <i type="int" name="IBSE">     0</i>
   <i type="logical" name="LTCTE"> F  </i>
   <i type="logical" name="LTETE"> F  </i>
   <i type="logical" name="LTRIPLET"> F  </i>
   <i type="logical" name="LFXCEPS"> F  </i>
   <i type="logical" name="LFXHEG"> F  </i>
   <i type="logical" name="L2ORDER"> F  </i>
   <i type="logical" name="LUSEW"> F  </i>
   <i name="ENCUTGW">     -2.00000000</i>
   <i name="ENCUTGWSOFT">     -2.00000000</i>
   <i name="ENCUTLF">     -1.00000000</i>
   <i type="int" name="LMAXMP2">    -1</i>
   <i name="SCISSOR">      0.00000000</i>
   <i type="int" name="NOMEGA">     0</i>
   <i type="int" name="NOMEGAR">     0</i>
   <i type="int" name="NBANDSGW">    -1</i>
   <i type="int" name="NBANDSO">    -1</i>
   <i type="int" name="NBANDSV">    -1</i>
   <i type="int" name="NELM">   100</i>
   <i type="int" name="DIM">     3</i>
   <i type="int" name="ANTIRES">     0</i>
   <i name="OMEGAMAX">    -30.00000000</i>
   <i name="OMEGAMIN">    -30.00000000</i>
   <i name="OMEGATL">   -200.00000000</i>
   <i type="int" name="OMEGAGRID">     0</i>
   <i name="CSHIFT">     -0.10000000</i>
   <i type="logical" name="SELFENERGY"> F  </i>
   <i type="logical" name="LSPECTRAL"> F  </i>
   <i type="logical" name="ODDONLYGW"> F  </i>
   <i type="logical" name="EVENONLYGW"> F  </i>
   <i type="int" name="NKREDLFX">     1</i>
   <i type="int" name="NKREDLFY">     1</i>
   <i type="int" name="NKREDLFZ">     1</i>
   <i type="int" name="MAXMEM">  1800</i>
   <i type="int" name="TELESCOPE">     0</i>
   <i type="int" name="TAUPAR">     1</i>
  </separator>
  <separator name="External order field" >
   <i name="OFIELD_KAPPA">      0.00000000</i>
   <v name="OFIELD_K">      0.00000000      0.00000000      0.00000000</v>
   <i name="OFIELD_Q6_NEAR">      0.00000000</i>
   <i name="OFIELD_Q6_FAR">      0.00000000</i>
   <i name="OFIELD_A">      0.00000000</i>
  </separator>
 </parameters>
 <atominfo>
  <atoms>       4 </atoms>
  <types>       1 </types>
  <array name="atoms" >
   <dimension dim="1">ion</dimension>
   <field type="string">element</field>
   <field type="int">atomtype</field>
   <set>
    <rc><c>C </c><c>   1</c></rc>
    <rc><c>C </c><c>   1</c></rc>
    <rc><c>C </c><c>   1</c></rc>
    <rc><c>C </c><c>   1</c></rc>
   </set>
  </array>
  <array name="atomtypes" >
   <dimension dim="1">type</dimension>
   <field type="int">atomspertype</field>
   <field type="string">element</field>
   <field>mass</field>
   <field>valence</field>
   <field type="string">pseudopotential</field>
   <set>
    <rc><c>   4</c><c>C </c><c>     12.01100000</c><c>      4.00000000</c><c> PAW_PBE C 08Apr2002                    </c></rc>
   </set>
  </array>
 </atominfo>
 <structure name="initialpos" >
  <crystal>
   <varray name="basis" >
    <v>       4.29547805       0.00000000       0.00000000 </v>
    <v>       0.00000000       2.46486547       0.00000000 </v>
    <v>       0.00000000       0.00000000      19.91333313 </v>
   </varray>
   <i name="volume">    210.83790140 </i>
   <varray name="rec_basis" >
    <v>       0.23280296       0.00000000       0.00000000 </v>
    <v>       0.00000000       0.40570165       0.00000000 </v>
    <v>       0.00000000       0.00000000       0.05021761 </v>
   </varray>
  </crystal>
  <varray name="positions" >
   <v>       0.99987391       0.00000000       0.00000000 </v>
   <v>       0.16679275       0.50000000       0.00000000 </v>
   <v>       0.49987391       0.50000000       0.00000000 </v>
   <v>       0.66679275       0.00000000       0.00000000 </v>
  </varray>
 </structure>
 <calculation>
  <scstep>
   <time name="dav">  295.62  298.22</time>
   <time name="total">  298.14  301.17</time>
   <energy>
    <i name="alphaZ">      6.18334092 </i>
    <i name="ewald">   2557.52892414 </i>
    <i name="hartreedc">  -2983.78624169 </i>
    <i name="XCdc">     55.03850112 </i>
    <i name="pawpsdc">    151.32577238 </i>
    <i name="pawaedc">   -155.92769107 </i>
    <i name="eentropy">     -0.00142047 </i>
    <i name="bandstr">    -28.81310085 </i>
    <i name="atom">    588.62352690 </i>
    <i name="e_fr_energy">    190.17161139 </i>
    <i name="e_wo_entrp">    190.17303186 </i>
    <i name="e_0_energy">    190.17232163 </i>
   </energy>
  </scstep>
  <scstep>
   <time name="dav">  449.46  451.99</time>
   <time name="total">  449.46  452.01</time>
   <energy>
    <i name="e_fr_energy">     -8.89908189 </i>
    <i name="e_wo_entrp">     -8.89871704 </i>
    <i name="e_0_energy">     -8.89889946 </i>
   </energy>
  </scstep>
  <scstep>
   <time name="dav">  345.07  346.04</time>
   <time name="total">  374.59  375.77</time>
   <energy>
    <i name="e_fr_energy">    -38.28753052 </i>
    <i name="e_wo_entrp">    -38.28752367 </i>
    <i name="e_0_energy">    -38.28752709 </i>
   </energy>
  </scstep>
  <scstep>
   <time name="diag">   79.88   79.97</time>
   <time name="diis">  327.37  327.83</time>
   <time name="orth">    3.09    3.09</time>
   <time name="total">  442.08  442.93</time>
   <energy>
    <i name="e_fr_energy">    -37.69464547 </i>
    <i name="e_wo_entrp">    -37.69456522 </i>
    <i name="e_0_energy">    -37.69460534 </i>
   </energy>
  </scstep>
  <scstep>
   <time name="diag">   79.97   80.00</time>
   <time name="diis">  324.76  324.91</time>
   <time name="orth">    3.09    3.09</time>
   <time name="total">  439.32  439.57</time>
   <energy>
    <i name="e_fr_energy">    -36.93389966 </i>
    <i name="e_wo_entrp">    -36.93378785 </i>
    <i name="e_0_energy">    -36.93384376 </i>
   </energy>
  </scstep>
  <scstep>
   <time name="diag">   79.88   79.89</time>
   <time name="diis">  351.94  353.20</time>
   <time name="orth">    3.07    3.07</time>
   <time name="total">  466.31  467.76</time>
   <energy>
    <i name="e_fr_energy">    -36.93488772 </i>
    <i name="e_wo_entrp">    -36.93479904 </i>
    <i name="e_0_energy">    -36.93484338 </i>
   </energy>
  </scstep>
  <scstep>
   <time name="diag">   79.89   79.98</time>
   <time name="diis">  324.29  324.37</time>
   <time name="orth">    3.07    3.07</time>
   <time name="total">  438.98  439.52</time>
   <energy>
    <i name="e_fr_energy">    -36.92532308 </i>
    <i name="e_wo_entrp">    -36.92523745 </i>
    <i name="e_0_energy">    -36.92528027 </i>
   </energy>
  </scstep>
  <scstep>
   <time name="diag">   79.89   79.91</time>
   <time name="diis">  326.34  327.08</time>
   <time name="orth">    3.07    3.09</time>
   <time name="total">  440.26  443.29</time>
   <energy>
    <i name="e_fr_energy">    -36.91958022 </i>
    <i name="e_wo_entrp">    -36.91949415 </i>
    <i name="e_0_energy">    -36.91953719 </i>
   </energy>
  </scstep>
  <scstep>
   <time name="diag">   79.93   79.97</time>
   <time name="diis">  322.71  322.85</time>
   <time name="orth">    3.07    3.07</time>
   <time name="total">  437.79  438.03</time>
   <energy>
    <i name="e_fr_energy">    -36.91924690 </i>
    <i name="e_wo_entrp">    -36.91916010 </i>
    <i name="e_0_energy">    -36.91920350 </i>
   </energy>
  </scstep>
  <scstep>
   <time name="diag">   79.92   79.93</time>
   <time name="diis">  323.18  323.25</time>
   <time name="orth">    3.07    3.07</time>
   <time name="total">  437.48  437.60</time>
   <energy>
    <i name="e_fr_energy">    -36.91919219 </i>
    <i name="e_wo_entrp">    -36.91910583 </i>
    <i name="e_0_energy">    -36.91914901 </i>
   </energy>
  </scstep>
  <scstep>
   <time name="diag">   79.88   79.90</time>
   <time name="diis">  325.30  325.44</time>
   <time name="orth">    3.11    3.11</time>
   <time name="total">  439.74  439.94</time>
   <energy>
    <i name="e_fr_energy">    -36.92172444 </i>
    <i name="e_wo_entrp">    -36.92163824 </i>
    <i name="e_0_energy">    -36.92168134 </i>
   </energy>
  </scstep>
  <scstep>
   <time name="diag">   79.86   79.88</time>
   <time name="diis">  323.87  323.96</time>
   <time name="orth">    3.09    3.09</time>
   <time name="total">  438.55  438.68</time>
   <energy>
    <i name="e_fr_energy">    -36.92219146 </i>
    <i name="e_wo_entrp">    -36.92210511 </i>
    <i name="e_0_energy">    -36.92214829 </i>
   </energy>
  </scstep>
  <scstep>
   <time name="diag">   79.88   79.90</time>
   <time name="diis">  330.88  330.96</time>
   <time name="orth">    3.09    3.10</time>
   <time name="total">  445.59  445.70</time>
   <energy>
    <i name="e_fr_energy">    -36.92243185 </i>
    <i name="e_wo_entrp">    -36.92234548 </i>
    <i name="e_0_energy">    -36.92238866 </i>
   </energy>
  </scstep>
  <scstep>
   <time name="diag">   79.77   79.79</time>
   <time name="diis">  325.16  325.23</time>
   <time name="orth">    3.09    3.09</time>
   <time name="total">  439.48  439.95</time>
   <energy>
    <i name="e_fr_energy">    -36.92251750 </i>
    <i name="e_wo_entrp">    -36.92243117 </i>
    <i name="e_0_energy">    -36.92247434 </i>
   </energy>
  </scstep>
  <scstep>
   <time name="diag">   79.71   79.72</time>
   <time name="diis">  327.50  327.67</time>
   <time name="orth">    3.07    3.07</time>
   <time name="total">  442.09  442.33</time>
   <energy>
    <i name="e_fr_energy">    -36.92252465 </i>
    <i name="e_wo_entrp">    -36.92243831 </i>
    <i name="e_0_energy">    -36.92248148 </i>
   </energy>
  </scstep>
  <scstep>
   <time name="diag">   79.72   79.74</time>
   <time name="diis">  330.63  330.78</time>
   <time name="orth">    3.07    3.07</time>
   <time name="total">  444.94  445.31</time>
   <energy>
    <i name="e_fr_energy">    -36.92253658 </i>
    <i name="e_wo_entrp">    -36.92245023 </i>
    <i name="e_0_energy">    -36.92249340 </i>
   </energy>
  </scstep>
  <scstep>
   <time name="diag">   79.39   79.76</time>
   <time name="diis">  337.94  338.20</time>
   <time name="orth">    3.07    3.07</time>
   <time name="total">  451.97  453.60</time>
   <energy>
    <i name="e_fr_energy">    -36.92253997 </i>
    <i name="e_wo_entrp">    -36.92245362 </i>
    <i name="e_0_energy">    -36.92249679 </i>
   </energy>
  </scstep>
  <scstep>
   <time name="diag">   79.76   79.78</time>
   <time name="diis">  323.26  323.32</time>
   <time name="orth">    3.09    3.09</time>
   <time name="total">  437.90  438.10</time>
   <energy>
    <i name="e_fr_energy">    -36.92254198 </i>
    <i name="e_wo_entrp">    -36.92245564 </i>
    <i name="e_0_energy">    -36.92249881 </i>
   </energy>
  </scstep>
  <scstep>
   <time name="diag">   79.78   79.83</time>
   <time name="diis">  322.75  324.40</time>
   <time name="orth">    3.07    3.09</time>
   <time name="total">  436.63  438.50</time>
   <energy>
    <i name="e_fr_energy">    -36.92254228 </i>
    <i name="e_wo_entrp">    -36.92245593 </i>
    <i name="e_0_energy">    -36.92249911 </i>
   </energy>
  </scstep>
  <scstep>
   <time name="diag">   79.42   79.84</time>
   <time name="diis">  250.71  251.99</time>
   <time name="orth">    3.07    3.09</time>
   <time name="total">  364.37  366.44</time>
   <energy>
    <i name="e_fr_energy">    -36.92254232 </i>
    <i name="e_wo_entrp">    -36.92245598 </i>
    <i name="e_0_energy">    -36.92249915 </i>
   </energy>
  </scstep>
  <scstep>
   <time name="diag">   79.63   79.83</time>
   <time name="diis">  240.21  240.26</time>
   <time name="orth">    3.09    3.09</time>
   <time name="total">  354.04  354.48</time>
   <energy>
    <i name="e_fr_energy">    -36.92254234 </i>
    <i name="e_wo_entrp">    -36.92245600 </i>
    <i name="e_0_energy">    -36.92249917 </i>
   </energy>
  </scstep>
  <scstep>
   <time name="diag">   79.79   79.81</time>
   <time name="diis">  220.51  220.95</time>
   <time name="orth">    3.07    3.09</time>
   <time name="total">  334.77  335.46</time>
   <energy>
    <i name="e_fr_energy">    -36.92254234 </i>
    <i name="e_wo_entrp">    -36.92245600 </i>
    <i name="e_0_energy">    -36.92249917 </i>
   </energy>
  </scstep>
  <scstep>
   <time name="diag">   79.64   79.81</time>
   <time name="diis">  211.06  211.11</time>
   <time name="orth">    3.09    3.09</time>
   <time name="total">  325.63  325.87</time>
   <energy>
    <i name="e_fr_energy">    -36.92254234 </i>
    <i name="e_wo_entrp">    -36.92245600 </i>
    <i name="e_0_energy">    -36.92249917 </i>
   </energy>
  </scstep>
  <scstep>
   <time name="diag">   79.76   79.78</time>
   <time name="diis">  197.54  197.66</time>
   <time name="orth">    3.07    3.07</time>
   <time name="total">  312.41  312.85</time>
   <energy>
    <i name="e_fr_energy">    -36.92254234 </i>
    <i name="e_wo_entrp">    -36.92245600 </i>
    <i name="e_0_energy">    -36.92249917 </i>
   </energy>
  </scstep>
  <scstep>
   <time name="diag">   79.76   79.77</time>
   <time name="diis">  187.35  187.86</time>
   <time name="orth">    3.09    3.09</time>
   <time name="total">  272.59  273.12</time>
   <energy>
    <i name="alphaZ">      6.18334092 </i>
    <i name="ewald">   2557.52892414 </i>
    <i name="hartreedc">  -3051.54707113 </i>
    <i name="XCdc">     57.44234510 </i>
    <i name="pawpsdc">    275.31647230 </i>
    <i name="pawaedc">   -280.45730872 </i>
    <i name="eentropy">     -0.00008634 </i>
    <i name="bandstr">   -190.01268552 </i>
    <i name="atom">    588.62352690 </i>
    <i name="e_fr_energy">    -36.92254234 </i>
    <i name="e_wo_entrp">    -36.92245600 </i>
    <i name="e_0_energy">    -36.92249917 </i>
   </energy>
  </scstep>
  <structure>
   <crystal>
    <varray name="basis" >
     <v>       4.29547805       0.00000000       0.00000000 </v>
     <v>       0.00000000       2.46486547       0.00000000 </v>
     <v>       0.00000000       0.00000000      19.91333313 </v>
    </varray>
    <i name="volume">    210.83790140 </i>
    <varray name="rec_basis" >
     <v>       0.23280296       0.00000000       0.00000000 </v>
     <v>       0.00000000       0.40570165       0.00000000 </v>
     <v>       0.00000000       0.00000000       0.05021761 </v>
    </varray>
   </crystal>
   <varray name="positions" >
    <v>       0.99987391       0.00000000       0.00000000 </v>
    <v>       0.16679275       0.50000000       0.00000000 </v>
    <v>       0.49987391       0.50000000       0.00000000 </v>
    <v>       0.66679275       0.00000000       0.00000000 </v>
   </varray>
  </structure>
  <varray name="forces" >
   <v>      -0.00111560       0.00000000       0.00000000 </v>
   <v>       0.00111560       0.00000000      -0.00000000 </v>
   <v>      -0.00111560       0.00000000       0.00000000 </v>
   <v>       0.00111560      -0.00000000      -0.00000000 </v>
  </varray>
  <varray name="stress" >
   <v>      -8.67440431       0.00000000       0.00000000 </v>
   <v>       0.00000000       0.00685922       0.00000000 </v>
   <v>       0.00000000       0.00000000      -0.01001273 </v>
  </varray>
  <energy>
   <i name="e_fr_energy">    -36.92254234 </i>
   <i name="e_wo_entrp">    -36.92249917 </i>
   <i name="e_0_energy">     -0.00008634 </i>
  </energy>
  <time name="totalsc">10264.7910288.70</time>
 </calculation>
 <calculation>
  <scstep>
   <time name="dav">  307.27  309.24</time>
   <time name="total">  339.61  341.89</time>
   <energy>
    <i name="alphaZ">      6.18334092 </i>
    <i name="ewald">   2557.52867994 </i>
    <i name="hartreedc">  -3051.54697154 </i>
    <i name="XCdc">     57.44233840 </i>
    <i name="pawpsdc">    275.31647886 </i>
    <i name="pawaedc">   -280.45731534 </i>
    <i name="eentropy">     -0.00008807 </i>
    <i name="bandstr">   -190.01253205 </i>
    <i name="atom">    588.62352690 </i>
    <i name="e_fr_energy">    -36.92254198 </i>
    <i name="e_wo_entrp">    -36.92245391 </i>
    <i name="e_0_energy">    -36.92249795 </i>
   </energy>
  </scstep>
  <scstep>
   <time name="diag">   79.16   79.71</time>
   <time name="diis">  319.55  321.09</time>
   <time name="orth">    3.07    3.09</time>
   <time name="total">  433.71  436.01</time>
   <energy>
    <i name="e_fr_energy">    -36.92254200 </i>
    <i name="e_wo_entrp">    -36.92245399 </i>
    <i name="e_0_energy">    -36.92249799 </i>
   </energy>
  </scstep>
  <scstep>
   <time name="diag">   79.10   79.67</time>
   <time name="diis">  323.31  324.18</time>
   <time name="orth">    3.07    3.09</time>
   <time name="total">  437.61  439.14</time>
   <energy>
    <i name="e_fr_energy">    -36.92254198 </i>
    <i name="e_wo_entrp">    -36.92245408 </i>
    <i name="e_0_energy">    -36.92249803 </i>
   </energy>
  </scstep>
  <scstep>
   <time name="diag">   79.02   79.74</time>
   <time name="diis">  327.45  328.98</time>
   <time name="orth">    3.07    3.07</time>
   <time name="total">  440.91  443.27</time>
   <energy>
    <i name="e_fr_energy">    -36.92254198 </i>
    <i name="e_wo_entrp">    -36.92245405 </i>
    <i name="e_0_energy">    -36.92249802 </i>
   </energy>
  </scstep>
  <scstep>
   <time name="diag">   79.63   79.70</time>
   <time name="diis">  247.51  248.35</time>
   <time name="orth">    3.09    3.09</time>
   <time name="total">  362.43  363.46</time>
   <energy>
    <i name="e_fr_energy">    -36.92254198 </i>
    <i name="e_wo_entrp">    -36.92245404 </i>
    <i name="e_0_energy">    -36.92249801 </i>
   </energy>
  </scstep>
  <scstep>
   <time name="diag">   79.32   79.64</time>
   <time name="diis">  215.46  216.82</time>
   <time name="orth">    3.07    3.07</time>
   <time name="total">  329.89  331.82</time>
   <energy>
    <i name="e_fr_energy">    -36.92254198 </i>
    <i name="e_wo_entrp">    -36.92245405 </i>
    <i name="e_0_energy">    -36.92249802 </i>
   </energy>
  </scstep>
  <scstep>
   <time name="diag">   79.43   79.68</time>
   <time name="diis">  214.37  214.86</time>
   <time name="orth">    3.07    3.07</time>
   <time name="total">  329.36  330.15</time>
   <energy>
    <i name="e_fr_energy">    -36.92254198 </i>
    <i name="e_wo_entrp">    -36.92245405 </i>
    <i name="e_0_energy">    -36.92249802 </i>
   </energy>
  </scstep>
  <scstep>
   <time name="diag">   78.86   79.73</time>
   <time name="diis">  196.94  198.65</time>
   <time name="orth">    3.08    3.10</time>
   <time name="total">  310.19  313.10</time>
   <energy>
    <i name="e_fr_energy">    -36.92254198 </i>
    <i name="e_wo_entrp">    -36.92245405 </i>
    <i name="e_0_energy">    -36.92249802 </i>
   </energy>
  </scstep>
  <scstep>
   <time name="diag">   78.96   79.72</time>
   <time name="diis">  188.09  188.64</time>
   <time name="orth">    3.07    3.10</time>
   <time name="total">  272.53  273.86</time>
   <energy>
    <i name="alphaZ">      6.18334092 </i>
    <i name="ewald">   2557.52867994 </i>
    <i name="hartreedc">  -3051.54687350 </i>
    <i name="XCdc">     57.44233427 </i>
    <i name="pawpsdc">    275.31605259 </i>
    <i name="pawaedc">   -280.45688732 </i>
    <i name="eentropy">     -0.00008793 </i>
    <i name="bandstr">   -190.01262785 </i>
    <i name="atom">    588.62352690 </i>
    <i name="e_fr_energy">    -36.92254198 </i>
    <i name="e_wo_entrp">    -36.92245405 </i>
    <i name="e_0_energy">    -36.92249802 </i>
   </energy>
  </scstep>
  <structure>
   <crystal>
    <varray name="basis" >
     <v>       4.29547805       0.00000000       0.00000000 </v>
     <v>       0.00000000       2.46486547       0.00000000 </v>
     <v>       0.00000000       0.00000000      19.91333313 </v>
    </varray>
    <i name="volume">    210.83790140 </i>
    <varray name="rec_basis" >
     <v>       0.23280296       0.00000000       0.00000000 </v>
     <v>       0.00000000       0.40570165       0.00000000 </v>
     <v>       0.00000000       0.00000000       0.05021761 </v>
    </varray>
   </crystal>
   <varray name="positions" >
    <v>       0.99986138       0.00000000       0.00000000 </v>
    <v>       0.16680528       0.50000000      -0.00000000 </v>
    <v>       0.49986138       0.50000000       0.00000000 </v>
    <v>       0.66680528      -0.00000000      -0.00000000 </v>
   </varray>
  </structure>
  <varray name="forces" >
   <v>       0.00442078       0.00000000       0.00000000 </v>
   <v>      -0.00442078      -0.00000000      -0.00000000 </v>
   <v>       0.00442078      -0.00000000       0.00000000 </v>
   <v>      -0.00442078       0.00000000      -0.00000000 </v>
  </varray>
  <varray name="stress" >
   <v>      -8.65966268       0.00000000       0.00000000 </v>
   <v>       0.00000000      -0.00972812       0.00000000 </v>
   <v>       0.00000000       0.00000000      -0.01002270 </v>
  </varray>
  <energy>
   <i name="e_fr_energy">    -36.92254198 </i>
   <i name="e_wo_entrp">    -36.92249802 </i>
   <i name="e_0_energy">     -0.00008793 </i>
  </energy>
  <time name="totalsc"> 3355.46 3375.70</time>
 </calculation>
 <calculation>
  <scstep>
   <time name="dav">  312.12  313.85</time>
   <time name="total">  343.36  345.34</time>
   <energy>
    <i name="alphaZ">      6.18334092 </i>
    <i name="ewald">   2557.52887461 </i>
    <i name="hartreedc">  -3051.54695351 </i>
    <i name="XCdc">     57.44233976 </i>
    <i name="pawpsdc">    275.31605296 </i>
    <i name="pawaedc">   -280.45688770 </i>
    <i name="eentropy">     -0.00008656 </i>
    <i name="bandstr">   -190.01274975 </i>
    <i name="atom">    588.62352690 </i>
    <i name="e_fr_energy">    -36.92254236 </i>
    <i name="e_wo_entrp">    -36.92245581 </i>
    <i name="e_0_energy">    -36.92249908 </i>
   </energy>
  </scstep>
  <scstep>
   <time name="diag">   79.00   79.61</time>
   <time name="diis">  319.82  322.78</time>
   <time name="orth">    3.08    3.09</time>
   <time name="total">  433.37  437.16</time>
   <energy>
    <i name="e_fr_energy">    -36.92254237 </i>
    <i name="e_wo_entrp">    -36.92245577 </i>
    <i name="e_0_energy">    -36.92249907 </i>
   </energy>
  </scstep>
  <scstep>
   <time name="diag">   79.24   79.74</time>
   <time name="diis">  324.74  325.13</time>
   <time name="orth">    3.07    3.09</time>
   <time name="total">  438.73  439.68</time>
   <energy>
    <i name="e_fr_energy">    -36.92254237 </i>
    <i name="e_wo_entrp">    -36.92245568 </i>
    <i name="e_0_energy">    -36.92249902 </i>
   </energy>
  </scstep>
  <scstep>
   <time name="diag">   79.34   79.67</time>
   <time name="diis">  330.81  331.57</time>
   <time name="orth">    3.09    3.10</time>
   <time name="total">  444.64  445.93</time>
   <energy>
    <i name="e_fr_energy">    -36.92254236 </i>
    <i name="e_wo_entrp">    -36.92245570 </i>
    <i name="e_0_energy">    -36.92249903 </i>
   </energy>
  </scstep>
  <scstep>
   <time name="diag">   79.34   79.72</time>
   <time name="diis">  233.61  234.56</time>
   <time name="orth">    3.07    3.09</time>
   <time name="total">  347.38  349.08</time>
   <energy>
    <i name="e_fr_energy">    -36.92254236 </i>
    <i name="e_wo_entrp">    -36.92245570 </i>
    <i name="e_0_energy">    -36.92249903 </i>
   </energy>
  </scstep>
  <scstep>
   <time name="diag">   79.21   79.73</time>
   <time name="diis">  212.66  213.08</time>
   <time name="orth">    3.07    3.07</time>
   <time name="total">  327.04  327.99</time>
   <energy>
    <i name="e_fr_energy">    -36.92254236 </i>
    <i name="e_wo_entrp">    -36.92245570 </i>
    <i name="e_0_energy">    -36.92249903 </i>
   </energy>
  </scstep>
  <scstep>
   <time name="diag">   79.20   79.71</time>
   <time name="diis">  210.15  210.46</time>
   <time name="orth">    3.07    3.07</time>
   <time name="total">  323.83  325.07</time>
   <energy>
    <i name="e_fr_energy">    -36.92254236 </i>
    <i name="e_wo_entrp">    -36.92245570 </i>
    <i name="e_0_energy">    -36.92249903 </i>
   </energy>
  </scstep>
  <scstep>
   <time name="diag">   79.50   79.57</time>
   <time name="diis">  201.56  201.70</time>
   <time name="orth">    3.09    3.09</time>
   <time name="total">  316.87  317.10</time>
   <energy>
    <i name="e_fr_energy">    -36.92254236 </i>
    <i name="e_wo_entrp">    -36.92245570 </i>
    <i name="e_0_energy">    -36.92249903 </i>
   </energy>
  </scstep>
  <scstep>
   <time name="diag">   79.56   79.58</time>
   <time name="diis">  192.35  192.49</time>
   <time name="orth">    3.27    3.29</time>
   <time name="total">  307.96  308.15</time>
   <energy>
    <i name="e_fr_energy">    -36.92254236 </i>
    <i name="e_wo_entrp">    -36.92245570 </i>
    <i name="e_0_energy">    -36.92249903 </i>
   </energy>
  </scstep>
  <scstep>
   <time name="diag">   79.54   79.59</time>
   <time name="diis">  184.34  184.51</time>
   <time name="orth">    3.13    3.13</time>
   <time name="total">  299.71  300.21</time>
   <energy>
    <i name="e_fr_energy">    -36.92254236 </i>
    <i name="e_wo_entrp">    -36.92245570 </i>
    <i name="e_0_energy">    -36.92249903 </i>
   </energy>
  </scstep>
  <scstep>
   <time name="diag">   79.21   79.59</time>
   <time name="diis">  176.69  177.24</time>
   <time name="orth">    3.09    3.09</time>
   <time name="total">  291.70  292.69</time>
   <energy>
    <i name="e_fr_energy">    -36.92254236 </i>
    <i name="e_wo_entrp">    -36.92245570 </i>
    <i name="e_0_energy">    -36.92249903 </i>
   </energy>
  </scstep>
  <scstep>
   <time name="diag">   79.33   79.56</time>
   <time name="diis">  170.61  171.39</time>
   <time name="orth">    3.07    3.07</time>
   <time name="total">  285.73  286.96</time>
   <energy>
    <i name="e_fr_energy">    -36.92254236 </i>
    <i name="e_wo_entrp">    -36.92245570 </i>
    <i name="e_0_energy">    -36.92249903 </i>
   </energy>
  </scstep>
  <scstep>
   <time name="diag">   79.42   79.56</time>
   <time name="diis">  168.12  168.15</time>
   <time name="orth">    3.09    3.09</time>
   <time name="total">  283.25  283.48</time>
   <energy>
    <i name="e_fr_energy">    -36.92254236 </i>
    <i name="e_wo_entrp">    -36.92245570 </i>
    <i name="e_0_energy">    -36.92249903 </i>
   </energy>
  </scstep>
  <scstep>
   <time name="diag">   79.55   79.60</time>
   <time name="diis">  165.56  165.60</time>
   <time name="orth">    3.07    3.07</time>
   <time name="total">  281.10  281.20</time>
   <energy>
    <i name="e_fr_energy">    -36.92254236 </i>
    <i name="e_wo_entrp">    -36.92245570 </i>
    <i name="e_0_energy">    -36.92249903 </i>
   </energy>
  </scstep>
  <scstep>
   <time name="diag">   79.59   79.62</time>
   <time name="diis">  159.08  159.11</time>
   <time name="orth">    3.07    3.07</time>
   <time name="total">  274.45  274.53</time>
   <energy>
    <i name="e_fr_energy">    -36.92254236 </i>
    <i name="e_wo_entrp">    -36.92245570 </i>
    <i name="e_0_energy">    -36.92249903 </i>
   </energy>
  </scstep>
  <scstep>
   <time name="diag">   79.63   79.68</time>
   <time name="diis">  162.07  162.18</time>
   <time name="orth">    3.11    3.11</time>
   <time name="total">  277.61  277.80</time>
   <energy>
    <i name="e_fr_energy">    -36.92254236 </i>
    <i name="e_wo_entrp">    -36.92245570 </i>
    <i name="e_0_energy">    -36.92249903 </i>
   </energy>
  </scstep>
  <scstep>
   <time name="diag">   79.42   79.65</time>
   <time name="diis">  166.46  166.57</time>
   <time name="orth">    3.07    3.07</time>
   <time name="total">  251.37  251.73</time>
   <energy>
    <i name="alphaZ">      6.18334092 </i>
    <i name="ewald">   2557.52887461 </i>
    <i name="hartreedc">  -3051.54703617 </i>
    <i name="XCdc">     57.44234316 </i>
    <i name="pawpsdc">    275.31639469 </i>
    <i name="pawaedc">   -280.45723090 </i>
    <i name="eentropy">     -0.00008667 </i>
    <i name="bandstr">   -190.01266892 </i>
    <i name="atom">    588.62352690 </i>
    <i name="e_fr_energy">    -36.92254236 </i>
    <i name="e_wo_entrp">    -36.92245570 </i>
    <i name="e_0_energy">    -36.92249903 </i>
   </energy>
  </scstep>
  <structure>
   <crystal>
    <varray name="basis" >
     <v>       4.29547805       0.00000000       0.00000000 </v>
     <v>       0.00000000       2.46486547       0.00000000 </v>
     <v>       0.00000000       0.00000000      19.91333313 </v>
    </varray>
    <i name="volume">    210.83790140 </i>
    <varray name="rec_basis" >
     <v>       0.23280296       0.00000000       0.00000000 </v>
     <v>       0.00000000       0.40570165       0.00000000 </v>
     <v>       0.00000000       0.00000000       0.05021761 </v>
    </varray>
   </crystal>
   <varray name="positions" >
    <v>       0.99987139       0.00000000       0.00000000 </v>
    <v>       0.16679528       0.50000000      -0.00000000 </v>
    <v>       0.49987139       0.50000000       0.00000000 </v>
    <v>       0.66679528       0.00000000      -0.00000000 </v>
   </varray>
  </structure>
  <varray name="forces" >
   <v>       0.00000046      -0.00000000      -0.00000000 </v>
   <v>      -0.00000046      -0.00000000       0.00000000 </v>
   <v>       0.00000046      -0.00000000      -0.00000000 </v>
   <v>      -0.00000046       0.00000000       0.00000000 </v>
  </varray>
  <varray name="stress" >
   <v>      -8.67141818       0.00000000       0.00000000 </v>
   <v>       0.00000000       0.00351205       0.00000000 </v>
   <v>       0.00000000       0.00000000      -0.01000321 </v>
  </varray>
  <energy>
   <i name="e_fr_energy">    -36.92254236 </i>
   <i name="e_wo_entrp">    -36.92249903 </i>
   <i name="e_0_energy">     -0.00008667 </i>
  </energy>
  <time name="totalsc"> 5622.27 5638.56</time>
  <eigenvalues>
   <array>
    <dimension dim="1">band</dimension>
    <dimension dim="2">kpoint</dimension>
    <dimension dim="3">spin</dimension>
    <field>eigene</field>
    <field>occ</field>
    <set>
     <set comment="spin 1">
      <set comment="kpoint 1">
       <r>  -22.2178    1.0000 </r>
       <r>  -17.0725    1.0000 </r>
       <r>  -15.9453    1.0000 </r>
       <r>  -10.3313    1.0000 </r>
       <r>   -9.0825    1.0000 </r>
       <r>   -5.8336    1.0000 </r>
       <r>   -5.7732    1.0000 </r>
       <r>   -5.1591    1.0000 </r>
       <r>   -1.0994    0.0000 </r>
       <r>    0.5281    0.0000 </r>
       <r>    1.3286    0.0000 </r>
       <r>    1.7136    0.0000 </r>
      </set>
      <set comment="kpoint 2">
       <r>  -22.2077    1.0000 </r>
       <r>  -17.2258    1.0000 </r>
       <r>  -15.7768    1.0000 </r>
       <r>  -10.3192    1.0000 </r>
       <r>   -9.0725    1.0000 </r>
       <r>   -5.8767    1.0000 </r>
       <r>   -5.7952    1.0000 </r>
       <r>   -5.2239    1.0000 </r>
       <r>   -1.0187    0.0000 </r>
       <r>    0.5419    0.0000 </r>
       <r>    1.3425    0.0000 </r>
       <r>    1.7277    0.0000 </r>
      </set>
      <set comment="kpoint 3">
       <r>  -22.1772    1.0000 </r>
       <r>  -17.5488    1.0000 </r>
       <r>  -15.4083    1.0000 </r>
       <r>  -10.2829    1.0000 </r>
       <r>   -9.0424    1.0000 </r>
       <r>   -6.0041    1.0000 </r>
       <r>   -5.8601    1.0000 </r>
       <r>   -5.4041    1.0000 </r>
       <r>   -0.7909    0.0000 </r>
       <r>    0.5831    0.0000 </r>
       <r>    1.3843    0.0000 </r>
       <r>    1.7700    0.0000 </r>
      </set>
      <set comment="kpoint 4">
       <r>  -22.1265    1.0000 </r>
       <r>  -17.9157    1.0000 </r>
       <r>  -14.9658    1.0000 </r>
       <r>  -10.2224    1.0000 </r>
       <r>   -8.9925    1.0000 </r>
       <r>   -6.2107    1.0000 </r>
       <r>   -5.9645    1.0000 </r>
       <r>   -5.6676    1.0000 </r>
       <r>   -0.4485    0.0000 </r>
       <r>    0.6519    0.0000 </r>
       <r>    1.4540    0.0000 </r>
       <r>    1.8406    0.0000 </r>
      </set>
      <set comment="kpoint 5">
       <r>  -22.0556    1.0000 </r>
       <r>  -18.2879    1.0000 </r>
       <r>  -14.4884    1.0000 </r>
       <r>  -10.1380    1.0000 </r>
       <r>   -8.9231    1.0000 </r>
       <r>   -6.4888    1.0000 </r>
       <r>   -6.1032    1.0000 </r>
       <r>   -5.9825    1.0000 </r>
       <r>   -0.0243    0.0000 </r>
       <r>    0.7482    0.0000 </r>
       <r>    1.5515    0.0000 </r>
       <r>    1.9393    0.0000 </r>
      </set>
      <set comment="kpoint 6">
       <r>  -21.9645    1.0000 </r>
       <r>  -18.6527    1.0000 </r>
       <r>  -13.9892    1.0000 </r>
       <r>  -10.0296    1.0000 </r>
       <r>   -8.8344    1.0000 </r>
       <r>   -6.8292    1.0000 </r>
       <r>   -6.3247    1.0000 </r>
       <r>   -6.2702    1.0000 </r>
       <r>    0.4562    0.0000 </r>
       <r>    0.8720    0.0000 </r>
       <r>    1.6768    0.0000 </r>
       <r>    2.0663    0.0000 </r>
      </set>
      <set comment="kpoint 7">
       <r>  -21.8533    1.0000 </r>
       <r>  -19.0051    1.0000 </r>
       <r>  -13.4743    1.0000 </r>
       <r>   -9.8976    1.0000 </r>
       <r>   -8.7270    1.0000 </r>
       <r>   -7.2223    1.0000 </r>
       <r>   -6.6779    1.0000 </r>
       <r>   -6.4590    1.0000 </r>
       <r>    0.9752    0.0000 </r>
       <r>    1.0234    0.0000 </r>
       <r>    1.8298    0.0000 </r>
       <r>    2.2215    0.0000 </r>
      </set>
      <set comment="kpoint 8">
       <r>  -21.7220    1.0000 </r>
       <r>  -19.3426    1.0000 </r>
       <r>  -12.9472    1.0000 </r>
       <r>   -9.7421    1.0000 </r>
       <r>   -8.6015    1.0000 </r>
       <r>   -7.6588    1.0000 </r>
       <r>   -7.0316    1.0000 </r>
       <r>   -6.6634    1.0000 </r>
       <r>    1.2022    0.0000 </r>
       <r>    1.5201    0.0000 </r>
       <r>    2.0106    0.0000 </r>
       <r>    2.4049    0.0000 </r>
      </set>
      <set comment="kpoint 9">
       <r>  -21.5708    1.0000 </r>
       <r>  -19.6636    1.0000 </r>
       <r>  -12.4106    1.0000 </r>
       <r>   -9.5635    1.0000 </r>
       <r>   -8.4588    1.0000 </r>
       <r>   -8.1299    1.0000 </r>
       <r>   -7.3788    1.0000 </r>
       <r>   -6.8776    1.0000 </r>
       <r>    1.4085    0.0000 </r>
       <r>    2.0808    0.0000 </r>
       <r>    2.2188    0.0000 </r>
       <r>    2.6165    0.0000 </r>
      </set>
      <set comment="kpoint 10">
       <r>  -21.3998    1.0000 </r>
       <r>  -19.9674    1.0000 </r>
       <r>  -11.8671    1.0000 </r>
       <r>   -9.3621    1.0000 </r>
       <r>   -8.6281    1.0000 </r>
       <r>   -8.2998    1.0000 </r>
       <r>   -7.7148    1.0000 </r>
       <r>   -7.0964    1.0000 </r>
       <r>    1.6422    0.0000 </r>
       <r>    2.4543    0.0000 </r>
       <r>    2.6482    0.0000 </r>
       <r>    2.8563    0.0000 </r>
      </set>
      <set comment="kpoint 11">
       <r>  -21.2091    1.0000 </r>
       <r>  -20.2532    1.0000 </r>
       <r>  -11.3192    1.0000 </r>
       <r>   -9.1466    1.0000 </r>
       <r>   -9.1384    1.0000 </r>
       <r>   -8.1259    1.0000 </r>
       <r>   -8.0362    1.0000 </r>
       <r>   -7.3154    1.0000 </r>
       <r>    1.9033    0.0000 </r>
       <r>    2.7166    0.0000 </r>
       <r>    3.1243    0.0000 </r>
       <r>    3.2172    0.0000 </r>
      </set>
      <set comment="kpoint 12">
       <r>  -20.9988    1.0000 </r>
       <r>  -20.5207    1.0000 </r>
       <r>  -10.7698    1.0000 </r>
       <r>   -9.6795    1.0000 </r>
       <r>   -8.8931    1.0000 </r>
       <r>   -8.3409    1.0000 </r>
       <r>   -7.9384    1.0000 </r>
       <r>   -7.5307    1.0000 </r>
       <r>    2.1916    0.0000 </r>
       <r>    2.8493    0.0000 </r>
       <r>    3.0044    0.0000 </r>
       <r>    3.4205    0.0000 </r>
      </set>
      <set comment="kpoint 13">
       <r>  -20.7693    1.0000 </r>
       <r>  -20.7693    1.0000 </r>
       <r>  -10.2220    1.0000 </r>
       <r>  -10.2220    1.0000 </r>
       <r>   -8.6269    1.0000 </r>
       <r>   -8.6269    1.0000 </r>
       <r>   -7.7393    1.0000 </r>
       <r>   -7.7393    1.0000 </r>
       <r>    2.5070    0.0000 </r>
       <r>    2.5070    0.0000 </r>
       <r>    3.3120    0.0000 </r>
       <r>    3.3120    0.0000 </r>
      </set>
      <set comment="kpoint 14">
       <r>  -22.2041    1.0000 </r>
       <r>  -17.0607    1.0000 </r>
       <r>  -15.9337    1.0000 </r>
       <r>  -10.3149    1.0000 </r>
       <r>   -9.1445    1.0000 </r>
       <r>   -5.8629    1.0000 </r>
       <r>   -5.8305    1.0000 </r>
       <r>   -5.1425    1.0000 </r>
       <r>   -1.1030    0.0000 </r>
       <r>    0.5467    0.0000 </r>
       <r>    1.3474    0.0000 </r>
       <r>    1.7326    0.0000 </r>
      </set>
      <set comment="kpoint 15">
       <r>  -22.1940    1.0000 </r>
       <r>  -17.2139    1.0000 </r>
       <r>  -15.7654    1.0000 </r>
       <r>  -10.3028    1.0000 </r>
       <r>   -9.1344    1.0000 </r>
       <r>   -5.9134    1.0000 </r>
       <r>   -5.8444    1.0000 </r>
       <r>   -5.2074    1.0000 </r>
       <r>   -1.0223    0.0000 </r>
       <r>    0.5605    0.0000 </r>
       <r>    1.3614    0.0000 </r>
       <r>    1.7467    0.0000 </r>
      </set>
      <set comment="kpoint 16">
       <r>  -22.1635    1.0000 </r>
       <r>  -17.5366    1.0000 </r>
       <r>  -15.3973    1.0000 </r>
       <r>  -10.2665    1.0000 </r>
       <r>   -9.1043    1.0000 </r>
       <r>   -6.0453    1.0000 </r>
       <r>   -5.9031    1.0000 </r>
       <r>   -5.3879    1.0000 </r>
       <r>   -0.7945    0.0000 </r>
       <r>    0.6017    0.0000 </r>
       <r>    1.4032    0.0000 </r>
       <r>    1.7891    0.0000 </r>
      </set>
      <set comment="kpoint 17">
       <r>  -22.1128    1.0000 </r>
       <r>  -17.9033    1.0000 </r>
       <r>  -14.9552    1.0000 </r>
       <r>  -10.2061    1.0000 </r>
       <r>   -9.0544    1.0000 </r>
       <r>   -6.2508    1.0000 </r>
       <r>   -6.0057    1.0000 </r>
       <r>   -5.6518    1.0000 </r>
       <r>   -0.4523    0.0000 </r>
       <r>    0.6705    0.0000 </r>
       <r>    1.4728    0.0000 </r>
       <r>    1.8596    0.0000 </r>
      </set>
      <set comment="kpoint 18">
       <r>  -22.0419    1.0000 </r>
       <r>  -18.2752    1.0000 </r>
       <r>  -14.4784    1.0000 </r>
       <r>  -10.1217    1.0000 </r>
       <r>   -8.9848    1.0000 </r>
       <r>   -6.5249    1.0000 </r>
       <r>   -6.1452    1.0000 </r>
       <r>   -5.9669    1.0000 </r>
       <r>   -0.0288    0.0000 </r>
       <r>    0.7668    0.0000 </r>
       <r>    1.5703    0.0000 </r>
       <r>    1.9584    0.0000 </r>
      </set>
      <set comment="kpoint 19">
       <r>  -21.9508    1.0000 </r>
       <r>  -18.6399    1.0000 </r>
       <r>  -13.9799    1.0000 </r>
       <r>  -10.0134    1.0000 </r>
       <r>   -8.8959    1.0000 </r>
       <r>   -6.8600    1.0000 </r>
       <r>   -6.3141    1.0000 </r>
       <r>   -6.3092    1.0000 </r>
       <r>    0.4509    0.0000 </r>
       <r>    0.8906    0.0000 </r>
       <r>    1.6956    0.0000 </r>
       <r>    2.0853    0.0000 </r>
      </set>
      <set comment="kpoint 20">
       <r>  -21.8396    1.0000 </r>
       <r>  -18.9922    1.0000 </r>
       <r>  -13.4658    1.0000 </r>
       <r>   -9.8814    1.0000 </r>
       <r>   -8.7882    1.0000 </r>
       <r>   -7.2474    1.0000 </r>
       <r>   -6.6625    1.0000 </r>
       <r>   -6.5053    1.0000 </r>
       <r>    0.9687    0.0000 </r>
       <r>    1.0420    0.0000 </r>
       <r>    1.8486    0.0000 </r>
       <r>    2.2405    0.0000 </r>
      </set>
      <set comment="kpoint 21">
       <r>  -21.7084    1.0000 </r>
       <r>  -19.3295    1.0000 </r>
       <r>  -12.9396    1.0000 </r>
       <r>   -9.7260    1.0000 </r>
       <r>   -8.6625    1.0000 </r>
       <r>   -7.6784    1.0000 </r>
       <r>   -7.0162    1.0000 </r>
       <r>   -6.7121    1.0000 </r>
       <r>    1.2208    0.0000 </r>
       <r>    1.5121    0.0000 </r>
       <r>    2.0293    0.0000 </r>
       <r>    2.4239    0.0000 </r>
      </set>
      <set comment="kpoint 22">
       <r>  -21.5572    1.0000 </r>
       <r>  -19.6505    1.0000 </r>
       <r>  -12.4042    1.0000 </r>
       <r>   -9.5474    1.0000 </r>
       <r>   -8.5194    1.0000 </r>
       <r>   -8.1446    1.0000 </r>
       <r>   -7.3634    1.0000 </r>
       <r>   -6.9286    1.0000 </r>
       <r>    1.4271    0.0000 </r>
       <r>    2.0712    0.0000 </r>
       <r>    2.2376    0.0000 </r>
       <r>    2.6356    0.0000 </r>
      </set>
      <set comment="kpoint 23">
       <r>  -21.3862    1.0000 </r>
       <r>  -19.9542    1.0000 </r>
       <r>  -11.8620    1.0000 </r>
       <r>   -9.3460    1.0000 </r>
       <r>   -8.6384    1.0000 </r>
       <r>   -8.3599    1.0000 </r>
       <r>   -7.6993    1.0000 </r>
       <r>   -7.1495    1.0000 </r>
       <r>    1.6609    0.0000 </r>
       <r>    2.4731    0.0000 </r>
       <r>    2.6368    0.0000 </r>
       <r>    2.8754    0.0000 </r>
      </set>
      <set comment="kpoint 24">
       <r>  -21.1955    1.0000 </r>
       <r>  -20.2399    1.0000 </r>
       <r>  -11.3157    1.0000 </r>
       <r>   -9.1531    1.0000 </r>
       <r>   -9.1225    1.0000 </r>
       <r>   -8.1853    1.0000 </r>
       <r>   -8.0206    1.0000 </r>
       <r>   -7.3702    1.0000 </r>
       <r>    1.9219    0.0000 </r>
       <r>    2.7354    0.0000 </r>
       <r>    3.1434    0.0000 </r>
       <r>    3.2297    0.0000 </r>
      </set>
      <set comment="kpoint 25">
       <r>  -20.9853    1.0000 </r>
       <r>  -20.5073    1.0000 </r>
       <r>  -10.7681    1.0000 </r>
       <r>   -9.6828    1.0000 </r>
       <r>   -8.8772    1.0000 </r>
       <r>   -8.3252    1.0000 </r>
       <r>   -7.9970    1.0000 </r>
       <r>   -7.5871    1.0000 </r>
       <r>    2.2102    0.0000 </r>
       <r>    2.8680    0.0000 </r>
       <r>    3.0232    0.0000 </r>
       <r>    3.4519    0.0000 </r>
      </set>
      <set comment="kpoint 26">
       <r>  -20.7559    1.0000 </r>
       <r>  -20.7559    1.0000 </r>
       <r>  -10.2226    1.0000 </r>
       <r>  -10.2226    1.0000 </r>
       <r>   -8.6111    1.0000 </r>
       <r>   -8.6111    1.0000 </r>
       <r>   -7.7969    1.0000 </r>
       <r>   -7.7969    1.0000 </r>
       <r>    2.5257    0.0000 </r>
       <r>    2.5257    0.0000 </r>
       <r>    3.3308    0.0000 </r>
       <r>    3.3308    0.0000 </r>
      </set>
      <set comment="kpoint 27">
       <r>  -22.1630    1.0000 </r>
       <r>  -17.0254    1.0000 </r>
       <r>  -15.8989    1.0000 </r>
       <r>  -10.2659    1.0000 </r>
       <r>   -9.3254    1.0000 </r>
       <r>   -5.9978    1.0000 </r>
       <r>   -5.9501    1.0000 </r>
       <r>   -5.0926    1.0000 </r>
       <r>   -1.1147    0.0000 </r>
       <r>    0.6025    0.0000 </r>
       <r>    1.4038    0.0000 </r>
       <r>    1.7898    0.0000 </r>
      </set>
      <set comment="kpoint 28">
       <r>  -22.1529    1.0000 </r>
       <r>  -17.1781    1.0000 </r>
       <r>  -15.7313    1.0000 </r>
       <r>  -10.2538    1.0000 </r>
       <r>   -9.3153    1.0000 </r>
       <r>   -6.0521    1.0000 </r>
       <r>   -5.9584    1.0000 </r>
       <r>   -5.1579    1.0000 </r>
       <r>   -1.0339    0.0000 </r>
       <r>    0.6162    0.0000 </r>
       <r>    1.4178    0.0000 </r>
       <r>    1.8039    0.0000 </r>
      </set>
      <set comment="kpoint 29">
       <r>  -22.1225    1.0000 </r>
       <r>  -17.5000    1.0000 </r>
       <r>  -15.3644    1.0000 </r>
       <r>  -10.2176    1.0000 </r>
       <r>   -9.2850    1.0000 </r>
       <r>   -6.1848    1.0000 </r>
       <r>   -6.0107    1.0000 </r>
       <r>   -5.3394    1.0000 </r>
       <r>   -0.8061    0.0000 </r>
       <r>    0.6575    0.0000 </r>
       <r>    1.4596    0.0000 </r>
       <r>    1.8462    0.0000 </r>
      </set>
      <set comment="kpoint 30">
       <r>  -22.0718    1.0000 </r>
       <r>  -17.8661    1.0000 </r>
       <r>  -14.9238    1.0000 </r>
       <r>  -10.1572    1.0000 </r>
       <r>   -9.2348    1.0000 </r>
       <r>   -6.3833    1.0000 </r>
       <r>   -6.1123    1.0000 </r>
       <r>   -5.6043    1.0000 </r>
       <r>   -0.4647    0.0000 </r>
       <r>    0.7263    0.0000 </r>
       <r>    1.5292    0.0000 </r>
       <r>    1.9167    0.0000 </r>
      </set>
      <set comment="kpoint 31">
       <r>  -22.0009    1.0000 </r>
       <r>  -18.2374    1.0000 </r>
       <r>  -14.4487    1.0000 </r>
       <r>  -10.0729    1.0000 </r>
       <r>   -9.1648    1.0000 </r>
       <r>   -6.6437    1.0000 </r>
       <r>   -6.2558    1.0000 </r>
       <r>   -5.9202    1.0000 </r>
       <r>   -0.0429    0.0000 </r>
       <r>    0.8226    0.0000 </r>
       <r>    1.6267    0.0000 </r>
       <r>    2.0155    0.0000 </r>
      </set>
      <set comment="kpoint 32">
       <r>  -21.9099    1.0000 </r>
       <r>  -18.6016    1.0000 </r>
       <r>  -13.9522    1.0000 </r>
       <r>   -9.9647    1.0000 </r>
       <r>   -9.0753    1.0000 </r>
       <r>   -6.9613    1.0000 </r>
       <r>   -6.4320    1.0000 </r>
       <r>   -6.2630    1.0000 </r>
       <r>    0.4340    0.0000 </r>
       <r>    0.9464    0.0000 </r>
       <r>    1.7520    0.0000 </r>
       <r>    2.1425    0.0000 </r>
      </set>
      <set comment="kpoint 33">
       <r>  -21.7987    1.0000 </r>
       <r>  -18.9534    1.0000 </r>
       <r>  -13.4405    1.0000 </r>
       <r>   -9.8329    1.0000 </r>
       <r>   -8.9669    1.0000 </r>
       <r>   -7.3302    1.0000 </r>
       <r>   -6.6319    1.0000 </r>
       <r>   -6.6164    1.0000 </r>
       <r>    0.9482    0.0000 </r>
       <r>    1.0978    0.0000 </r>
       <r>    1.9050    0.0000 </r>
       <r>    2.2977    0.0000 </r>
      </set>
      <set comment="kpoint 34">
       <r>  -21.6675    1.0000 </r>
       <r>  -19.2904    1.0000 </r>
       <r>  -12.9172    1.0000 </r>
       <r>   -9.6776    1.0000 </r>
       <r>   -8.8401    1.0000 </r>
       <r>   -7.7433    1.0000 </r>
       <r>   -6.9701    1.0000 </r>
       <r>   -6.8475    1.0000 </r>
       <r>    1.2767    0.0000 </r>
       <r>    1.4870    0.0000 </r>
       <r>    2.0857    0.0000 </r>
       <r>    2.4811    0.0000 </r>
      </set>
      <set comment="kpoint 35">
       <r>  -21.5164    1.0000 </r>
[...]
       <r>   -9.2393    1.0000 </r>
       <r>   -5.5783    1.0000 </r>
       <r>   -5.5783    1.0000 </r>
       <r>   -0.4355    0.0000 </r>
       <r>   -0.4355    0.0000 </r>
       <r>    4.6906    0.0000 </r>
       <r>    4.6906    0.0000 </r>
      </set>
      <set comment="kpoint 209">
       <r>  -18.7940    1.0000 </r>
       <r>  -16.9974    1.0000 </r>
       <r>  -14.0855    1.0000 </r>
       <r>  -12.4492    1.0000 </r>
       <r>  -12.3952    1.0000 </r>
       <r>  -10.8663    1.0000 </r>
       <r>   -6.3892    1.0000 </r>
       <r>   -4.5008    1.0000 </r>
       <r>   -1.0308    0.0000 </r>
       <r>    1.1357    0.0000 </r>
       <r>    5.2633    0.0000 </r>
       <r>    6.0479    0.0000 </r>
      </set>
      <set comment="kpoint 210">
       <r>  -18.7844    1.0000 </r>
       <r>  -16.9897    1.0000 </r>
       <r>  -14.1673    1.0000 </r>
       <r>  -12.5247    1.0000 </r>
       <r>  -12.3057    1.0000 </r>
       <r>  -10.7931    1.0000 </r>
       <r>   -6.3805    1.0000 </r>
       <r>   -4.5040    1.0000 </r>
       <r>   -1.0397    0.0000 </r>
       <r>    1.1107    0.0000 </r>
       <r>    5.2768    0.0000 </r>
       <r>    6.0638    0.0000 </r>
      </set>
      <set comment="kpoint 211">
       <r>  -18.7555    1.0000 </r>
       <r>  -16.9671    1.0000 </r>
       <r>  -14.3728    1.0000 </r>
       <r>  -12.7182    1.0000 </r>
       <r>  -12.0771    1.0000 </r>
       <r>  -10.6073    1.0000 </r>
       <r>   -6.3544    1.0000 </r>
       <r>   -4.5139    1.0000 </r>
       <r>   -1.0648    0.0000 </r>
       <r>    1.0377    0.0000 </r>
       <r>    5.3170    0.0000 </r>
       <r>    6.1110    0.0000 </r>
      </set>
      <set comment="kpoint 212">
       <r>  -18.7076    1.0000 </r>
       <r>  -16.9307    1.0000 </r>
       <r>  -14.6382    1.0000 </r>
       <r>  -12.9750    1.0000 </r>
       <r>  -11.7732    1.0000 </r>
       <r>  -10.3656    1.0000 </r>
       <r>   -6.3113    1.0000 </r>
       <r>   -4.5322    1.0000 </r>
       <r>   -1.1010    0.0000 </r>
       <r>    0.9217    0.0000 </r>
       <r>    5.3837    0.0000 </r>
       <r>    6.1885    0.0000 </r>
      </set>
      <set comment="kpoint 213">
       <r>  -18.6407    1.0000 </r>
       <r>  -16.8834    1.0000 </r>
       <r>  -14.9227    1.0000 </r>
       <r>  -13.2599    1.0000 </r>
       <r>  -11.4348    1.0000 </r>
       <r>  -10.1064    1.0000 </r>
       <r>   -6.2517    1.0000 </r>
       <r>   -4.5609    1.0000 </r>
       <r>   -1.1411    0.0000 </r>
       <r>    0.7701    0.0000 </r>
       <r>    5.4753    0.0000 </r>
       <r>    6.2952    0.0000 </r>
      </set>
      <set comment="kpoint 214">
       <r>  -18.5550    1.0000 </r>
       <r>  -16.8303    1.0000 </r>
       <r>  -15.2017    1.0000 </r>
       <r>  -13.5545    1.0000 </r>
       <r>  -11.0840    1.0000 </r>
       <r>   -9.8526    1.0000 </r>
       <r>   -6.1762    1.0000 </r>
       <r>   -4.6027    1.0000 </r>
       <r>   -1.1764    0.0000 </r>
       <r>    0.5913    0.0000 </r>
       <r>    5.5826    0.0000 </r>
       <r>    6.0108    0.0000 </r>
      </set>
      <set comment="kpoint 215">
       <r>  -18.4509    1.0000 </r>
       <r>  -16.7822    1.0000 </r>
       <r>  -15.4550    1.0000 </r>
       <r>  -13.8490    1.0000 </r>
       <r>  -10.7347    1.0000 </r>
       <r>   -9.6199    1.0000 </r>
       <r>   -6.0859    1.0000 </r>
       <r>   -4.6601    1.0000 </r>
       <r>   -1.1984    0.0000 </r>
       <r>    0.3939    0.0000 </r>
       <r>    5.5033    0.0000 </r>
       <r>    5.7984    0.0000 </r>
      </set>
      <set comment="kpoint 216">
       <r>  -18.3286    1.0000 </r>
       <r>  -16.7605    1.0000 </r>
       <r>  -15.6560    1.0000 </r>
       <r>  -14.1374    1.0000 </r>
       <r>  -10.3975    1.0000 </r>
       <r>   -9.4203    1.0000 </r>
       <r>   -5.9819    1.0000 </r>
       <r>   -4.7345    1.0000 </r>
       <r>   -1.1995    0.0000 </r>
       <r>    0.1861    0.0000 </r>
       <r>    5.1549    0.0000 </r>
       <r>    5.9477    0.0000 </r>
      </set>
      <set comment="kpoint 217">
       <r>  -18.1889    1.0000 </r>
       <r>  -16.7973    1.0000 </r>
       <r>  -15.7694    1.0000 </r>
       <r>  -14.4158    1.0000 </r>
       <r>  -10.0820    1.0000 </r>
       <r>   -9.2642    1.0000 </r>
       <r>   -5.8659    1.0000 </r>
       <r>   -4.8264    1.0000 </r>
       <r>   -1.1742    0.0000 </r>
       <r>   -0.0249    0.0000 </r>
       <r>    4.8601    0.0000 </r>
       <r>    5.6843    0.0000 </r>
      </set>
      <set comment="kpoint 218">
       <r>  -18.0325    1.0000 </r>
       <r>  -16.9109    1.0000 </r>
       <r>  -15.7750    1.0000 </r>
       <r>  -14.6809    1.0000 </r>
       <r>   -9.7972    1.0000 </r>
       <r>   -9.1603    1.0000 </r>
       <r>   -5.7397    1.0000 </r>
       <r>   -4.9346    1.0000 </r>
       <r>   -1.1193    0.0000 </r>
       <r>   -0.2323    0.0000 </r>
       <r>    4.6468    0.0000 </r>
       <r>    5.2902    0.0000 </r>
      </set>
      <set comment="kpoint 219">
       <r>  -17.8605    1.0000 </r>
       <r>  -17.0813    1.0000 </r>
       <r>  -15.6917    1.0000 </r>
       <r>  -14.9303    1.0000 </r>
       <r>   -9.5521    1.0000 </r>
       <r>   -9.1153    1.0000 </r>
       <r>   -5.6058    1.0000 </r>
       <r>   -5.0565    1.0000 </r>
       <r>   -1.0341    0.0000 </r>
       <r>   -0.4305    0.0000 </r>
       <r>    4.5235    0.0000 </r>
       <r>    4.9656    0.0000 </r>
      </set>
      <set comment="kpoint 220">
       <r>  -17.6749    1.0000 </r>
       <r>  -17.2773    1.0000 </r>
       <r>  -15.5499    1.0000 </r>
       <r>  -15.1611    1.0000 </r>
       <r>   -9.3552    1.0000 </r>
       <r>   -9.1328    1.0000 </r>
       <r>   -5.4671    1.0000 </r>
       <r>   -5.1885    1.0000 </r>
       <r>   -0.9197    0.0000 </r>
       <r>   -0.6141    0.0000 </r>
       <r>    4.4947    0.0000 </r>
       <r>    4.7199    0.0000 </r>
      </set>
      <set comment="kpoint 221">
       <r>  -17.4786    1.0000 </r>
       <r>  -17.4786    1.0000 </r>
       <r>  -15.3695    1.0000 </r>
       <r>  -15.3695    1.0000 </r>
       <r>   -9.2136    1.0000 </r>
       <r>   -9.2136    1.0000 </r>
       <r>   -5.3267    1.0000 </r>
       <r>   -5.3267    1.0000 </r>
       <r>   -0.7785    0.0000 </r>
       <r>   -0.7785    0.0000 </r>
       <r>    4.5611    0.0000 </r>
       <r>    4.5611    0.0000 </r>
      </set>
      <set comment="kpoint 222">
       <r>  -18.3699    1.0000 </r>
       <r>  -17.4679    1.0000 </r>
       <r>  -13.7068    1.0000 </r>
       <r>  -12.8878    1.0000 </r>
       <r>  -12.0453    1.0000 </r>
       <r>  -11.2761    1.0000 </r>
       <r>   -5.9290    1.0000 </r>
       <r>   -4.9793    1.0000 </r>
       <r>   -0.5223    0.0000 </r>
       <r>    0.5630    0.0000 </r>
       <r>    5.8649    0.0000 </r>
       <r>    6.6109    0.0000 </r>
      </set>
      <set comment="kpoint 223">
       <r>  -18.3605    1.0000 </r>
       <r>  -17.4592    1.0000 </r>
       <r>  -13.7886    1.0000 </r>
       <r>  -12.9660    1.0000 </r>
       <r>  -11.9585    1.0000 </r>
       <r>  -11.1977    1.0000 </r>
       <r>   -5.9216    1.0000 </r>
       <r>   -4.9771    1.0000 </r>
       <r>   -0.5380    0.0000 </r>
       <r>    0.5401    0.0000 </r>
       <r>    5.8783    0.0000 </r>
       <r>    6.6276    0.0000 </r>
      </set>
      <set comment="kpoint 224">
       <r>  -18.3322    1.0000 </r>
       <r>  -17.4333    1.0000 </r>
       <r>  -13.9949    1.0000 </r>
       <r>  -13.1650    1.0000 </r>
       <r>  -11.7375    1.0000 </r>
       <r>  -10.9986    1.0000 </r>
       <r>   -5.8995    1.0000 </r>
       <r>   -4.9708    1.0000 </r>
       <r>   -0.5833    0.0000 </r>
       <r>    0.4733    0.0000 </r>
       <r>    5.9184    0.0000 </r>
       <r>    6.6774    0.0000 </r>
      </set>
      <set comment="kpoint 225">
       <r>  -18.2851    1.0000 </r>
       <r>  -17.3905    1.0000 </r>
       <r>  -14.2637    1.0000 </r>
       <r>  -13.4275    1.0000 </r>
       <r>  -11.4453    1.0000 </r>
       <r>  -10.7378    1.0000 </r>
       <r>   -5.8633    1.0000 </r>
       <r>   -4.9614    1.0000 </r>
       <r>   -0.6532    0.0000 </r>
       <r>    0.3675    0.0000 </r>
       <r>    5.9844    0.0000 </r>
       <r>    6.7587    0.0000 </r>
      </set>
      <set comment="kpoint 226">
       <r>  -18.2195    1.0000 </r>
       <r>  -17.3318    1.0000 </r>
       <r>  -14.5563    1.0000 </r>
       <r>  -13.7171    1.0000 </r>
       <r>  -11.1224    1.0000 </r>
       <r>  -10.4548    1.0000 </r>
       <r>   -5.8136    1.0000 </r>
       <r>   -4.9509    1.0000 </r>
       <r>   -0.7401    0.0000 </r>
       <r>    0.2300    0.0000 </r>
       <r>    6.0734    0.0000 </r>
       <r>    6.7808    0.0000 </r>
      </set>
      <set comment="kpoint 227">
       <r>  -18.1357    1.0000 </r>
       <r>  -17.2588    1.0000 </r>
       <r>  -14.8523    1.0000 </r>
       <r>  -14.0152    1.0000 </r>
       <r>  -10.7912    1.0000 </r>
       <r>  -10.1722    1.0000 </r>
       <r>   -5.7515    1.0000 </r>
       <r>   -4.9418    1.0000 </r>
       <r>   -0.8351    0.0000 </r>
       <r>    0.0693    0.0000 </r>
       <r>    6.1288    0.0000 </r>
       <r>    6.3237    0.0000 </r>
      </set>
      <set comment="kpoint 228">
       <r>  -18.0342    1.0000 </r>
       <r>  -17.1744    1.0000 </r>
       <r>  -15.1393    1.0000 </r>
       <r>  -14.3115    1.0000 </r>
       <r>  -10.4660    1.0000 </r>
       <r>   -9.9053    1.0000 </r>
       <r>   -5.6786    1.0000 </r>
       <r>   -4.9370    1.0000 </r>
       <r>   -0.9282    0.0000 </r>
       <r>   -0.1055    0.0000 </r>
       <r>    5.7534    0.0000 </r>
       <r>    6.3161    0.0000 </r>
      </set>
      <set comment="kpoint 229">
       <r>  -17.9158    1.0000 </r>
       <r>  -17.0838    1.0000 </r>
       <r>  -15.4066    1.0000 </r>
       <r>  -14.6000    1.0000 </r>
       <r>  -10.1578    1.0000 </r>
       <r>   -9.6659    1.0000 </r>
       <r>   -5.5968    1.0000 </r>
       <r>   -4.9399    1.0000 </r>
       <r>   -1.0100    0.0000 </r>
       <r>   -0.2858    0.0000 </r>
       <r>    5.3456    0.0000 </r>
       <r>    5.8388    0.0000 </r>
      </set>
      <set comment="kpoint 230">
       <r>  -17.7814    1.0000 </r>
       <r>  -16.9981    1.0000 </r>
       <r>  -15.6402    1.0000 </r>
       <r>  -14.8763    1.0000 </r>
       <r>   -9.8765    1.0000 </r>
       <r>   -9.4645    1.0000 </r>
       <r>   -5.5084    1.0000 </r>
       <r>   -4.9538    1.0000 </r>
       <r>   -1.0715    0.0000 </r>
       <r>   -0.4635    0.0000 </r>
       <r>    5.0026    0.0000 </r>
       <r>    5.4170    0.0000 </r>
      </set>
      <set comment="kpoint 231">
       <r>  -17.6329    1.0000 </r>
       <r>  -16.9383    1.0000 </r>
       <r>  -15.8171    1.0000 </r>
       <r>  -15.1365    1.0000 </r>
       <r>   -9.6315    1.0000 </r>
       <r>   -9.3105    1.0000 </r>
       <r>   -5.4163    1.0000 </r>
       <r>   -4.9813    1.0000 </r>
       <r>   -1.1059    0.0000 </r>
       <r>   -0.6310    0.0000 </r>
       <r>    4.7375    0.0000 </r>
       <r>    5.0613    0.0000 </r>
      </set>
      <set comment="kpoint 232">
       <r>  -17.4734    1.0000 </r>
       <r>  -16.9370    1.0000 </r>
       <r>  -15.9032    1.0000 </r>
       <r>  -15.3760    1.0000 </r>
       <r>   -9.4318    1.0000 </r>
       <r>   -9.2114    1.0000 </r>
       <r>   -5.3238    1.0000 </r>
       <r>   -5.0239    1.0000 </r>
       <r>   -1.1080    0.0000 </r>
       <r>   -0.7817    0.0000 </r>
       <r>    4.5590    0.0000 </r>
       <r>    4.7817    0.0000 </r>
      </set>
      <set comment="kpoint 233">
       <r>  -17.3082    1.0000 </r>
       <r>  -17.0136    1.0000 </r>
       <r>  -15.8788    1.0000 </r>
       <r>  -15.5887    1.0000 </r>
       <r>   -9.2851    1.0000 </r>
       <r>   -9.1729    1.0000 </r>
       <r>   -5.2347    1.0000 </r>
       <r>   -5.0816    1.0000 </r>
       <r>   -1.0755    0.0000 </r>
       <r>   -0.9092    0.0000 </r>
       <r>    4.4729    0.0000 </r>
       <r>    4.5865    0.0000 </r>
      </set>
      <set comment="kpoint 234">
       <r>  -17.1480    1.0000 </r>
       <r>  -17.1480    1.0000 </r>
       <r>  -15.7633    1.0000 </r>
       <r>  -15.7633    1.0000 </r>
       <r>   -9.1976    1.0000 </r>
       <r>   -9.1976    1.0000 </r>
       <r>   -5.1528    1.0000 </r>
       <r>   -5.1528    1.0000 </r>
       <r>   -1.0085    0.0000 </r>
       <r>   -1.0085    0.0000 </r>
       <r>    4.4823    0.0000 </r>
       <r>    4.4823    0.0000 </r>
      </set>
      <set comment="kpoint 235">
       <r>  -17.9269    1.0000 </r>
       <r>  -17.9269    1.0000 </r>
       <r>  -13.3073    1.0000 </r>
       <r>  -13.3073    1.0000 </r>
       <r>  -11.6705    1.0000 </r>
       <r>  -11.6705    1.0000 </r>
       <r>   -5.4574    1.0000 </r>
       <r>   -5.4574    1.0000 </r>
       <r>    0.0096    0.0000 </r>
       <r>    0.0096    0.0000 </r>
       <r>    6.4982    0.0000 </r>
       <r>    6.4982    0.0000 </r>
      </set>
      <set comment="kpoint 236">
       <r>  -17.9177    1.0000 </r>
       <r>  -17.9177    1.0000 </r>
       <r>  -13.3877    1.0000 </r>
       <r>  -13.3877    1.0000 </r>
       <r>  -11.5875    1.0000 </r>
       <r>  -11.5875    1.0000 </r>
       <r>   -5.4520    1.0000 </r>
       <r>   -5.4520    1.0000 </r>
       <r>   -0.0104    0.0000 </r>
       <r>   -0.0104    0.0000 </r>
       <r>    6.5115    0.0000 </r>
       <r>    6.5115    0.0000 </r>
      </set>
      <set comment="kpoint 237">
       <r>  -17.8903    1.0000 </r>
       <r>  -17.8903    1.0000 </r>
       <r>  -13.5913    1.0000 </r>
       <r>  -13.5913    1.0000 </r>
       <r>  -11.3765    1.0000 </r>
       <r>  -11.3765    1.0000 </r>
       <r>   -5.4360    1.0000 </r>
       <r>   -5.4360    1.0000 </r>
       <r>   -0.0685    0.0000 </r>
       <r>   -0.0685    0.0000 </r>
       <r>    6.5512    0.0000 </r>
       <r>    6.5512    0.0000 </r>
      </set>
      <set comment="kpoint 238">
       <r>  -17.8447    1.0000 </r>
       <r>  -17.8447    1.0000 </r>
       <r>  -13.8581    1.0000 </r>
       <r>  -13.8581    1.0000 </r>
       <r>  -11.0989    1.0000 </r>
       <r>  -11.0989    1.0000 </r>
       <r>   -5.4101    1.0000 </r>
       <r>   -5.4101    1.0000 </r>
       <r>   -0.1599    0.0000 </r>
       <r>   -0.1599    0.0000 </r>
       <r>    6.6162    0.0000 </r>
       <r>    6.6162    0.0000 </r>
      </set>
      <set comment="kpoint 239">
       <r>  -17.7814    1.0000 </r>
       <r>  -17.7814    1.0000 </r>
       <r>  -14.1509    1.0000 </r>
       <r>  -14.1509    1.0000 </r>
       <r>  -10.7946    1.0000 </r>
       <r>  -10.7946    1.0000 </r>
       <r>   -5.3756    1.0000 </r>
       <r>   -5.3756    1.0000 </r>
       <r>   -0.2772    0.0000 </r>
       <r>   -0.2772    0.0000 </r>
       <r>    6.6975    0.0000 </r>
       <r>    6.6992    0.0000 </r>
      </set>
      <set comment="kpoint 240">
       <r>  -17.7010    1.0000 </r>
       <r>  -17.7010    1.0000 </r>
       <r>  -14.4502    1.0000 </r>
       <r>  -14.4502    1.0000 </r>
       <r>  -10.4862    1.0000 </r>
       <r>  -10.4862    1.0000 </r>
       <r>   -5.3341    1.0000 </r>
       <r>   -5.3341    1.0000 </r>
       <r>   -0.4115    0.0000 </r>
       <r>   -0.4115    0.0000 </r>
       <r>    6.5069    0.0000 </r>
       <r>    6.5100    0.0000 </r>
      </set>
      <set comment="kpoint 241">
       <r>  -17.6046    1.0000 </r>
       <r>  -17.6046    1.0000 </r>
       <r>  -14.7456    1.0000 </r>
       <r>  -14.7456    1.0000 </r>
       <r>  -10.1884    1.0000 </r>
       <r>  -10.1884    1.0000 </r>
       <r>   -5.2880    1.0000 </r>
       <r>   -5.2880    1.0000 </r>
       <r>   -0.5534    0.0000 </r>
       <r>   -0.5534    0.0000 </r>
       <r>    6.0203    0.0000 </r>
       <r>    6.0203    0.0000 </r>
      </set>
      <set comment="kpoint 242">
       <r>  -17.4939    1.0000 </r>
       <r>  -17.4939    1.0000 </r>
       <r>  -15.0300    1.0000 </r>
       <r>  -15.0300    1.0000 </r>
       <r>   -9.9128    1.0000 </r>
       <r>   -9.9128    1.0000 </r>
       <r>   -5.2399    1.0000 </r>
       <r>   -5.2399    1.0000 </r>
       <r>   -0.6936    0.0000 </r>
       <r>   -0.6936    0.0000 </r>
       <r>    5.5739    0.0000 </r>
       <r>    5.5739    0.0000 </r>
      </set>
      <set comment="kpoint 243">
       <r>  -17.3717    1.0000 </r>
       <r>  -17.3717    1.0000 </r>
       <r>  -15.2972    1.0000 </r>
       <r>  -15.2972    1.0000 </r>
       <r>   -9.6696    1.0000 </r>
       <r>   -9.6696    1.0000 </r>
       <r>   -5.1932    1.0000 </r>
       <r>   -5.1932    1.0000 </r>
       <r>   -0.8232    0.0000 </r>
       <r>   -0.8232    0.0000 </r>
       <r>    5.1889    0.0000 </r>
       <r>    5.1889    0.0000 </r>
      </set>
      <set comment="kpoint 244">
       <r>  -17.2436    1.0000 </r>
       <r>  -17.2436    1.0000 </r>
       <r>  -15.5398    1.0000 </r>
       <r>  -15.5398    1.0000 </r>
       <r>   -9.4683    1.0000 </r>
       <r>   -9.4683    1.0000 </r>
       <r>   -5.1516    1.0000 </r>
       <r>   -5.1516    1.0000 </r>
       <r>   -0.9340    0.0000 </r>
       <r>   -0.9340    0.0000 </r>
       <r>    4.8763    0.0000 </r>
       <r>    4.8763    0.0000 </r>
      </set>
      <set comment="kpoint 245">
       <r>  -17.1202    1.0000 </r>
       <r>  -17.1202    1.0000 </r>
       <r>  -15.7457    1.0000 </r>
       <r>  -15.7457    1.0000 </r>
       <r>   -9.3175    1.0000 </r>
       <r>   -9.3175    1.0000 </r>
       <r>   -5.1185    1.0000 </r>
       <r>   -5.1185    1.0000 </r>
       <r>   -1.0188    0.0000 </r>
       <r>   -1.0188    0.0000 </r>
       <r>    4.6454    0.0000 </r>
       <r>    4.6454    0.0000 </r>
      </set>
      <set comment="kpoint 246">
       <r>  -17.0227    1.0000 </r>
       <r>  -17.0227    1.0000 </r>
       <r>  -15.8931    1.0000 </r>
       <r>  -15.8931    1.0000 </r>
       <r>   -9.2239    1.0000 </r>
       <r>   -9.2239    1.0000 </r>
       <r>   -5.0972    1.0000 </r>
       <r>   -5.0972    1.0000 </r>
       <r>   -1.0721    0.0000 </r>
       <r>   -1.0721    0.0000 </r>
       <r>    4.5037    0.0000 </r>
       <r>    4.5037    0.0000 </r>
      </set>
      <set comment="kpoint 247">
       <r>  -16.9836    1.0000 </r>
       <r>  -16.9836    1.0000 </r>
       <r>  -15.9488    1.0000 </r>
       <r>  -15.9488    1.0000 </r>
       <r>   -9.1921    1.0000 </r>
       <r>   -9.1921    1.0000 </r>
       <r>   -5.0899    1.0000 </r>
       <r>   -5.0899    1.0000 </r>
       <r>   -1.0903    0.0000 </r>
       <r>   -1.0903    0.0000 </r>
       <r>    4.4559    0.0000 </r>
       <r>    4.4559    0.0000 </r>
      </set>
     </set>
    </set>
   </array>
  </eigenvalues>
  <separator name="orbital magnetization" >
   <v name="MAGDIPOLOUT">      0.00000000      0.00000000      0.00000000</v>
  </separator>
 </calculation>
 <structure name="finalpos" >
  <crystal>
   <varray name="basis" >
    <v>       4.29547805       0.00000000       0.00000000 </v>
    <v>       0.00000000       2.46486547       0.00000000 </v>
    <v>       0.00000000       0.00000000      19.91333313 </v>
   </varray>
   <i name="volume">    210.83790140 </i>
   <varray name="rec_basis" >
    <v>       0.23280296       0.00000000       0.00000000 </v>
    <v>       0.00000000       0.40570165       0.00000000 </v>
    <v>       0.00000000       0.00000000       0.05021761 </v>
   </varray>
  </crystal>
  <varray name="positions" >
   <v>       0.99987139       0.00000000       0.00000000 </v>
   <v>       0.16679528       0.50000000      -0.00000000 </v>
   <v>       0.49987139       0.50000000       0.00000000 </v>
   <v>       0.66679528       0.00000000      -0.00000000 </v>
  </varray>
 </structure>
</modeling>
