gr                                      
           1
     4.295478    0.000000    0.000000
     0.000000    2.464865    0.000000
     0.000000    0.000000   19.913333
   C 
   4
Direct configuration=     1
   0.99987391  0.00000000  0.00000000
   0.16679275  0.50000000  0.00000000
   0.49987391  0.50000000  0.00000000
   0.66679275  0.00000000  0.00000000
Direct configuration=     2
   0.99986138  0.00000000  0.00000000
   0.16680528  0.50000000 -0.00000000
   0.49986138  0.50000000  0.00000000
   0.66680528 -0.00000000 -0.00000000
Direct configuration=     3
   0.99987139  0.00000000  0.00000000
   0.16679528  0.50000000 -0.00000000
   0.49987139  0.50000000  0.00000000
   0.66679528  0.00000000 -0.00000000
