    4    4  400    1
  0.5270948E+02  0.4402534E-09  0.2455340E-09  0.1950448E-08  0.5000000E-15
  1.000000000000000E-004
  CAR 
 gr                                      
     16    247     12
 
  0.0000000E+00  0.0000000E+00  0.0000000E+00  0.1157407E-02
    1      -22.044322
    2      -17.303926
    3      -15.799945
    4      -10.197354
    5       -8.734590
    6       -6.047989
    7       -5.717396
    8       -5.380991
    9       -1.205743
   10        0.549324
   11        1.346692
   12        1.742337
 
  0.4166667E-01  0.0000000E+00  0.0000000E+00  0.2314815E-02
    1      -22.034664
    2      -17.414681
    3      -15.674270
    4      -10.185911
    5       -8.725298
    6       -6.092595
    7       -5.736956
    8       -5.438148
    9       -1.132943
   10        0.562378
   11        1.359943
   12        1.755756
 
  0.8333333E-01  0.0000000E+00  0.0000000E+00  0.2314815E-02
    1      -22.005696
    2      -17.676052
    3      -15.368212
    4      -10.151603
    5       -8.697470
    6       -6.224225
    7       -5.794635
    8       -5.598357
    9       -0.925960
   10        0.601549
   11        1.399688
   12        1.796013
 
  0.1250000E+00  0.0000000E+00  0.0000000E+00  0.2314815E-02
    1      -21.957438
    2      -17.996700
    3      -14.973333
    4      -10.094486
    5       -8.651260
    6       -6.436745
    7       -5.887577
    8       -5.835559
    9       -0.611319
   10        0.666863
   11        1.465914
   12        1.863115
 
  0.1666667E+00  0.0000000E+00  0.0000000E+00  0.2314815E-02
    1      -21.889927
    2      -18.334093
    3      -14.532545
    4      -10.014660
    5       -8.586927
    6       -6.721225
    7       -6.122278
    8       -6.011484
    9       -0.217285
   10        0.758349
   11        1.558591
   12        1.957065
 
  0.2083333E+00  0.0000000E+00  0.0000000E+00  0.2314815E-02
    1      -21.803212
    2      -18.671050
    3      -14.063574
    4       -9.912268
    5       -8.504843
    6       -7.067302
    7       -6.436732
    8       -6.161155
    9        0.233217
   10        0.876027
   11        1.677675
   12        2.077869
 
  0.2500000E+00  0.0000000E+00  0.0000000E+00  0.2314815E-02
    1      -21.697361
    2      -18.999904
    3      -13.574816
    4       -9.787501
    5       -8.405509
    6       -7.464383
    7       -6.763628
    8       -6.331015
    9        0.723349
   10        1.019903
   11        1.823093
   12        2.225529
 
  0.2916667E+00  0.0000000E+00  0.0000000E+00  0.2314815E-02
    1      -21.572460
    2      -19.316768
    3      -13.071086
    4       -9.640610
    5       -8.289565
    6       -7.902461
    7       -7.092651
    8       -6.515543
    9        1.189964
   10        1.240754
   11        1.994731
   12        2.400043
 
  0.3333333E+00  0.0000000E+00  0.0000000E+00  0.2314815E-02
    1      -21.428614
    2      -19.619447
    3      -12.555744
    4       -9.471910
    5       -8.372558
    6       -8.157810
    7       -7.416851
    8       -6.709569
    9        1.386179
   10        1.775698
   11        2.192392
   12        2.601407
 
  0.3750000E+00  0.0000000E+00  0.0000000E+00  0.2314815E-02
    1      -21.265951
    2      -19.906575
    3      -12.031585
    4       -9.281802
    5       -8.866872
    6       -8.011232
    7       -7.731464
    8       -6.908428
    9        1.608502
   10        2.319061
   11        2.415695
   12        2.829614
 
  0.4166667E+00  0.0000000E+00  0.0000000E+00  0.2314815E-02
    1      -21.084625
    2      -20.177243
    3      -11.501265
    4       -9.378741
    5       -9.070784
    6       -8.033146
    7       -7.851034
    8       -7.108033
    9        1.856870
   10        2.663778
   11        2.857149
   12        3.084651
 
  0.4583333E+00  0.0000000E+00  0.0000000E+00  0.2314815E-02
    1      -20.884826
    2      -20.430805
    3      -10.967547
    4       -9.902530
    5       -8.839488
    6       -8.319488
    7       -7.678675
    8       -7.304858
    9        2.131196
   10        2.757232
   11        2.934051
   12        3.309273
 
  0.5000000E+00  0.0000000E+00  0.0000000E+00  0.1157407E-02
    1      -20.666789
    2      -20.666789
    3      -10.433478
    4      -10.433478
    5       -8.588714
    6       -8.588714
    7       -7.495912
    8       -7.495912
    9        2.431369
   10        2.431369
   11        3.213319
   12        3.213319
 
  0.0000000E+00  0.2777778E-01  0.0000000E+00  0.2314815E-02
    1      -22.030462
    2      -17.291867
    3      -15.788112
    4      -10.180925
    5       -8.798248
    6       -6.073275
    7       -5.776881
    8       -5.364295
    9       -1.207898
   10        0.568095
   11        1.365643
   12        1.761529
 
  0.4166667E-01  0.2777778E-01  0.0000000E+00  0.4629630E-02
    1      -22.020805
    2      -17.402512
    3      -15.662590
    4      -10.169486
    5       -8.788945
    6       -6.118311
    7       -5.795420
    8       -5.421560
    9       -1.135089
   10        0.581149
   11        1.378893
   12        1.774947
 
  0.8333333E-01  0.2777778E-01  0.0000000E+00  0.4629630E-02
    1      -21.991841
    2      -17.663670
    3      -15.356876
    4      -10.135189
    5       -8.761085
    6       -6.250323
    7       -5.851048
    8       -5.582025
    9       -0.928147
   10        0.620320
   11        1.418637
   12        1.815205
 
  0.1250000E+00  0.2777778E-01  0.0000000E+00  0.4629630E-02
    1      -21.943592
    2      -17.984110
    3      -14.962427
    4      -10.078091
    5       -8.714819
    6       -6.461988
    7       -5.942379
    8       -5.819505
    9       -0.613723
   10        0.685634
   11        1.484859
   12        1.882307
 
  0.1666667E+00  0.2777778E-01  0.0000000E+00  0.4629630E-02
    1      -21.876091
    2      -18.321319
    3      -14.522142
    4       -9.998292
    5       -8.650400
    6       -6.744204
    7       -6.106444
    8       -6.065636
    9       -0.220165
   10        0.777121
   11        1.577533
   12        1.976258
 
  0.2083333E+00  0.2777778E-01  0.0000000E+00  0.4629630E-02
    1      -21.789392
    2      -18.658117
    3      -14.053757
    4       -9.895933
    5       -8.568199
    6       -7.087055
    7       -6.421037
    8       -6.215485
    9        0.229580
   10        0.894802
   11        1.696612
   12        2.097063
 
  0.2500000E+00  0.2777778E-01  0.0000000E+00  0.4629630E-02
    1      -21.683560
    2      -18.986833
    3      -13.565682
    4       -9.771208
    5       -8.468706
    6       -7.480471
    7       -6.748000
    8       -6.386058
    9        0.718688
   10        1.038682
   11        1.842026
   12        2.244724
 
  0.2916667E+00  0.2777778E-01  0.0000000E+00  0.4629630E-02
    1      -21.558682
    2      -19.303579
    3      -13.062750
    4       -9.624365
    5       -8.352554
    6       -7.914842
    7       -7.077035
    8       -6.571578
    9        1.208748
   10        1.234836
   11        2.013661
   12        2.419240
 
  0.3333333E+00  0.2777778E-01  0.0000000E+00  0.4629630E-02
    1      -21.414863
    2      -19.606154
    3      -12.548347
    4       -9.455721
    5       -8.381432
    6       -8.220532
    7       -7.401209
    8       -6.766691
    9        1.404970
   10        1.768355
   11        2.211321
   12        2.620608
 
  0.3750000E+00  0.2777778E-01  0.0000000E+00  0.4629630E-02
    1      -21.252232
    2      -19.893193
    3      -12.025292
    4       -9.265675
    5       -8.872563
    6       -8.073616
    7       -7.715770
    8       -6.966622
    9        1.627301
   10        2.310293
   11        2.434631
   12        2.848819
 
  0.4166667E+00  0.2777778E-01  0.0000000E+00  0.4629630E-02
    1      -21.070944
    2      -20.163783
    3      -11.496271
    4       -9.381619
    5       -9.054725
    6       -8.017386
    7       -7.912996
    8       -7.167214
    9        1.875677
   10        2.682730
   11        2.847698
   12        3.103862
 
  0.4583333E+00  0.2777778E-01  0.0000000E+00  0.4629630E-02
    1      -20.871189
    2      -20.417278
    3      -10.964082
    4       -9.902963
    5       -8.823502
    6       -8.303654
    7       -7.740116
    8       -7.364915
    9        2.150014
   10        2.776088
   11        2.953003
   12        3.309235
 
  0.5000000E+00  0.2777778E-01  0.0000000E+00  0.2314815E-02
    1      -20.653203
    2      -20.653203
    3      -10.431810
    4      -10.431810
    5       -8.572804
    6       -8.572804
    7       -7.556722
    8       -7.556722
    9        2.450201
   10        2.450201
   11        3.231691
   12        3.231691
 
  0.0000000E+00  0.5555556E-01  0.0000000E+00  0.2314815E-02
    1      -21.988891
    2      -17.255695
    3      -15.752752
    4      -10.131673
    5       -8.984048
    6       -6.148806
    7       -5.950411
    8       -5.314229
    9       -1.215162
   10        0.624406
   11        1.422489
   12        1.819104
 
  0.4166667E-01  0.5555556E-01  0.0000000E+00  0.4629630E-02
    1      -21.979238
    2      -17.366013
    3      -15.627688
    4      -10.120246
    5       -8.974709
    6       -6.197011
    7       -5.964036
    8       -5.371827
    9       -1.142322
   10        0.637459
   11        1.435737
   12        1.832522
 
  0.8333333E-01  0.5555556E-01  0.0000000E+00  0.4629630E-02
    1      -21.950288
    2      -17.626539
    3      -15.323007
    4      -10.085983
    5       -8.946739
    6       -6.332538
    7       -6.011221
    8       -5.533080
    9       -0.935498
   10        0.676629
   11        1.475474
   12        1.872780
 
  0.1250000E+00  0.5555556E-01  0.0000000E+00  0.4629630E-02
    1      -21.902062
    2      -17.946355
    3      -14.929862
    4      -10.028943
    5       -8.900280
    6       -6.542516
    7       -6.096926
    8       -5.771414
    9       -0.621735
   10        0.741943
   11        1.541687
   12        1.939882
 
  0.1666667E+00  0.5555556E-01  0.0000000E+00  0.4629630E-02
    1      -21.834596
    2      -18.283013
    3      -14.491108
    4       -9.949225
    5       -8.835578
    6       -6.817901
    7       -6.218329
    8       -6.059025
    9       -0.229632
   10        0.833431
   11        1.634348
   12        2.033834
 
  0.2083333E+00  0.5555556E-01  0.0000000E+00  0.4629630E-02
    1      -21.747942
    2      -18.619334
    3      -14.024510
    4       -9.846969
    5       -8.752981
    6       -7.150636
    7       -6.374040
    8       -6.369176
    9        0.217798
   10        0.951116
   11        1.753412
   12        2.154642
 
  0.2500000E+00  0.5555556E-01  0.0000000E+00  0.4629630E-02
    1      -21.642166
    2      -18.947637
    3      -13.538526
    4       -9.722370
    5       -8.652960
    6       -7.532468
    7       -6.701203
    8       -6.542482
    9        0.703771
   10        1.095003
   11        1.898812
   12        2.302307
 
  0.2916667E+00  0.5555556E-01  0.0000000E+00  0.4629630E-02
    1      -21.517358
    2      -19.264026
    3      -13.038051
    4       -9.575675
    5       -8.536116
    6       -7.955098
    7       -7.030271
    8       -6.731579
    9        1.216067
   10        1.265080
   11        2.070437
   12        2.476829
 
  0.3333333E+00  0.5555556E-01  0.0000000E+00  0.4629630E-02
    1      -21.373621
    2      -19.566290
    3      -12.526538
    4       -9.407201
    5       -8.410588
    6       -8.403208
    7       -7.354361
    8       -6.930507
    9        1.461315
   10        1.745199
   11        2.268098
   12        2.678204
 
  0.3750000E+00  0.5555556E-01  0.0000000E+00  0.4629630E-02
    1      -21.211087
    2      -19.853060
    3      -12.006892
    4       -9.217344
    5       -8.891666
    6       -8.255170
    7       -7.668764
    8       -7.134123
    9        1.683663
   10        2.282663
   11        2.491429
   12        2.906425
 
  0.4166667E+00  0.5555556E-01  0.0000000E+00  0.4629630E-02
    1      -21.029912
    2      -20.123416
    3      -11.481896
    4       -9.391858
    5       -9.006602
    6       -8.093148
    7       -7.970176
    8       -7.338075
    9        1.932057
   10        2.739578
   11        2.817382
   12        3.161482
 
  0.4583333E+00  0.5555556E-01  0.0000000E+00  0.4629630E-02
    1      -20.830289
    2      -20.376708
    3      -10.954460
    4       -9.905524
    5       -8.775601
    6       -8.256218
    7       -7.918539
    8       -7.538722
    9        2.206416
   10        2.832567
   11        3.009853
   12        3.300780
 
  0.5000000E+00  0.5555556E-01  0.0000000E+00  0.2314815E-02
    1      -20.612456
    2      -20.612456
    3      -10.427790
    4      -10.427790
    5       -8.525134
    6       -8.525134
    7       -7.733043
    8       -7.733043
    9        2.506633
   10        2.506633
   11        3.286422
   12        3.286422
 
  0.0000000E+00  0.8333333E-01  0.0000000E+00  0.2314815E-02
    1      -21.919643
    2      -17.195422
    3      -15.694302
    4      -10.049706
    5       -9.277933
    6       -6.273577
    7       -6.224767
    8       -5.230858
    9       -1.229938
   10        0.718254
   11        1.517207
   12        1.915063
 
  0.4166667E-01  0.8333333E-01  0.0000000E+00  0.4629630E-02
    1      -21.909998
    2      -17.305212
    3      -15.569998
    4      -10.038298
    5       -9.268520
    6       -6.344369
    7       -6.212992
    8       -5.289043
    9       -1.157032
   10        0.731305
   11        1.530450
   12        1.928482
 
  0.8333333E-01  0.8333333E-01  0.0000000E+00  0.4629630E-02
    1      -21.881072
    2      -17.564703
    3      -15.267049
    4      -10.004095
    5       -9.240325
    6       -6.491807
    7       -6.240295
    8       -5.451680
    9       -0.950389
   10        0.770470
   11        1.570177
   12        1.968739
 
  0.1250000E+00  0.8333333E-01  0.0000000E+00  0.4629630E-02
    1      -21.832887
    2      -17.883488
    3      -14.876124
    4       -9.947154
    5       -9.193477
    6       -6.698521
    7       -6.317367
    8       -5.691502
    9       -0.637751
   10        0.835776
   11        1.636372
   12        2.035840
 
  0.1666667E+00  0.8333333E-01  0.0000000E+00  0.4629630E-02
    1      -21.765478
    2      -18.219230
    3      -14.440003
    4       -9.867573
    5       -9.128196
    6       -6.960697
    7       -6.437738
    8       -5.980272
    9       -0.248158
   10        0.927257
   11        1.729008
   12        2.129792
 
  0.2083333E+00  0.8333333E-01  0.0000000E+00  0.4629630E-02
    1      -21.678898
    2      -18.554754
    3      -13.976501
    4       -9.765496
    5       -9.044799
    6       -7.274263
    7       -6.592684
    8       -6.296009
    9        0.195270
   10        1.044936
   11        1.848045
   12        2.250600
 
  0.2500000E+00  0.8333333E-01  0.0000000E+00  0.4629630E-02
    1      -21.573218
    2      -18.882367
    3      -13.494163
    4       -9.641113
    5       -8.943711
    6       -7.634211
    7       -6.773137
    8       -6.623507
    9        0.675821
   10        1.188822
   11        1.993417
   12        2.398269
 
  0.2916667E+00  0.8333333E-01  0.0000000E+00  0.4629630E-02
    1      -21.448524
    2      -19.198156
    3      -12.997995
    4       -9.494673
    5       -8.825479
    6       -8.034668
    7       -6.970739
    8       -6.952620
    9        1.181439
   10        1.358903
   11        2.165020
   12        2.572797
 
  0.3333333E+00  0.8333333E-01  0.0000000E+00  0.4629630E-02
    1      -21.304925
    2      -19.499902
    3      -12.491584
    4       -9.326490
    5       -8.690789
    6       -8.469243
    7       -7.276556
    8       -7.178344
    9        1.555146
   10        1.702907
   11        2.362679
   12        2.774180
 
  0.3750000E+00  0.8333333E-01  0.0000000E+00  0.4629630E-02
    1      -21.142552
    2      -19.786220
    3      -11.977995
    4       -9.136959
    5       -8.931466
    6       -8.540493
    7       -7.590678
    8       -7.390094
    9        1.777503
   10        2.232319
   11        2.586046
   12        3.002413
 
  0.4166667E+00  0.8333333E-01  0.0000000E+00  0.4629630E-02
    1      -20.961566
    2      -20.056184
    3      -11.460200
    4       -9.415151
    5       -8.926574
    6       -8.375640
    7       -7.891733
    8       -7.601284
    9        2.025907
   10        2.760810
   11        2.834292
   12        3.257487
 
  0.4583333E+00  0.8333333E-01  0.0000000E+00  0.4629630E-02
    1      -20.762164
    2      -20.309136
    3      -10.941330
    4       -9.914629
    5       -8.695956
    6       -8.197516
    7       -8.177381
    8       -7.808155
    9        2.300275
   10        2.926460
   11        3.104576
   12        3.262852
 
  0.5000000E+00  0.8333333E-01  0.0000000E+00  0.2314815E-02
    1      -20.544588
    2      -20.544588
    3      -10.424838
    4      -10.424838
    5       -8.445890
    6       -8.445890
    7       -8.007704
    8       -8.007704
    9        2.600504
   10        2.600504
   11        3.375546
   12        3.375546
 
  0.0000000E+00  0.1111111E+00  0.0000000E+00  0.2314815E-02
    1      -21.822778
    2      -17.111069
    3      -15.613584
    4       -9.935205
    5       -9.660447
    6       -6.582034
    7       -6.445854
    8       -5.114296
    9       -1.256235
   10        0.849633
   11        1.649756
   12        2.049408
 
  0.4166667E-01  0.1111111E+00  0.0000000E+00  0.4629630E-02
    1      -21.813145
    2      -17.220153
    3      -15.490333
    4       -9.923826
    5       -9.650902
    6       -6.638351
    7       -6.444821
    8       -5.173377
    9       -1.183198
   10        0.862679
   11        1.662994
   12        2.062825
 
  0.8333333E-01  0.1111111E+00  0.0000000E+00  0.4629630E-02
    1      -21.784253
    2      -17.478239
    3      -15.189846
    4       -9.889710
    5       -9.622301
    6       -6.775059
    7       -6.472221
    8       -5.338111
    9       -0.976757
   10        0.901831
   11        1.702701
   12        2.103079
 
  0.1250000E+00  0.1111111E+00  0.0000000E+00  0.4629630E-02
    1      -21.736124
    2      -17.795600
    3      -14.802144
    4       -9.832913
    5       -9.574750
    6       -6.967296
    7       -6.547746
    8       -5.580161
    9       -0.665728
   10        0.967116
   11        1.768866
   12        2.170177
 
  0.1666667E+00  0.1111111E+00  0.0000000E+00  0.4629630E-02
    1      -21.668795
    2      -18.130063
    3      -14.369908
    4       -9.753534
    5       -9.508428
    6       -7.207091
    7       -6.671094
    8       -5.870643
    9       -0.279806
   10        1.058571
   11        1.861462
   12        2.264125
 
  0.2083333E+00  0.1111111E+00  0.0000000E+00  0.4629630E-02
    1      -21.582321
    2      -18.464468
    3      -13.911033
    4       -9.651717
    5       -9.423590
    6       -7.490706
    7       -6.835212
    8       -6.187424
    9        0.157739
   10        1.176224
   11        1.980451
   12        2.384931
 
  0.2500000E+00  0.1111111E+00  0.0000000E+00  0.4629630E-02
    1      -21.476774
    2      -18.791108
    3      -13.434205
    4       -9.527651
    5       -9.320580
    6       -7.815688
    7       -7.030094
    8       -6.515389
    9        0.630317
   10        1.320087
   11        2.125773
   12        2.532600
 
  0.2916667E+00  0.1111111E+00  0.0000000E+00  0.4629630E-02
    1      -21.352241
    2      -19.106053
    3      -12.944615
    4       -9.381584
    5       -9.199835
    6       -8.179523
    7       -7.245107
    8       -6.844542
    9        1.126098
   10        1.490149
   11        2.297335
   12        2.707131
 
  0.3333333E+00  0.1111111E+00  0.0000000E+00  0.4629630E-02
    1      -21.208834
    2      -19.407065
    3      -12.446083
    4       -9.213830
    5       -9.061904
    6       -8.578787
    7       -7.470711
    8       -7.168229
    9        1.636198
   10        1.686378
   11        2.494980
   12        2.908521
 
  0.3750000E+00  0.1111111E+00  0.0000000E+00  0.4629630E-02
    1      -21.046689
    2      -19.692746
    3      -11.941960
    4       -9.024778
    5       -9.008935
    6       -8.907462
    7       -7.699316
    8       -7.481918
    9        1.908720
   10        2.153323
   11        2.718397
   12        3.136764
 
  0.4166667E+00  0.1111111E+00  0.0000000E+00  0.4629630E-02
    1      -20.865970
    2      -19.962158
    3      -11.435569
    4       -9.464634
    5       -8.814921
    6       -8.737347
    7       -7.925312
    8       -7.782435
    9        2.157105
   10        2.670436
   11        2.966809
   12        3.391850
 
  0.4583333E+00  0.1111111E+00  0.0000000E+00  0.4629630E-02
    1      -20.666880
    2      -20.214630
    3      -10.930457
    4       -9.940304
    5       -8.584869
    6       -8.552589
    7       -8.144671
    8       -8.067492
    9        2.431448
   10        3.057555
   11        3.175852
   12        3.237121
 
  0.5000000E+00  0.1111111E+00  0.0000000E+00  0.2314815E-02
    1      -20.449664
    2      -20.449664
    3      -10.430561
    4      -10.430561
    5       -8.354482
    6       -8.354482
    7       -8.335397
    8       -8.335397
    9        2.731642
   10        2.731642
   11        3.487213
   12        3.487213
 
  0.0000000E+00  0.1388889E+00  0.0000000E+00  0.2314815E-02
    1      -21.698383
    2      -17.002666
    3      -15.511981
    4      -10.110305
    5       -9.788432
    6       -7.003322
    7       -6.663124
    8       -4.964700
    9       -1.299623
   10        1.018527
   11        1.820077
   12        2.222137
 
  0.4166667E-01  0.1388889E+00  0.0000000E+00  0.4629630E-02
    1      -21.688764
    2      -17.110907
    3      -15.390075
    4      -10.100532
    5       -9.777093
    6       -7.048991
    7       -6.668280
    8       -5.025083
    9       -1.226326
   10        1.031566
   11        1.833304
   12        2.235553
 
  0.8333333E-01  0.1388889E+00  0.0000000E+00  0.4629630E-02
    1      -21.659915
    2      -17.367267
    3      -15.092835
    4      -10.071233
    5       -9.743095
    6       -7.171773
    7       -6.696815
    8       -5.192825
    9       -1.020002
   10        1.070693
   11        1.872982
   12        2.275802
 
  0.1250000E+00  0.1388889E+00  0.0000000E+00  0.4629630E-02
    1      -21.611859
    2      -17.682832
    3      -14.709535
    4      -10.022470
    5       -9.686495
    6       -7.350001
    7       -6.766856
    8       -5.438014
    9       -0.711048
   10        1.135939
   11        1.939097
   12        2.342892
 
  0.1666667E+00  0.1388889E+00  0.0000000E+00  0.4629630E-02
    1      -21.544635
    2      -18.015656
    3      -14.282736
    4       -9.954343
    5       -9.607392
    6       -7.570204
    7       -6.885849
    8       -5.730854
    9       -0.330070
   10        1.227342
   11        2.031626
   12        2.436831
 
  0.2083333E+00  0.1388889E+00  0.0000000E+00  0.4629630E-02
    1      -21.458298
    2      -18.348614
    3      -13.830457
    4       -9.866993
    5       -9.505930
    6       -7.825268
    7       -7.052469
    8       -6.049034
    9        0.099498
   10        1.344937
   11        2.150533
   12        2.557627
 
  0.2500000E+00  0.1388889E+00  0.0000000E+00  0.4629630E-02
    1      -21.352921
    2      -18.673991
    3      -13.361621
    4       -9.760601
    5       -9.382297
    6       -8.111941
    7       -7.259542
    8       -6.377589
    9        0.561259
   10        1.488740
   11        2.295765
   12        2.705288
 
  0.2916667E+00  0.1388889E+00  0.0000000E+00  0.4629630E-02
    1      -21.228596
    2      -18.987838
    3      -12.881741
    4       -9.635382
    5       -9.236742
    6       -8.429465
    7       -7.496135
    8       -6.706746
    9        1.043702
   10        1.658748
   11        2.467243
   12        2.879815
 
  0.3333333E+00  0.1388889E+00  0.0000000E+00  0.4629630E-02
    1      -21.085439
    2      -19.287896
    3      -12.395062
    4       -9.491589
    5       -9.069574
    6       -8.778268
    7       -7.749711
    8       -7.030045
    9        1.538336
   10        1.854924
   11        2.664839
   12        3.081206
 
  0.3750000E+00  0.1388889E+00  0.0000000E+00  0.4629630E-02
    1      -20.923589
    2      -19.572748
    3      -11.905472
    4       -9.329513
    5       -9.158396
    6       -8.881183
    7       -8.008442
    8       -7.343103
    9        2.038432
   10        2.077213
   11        2.888307
   12        3.309454
 
  0.4166667E+00  0.1388889E+00  0.0000000E+00  0.4629630E-02
    1      -20.743216
    2      -19.841441
    3      -11.416974
    4       -9.568230
    5       -9.149496
    6       -8.672051
    7       -8.263017
    8       -7.642851
    9        2.325539
   10        2.538154
   11        3.136993
   12        3.564569
 
  0.4583333E+00  0.1388889E+00  0.0000000E+00  0.4629630E-02
    1      -20.544529
    2      -20.093289
    3      -10.933938
    4      -10.004168
    5       -8.951964
    6       -8.507245
    7       -8.442782
    8       -7.927076
    9        2.599806
   10        3.031358
   11        3.225684
   12        3.407353
 
  0.5000000E+00  0.1388889E+00  0.0000000E+00  0.2314815E-02
    1      -20.327783
    2      -20.327783
    3      -10.461229
    4      -10.461229
    5       -8.737536
    6       -8.737536
    7       -8.194136
    8       -8.194136
    9        2.899901
   10        2.899901
   11        3.495900
   12        3.495900
 
  0.0000000E+00  0.1666667E+00  0.0000000E+00  0.2314815E-02
    1      -21.546571
    2      -16.870255
    3      -15.391794
    4      -10.606687
    5       -9.609741
    6       -7.471254
    7       -6.922089
    8       -4.782281
    9       -1.367033
   10        1.224912
   11        2.028084
   12        2.433251
 
  0.4166667E-01  0.1666667E+00  0.0000000E+00  0.4629630E-02
    1      -21.536971
    2      -16.977575
    3      -15.271531
    4      -10.596524
    5       -9.598454
    6       -7.514799
    7       -6.924399
    8       -4.844530
    9       -1.293219
   10        1.237939
   11        2.041295
   12        2.446665
 
  0.8333333E-01  0.1666667E+00  0.0000000E+00  0.4629630E-02
    1      -21.508175
    2      -17.231961
    3      -14.978468
    4      -10.566026
    5       -9.564611
    6       -7.633724
    7       -6.942445
    8       -5.016516
    9       -1.086698
   10        1.277031
   11        2.080923
   12        2.486907
 
  0.1250000E+00  0.1666667E+00  0.0000000E+00  0.4629630E-02
    1      -21.460209
    2      -17.545387
    3      -14.601104
    4      -10.515165
    5       -9.508270
    6       -7.806904
    7       -6.995387
    8       -5.266017
    9       -0.780168
   10        1.342216
   11        2.146956
   12        2.553983
 
  0.1666667E+00  0.1666667E+00  0.0000000E+00  0.4629630E-02
    1      -21.393112
    2      -17.876215
    3      -14.181890
    4      -10.443886
    5       -9.429531
    6       -8.018227
    7       -7.095591
    8       -5.561995
    9       -0.405456
   10        1.433535
   11        2.239369
   12        2.647902
 
  0.2083333E+00  0.1666667E+00  0.0000000E+00  0.4629630E-02
    1      -21.306942
    2      -18.207390
    3      -13.739078
    4      -10.352088
    5       -9.328536
    6       -8.257681
    7       -7.247173
    8       -5.881961
    9        0.013869
   10        1.551028
   11        2.358129
   12        2.768677
 
  0.2500000E+00  0.1666667E+00  0.0000000E+00  0.4629630E-02
    1      -21.201775
    2      -18.531203
    3      -13.282021
    4      -10.239599
    5       -9.205477
    6       -8.519490
    7       -7.447829
    8       -6.211200
    9        0.461748
   10        1.694723
   11        2.503188
   12        2.916317
 
  0.2916667E+00  0.1666667E+00  0.0000000E+00  0.4629630E-02
    1      -21.077707
    2      -18.843686
    3      -12.816853
    4      -10.106141
    5       -9.060597
    6       -8.801009
    7       -7.690343
    8       -6.540264
    9        0.927136
   10        1.864621
   11        2.674480
   12        3.090828
 
  0.3333333E+00  0.1666667E+00  0.0000000E+00  0.4629630E-02
    1      -20.934857
    2      -19.142557
    3      -12.348658
    4       -9.951291
    5       -9.102215
    6       -8.894209
    7       -7.963815
    8       -6.862963
    9        1.402046
   10        2.060694
   11        2.871912
   12        3.292210
 
  0.3750000E+00  0.1666667E+00  0.0000000E+00  0.4629630E-02
    1      -20.773371
    2      -19.426379
    3      -11.882421
    4       -9.774444
    5       -9.425198
    6       -8.706694
    7       -8.254963
    8       -7.175114
    9        1.880314
   10        2.282880
   11        3.095339
   12        3.520456
 
  0.4166667E+00  0.1666667E+00  0.0000000E+00  0.4629630E-02
    1      -20.593427
    2      -19.694177
    3      -11.423481
    4       -9.773099
    5       -9.574838
    6       -8.549859
    7       -8.498532
    8       -7.473790
    9        2.356878
   10        2.531093
   11        3.344415
   12        3.775562
 
  0.4583333E+00  0.1666667E+00  0.0000000E+00  0.4629630E-02
    1      -20.395241
    2      -19.945251
    3      -10.977649
    4      -10.148343
    5       -9.351741
    6       -8.836143
    7       -8.270314
    8       -7.756871
    9        2.805227
   10        2.827318
   11        3.430713
   12        3.613622
 
  0.5000000E+00  0.1666667E+00  0.0000000E+00  0.2314815E-02
    1      -20.179075
    2      -20.179075
    3      -10.550878
    4      -10.550878
    5       -9.105000
    6       -9.105000
    7       -8.022781
    8       -8.022781
    9        3.105152
   10        3.105152
   11        3.287294
   12        3.287294
 