<?xml version="1.0" encoding="ISO-8859-1"?>
<modeling>
 <generator>
  <i name="program" type="string">vasp </i>
  <i name="version" type="string">5.3.5  </i>
  <i name="subversion" type="string">31Mar14 (build Mar 02 2015 18:14:16) complex                          parallel </i>
  <i name="platform" type="string">LinuxIFC </i>
  <i name="date" type="string">2018 08 10 </i>
  <i name="time" type="string">14:35:45 </i>
 </generator>
 <incar>
  <i type="string" name="SYSTEM">  gr</i>
  <i type="string" name="PREC">accurate : accuracy</i>
  <i type="string" name="ALGO"> FAST.</i>
  <i type="int" name="NELM">   100</i>
  <i type="int" name="NELMDL">    -3</i>
  <i type="int" name="NELMIN">     5</i>
  <i type="int" name="IBRION">     1</i>
  <i name="EDIFF">      0.00000000</i>
  <i name="EDIFFG">     -0.00000100</i>
  <i type="int" name="NSW">   400</i>
  <i type="int" name="ISIF">     2</i>
  <i name="ENCUT">   2000.00000000</i>
  <i type="int" name="ISMEAR">     0</i>
  <i name="SIGMA">      0.05000000</i>
  <i type="int" name="NWRITE">     2</i>
  <i type="logical" name="LWAVE"> F  </i>
  <i type="logical" name="LCHARG"> F  </i>
  <i type="int" name="NELM">   100</i>
 </incar>
 <kpoints>
  <generation param="Gamma">
   <v type="int" name="divisions">      24       36        1 </v>
   <v name="usershift">      0.00000000       0.00000000       0.00000000 </v>
   <v name="genvec1">      0.04166667       0.00000000       0.00000000 </v>
   <v name="genvec2">      0.00000000       0.02777778       0.00000000 </v>
   <v name="genvec3">      0.00000000       0.00000000       1.00000000 </v>
   <v name="shift">      0.00000000       0.00000000       0.00000000 </v>
  </generation>
  <varray name="kpointlist" >
   <v>       0.00000000       0.00000000       0.00000000 </v>
   <v>       0.04166667       0.00000000       0.00000000 </v>
   <v>       0.08333333       0.00000000       0.00000000 </v>
   <v>       0.12500000       0.00000000       0.00000000 </v>
   <v>       0.16666667       0.00000000       0.00000000 </v>
   <v>       0.20833333       0.00000000       0.00000000 </v>
   <v>       0.25000000       0.00000000       0.00000000 </v>
   <v>       0.29166667       0.00000000       0.00000000 </v>
   <v>       0.33333333       0.00000000       0.00000000 </v>
   <v>       0.37500000       0.00000000       0.00000000 </v>
   <v>       0.41666667       0.00000000       0.00000000 </v>
   <v>       0.45833333       0.00000000       0.00000000 </v>
   <v>       0.50000000       0.00000000       0.00000000 </v>
   <v>       0.00000000       0.02777778       0.00000000 </v>
   <v>       0.04166667       0.02777778       0.00000000 </v>
   <v>       0.08333333       0.02777778       0.00000000 </v>
   <v>       0.12500000       0.02777778       0.00000000 </v>
   <v>       0.16666667       0.02777778       0.00000000 </v>
   <v>       0.20833333       0.02777778       0.00000000 </v>
   <v>       0.25000000       0.02777778       0.00000000 </v>
   <v>       0.29166667       0.02777778       0.00000000 </v>
   <v>       0.33333333       0.02777778       0.00000000 </v>
   <v>       0.37500000       0.02777778       0.00000000 </v>
   <v>       0.41666667       0.02777778       0.00000000 </v>
   <v>       0.45833333       0.02777778       0.00000000 </v>
   <v>       0.50000000       0.02777778       0.00000000 </v>
   <v>       0.00000000       0.05555556       0.00000000 </v>
   <v>       0.04166667       0.05555556       0.00000000 </v>
   <v>       0.08333333       0.05555556       0.00000000 </v>
   <v>       0.12500000       0.05555556       0.00000000 </v>
   <v>       0.16666667       0.05555556       0.00000000 </v>
   <v>       0.20833333       0.05555556       0.00000000 </v>
   <v>       0.25000000       0.05555556       0.00000000 </v>
   <v>       0.29166667       0.05555556       0.00000000 </v>
   <v>       0.33333333       0.05555556       0.00000000 </v>
   <v>       0.37500000       0.05555556       0.00000000 </v>
   <v>       0.41666667       0.05555556       0.00000000 </v>
   <v>       0.45833333       0.05555556       0.00000000 </v>
   <v>       0.50000000       0.05555556       0.00000000 </v>
   <v>       0.00000000       0.08333333       0.00000000 </v>
   <v>       0.04166667       0.08333333       0.00000000 </v>
   <v>       0.08333333       0.08333333       0.00000000 </v>
   <v>       0.12500000       0.08333333       0.00000000 </v>
   <v>       0.16666667       0.08333333       0.00000000 </v>
   <v>       0.20833333       0.08333333       0.00000000 </v>
   <v>       0.25000000       0.08333333       0.00000000 </v>
   <v>       0.29166667       0.08333333       0.00000000 </v>
   <v>       0.33333333       0.08333333       0.00000000 </v>
   <v>       0.37500000       0.08333333       0.00000000 </v>
   <v>       0.41666667       0.08333333       0.00000000 </v>
   <v>       0.45833333       0.08333333       0.00000000 </v>
   <v>       0.50000000       0.08333333       0.00000000 </v>
   <v>       0.00000000       0.11111111       0.00000000 </v>
   <v>       0.04166667       0.11111111       0.00000000 </v>
   <v>       0.08333333       0.11111111       0.00000000 </v>
   <v>       0.12500000       0.11111111       0.00000000 </v>
   <v>       0.16666667       0.11111111       0.00000000 </v>
   <v>       0.20833333       0.11111111       0.00000000 </v>
   <v>       0.25000000       0.11111111       0.00000000 </v>
   <v>       0.29166667       0.11111111       0.00000000 </v>
   <v>       0.33333333       0.11111111       0.00000000 </v>
   <v>       0.37500000       0.11111111       0.00000000 </v>
   <v>       0.41666667       0.11111111       0.00000000 </v>
   <v>       0.45833333       0.11111111       0.00000000 </v>
   <v>       0.50000000       0.11111111       0.00000000 </v>
   <v>       0.00000000       0.13888889       0.00000000 </v>
   <v>       0.04166667       0.13888889       0.00000000 </v>
   <v>       0.08333333       0.13888889       0.00000000 </v>
   <v>       0.12500000       0.13888889       0.00000000 </v>
   <v>       0.16666667       0.13888889       0.00000000 </v>
   <v>       0.20833333       0.13888889       0.00000000 </v>
   <v>       0.25000000       0.13888889       0.00000000 </v>
   <v>       0.29166667       0.13888889       0.00000000 </v>
   <v>       0.33333333       0.13888889       0.00000000 </v>
   <v>       0.37500000       0.13888889       0.00000000 </v>
   <v>       0.41666667       0.13888889       0.00000000 </v>
   <v>       0.45833333       0.13888889       0.00000000 </v>
   <v>       0.50000000       0.13888889       0.00000000 </v>
   <v>       0.00000000       0.16666667       0.00000000 </v>
   <v>       0.04166667       0.16666667       0.00000000 </v>
   <v>       0.08333333       0.16666667       0.00000000 </v>
   <v>       0.12500000       0.16666667       0.00000000 </v>
   <v>       0.16666667       0.16666667       0.00000000 </v>
   <v>       0.20833333       0.16666667       0.00000000 </v>
   <v>       0.25000000       0.16666667       0.00000000 </v>
   <v>       0.29166667       0.16666667       0.00000000 </v>
   <v>       0.33333333       0.16666667       0.00000000 </v>
   <v>       0.37500000       0.16666667       0.00000000 </v>
   <v>       0.41666667       0.16666667       0.00000000 </v>
   <v>       0.45833333       0.16666667       0.00000000 </v>
   <v>       0.50000000       0.16666667       0.00000000 </v>
   <v>       0.00000000       0.19444444       0.00000000 </v>
   <v>       0.04166667       0.19444444       0.00000000 </v>
   <v>       0.08333333       0.19444444       0.00000000 </v>
   <v>       0.12500000       0.19444444       0.00000000 </v>
   <v>       0.16666667       0.19444444       0.00000000 </v>
   <v>       0.20833333       0.19444444       0.00000000 </v>
   <v>       0.25000000       0.19444444       0.00000000 </v>
   <v>       0.29166667       0.19444444       0.00000000 </v>
   <v>       0.33333333       0.19444444       0.00000000 </v>
   <v>       0.37500000       0.19444444       0.00000000 </v>
   <v>       0.41666667       0.19444444       0.00000000 </v>
   <v>       0.45833333       0.19444444       0.00000000 </v>
   <v>       0.50000000       0.19444444       0.00000000 </v>
   <v>       0.00000000       0.22222222       0.00000000 </v>
   <v>       0.04166667       0.22222222       0.00000000 </v>
   <v>       0.08333333       0.22222222       0.00000000 </v>
   <v>       0.12500000       0.22222222       0.00000000 </v>
   <v>       0.16666667       0.22222222       0.00000000 </v>
   <v>       0.20833333       0.22222222       0.00000000 </v>
   <v>       0.25000000       0.22222222       0.00000000 </v>
   <v>       0.29166667       0.22222222       0.00000000 </v>
   <v>       0.33333333       0.22222222       0.00000000 </v>
   <v>       0.37500000       0.22222222       0.00000000 </v>
   <v>       0.41666667       0.22222222       0.00000000 </v>
   <v>       0.45833333       0.22222222       0.00000000 </v>
   <v>       0.50000000       0.22222222       0.00000000 </v>
   <v>       0.00000000       0.25000000       0.00000000 </v>
   <v>       0.04166667       0.25000000       0.00000000 </v>
   <v>       0.08333333       0.25000000       0.00000000 </v>
   <v>       0.12500000       0.25000000       0.00000000 </v>
   <v>       0.16666667       0.25000000       0.00000000 </v>
   <v>       0.20833333       0.25000000       0.00000000 </v>
   <v>       0.25000000       0.25000000       0.00000000 </v>
   <v>       0.29166667       0.25000000       0.00000000 </v>
   <v>       0.33333333       0.25000000       0.00000000 </v>
   <v>       0.37500000       0.25000000       0.00000000 </v>
   <v>       0.41666667       0.25000000       0.00000000 </v>
   <v>       0.45833333       0.25000000       0.00000000 </v>
   <v>       0.50000000       0.25000000       0.00000000 </v>
   <v>       0.00000000       0.27777778       0.00000000 </v>
   <v>       0.04166667       0.27777778       0.00000000 </v>
   <v>       0.08333333       0.27777778       0.00000000 </v>
   <v>       0.12500000       0.27777778       0.00000000 </v>
   <v>       0.16666667       0.27777778       0.00000000 </v>
   <v>       0.20833333       0.27777778       0.00000000 </v>
   <v>       0.25000000       0.27777778       0.00000000 </v>
   <v>       0.29166667       0.27777778       0.00000000 </v>
   <v>       0.33333333       0.27777778       0.00000000 </v>
   <v>       0.37500000       0.27777778       0.00000000 </v>
   <v>       0.41666667       0.27777778       0.00000000 </v>
   <v>       0.45833333       0.27777778       0.00000000 </v>
   <v>       0.50000000       0.27777778       0.00000000 </v>
   <v>       0.00000000       0.30555556       0.00000000 </v>
   <v>       0.04166667       0.30555556       0.00000000 </v>
   <v>       0.08333333       0.30555556       0.00000000 </v>
   <v>       0.12500000       0.30555556       0.00000000 </v>
   <v>       0.16666667       0.30555556       0.00000000 </v>
   <v>       0.20833333       0.30555556       0.00000000 </v>
   <v>       0.25000000       0.30555556       0.00000000 </v>
   <v>       0.29166667       0.30555556       0.00000000 </v>
   <v>       0.33333333       0.30555556       0.00000000 </v>
   <v>       0.37500000       0.30555556       0.00000000 </v>
   <v>       0.41666667       0.30555556       0.00000000 </v>
   <v>       0.45833333       0.30555556       0.00000000 </v>
   <v>       0.50000000       0.30555556       0.00000000 </v>
   <v>       0.00000000       0.33333333       0.00000000 </v>
   <v>       0.04166667       0.33333333       0.00000000 </v>
   <v>       0.08333333       0.33333333       0.00000000 </v>
   <v>       0.12500000       0.33333333       0.00000000 </v>
   <v>       0.16666667       0.33333333       0.00000000 </v>
   <v>       0.20833333       0.33333333       0.00000000 </v>
   <v>       0.25000000       0.33333333       0.00000000 </v>
   <v>       0.29166667       0.33333333       0.00000000 </v>
   <v>       0.33333333       0.33333333       0.00000000 </v>
   <v>       0.37500000       0.33333333       0.00000000 </v>
   <v>       0.41666667       0.33333333       0.00000000 </v>
   <v>       0.45833333       0.33333333       0.00000000 </v>
   <v>       0.50000000       0.33333333       0.00000000 </v>
   <v>       0.00000000       0.36111111       0.00000000 </v>
   <v>       0.04166667       0.36111111       0.00000000 </v>
   <v>       0.08333333       0.36111111       0.00000000 </v>
   <v>       0.12500000       0.36111111       0.00000000 </v>
   <v>       0.16666667       0.36111111       0.00000000 </v>
   <v>       0.20833333       0.36111111       0.00000000 </v>
   <v>       0.25000000       0.36111111       0.00000000 </v>
   <v>       0.29166667       0.36111111       0.00000000 </v>
   <v>       0.33333333       0.36111111       0.00000000 </v>
   <v>       0.37500000       0.36111111       0.00000000 </v>
   <v>       0.41666667       0.36111111       0.00000000 </v>
   <v>       0.45833333       0.36111111       0.00000000 </v>
   <v>       0.50000000       0.36111111       0.00000000 </v>
   <v>       0.00000000       0.38888889       0.00000000 </v>
   <v>       0.04166667       0.38888889       0.00000000 </v>
   <v>       0.08333333       0.38888889       0.00000000 </v>
   <v>       0.12500000       0.38888889       0.00000000 </v>
   <v>       0.16666667       0.38888889       0.00000000 </v>
   <v>       0.20833333       0.38888889       0.00000000 </v>
   <v>       0.25000000       0.38888889       0.00000000 </v>
   <v>       0.29166667       0.38888889       0.00000000 </v>
   <v>       0.33333333       0.38888889       0.00000000 </v>
   <v>       0.37500000       0.38888889       0.00000000 </v>
   <v>       0.41666667       0.38888889       0.00000000 </v>
   <v>       0.45833333       0.38888889       0.00000000 </v>
   <v>       0.50000000       0.38888889       0.00000000 </v>
   <v>       0.00000000       0.41666667       0.00000000 </v>
   <v>       0.04166667       0.41666667       0.00000000 </v>
   <v>       0.08333333       0.41666667       0.00000000 </v>
   <v>       0.12500000       0.41666667       0.00000000 </v>
   <v>       0.16666667       0.41666667       0.00000000 </v>
   <v>       0.20833333       0.41666667       0.00000000 </v>
   <v>       0.25000000       0.41666667       0.00000000 </v>
   <v>       0.29166667       0.41666667       0.00000000 </v>
   <v>       0.33333333       0.41666667       0.00000000 </v>
   <v>       0.37500000       0.41666667       0.00000000 </v>
   <v>       0.41666667       0.41666667       0.00000000 </v>
   <v>       0.45833333       0.41666667       0.00000000 </v>
   <v>       0.50000000       0.41666667       0.00000000 </v>
   <v>       0.00000000       0.44444444       0.00000000 </v>
   <v>       0.04166667       0.44444444       0.00000000 </v>
   <v>       0.08333333       0.44444444       0.00000000 </v>
   <v>       0.12500000       0.44444444       0.00000000 </v>
   <v>       0.16666667       0.44444444       0.00000000 </v>
   <v>       0.20833333       0.44444444       0.00000000 </v>
   <v>       0.25000000       0.44444444       0.00000000 </v>
   <v>       0.29166667       0.44444444       0.00000000 </v>
   <v>       0.33333333       0.44444444       0.00000000 </v>
   <v>       0.37500000       0.44444444       0.00000000 </v>
   <v>       0.41666667       0.44444444       0.00000000 </v>
   <v>       0.45833333       0.44444444       0.00000000 </v>
   <v>       0.50000000       0.44444444       0.00000000 </v>
   <v>       0.00000000       0.47222222       0.00000000 </v>
   <v>       0.04166667       0.47222222       0.00000000 </v>
   <v>       0.08333333       0.47222222       0.00000000 </v>
   <v>       0.12500000       0.47222222       0.00000000 </v>
   <v>       0.16666667       0.47222222       0.00000000 </v>
   <v>       0.20833333       0.47222222       0.00000000 </v>
   <v>       0.25000000       0.47222222       0.00000000 </v>
   <v>       0.29166667       0.47222222       0.00000000 </v>
   <v>       0.33333333       0.47222222       0.00000000 </v>
   <v>       0.37500000       0.47222222       0.00000000 </v>
   <v>       0.41666667       0.47222222       0.00000000 </v>
   <v>       0.45833333       0.47222222       0.00000000 </v>
   <v>       0.50000000       0.47222222       0.00000000 </v>
   <v>       0.00000000       0.50000000       0.00000000 </v>
   <v>       0.04166667       0.50000000       0.00000000 </v>
   <v>       0.08333333       0.50000000       0.00000000 </v>
   <v>       0.12500000       0.50000000       0.00000000 </v>
   <v>       0.16666667       0.50000000       0.00000000 </v>
   <v>       0.20833333       0.50000000       0.00000000 </v>
   <v>       0.25000000       0.50000000       0.00000000 </v>
   <v>       0.29166667       0.50000000       0.00000000 </v>
   <v>       0.33333333       0.50000000       0.00000000 </v>
   <v>       0.37500000       0.50000000       0.00000000 </v>
   <v>       0.41666667       0.50000000       0.00000000 </v>
   <v>       0.45833333       0.50000000       0.00000000 </v>
   <v>       0.50000000       0.50000000       0.00000000 </v>
  </varray>
  <varray name="weights" >
   <v>       0.00115741 </v>
   <v>       0.00231481 </v>
   <v>       0.00231481 </v>
   <v>       0.00231481 </v>
   <v>       0.00231481 </v>
   <v>       0.00231481 </v>
   <v>       0.00231481 </v>
   <v>       0.00231481 </v>
   <v>       0.00231481 </v>
   <v>       0.00231481 </v>
   <v>       0.00231481 </v>
   <v>       0.00231481 </v>
   <v>       0.00115741 </v>
   <v>       0.00231481 </v>
   <v>       0.00462963 </v>
   <v>       0.00462963 </v>
   <v>       0.00462963 </v>
   <v>       0.00462963 </v>
   <v>       0.00462963 </v>
   <v>       0.00462963 </v>
   <v>       0.00462963 </v>
   <v>       0.00462963 </v>
   <v>       0.00462963 </v>
   <v>       0.00462963 </v>
   <v>       0.00462963 </v>
   <v>       0.00231481 </v>
   <v>       0.00231481 </v>
   <v>       0.00462963 </v>
   <v>       0.00462963 </v>
   <v>       0.00462963 </v>
   <v>       0.00462963 </v>
   <v>       0.00462963 </v>
   <v>       0.00462963 </v>
   <v>       0.00462963 </v>
   <v>       0.00462963 </v>
   <v>       0.00462963 </v>
   <v>       0.00462963 </v>
   <v>       0.00462963 </v>
   <v>       0.00231481 </v>
   <v>       0.00231481 </v>
   <v>       0.00462963 </v>
   <v>       0.00462963 </v>
   <v>       0.00462963 </v>
   <v>       0.00462963 </v>
   <v>       0.00462963 </v>
   <v>       0.00462963 </v>
   <v>       0.00462963 </v>
   <v>       0.00462963 </v>
   <v>       0.00462963 </v>
   <v>       0.00462963 </v>
   <v>       0.00462963 </v>
   <v>       0.00231481 </v>
   <v>       0.00231481 </v>
   <v>       0.00462963 </v>
   <v>       0.00462963 </v>
   <v>       0.00462963 </v>
   <v>       0.00462963 </v>
   <v>       0.00462963 </v>
   <v>       0.00462963 </v>
   <v>       0.00462963 </v>
   <v>       0.00462963 </v>
   <v>       0.00462963 </v>
   <v>       0.00462963 </v>
   <v>       0.00462963 </v>
   <v>       0.00231481 </v>
   <v>       0.00231481 </v>
   <v>       0.00462963 </v>
   <v>       0.00462963 </v>
   <v>       0.00462963 </v>
   <v>       0.00462963 </v>
   <v>       0.00462963 </v>
   <v>       0.00462963 </v>
   <v>       0.00462963 </v>
   <v>       0.00462963 </v>
   <v>       0.00462963 </v>
   <v>       0.00462963 </v>
   <v>       0.00462963 </v>
   <v>       0.00231481 </v>
   <v>       0.00231481 </v>
   <v>       0.00462963 </v>
   <v>       0.00462963 </v>
   <v>       0.00462963 </v>
   <v>       0.00462963 </v>
   <v>       0.00462963 </v>
   <v>       0.00462963 </v>
   <v>       0.00462963 </v>
   <v>       0.00462963 </v>
   <v>       0.00462963 </v>
   <v>       0.00462963 </v>
   <v>       0.00462963 </v>
   <v>       0.00231481 </v>
   <v>       0.00231481 </v>
   <v>       0.00462963 </v>
   <v>       0.00462963 </v>
   <v>       0.00462963 </v>
   <v>       0.00462963 </v>
   <v>       0.00462963 </v>
   <v>       0.00462963 </v>
   <v>       0.00462963 </v>
   <v>       0.00462963 </v>
   <v>       0.00462963 </v>
   <v>       0.00462963 </v>
   <v>       0.00462963 </v>
   <v>       0.00231481 </v>
   <v>       0.00231481 </v>
   <v>       0.00462963 </v>
   <v>       0.00462963 </v>
   <v>       0.00462963 </v>
   <v>       0.00462963 </v>
   <v>       0.00462963 </v>
   <v>       0.00462963 </v>
   <v>       0.00462963 </v>
   <v>       0.00462963 </v>
   <v>       0.00462963 </v>
   <v>       0.00462963 </v>
   <v>       0.00462963 </v>
   <v>       0.00231481 </v>
   <v>       0.00231481 </v>
   <v>       0.00462963 </v>
   <v>       0.00462963 </v>
   <v>       0.00462963 </v>
   <v>       0.00462963 </v>
   <v>       0.00462963 </v>
   <v>       0.00462963 </v>
   <v>       0.00462963 </v>
   <v>       0.00462963 </v>
   <v>       0.00462963 </v>
   <v>       0.00462963 </v>
   <v>       0.00462963 </v>
   <v>       0.00231481 </v>
   <v>       0.00231481 </v>
   <v>       0.00462963 </v>
   <v>       0.00462963 </v>
   <v>       0.00462963 </v>
   <v>       0.00462963 </v>
   <v>       0.00462963 </v>
   <v>       0.00462963 </v>
   <v>       0.00462963 </v>
   <v>       0.00462963 </v>
   <v>       0.00462963 </v>
   <v>       0.00462963 </v>
   <v>       0.00462963 </v>
   <v>       0.00231481 </v>
   <v>       0.00231481 </v>
   <v>       0.00462963 </v>
   <v>       0.00462963 </v>
   <v>       0.00462963 </v>
   <v>       0.00462963 </v>
   <v>       0.00462963 </v>
   <v>       0.00462963 </v>
   <v>       0.00462963 </v>
   <v>       0.00462963 </v>
   <v>       0.00462963 </v>
   <v>       0.00462963 </v>
   <v>       0.00462963 </v>
   <v>       0.00231481 </v>
   <v>       0.00231481 </v>
   <v>       0.00462963 </v>
   <v>       0.00462963 </v>
   <v>       0.00462963 </v>
   <v>       0.00462963 </v>
   <v>       0.00462963 </v>
   <v>       0.00462963 </v>
   <v>       0.00462963 </v>
   <v>       0.00462963 </v>
   <v>       0.00462963 </v>
   <v>       0.00462963 </v>
   <v>       0.00462963 </v>
   <v>       0.00231481 </v>
   <v>       0.00231481 </v>
   <v>       0.00462963 </v>
   <v>       0.00462963 </v>
   <v>       0.00462963 </v>
   <v>       0.00462963 </v>
   <v>       0.00462963 </v>
   <v>       0.00462963 </v>
   <v>       0.00462963 </v>
   <v>       0.00462963 </v>
   <v>       0.00462963 </v>
   <v>       0.00462963 </v>
   <v>       0.00462963 </v>
   <v>       0.00231481 </v>
   <v>       0.00231481 </v>
   <v>       0.00462963 </v>
   <v>       0.00462963 </v>
   <v>       0.00462963 </v>
   <v>       0.00462963 </v>
   <v>       0.00462963 </v>
   <v>       0.00462963 </v>
   <v>       0.00462963 </v>
   <v>       0.00462963 </v>
   <v>       0.00462963 </v>
   <v>       0.00462963 </v>
   <v>       0.00462963 </v>
   <v>       0.00231481 </v>
   <v>       0.00231481 </v>
   <v>       0.00462963 </v>
   <v>       0.00462963 </v>
   <v>       0.00462963 </v>
   <v>       0.00462963 </v>
   <v>       0.00462963 </v>
   <v>       0.00462963 </v>
   <v>       0.00462963 </v>
   <v>       0.00462963 </v>
   <v>       0.00462963 </v>
   <v>       0.00462963 </v>
   <v>       0.00462963 </v>
   <v>       0.00231481 </v>
   <v>       0.00231481 </v>
   <v>       0.00462963 </v>
   <v>       0.00462963 </v>
   <v>       0.00462963 </v>
   <v>       0.00462963 </v>
   <v>       0.00462963 </v>
   <v>       0.00462963 </v>
   <v>       0.00462963 </v>
   <v>       0.00462963 </v>
   <v>       0.00462963 </v>
   <v>       0.00462963 </v>
   <v>       0.00462963 </v>
   <v>       0.00231481 </v>
   <v>       0.00231481 </v>
   <v>       0.00462963 </v>
   <v>       0.00462963 </v>
   <v>       0.00462963 </v>
   <v>       0.00462963 </v>
   <v>       0.00462963 </v>
   <v>       0.00462963 </v>
   <v>       0.00462963 </v>
   <v>       0.00462963 </v>
   <v>       0.00462963 </v>
   <v>       0.00462963 </v>
   <v>       0.00462963 </v>
   <v>       0.00231481 </v>
   <v>       0.00115741 </v>
   <v>       0.00231481 </v>
   <v>       0.00231481 </v>
   <v>       0.00231481 </v>
   <v>       0.00231481 </v>
   <v>       0.00231481 </v>
   <v>       0.00231481 </v>
   <v>       0.00231481 </v>
   <v>       0.00231481 </v>
   <v>       0.00231481 </v>
   <v>       0.00231481 </v>
   <v>       0.00231481 </v>
   <v>       0.00115741 </v>
  </varray>
 </kpoints>
 <parameters>
  <separator name="general" >
   <i type="string" name="SYSTEM">gr</i>
   <i type="logical" name="LCOMPAT"> F  </i>
  </separator>
  <separator name="electronic" >
   <i type="string" name="PREC">accura</i>
   <i name="ENMAX">   2000.00000000</i>
   <i name="ENAUG">    644.87300000</i>
   <i name="EDIFF">      0.00000000</i>
   <i type="int" name="IALGO">    68</i>
   <i type="int" name="IWAVPR">    11</i>
   <i type="int" name="NBANDS">    12</i>
   <i name="NELECT">     16.00000000</i>
   <i type="int" name="TURBO">     0</i>
   <i type="int" name="IRESTART">     0</i>
   <i type="int" name="NREBOOT">     0</i>
   <i type="int" name="NMIN">     0</i>
   <i name="EREF">      0.00000000</i>
   <separator name="electronic smearing" >
    <i type="int" name="ISMEAR">     0</i>
    <i name="SIGMA">      0.05000000</i>
    <i name="KSPACING">      0.50000000</i>
    <i type="logical" name="KGAMMA"> T  </i>
   </separator>
   <separator name="electronic projectors" >
    <i type="logical" name="LREAL"> F  </i>
    <v name="ROPT">      0.00000000</v>
    <i type="int" name="LMAXPAW">  -100</i>
    <i type="int" name="LMAXMIX">     2</i>
    <i type="logical" name="NLSPLINE"> F  </i>
   </separator>
   <separator name="electronic startup" >
    <i type="int" name="ISTART">     0</i>
    <i type="int" name="ICHARG">     2</i>
    <i type="int" name="INIWAV">     1</i>
   </separator>
   <separator name="electronic spin" >
    <i type="int" name="ISPIN">     1</i>
    <i type="logical" name="LNONCOLLINEAR"> F  </i>
    <v name="MAGMOM">      1.00000000      1.00000000      1.00000000      1.00000000</v>
    <i name="NUPDOWN">     -1.00000000</i>
    <i type="logical" name="LSORBIT"> F  </i>
    <v name="SAXIS">      0.00000000      0.00000000      1.00000000</v>
    <i type="logical" name="LSPIRAL"> F  </i>
    <v name="QSPIRAL">      0.00000000      0.00000000      0.00000000</v>
    <i type="logical" name="LZEROZ"> F  </i>
   </separator>
   <separator name="electronic exchange-correlation" >
    <i type="logical" name="LASPH"> F  </i>
    <i type="logical" name="LMETAGGA"> F  </i>
   </separator>
   <separator name="electronic convergence" >
    <i type="int" name="NELM">   100</i>
    <i type="int" name="NELMDL">    -3</i>
    <i type="int" name="NELMIN">     5</i>
    <i name="ENINI">   2000.00000000</i>
    <separator name="electronic convergence detail" >
     <i type="logical" name="LDIAG"> T  </i>
     <i type="logical" name="LSUBROT"> F  </i>
     <i name="WEIMIN">      0.00100000</i>
     <i name="EBREAK">      0.00000000</i>
     <i name="DEPER">      0.30000000</i>
     <i type="int" name="NRMM">     4</i>
     <i name="TIME">      0.40000000</i>
    </separator>
   </separator>
   <separator name="electronic mixer" >
    <i name="AMIX">      0.40000000</i>
    <i name="BMIX">      1.00000000</i>
    <i name="AMIN">      0.10000000</i>
    <i name="AMIX_MAG">      1.60000000</i>
    <i name="BMIX_MAG">      1.00000000</i>
    <separator name="electronic mixer details" >
     <i type="int" name="IMIX">     4</i>
     <i type="int" name="MAXMIX">   -45</i>
     <i name="WC">    100.00000000</i>
     <i type="int" name="INIMIX">     1</i>
     <i type="int" name="MIXPRE">     1</i>
     <i type="int" name="MREMOVE">     5</i>
    </separator>
   </separator>
   <separator name="electronic dipolcorrection" >
    <i type="logical" name="LDIPOL"> F  </i>
    <i type="logical" name="LMONO"> F  </i>
    <i type="int" name="IDIPOL">     0</i>
    <i name="EPSILON">      1.00000000</i>
    <v name="DIPOL">   -100.00000000   -100.00000000   -100.00000000</v>
    <i name="EFIELD">      0.00000000</i>
   </separator>
  </separator>
  <separator name="grids" >
   <i type="int" name="NGX">    64</i>
   <i type="int" name="NGY">    36</i>
   <i type="int" name="NGZ">   288</i>
   <i type="int" name="NGXF">   128</i>
   <i type="int" name="NGYF">    72</i>
   <i type="int" name="NGZF">   576</i>
   <i type="logical" name="ADDGRID"> F  </i>
  </separator>
  <separator name="ionic" >
   <i type="int" name="NSW">   400</i>
   <i type="int" name="IBRION">     1</i>
   <i type="int" name="ISIF">     2</i>
   <i name="PSTRESS">      0.00000000</i>
   <i name="EDIFFG">     -0.00000100</i>
   <i type="int" name="NFREE">     0</i>
   <i name="POTIM">      0.50000000</i>
   <i name="SMASS">     -3.00000000</i>
   <i name="SCALEE">      1.00000000</i>
  </separator>
  <separator name="ionic md" >
   <i name="TEBEG">      0.00010000</i>
   <i name="TEEND">      0.00010000</i>
   <i type="int" name="NBLOCK">     1</i>
   <i type="int" name="KBLOCK">   400</i>
   <i type="int" name="NPACO">   256</i>
   <i name="APACO">     16.00000000</i>
  </separator>
  <separator name="symmetry" >
   <i type="int" name="ISYM">     2</i>
   <i name="SYMPREC">      0.00001000</i>
  </separator>
  <separator name="dos" >
   <i type="logical" name="LORBIT"> F  </i>
   <v name="RWIGS">     -1.00000000</v>
   <i type="int" name="NEDOS">   301</i>
   <i name="EMIN">     10.00000000</i>
   <i name="EMAX">    -10.00000000</i>
   <i name="EFERMI">      0.00000000</i>
  </separator>
  <separator name="writing" >
   <i type="int" name="NWRITE">     2</i>
   <i type="logical" name="LWAVE"> F  </i>
   <i type="logical" name="LCHARG"> F  </i>
   <i type="logical" name="LPARD"> F  </i>
   <i type="logical" name="LVTOT"> F  </i>
   <i type="logical" name="LVHAR"> F  </i>
   <i type="logical" name="LELF"> F  </i>
   <i type="logical" name="LOPTICS"> F  </i>
   <v name="STM">      0.00000000      0.00000000      0.00000000      0.00000000      0.00000000      0.00000000      0.00000000</v>
  </separator>
  <separator name="performance" >
   <i type="int" name="NPAR">     4</i>
   <i type="int" name="NSIM">     4</i>
   <i type="int" name="NBLK">    -1</i>
   <i type="logical" name="LPLANE"> T  </i>
   <i type="logical" name="LSCALAPACK"> F  </i>
   <i type="logical" name="LSCAAWARE"> F  </i>
   <i type="logical" name="LSCALU"> F  </i>
   <i type="logical" name="LASYNC"> F  </i>
   <i type="logical" name="LORBITALREAL"> F  </i>
  </separator>
  <separator name="miscellaneous" >
   <i type="int" name="IDIOT">     3</i>
   <i type="logical" name="LMUSIC"> F  </i>
   <v name="POMASS">     12.01100000</v>
   <v name="DARWINR">      0.00000000</v>
   <v name="DARWINV">      1.00000000</v>
   <i type="logical" name="LCORR"> T  </i>
  </separator>
  <i type="logical" name="GGA_COMPAT"> T  </i>
  <i type="logical" name="LBERRY"> F  </i>
  <i type="int" name="ICORELEVEL">     0</i>
  <i type="logical" name="LDAU"> F  </i>
  <i type="int" name="I_CONSTRAINED_M">     0</i>
  <separator name="electronic exchange-correlation" >
   <i type="string" name="GGA">--</i>
   <i type="int" name="VOSKOWN">     0</i>
   <i type="logical" name="LHFCALC"> F  </i>
   <i type="string" name="PRECFOCK"></i>
   <i type="logical" name="LSYMGRAD"> F  </i>
   <i type="logical" name="LHFONE"> F  </i>
   <i type="logical" name="LRHFCALC"> F  </i>
   <i type="logical" name="LTHOMAS"> F  </i>
   <i type="logical" name="LMODELHF"> F  </i>
   <i name="ENCUT4O">     -1.00000000</i>
   <i type="int" name="EXXOEP">     0</i>
   <i type="int" name="FOURORBIT">     0</i>
   <i name="AEXX">      0.00000000</i>
   <i name="HFALPHA">      0.00000000</i>
   <i name="MCALPHA">      0.00000000</i>
   <i name="ALDAX">      1.00000000</i>
   <i name="AGGAX">      1.00000000</i>
   <i name="ALDAC">      1.00000000</i>
   <i name="AGGAC">      1.00000000</i>
   <i type="int" name="NKREDX">     1</i>
   <i type="int" name="NKREDY">     1</i>
   <i type="int" name="NKREDZ">     1</i>
   <i type="logical" name="SHIFTRED"> F  </i>
   <i type="logical" name="ODDONLY"> F  </i>
   <i type="logical" name="EVENONLY"> F  </i>
   <i type="int" name="LMAXFOCK">     0</i>
   <i type="int" name="NMAXFOCKAE">     0</i>
   <i type="logical" name="LFOCKAEDFT"> F  </i>
   <i name="HFSCREEN">      0.00000000</i>
   <i name="HFSCREENC">      0.00000000</i>
   <i type="int" name="NBANDSGWLOW">     0</i>
  </separator>
  <separator name="vdW DFT" >
   <i type="logical" name="LUSE_VDW"> F  </i>
   <i name="Zab_VDW">     -0.84910000</i>
   <i name="PARAM1">      0.12340000</i>
   <i name="PARAM2">      1.00000000</i>
   <i name="PARAM3">      0.00000000</i>
  </separator>
  <separator name="model GW" >
   <i type="int" name="MODEL_GW">     0</i>
   <i name="MODEL_EPS0">     31.62568521</i>
   <i name="MODEL_ALPHA">      1.00000000</i>
  </separator>
  <separator name="linear response parameters" >
   <i type="logical" name="LEPSILON"> F  </i>
   <i type="logical" name="LRPA"> F  </i>
   <i type="logical" name="LNABLA"> F  </i>
   <i type="logical" name="LVEL"> F  </i>
   <i type="int" name="KINTER">     0</i>
   <i name="CSHIFT">      0.10000000</i>
   <i name="OMEGAMAX">     -1.00000000</i>
   <i name="DEG_THRESHOLD">      0.00200000</i>
  </separator>
  <separator name="orbital magnetization" >
   <i type="logical" name="NUCIND"> F  </i>
   <v name="MAGPOS">      0.00000000      0.00000000      0.00000000</v>
   <i type="logical" name="LNICSALL"> T  </i>
   <i type="logical" name="ORBITALMAG"> F  </i>
   <i type="logical" name="LMAGBLOCH"> F  </i>
   <i type="logical" name="LCHIMAG"> F  </i>
   <i type="logical" name="LGAUGE"> T  </i>
   <i type="int" name="MAGATOM">     0</i>
   <v name="MAGDIPOL">      0.00000000      0.00000000      0.00000000</v>
   <v name="AVECCONST">      0.00000000      0.00000000      0.00000000</v>
  </separator>
  <separator name="response functions" >
   <i type="logical" name="LADDER"> F  </i>
   <i type="logical" name="LFXC"> F  </i>
   <i type="logical" name="LHARTREE"> T  </i>
   <i type="int" name="IBSE">     0</i>
   <i type="logical" name="LTCTE"> F  </i>
   <i type="logical" name="LTETE"> F  </i>
   <i type="logical" name="LTRIPLET"> F  </i>
   <i type="logical" name="LFXCEPS"> F  </i>
   <i type="logical" name="LFXHEG"> F  </i>
   <i type="logical" name="L2ORDER"> F  </i>
   <i type="logical" name="LUSEW"> F  </i>
   <i name="ENCUTGW">     -2.00000000</i>
   <i name="ENCUTGWSOFT">     -2.00000000</i>
   <i name="ENCUTLF">     -1.00000000</i>
   <i type="int" name="LMAXMP2">    -1</i>
   <i name="SCISSOR">      0.00000000</i>
   <i type="int" name="NOMEGA">     0</i>
   <i type="int" name="NOMEGAR">     0</i>
   <i type="int" name="NBANDSGW">    -1</i>
   <i type="int" name="NBANDSO">    -1</i>
   <i type="int" name="NBANDSV">    -1</i>
   <i type="int" name="NELM">   100</i>
   <i type="int" name="DIM">     3</i>
   <i type="int" name="ANTIRES">     0</i>
   <i name="OMEGAMAX">    -30.00000000</i>
   <i name="OMEGAMIN">    -30.00000000</i>
   <i name="OMEGATL">   -200.00000000</i>
   <i type="int" name="OMEGAGRID">     0</i>
   <i name="CSHIFT">     -0.10000000</i>
   <i type="logical" name="SELFENERGY"> F  </i>
   <i type="logical" name="LSPECTRAL"> F  </i>
   <i type="logical" name="ODDONLYGW"> F  </i>
   <i type="logical" name="EVENONLYGW"> F  </i>
   <i type="int" name="NKREDLFX">     1</i>
   <i type="int" name="NKREDLFY">     1</i>
   <i type="int" name="NKREDLFZ">     1</i>
   <i type="int" name="MAXMEM">  1800</i>
   <i type="int" name="TELESCOPE">     0</i>
   <i type="int" name="TAUPAR">     1</i>
  </separator>
  <separator name="External order field" >
   <i name="OFIELD_KAPPA">      0.00000000</i>
   <v name="OFIELD_K">      0.00000000      0.00000000      0.00000000</v>
   <i name="OFIELD_Q6_NEAR">      0.00000000</i>
   <i name="OFIELD_Q6_FAR">      0.00000000</i>
   <i name="OFIELD_A">      0.00000000</i>
  </separator>
 </parameters>
 <atominfo>
  <atoms>       4 </atoms>
  <types>       1 </types>
  <array name="atoms" >
   <dimension dim="1">ion</dimension>
   <field type="string">element</field>
   <field type="int">atomtype</field>
   <set>
    <rc><c>C </c><c>   1</c></rc>
    <rc><c>C </c><c>   1</c></rc>
    <rc><c>C </c><c>   1</c></rc>
    <rc><c>C </c><c>   1</c></rc>
   </set>
  </array>
  <array name="atomtypes" >
   <dimension dim="1">type</dimension>
   <field type="int">atomspertype</field>
   <field type="string">element</field>
   <field>mass</field>
   <field>valence</field>
   <field type="string">pseudopotential</field>
   <set>
    <rc><c>   4</c><c>C </c><c>     12.01100000</c><c>      4.00000000</c><c> PAW_PBE C 08Apr2002                    </c></rc>
   </set>
  </array>
 </atominfo>
 <structure name="initialpos" >
  <crystal>
   <varray name="basis" >
    <v>       4.40253380       0.00000000       0.00000000 </v>
    <v>       0.00000000       2.45534040       0.00000000 </v>
    <v>       0.00000000       0.00000000      19.50447553 </v>
   </varray>
   <i name="volume">    210.83790140 </i>
   <varray name="rec_basis" >
    <v>       0.22714192       0.00000000       0.00000000 </v>
    <v>       0.00000000       0.40727550       0.00000000 </v>
    <v>       0.00000000       0.00000000       0.05127028 </v>
   </varray>
  </crystal>
  <varray name="positions" >
   <v>       0.99938979       0.00000000       0.00000000 </v>
   <v>       0.16727688       0.50000000       0.00000000 </v>
   <v>       0.49938979       0.50000000       0.00000000 </v>
   <v>       0.66727688       0.00000000       0.00000000 </v>
  </varray>
 </structure>
 <calculation>
  <scstep>
   <time name="dav">  286.12  287.44</time>
   <time name="total">  288.65  289.99</time>
   <energy>
    <i name="alphaZ">      6.18334092 </i>
    <i name="ewald">   2421.06234082 </i>
    <i name="hartreedc">  -2851.40584830 </i>
    <i name="XCdc">     54.75808764 </i>
    <i name="pawpsdc">    151.32577238 </i>
    <i name="pawaedc">   -155.92769107 </i>
    <i name="eentropy">     -0.00201101 </i>
    <i name="bandstr">    -28.59594533 </i>
    <i name="atom">    588.62352690 </i>
    <i name="e_fr_energy">    186.02157296 </i>
    <i name="e_wo_entrp">    186.02358397 </i>
    <i name="e_0_energy">    186.02257846 </i>
   </energy>
  </scstep>
  <scstep>
   <time name="dav">  433.67  435.96</time>
   <time name="total">  433.67  435.97</time>
   <energy>
    <i name="e_fr_energy">     -9.20229926 </i>
    <i name="e_wo_entrp">     -9.20164800 </i>
    <i name="e_0_energy">     -9.20197363 </i>
   </energy>
  </scstep>
  <scstep>
   <time name="dav">  333.01  333.89</time>
   <time name="total">  362.84  363.75</time>
   <energy>
    <i name="e_fr_energy">    -38.00134297 </i>
    <i name="e_wo_entrp">    -38.00134296 </i>
    <i name="e_0_energy">    -38.00134296 </i>
   </energy>
  </scstep>
  <scstep>
   <time name="diag">   78.04   78.47</time>
   <time name="diis">  335.74  338.19</time>
   <time name="orth">    3.07    3.10</time>
   <time name="total">  448.86  451.96</time>
   <energy>
    <i name="e_fr_energy">    -37.52767660 </i>
    <i name="e_wo_entrp">    -37.52767660 </i>
    <i name="e_0_energy">    -37.52767660 </i>
   </energy>
  </scstep>
  <scstep>
   <time name="diag">   77.77   78.41</time>
   <time name="diis">  333.06  335.26</time>
   <time name="orth">    3.08    3.10</time>
   <time name="total">  445.73  448.92</time>
   <energy>
    <i name="e_fr_energy">    -36.83620254 </i>
    <i name="e_wo_entrp">    -36.83620254 </i>
    <i name="e_0_energy">    -36.83620254 </i>
   </energy>
  </scstep>
  <scstep>
   <time name="diag">   77.88   78.39</time>
   <time name="diis">  377.28  380.15</time>
   <time name="orth">    3.07    3.07</time>
   <time name="total">  490.25  494.02</time>
   <energy>
    <i name="e_fr_energy">    -36.83838621 </i>
    <i name="e_wo_entrp">    -36.83838621 </i>
    <i name="e_0_energy">    -36.83838621 </i>
   </energy>
  </scstep>
  <scstep>
   <time name="diag">   77.80   78.54</time>
   <time name="diis">  333.25  335.52</time>
   <time name="orth">    3.07    3.08</time>
   <time name="total">  445.85  449.04</time>
   <energy>
    <i name="e_fr_energy">    -36.82970094 </i>
    <i name="e_wo_entrp">    -36.82970094 </i>
    <i name="e_0_energy">    -36.82970094 </i>
   </energy>
  </scstep>
  <scstep>
   <time name="diag">   77.64   78.40</time>
   <time name="diis">  332.24  335.22</time>
   <time name="orth">    3.08    3.10</time>
   <time name="total">  444.76  448.94</time>
   <energy>
    <i name="e_fr_energy">    -36.82517348 </i>
    <i name="e_wo_entrp">    -36.82517348 </i>
    <i name="e_0_energy">    -36.82517348 </i>
   </energy>
  </scstep>
  <scstep>
   <time name="diag">   77.92   78.42</time>
   <time name="diis">  317.14  319.58</time>
   <time name="orth">    3.08    3.10</time>
   <time name="total">  430.16  433.39</time>
   <energy>
    <i name="e_fr_energy">    -36.82495749 </i>
    <i name="e_wo_entrp">    -36.82495749 </i>
    <i name="e_0_energy">    -36.82495749 </i>
   </energy>
  </scstep>
  <scstep>
   <time name="diag">   78.03   78.36</time>
   <time name="diis">  319.48  320.29</time>
   <time name="orth">    3.07    3.09</time>
   <time name="total">  432.80  434.04</time>
   <energy>
    <i name="e_fr_energy">    -36.82484913 </i>
    <i name="e_wo_entrp">    -36.82484913 </i>
    <i name="e_0_energy">    -36.82484913 </i>
   </energy>
  </scstep>
  <scstep>
   <time name="diag">   78.36   78.46</time>
   <time name="diis">  322.48  322.65</time>
   <time name="orth">    3.08    3.10</time>
   <time name="total">  436.36  436.65</time>
   <energy>
    <i name="e_fr_energy">    -36.82704227 </i>
    <i name="e_wo_entrp">    -36.82704227 </i>
    <i name="e_0_energy">    -36.82704227 </i>
   </energy>
  </scstep>
  <scstep>
   <time name="diag">   78.30   78.44</time>
   <time name="diis">  322.28  322.58</time>
   <time name="orth">    3.07    3.07</time>
   <time name="total">  435.52  436.15</time>
   <energy>
    <i name="e_fr_energy">    -36.82757173 </i>
    <i name="e_wo_entrp">    -36.82757173 </i>
    <i name="e_0_energy">    -36.82757173 </i>
   </energy>
  </scstep>
  <scstep>
   <time name="diag">   77.95   78.37</time>
   <time name="diis">  328.88  331.54</time>
   <time name="orth">    3.08    3.08</time>
   <time name="total">  442.15  445.49</time>
   <energy>
    <i name="e_fr_energy">    -36.82782887 </i>
    <i name="e_wo_entrp">    -36.82782887 </i>
    <i name="e_0_energy">    -36.82782887 </i>
   </energy>
  </scstep>
  <scstep>
   <time name="diag">   77.98   78.37</time>
   <time name="diis">  326.42  327.59</time>
   <time name="orth">    3.08    3.08</time>
   <time name="total">  439.17  441.02</time>
   <energy>
    <i name="e_fr_energy">    -36.82791216 </i>
    <i name="e_wo_entrp">    -36.82791216 </i>
    <i name="e_0_energy">    -36.82791216 </i>
   </energy>
  </scstep>
  <scstep>
   <time name="diag">   77.85   78.39</time>
   <time name="diis">  318.35  319.92</time>
   <time name="orth">    3.07    3.07</time>
   <time name="total">  431.35  433.70</time>
   <energy>
    <i name="e_fr_energy">    -36.82792654 </i>
    <i name="e_wo_entrp">    -36.82792654 </i>
    <i name="e_0_energy">    -36.82792654 </i>
   </energy>
  </scstep>
  <scstep>
   <time name="diag">   77.69   78.36</time>
   <time name="diis">  315.53  319.14</time>
   <time name="orth">    3.07    3.10</time>
   <time name="total">  428.02  432.66</time>
   <energy>
    <i name="e_fr_energy">    -36.82794040 </i>
    <i name="e_wo_entrp">    -36.82794040 </i>
    <i name="e_0_energy">    -36.82794040 </i>
   </energy>
  </scstep>
  <scstep>
   <time name="diag">   77.67   78.36</time>
   <time name="diis">  316.76  319.75</time>
   <time name="orth">    3.08    3.08</time>
   <time name="total">  429.17  433.14</time>
   <energy>
    <i name="e_fr_energy">    -36.82794656 </i>
    <i name="e_wo_entrp">    -36.82794656 </i>
    <i name="e_0_energy">    -36.82794656 </i>
   </energy>
  </scstep>
  <scstep>
   <time name="diag">   78.23   78.47</time>
   <time name="diis">  325.14  325.23</time>
   <time name="orth">    3.08    3.08</time>
   <time name="total">  438.54  439.01</time>
   <energy>
    <i name="e_fr_energy">    -36.82794765 </i>
    <i name="e_wo_entrp">    -36.82794765 </i>
    <i name="e_0_energy">    -36.82794765 </i>
   </energy>
  </scstep>
  <scstep>
   <time name="diag">   77.99   78.42</time>
   <time name="diis">  292.11  294.44</time>
   <time name="orth">    3.07    3.09</time>
   <time name="total">  404.97  408.11</time>
   <energy>
    <i name="e_fr_energy">    -36.82794836 </i>
    <i name="e_wo_entrp">    -36.82794836 </i>
    <i name="e_0_energy">    -36.82794836 </i>
   </energy>
  </scstep>
  <scstep>
   <time name="diag">   77.76   78.44</time>
   <time name="diis">  253.98  255.91</time>
   <time name="orth">    3.08    3.10</time>
   <time name="total">  366.75  369.71</time>
   <energy>
    <i name="e_fr_energy">    -36.82794840 </i>
    <i name="e_wo_entrp">    -36.82794840 </i>
    <i name="e_0_energy">    -36.82794840 </i>
   </energy>
  </scstep>
  <scstep>
   <time name="diag">   77.95   78.46</time>
   <time name="diis">  240.56  242.41</time>
   <time name="orth">    3.08    3.09</time>
   <time name="total">  353.50  356.16</time>
   <energy>
    <i name="e_fr_energy">    -36.82794841 </i>
    <i name="e_wo_entrp">    -36.82794841 </i>
    <i name="e_0_energy">    -36.82794841 </i>
   </energy>
  </scstep>
  <scstep>
   <time name="diag">   77.89   78.45</time>
   <time name="diis">  220.67  222.61</time>
   <time name="orth">    3.07    3.07</time>
   <time name="total">  333.92  336.56</time>
   <energy>
    <i name="e_fr_energy">    -36.82794841 </i>
    <i name="e_wo_entrp">    -36.82794841 </i>
    <i name="e_0_energy">    -36.82794841 </i>
   </energy>
  </scstep>
  <scstep>
   <time name="diag">   78.27   78.40</time>
   <time name="diis">  213.38  213.75</time>
   <time name="orth">    3.09    3.09</time>
   <time name="total">  327.00  327.61</time>
   <energy>
    <i name="e_fr_energy">    -36.82794841 </i>
    <i name="e_wo_entrp">    -36.82794841 </i>
    <i name="e_0_energy">    -36.82794841 </i>
   </energy>
  </scstep>
  <scstep>
   <time name="diag">   78.21   78.34</time>
   <time name="diis">  199.78  201.43</time>
   <time name="orth">    3.09    3.10</time>
   <time name="total">  312.77  314.84</time>
   <energy>
    <i name="e_fr_energy">    -36.82794841 </i>
    <i name="e_wo_entrp">    -36.82794841 </i>
    <i name="e_0_energy">    -36.82794841 </i>
   </energy>
  </scstep>
  <scstep>
   <time name="diag">   77.65   78.30</time>
   <time name="diis">  189.73  191.67</time>
   <time name="orth">    3.07    3.09</time>
   <time name="total">  302.69  305.58</time>
   <energy>
    <i name="e_fr_energy">    -36.82794841 </i>
    <i name="e_wo_entrp">    -36.82794841 </i>
    <i name="e_0_energy">    -36.82794841 </i>
   </energy>
  </scstep>
  <scstep>
   <time name="diag">   77.71   78.37</time>
   <time name="diis">  184.26  185.70</time>
   <time name="orth">    3.08    3.09</time>
   <time name="total">  296.64  299.00</time>
   <energy>
    <i name="e_fr_energy">    -36.82794841 </i>
    <i name="e_wo_entrp">    -36.82794841 </i>
    <i name="e_0_energy">    -36.82794841 </i>
   </energy>
  </scstep>
  <scstep>
   <time name="diag">   78.23   78.31</time>
   <time name="diis">  187.02  187.20</time>
   <time name="orth">    3.08    3.09</time>
   <time name="total">  300.68  301.02</time>
   <energy>
    <i name="e_fr_energy">    -36.82794841 </i>
    <i name="e_wo_entrp">    -36.82794841 </i>
    <i name="e_0_energy">    -36.82794841 </i>
   </energy>
  </scstep>
  <scstep>
   <time name="diag">   78.26   78.35</time>
   <time name="diis">  182.66  182.78</time>
   <time name="orth">    3.06    3.07</time>
   <time name="total">  296.41  296.78</time>
   <energy>
    <i name="e_fr_energy">    -36.82794841 </i>
    <i name="e_wo_entrp">    -36.82794841 </i>
    <i name="e_0_energy">    -36.82794841 </i>
   </energy>
  </scstep>
  <scstep>
   <time name="diag">   77.92   78.34</time>
   <time name="diis">  175.65  176.56</time>
   <time name="orth">    3.07    3.07</time>
   <time name="total">  288.70  290.39</time>
   <energy>
    <i name="e_fr_energy">    -36.82794841 </i>
    <i name="e_wo_entrp">    -36.82794841 </i>
    <i name="e_0_energy">    -36.82794841 </i>
   </energy>
  </scstep>
  <scstep>
   <time name="diag">   77.84   78.40</time>
   <time name="diis">  172.17  173.66</time>
   <time name="orth">    3.08    3.09</time>
   <time name="total">  284.70  287.05</time>
   <energy>
    <i name="e_fr_energy">    -36.82794841 </i>
    <i name="e_wo_entrp">    -36.82794841 </i>
    <i name="e_0_energy">    -36.82794841 </i>
   </energy>
  </scstep>
  <scstep>
   <time name="diag">   78.04   78.35</time>
   <time name="diis">  171.95  172.44</time>
   <time name="orth">    3.08    3.09</time>
   <time name="total">  284.83  285.89</time>
   <energy>
    <i name="e_fr_energy">    -36.82794841 </i>
    <i name="e_wo_entrp">    -36.82794841 </i>
    <i name="e_0_energy">    -36.82794841 </i>
   </energy>
  </scstep>
  <scstep>
   <time name="diag">   77.83   78.34</time>
   <time name="diis">  170.57  170.74</time>
   <time name="orth">    3.09    3.09</time>
   <time name="total">  283.72  284.43</time>
   <energy>
    <i name="e_fr_energy">    -36.82794841 </i>
    <i name="e_wo_entrp">    -36.82794841 </i>
    <i name="e_0_energy">    -36.82794841 </i>
   </energy>
  </scstep>
  <scstep>
   <time name="diag">   78.30   78.41</time>
   <time name="diis">  169.55  169.63</time>
   <time name="orth">    3.07    3.07</time>
   <time name="total">  283.36  283.60</time>
   <energy>
    <i name="e_fr_energy">    -36.82794841 </i>
    <i name="e_wo_entrp">    -36.82794841 </i>
    <i name="e_0_energy">    -36.82794841 </i>
   </energy>
  </scstep>
  <scstep>
   <time name="diag">   78.05   78.43</time>
   <time name="diis">  164.19  164.38</time>
   <time name="orth">    3.08    3.10</time>
   <time name="total">  277.36  278.03</time>
   <energy>
    <i name="e_fr_energy">    -36.82794841 </i>
    <i name="e_wo_entrp">    -36.82794841 </i>
    <i name="e_0_energy">    -36.82794841 </i>
   </energy>
  </scstep>
  <scstep>
   <time name="diag">   78.22   78.35</time>
   <time name="diis">  162.81  162.85</time>
   <time name="orth">    3.11    3.13</time>
   <time name="total">  276.29  276.52</time>
   <energy>
    <i name="e_fr_energy">    -36.82794841 </i>
    <i name="e_wo_entrp">    -36.82794841 </i>
    <i name="e_0_energy">    -36.82794841 </i>
   </energy>
  </scstep>
  <scstep>
   <time name="diag">   78.32   78.38</time>
   <time name="diis">  162.06  162.18</time>
   <time name="orth">    3.09    3.10</time>
   <time name="total">  275.41  275.69</time>
   <energy>
    <i name="e_fr_energy">    -36.82794841 </i>
    <i name="e_wo_entrp">    -36.82794841 </i>
    <i name="e_0_energy">    -36.82794841 </i>
   </energy>
  </scstep>
  <scstep>
   <time name="diag">   77.82   78.39</time>
   <time name="diis">  159.92  160.88</time>
   <time name="orth">    3.08    3.08</time>
   <time name="total">  272.69  274.54</time>
   <energy>
    <i name="e_fr_energy">    -36.82794841 </i>
    <i name="e_wo_entrp">    -36.82794841 </i>
    <i name="e_0_energy">    -36.82794841 </i>
   </energy>
  </scstep>
  <scstep>
   <time name="diag">   77.89   78.41</time>
   <time name="diis">  159.31  160.65</time>
   <time name="orth">    3.08    3.08</time>
   <time name="total">  272.52  274.76</time>
   <energy>
    <i name="e_fr_energy">    -36.82794841 </i>
    <i name="e_wo_entrp">    -36.82794841 </i>
    <i name="e_0_energy">    -36.82794841 </i>
   </energy>
  </scstep>
  <scstep>
   <time name="diag">   78.05   78.42</time>
   <time name="diis">  159.53  159.67</time>
   <time name="orth">    3.07    3.09</time>
   <time name="total">  273.14  273.72</time>
   <energy>
    <i name="e_fr_energy">    -36.82794841 </i>
    <i name="e_wo_entrp">    -36.82794841 </i>
    <i name="e_0_energy">    -36.82794841 </i>
   </energy>
  </scstep>
  <scstep>
   <time name="diag">   78.29   78.38</time>
   <time name="diis">  158.58  158.73</time>
   <time name="orth">    3.09    3.09</time>
   <time name="total">  272.07  272.44</time>
   <energy>
    <i name="e_fr_energy">    -36.82794841 </i>
    <i name="e_wo_entrp">    -36.82794841 </i>
    <i name="e_0_energy">    -36.82794841 </i>
   </energy>
  </scstep>
  <scstep>
   <time name="diag">   77.64   78.37</time>
   <time name="diis">  156.75  158.30</time>
   <time name="orth">    3.07    3.09</time>
   <time name="total">  269.37  272.01</time>
   <energy>
    <i name="e_fr_energy">    -36.82794841 </i>
    <i name="e_wo_entrp">    -36.82794841 </i>
    <i name="e_0_energy">    -36.82794841 </i>
   </energy>
  </scstep>
  <scstep>
   <time name="diag">   77.65   78.34</time>
   <time name="diis">  156.23  157.64</time>
   <time name="orth">    3.07    3.07</time>
   <time name="total">  268.74  271.17</time>
   <energy>
    <i name="e_fr_energy">    -36.82794841 </i>
    <i name="e_wo_entrp">    -36.82794841 </i>
    <i name="e_0_energy">    -36.82794841 </i>
   </energy>
  </scstep>
  <scstep>
   <time name="diag">   77.91   78.34</time>
   <time name="diis">  157.60  157.77</time>
   <time name="orth">    3.07    3.09</time>
   <time name="total">  271.07  271.77</time>
   <energy>
    <i name="e_fr_energy">    -36.82794841 </i>
    <i name="e_wo_entrp">    -36.82794841 </i>
    <i name="e_0_energy">    -36.82794841 </i>
   </energy>
  </scstep>
  <scstep>
   <time name="diag">   78.27   78.51</time>
   <time name="diis">  156.60  157.70</time>
   <time name="orth">    3.07    3.09</time>
   <time name="total">  269.97  271.60</time>
   <energy>
    <i name="e_fr_energy">    -36.82794841 </i>
    <i name="e_wo_entrp">    -36.82794841 </i>
    <i name="e_0_energy">    -36.82794841 </i>
   </energy>
  </scstep>
  <scstep>
   <time name="diag">   77.91   78.52</time>
   <time name="diis">  155.39  156.80</time>
   <time name="orth">    3.07    3.09</time>
   <time name="total">  268.66  271.06</time>
   <energy>
    <i name="e_fr_energy">    -36.82794841 </i>
    <i name="e_wo_entrp">    -36.82794841 </i>
    <i name="e_0_energy">    -36.82794841 </i>
   </energy>
  </scstep>
  <scstep>
   <time name="diag">   78.07   78.49</time>
   <time name="diis">  155.51  155.62</time>
   <time name="orth">    3.08    3.09</time>
   <time name="total">  268.91  269.53</time>
   <energy>
    <i name="e_fr_energy">    -36.82794841 </i>
    <i name="e_wo_entrp">    -36.82794841 </i>
    <i name="e_0_energy">    -36.82794841 </i>
   </energy>
  </scstep>
  <scstep>
   <time name="diag">   78.10   78.50</time>
   <time name="diis">  155.02  155.05</time>
   <time name="orth">    3.09    3.09</time>
   <time name="total">  268.44  268.90</time>
   <energy>
    <i name="e_fr_energy">    -36.82794841 </i>
    <i name="e_wo_entrp">    -36.82794841 </i>
    <i name="e_0_energy">    -36.82794841 </i>
   </energy>
  </scstep>
  <scstep>
   <time name="diag">   78.58   78.60</time>
   <time name="diis">  154.78  154.81</time>
   <time name="orth">    3.09    3.09</time>
   <time name="total">  268.88  268.96</time>
   <energy>
    <i name="e_fr_energy">    -36.82794841 </i>
    <i name="e_wo_entrp">    -36.82794841 </i>
    <i name="e_0_energy">    -36.82794841 </i>
   </energy>
  </scstep>
  <scstep>
   <time name="diag">   78.45   78.47</time>
   <time name="diis">  154.61  154.64</time>
   <time name="orth">    3.07    3.07</time>
   <time name="total">  268.19  268.26</time>
   <energy>
    <i name="e_fr_energy">    -36.82794841 </i>
    <i name="e_wo_entrp">    -36.82794841 </i>
    <i name="e_0_energy">    -36.82794841 </i>
   </energy>
  </scstep>
  <scstep>
   <time name="diag">   78.51   78.53</time>
   <time name="diis">  153.72  153.75</time>
   <time name="orth">    3.09    3.09</time>
   <time name="total">  267.49  267.56</time>
   <energy>
    <i name="e_fr_energy">    -36.82794841 </i>
    <i name="e_wo_entrp">    -36.82794841 </i>
    <i name="e_0_energy">    -36.82794841 </i>
   </energy>
  </scstep>
  <scstep>
   <time name="diag">   78.44   78.46</time>
   <time name="diis">  154.40  154.44</time>
   <time name="orth">    3.07    3.07</time>
   <time name="total">  268.18  268.25</time>
   <energy>
    <i name="e_fr_energy">    -36.82794841 </i>
    <i name="e_wo_entrp">    -36.82794841 </i>
    <i name="e_0_energy">    -36.82794841 </i>
   </energy>
  </scstep>
  <scstep>
   <time name="diag">   78.44   78.48</time>
   <time name="diis">  154.84  154.96</time>
   <time name="orth">    3.07    3.07</time>
   <time name="total">  268.72  269.05</time>
   <energy>
    <i name="e_fr_energy">    -36.82794841 </i>
    <i name="e_wo_entrp">    -36.82794841 </i>
    <i name="e_0_energy">    -36.82794841 </i>
   </energy>
  </scstep>
  <scstep>
   <time name="diag">   78.07   78.43</time>
   <time name="diis">  151.84  152.54</time>
   <time name="orth">    3.07    3.07</time>
   <time name="total">  265.10  266.32</time>
   <energy>
    <i name="e_fr_energy">    -36.82794841 </i>
    <i name="e_wo_entrp">    -36.82794841 </i>
    <i name="e_0_energy">    -36.82794841 </i>
   </energy>
  </scstep>
  <scstep>
   <time name="diag">   78.06   78.44</time>
   <time name="diis">  152.20  152.26</time>
   <time name="orth">    3.09    3.09</time>
   <time name="total">  265.56  266.21</time>
   <energy>
    <i name="e_fr_energy">    -36.82794841 </i>
    <i name="e_wo_entrp">    -36.82794841 </i>
    <i name="e_0_energy">    -36.82794841 </i>
   </energy>
  </scstep>
  <scstep>
   <time name="diag">   78.05   78.47</time>
   <time name="diis">  150.14  151.19</time>
   <time name="orth">    3.07    3.09</time>
   <time name="total">  263.67  265.51</time>
   <energy>
    <i name="e_fr_energy">    -36.82794841 </i>
    <i name="e_wo_entrp">    -36.82794841 </i>
    <i name="e_0_energy">    -36.82794841 </i>
   </energy>
  </scstep>
  <scstep>
   <time name="diag">   78.46   78.47</time>
   <time name="diis">  150.26  150.29</time>
   <time name="orth">    3.09    3.09</time>
   <time name="total">  264.24  264.30</time>
   <energy>
    <i name="e_fr_energy">    -36.82794841 </i>
    <i name="e_wo_entrp">    -36.82794841 </i>
    <i name="e_0_energy">    -36.82794841 </i>
   </energy>
  </scstep>
  <scstep>
   <time name="diag">   78.50   78.52</time>
   <time name="diis">  149.24  149.26</time>
   <time name="orth">    3.07    3.07</time>
   <time name="total">  262.89  262.96</time>
   <energy>
    <i name="e_fr_energy">    -36.82794841 </i>
    <i name="e_wo_entrp">    -36.82794841 </i>
    <i name="e_0_energy">    -36.82794841 </i>
   </energy>
  </scstep>
  <scstep>
   <time name="diag">   78.45   78.47</time>
   <time name="diis">  148.60  148.67</time>
   <time name="orth">    3.09    3.09</time>
   <time name="total">  262.52  262.63</time>
   <energy>
    <i name="e_fr_energy">    -36.82794841 </i>
    <i name="e_wo_entrp">    -36.82794841 </i>
    <i name="e_0_energy">    -36.82794841 </i>
   </energy>
  </scstep>
  <scstep>
   <time name="diag">   78.56   78.58</time>
   <time name="diis">  148.48  148.51</time>
   <time name="orth">    3.07    3.07</time>
   <time name="total">  261.71  261.77</time>
   <energy>
    <i name="e_fr_energy">    -36.82794841 </i>
    <i name="e_wo_entrp">    -36.82794841 </i>
    <i name="e_0_energy">    -36.82794841 </i>
   </energy>
  </scstep>
  <scstep>
   <time name="diag">   78.41   78.43</time>
   <time name="diis">  147.52  147.55</time>
   <time name="orth">    3.07    3.07</time>
   <time name="total">  261.37  261.48</time>
   <energy>
    <i name="e_fr_energy">    -36.82794841 </i>
    <i name="e_wo_entrp">    -36.82794841 </i>
    <i name="e_0_energy">    -36.82794841 </i>
   </energy>
  </scstep>
  <scstep>
   <time name="diag">   78.41   78.43</time>
   <time name="diis">  148.30  148.34</time>
   <time name="orth">    3.09    3.09</time>
   <time name="total">  261.84  261.90</time>
   <energy>
    <i name="e_fr_energy">    -36.82794841 </i>
    <i name="e_wo_entrp">    -36.82794841 </i>
    <i name="e_0_energy">    -36.82794841 </i>
   </energy>
  </scstep>
  <scstep>
   <time name="diag">   78.16   78.44</time>
   <time name="diis">  153.06  153.14</time>
   <time name="orth">    3.07    3.07</time>
   <time name="total">  267.05  267.46</time>
   <energy>
    <i name="e_fr_energy">    -36.82794841 </i>
    <i name="e_wo_entrp">    -36.82794841 </i>
    <i name="e_0_energy">    -36.82794841 </i>
   </energy>
  </scstep>
  <scstep>
   <time name="diag">   78.46   78.49</time>
   <time name="diis">  152.12  152.16</time>
   <time name="orth">    3.09    3.09</time>
   <time name="total">  266.00  266.10</time>
   <energy>
    <i name="e_fr_energy">    -36.82794841 </i>
    <i name="e_wo_entrp">    -36.82794841 </i>
    <i name="e_0_energy">    -36.82794841 </i>
   </energy>
  </scstep>
  <scstep>
   <time name="diag">   78.43   78.46</time>
   <time name="diis">  152.55  152.63</time>
   <time name="orth">    3.09    3.09</time>
   <time name="total">  266.16  266.33</time>
   <energy>
    <i name="e_fr_energy">    -36.82794841 </i>
    <i name="e_wo_entrp">    -36.82794841 </i>
    <i name="e_0_energy">    -36.82794841 </i>
   </energy>
  </scstep>
  <scstep>
   <time name="diag">   78.45   78.48</time>
   <time name="diis">  146.75  146.77</time>
   <time name="orth">    3.09    3.09</time>
   <time name="total">  260.14  260.21</time>
   <energy>
    <i name="e_fr_energy">    -36.82794841 </i>
    <i name="e_wo_entrp">    -36.82794841 </i>
    <i name="e_0_energy">    -36.82794841 </i>
   </energy>
  </scstep>
  <scstep>
   <time name="diag">   77.96   78.48</time>
   <time name="diis">  145.08  145.34</time>
   <time name="orth">    3.08    3.09</time>
   <time name="total">  258.47  259.36</time>
   <energy>
    <i name="e_fr_energy">    -36.82794841 </i>
    <i name="e_wo_entrp">    -36.82794841 </i>
    <i name="e_0_energy">    -36.82794841 </i>
   </energy>
  </scstep>
  <scstep>
   <time name="diag">   78.09   78.50</time>
   <time name="diis">  144.12  144.75</time>
   <time name="orth">    3.07    3.07</time>
   <time name="total">  257.41  258.62</time>
   <energy>
    <i name="e_fr_energy">    -36.82794841 </i>
    <i name="e_wo_entrp">    -36.82794841 </i>
    <i name="e_0_energy">    -36.82794841 </i>
   </energy>
  </scstep>
  <scstep>
   <time name="diag">   78.11   78.47</time>
   <time name="diis">  144.42  144.57</time>
   <time name="orth">    3.07    3.07</time>
   <time name="total">  228.03  228.57</time>
   <energy>
    <i name="alphaZ">      6.18334092 </i>
    <i name="ewald">   2421.06234082 </i>
    <i name="hartreedc">  -2915.41649519 </i>
    <i name="XCdc">     57.06151926 </i>
    <i name="pawpsdc">    267.12155534 </i>
    <i name="pawaedc">   -272.22543611 </i>
    <i name="eentropy">     -0.00000000 </i>
    <i name="bandstr">   -189.23830035 </i>
    <i name="atom">    588.62352690 </i>
    <i name="e_fr_energy">    -36.82794841 </i>
    <i name="e_wo_entrp">    -36.82794841 </i>
    <i name="e_0_energy">    -36.82794841 </i>
   </energy>
  </scstep>
  <structure>
   <crystal>
    <varray name="basis" >
     <v>       4.40253380       0.00000000       0.00000000 </v>
     <v>       0.00000000       2.45534040       0.00000000 </v>
     <v>       0.00000000       0.00000000      19.50447553 </v>
    </varray>
    <i name="volume">    210.83790140 </i>
    <varray name="rec_basis" >
     <v>       0.22714192       0.00000000       0.00000000 </v>
     <v>       0.00000000       0.40727550       0.00000000 </v>
     <v>       0.00000000       0.00000000       0.05127028 </v>
    </varray>
   </crystal>
   <varray name="positions" >
    <v>       0.99938979       0.00000000       0.00000000 </v>
    <v>       0.16727688       0.50000000       0.00000000 </v>
    <v>       0.49938979       0.50000000       0.00000000 </v>
    <v>       0.66727688       0.00000000       0.00000000 </v>
   </varray>
  </structure>
  <varray name="forces" >
   <v>      -0.00080752      -0.00000000      -0.00000000 </v>
   <v>       0.00080752       0.00000000       0.00000000 </v>
   <v>      -0.00080752       0.00000000      -0.00000000 </v>
   <v>       0.00080752      -0.00000000       0.00000000 </v>
  </varray>
  <varray name="stress" >
   <v>     -49.44311768       0.00000000       0.00000000 </v>
   <v>       0.00000000       0.00783244       0.00000000 </v>
   <v>       0.00000000       0.00000000      -0.01012837 </v>
  </varray>
  <energy>
   <i name="e_fr_energy">    -36.82794841 </i>
   <i name="e_wo_entrp">    -36.82794841 </i>
   <i name="e_0_energy">     -0.00000000 </i>
  </energy>
  <time name="totalsc">21844.7821940.44</time>
 </calculation>
 <calculation>
  <scstep>
   <time name="dav">  305.16  305.26</time>
   <time name="total">  336.76  336.87</time>
   <energy>
    <i name="alphaZ">      6.18334092 </i>
    <i name="ewald">   2421.06133549 </i>
    <i name="hartreedc">  -2915.41605202 </i>
    <i name="XCdc">     57.06149054 </i>
    <i name="pawpsdc">    267.12155540 </i>
    <i name="pawaedc">   -272.22543617 </i>
    <i name="eentropy">     -0.00000000 </i>
    <i name="bandstr">   -189.23770930 </i>
    <i name="atom">    588.62352690 </i>
    <i name="e_fr_energy">    -36.82794824 </i>
    <i name="e_wo_entrp">    -36.82794824 </i>
    <i name="e_0_energy">    -36.82794824 </i>
   </energy>
  </scstep>
  <scstep>
   <time name="diag">   78.52   78.54</time>
   <time name="diis">  322.26  322.33</time>
   <time name="orth">    3.08    3.08</time>
   <time name="total">  436.18  436.28</time>
   <energy>
    <i name="e_fr_energy">    -36.82794825 </i>
    <i name="e_wo_entrp">    -36.82794825 </i>
    <i name="e_0_energy">    -36.82794825 </i>
   </energy>
  </scstep>
  <scstep>
   <time name="diag">   78.42   78.44</time>
   <time name="diis">  323.98  324.37</time>
   <time name="orth">    3.10    3.10</time>
   <time name="total">  437.61  438.04</time>
   <energy>
    <i name="e_fr_energy">    -36.82794823 </i>
    <i name="e_wo_entrp">    -36.82794823 </i>
    <i name="e_0_energy">    -36.82794823 </i>
   </energy>
  </scstep>
  <scstep>
   <time name="diag">   77.93   78.46</time>
   <time name="diis">  328.56  330.75</time>
   <time name="orth">    3.08    3.10</time>
   <time name="total">  441.75  444.69</time>
   <energy>
    <i name="e_fr_energy">    -36.82794823 </i>
    <i name="e_wo_entrp">    -36.82794823 </i>
    <i name="e_0_energy">    -36.82794823 </i>
   </energy>
  </scstep>
  <scstep>
   <time name="diag">   77.96   78.44</time>
   <time name="diis">  226.91  228.84</time>
   <time name="orth">    3.08    3.08</time>
   <time name="total">  339.60  342.28</time>
   <energy>
    <i name="e_fr_energy">    -36.82794823 </i>
    <i name="e_wo_entrp">    -36.82794823 </i>
    <i name="e_0_energy">    -36.82794823 </i>
   </energy>
  </scstep>
  <scstep>
   <time name="diag">   77.99   78.46</time>
   <time name="diis">  213.66  215.62</time>
   <time name="orth">    3.08    3.08</time>
   <time name="total">  297.13  299.62</time>
   <energy>
    <i name="alphaZ">      6.18334092 </i>
    <i name="ewald">   2421.06133549 </i>
    <i name="hartreedc">  -2915.41568403 </i>
    <i name="XCdc">     57.06147442 </i>
    <i name="pawpsdc">    267.11986654 </i>
    <i name="pawaedc">   -272.22374004 </i>
    <i name="eentropy">     -0.00000000 </i>
    <i name="bandstr">   -189.23806844 </i>
    <i name="atom">    588.62352690 </i>
    <i name="e_fr_energy">    -36.82794823 </i>
    <i name="e_wo_entrp">    -36.82794823 </i>
    <i name="e_0_energy">    -36.82794823 </i>
   </energy>
  </scstep>
  <structure>
   <crystal>
    <varray name="basis" >
     <v>       4.40253380       0.00000000       0.00000000 </v>
     <v>       0.00000000       2.45534040       0.00000000 </v>
     <v>       0.00000000       0.00000000      19.50447553 </v>
    </varray>
    <i name="volume">    210.83790140 </i>
    <varray name="rec_basis" >
     <v>       0.22714192       0.00000000       0.00000000 </v>
     <v>       0.00000000       0.40727550       0.00000000 </v>
     <v>       0.00000000       0.00000000       0.05127028 </v>
    </varray>
   </crystal>
   <varray name="positions" >
    <v>       0.99938094      -0.00000000      -0.00000000 </v>
    <v>       0.16728573       0.50000000       0.00000000 </v>
    <v>       0.49938094       0.50000000      -0.00000000 </v>
    <v>       0.66728573      -0.00000000       0.00000000 </v>
   </varray>
  </structure>
  <varray name="forces" >
   <v>       0.00288876       0.00000000      -0.00000000 </v>
   <v>      -0.00288876      -0.00000000       0.00000000 </v>
   <v>       0.00288876      -0.00000000      -0.00000000 </v>
   <v>      -0.00288876      -0.00000000       0.00000000 </v>
  </varray>
  <varray name="stress" >
   <v>     -49.43875293       0.00000000       0.00000000 </v>
   <v>       0.00000000      -0.00424249       0.00000000 </v>
   <v>       0.00000000       0.00000000      -0.01019477 </v>
  </varray>
  <energy>
   <i name="e_fr_energy">    -36.82794823 </i>
   <i name="e_wo_entrp">    -36.82794823 </i>
   <i name="e_0_energy">     -0.00000000 </i>
  </energy>
  <time name="totalsc"> 2391.83 2401.21</time>
 </calculation>
 <calculation>
  <scstep>
   <time name="dav">  302.48  303.13</time>
   <time name="total">  334.66  335.31</time>
   <energy>
    <i name="alphaZ">      6.18334092 </i>
    <i name="ewald">   2421.06212101 </i>
    <i name="hartreedc">  -2915.41601442 </i>
    <i name="XCdc">     57.06149646 </i>
    <i name="pawpsdc">    267.11986079 </i>
    <i name="pawaedc">   -272.22373416 </i>
    <i name="eentropy">     -0.00000000 </i>
    <i name="bandstr">   -189.23854591 </i>
    <i name="atom">    588.62352690 </i>
    <i name="e_fr_energy">    -36.82794841 </i>
    <i name="e_wo_entrp">    -36.82794841 </i>
    <i name="e_0_energy">    -36.82794841 </i>
   </energy>
  </scstep>
  <scstep>
   <time name="diag">   78.46   78.48</time>
   <time name="diis">  323.48  323.55</time>
   <time name="orth">    3.07    3.08</time>
   <time name="total">  437.67  437.77</time>
   <energy>
    <i name="e_fr_energy">    -36.82794842 </i>
    <i name="e_wo_entrp">    -36.82794842 </i>
    <i name="e_0_energy">    -36.82794842 </i>
   </energy>
  </scstep>
  <scstep>
   <time name="diag">   78.43   78.45</time>
   <time name="diis">  322.24  322.30</time>
   <time name="orth">    3.09    3.10</time>
   <time name="total">  435.81  435.93</time>
   <energy>
    <i name="e_fr_energy">    -36.82794842 </i>
    <i name="e_wo_entrp">    -36.82794842 </i>
    <i name="e_0_energy">    -36.82794842 </i>
   </energy>
  </scstep>
  <scstep>
   <time name="diag">   78.16   78.43</time>
   <time name="diis">  326.87  327.07</time>
   <time name="orth">    3.14    3.14</time>
   <time name="total">  440.39  440.89</time>
   <energy>
    <i name="e_fr_energy">    -36.82794842 </i>
    <i name="e_wo_entrp">    -36.82794842 </i>
    <i name="e_0_energy">    -36.82794842 </i>
   </energy>
  </scstep>
  <scstep>
   <time name="diag">   78.41   78.44</time>
   <time name="diis">  223.02  223.06</time>
   <time name="orth">    3.08    3.08</time>
   <time name="total">  336.31  336.43</time>
   <energy>
    <i name="e_fr_energy">    -36.82794842 </i>
    <i name="e_wo_entrp">    -36.82794842 </i>
    <i name="e_0_energy">    -36.82794842 </i>
   </energy>
  </scstep>
  <scstep>
   <time name="diag">   78.40   78.42</time>
   <time name="diis">  211.69  211.74</time>
   <time name="orth">    3.07    3.08</time>
   <time name="total">  295.57  295.66</time>
   <energy>
    <i name="alphaZ">      6.18334092 </i>
    <i name="ewald">   2421.06212101 </i>
    <i name="hartreedc">  -2915.41628526 </i>
    <i name="XCdc">     57.06150904 </i>
    <i name="pawpsdc">    267.12117962 </i>
    <i name="pawaedc">   -272.22505878 </i>
    <i name="eentropy">     -0.00000000 </i>
    <i name="bandstr">   -189.23828186 </i>
    <i name="atom">    588.62352690 </i>
    <i name="e_fr_energy">    -36.82794842 </i>
    <i name="e_wo_entrp">    -36.82794842 </i>
    <i name="e_0_energy">    -36.82794842 </i>
   </energy>
  </scstep>
  <structure>
   <crystal>
    <varray name="basis" >
     <v>       4.40253380       0.00000000       0.00000000 </v>
     <v>       0.00000000       2.45534040       0.00000000 </v>
     <v>       0.00000000       0.00000000      19.50447553 </v>
    </varray>
    <i name="volume">    210.83790140 </i>
    <varray name="rec_basis" >
     <v>       0.22714192       0.00000000       0.00000000 </v>
     <v>       0.00000000       0.40727550       0.00000000 </v>
     <v>       0.00000000       0.00000000       0.05127028 </v>
    </varray>
   </crystal>
   <varray name="positions" >
    <v>       0.99938785      -0.00000000      -0.00000000 </v>
    <v>       0.16727881       0.50000000       0.00000000 </v>
    <v>       0.49938785       0.50000000      -0.00000000 </v>
    <v>       0.66727881      -0.00000000       0.00000000 </v>
   </varray>
  </structure>
  <varray name="forces" >
   <v>       0.00000485      -0.00000000       0.00000000 </v>
   <v>      -0.00000485       0.00000000      -0.00000000 </v>
   <v>       0.00000485       0.00000000       0.00000000 </v>
   <v>      -0.00000485      -0.00000000      -0.00000000 </v>
  </varray>
  <varray name="stress" >
   <v>     -49.44206250       0.00000000       0.00000000 </v>
   <v>       0.00000000       0.00510030       0.00000000 </v>
   <v>       0.00000000       0.00000000      -0.01008251 </v>
  </varray>
  <energy>
   <i name="e_fr_energy">    -36.82794842 </i>
   <i name="e_wo_entrp">    -36.82794842 </i>
   <i name="e_0_energy">     -0.00000000 </i>
  </energy>
  <time name="totalsc"> 2384.34 2386.50</time>
 </calculation>
 <calculation>
  <scstep>
   <time name="dav">  245.76  246.45</time>
   <time name="total">  278.21  278.91</time>
   <energy>
    <i name="alphaZ">      6.18334092 </i>
    <i name="ewald">   2421.06212233 </i>
    <i name="hartreedc">  -2915.41629146 </i>
    <i name="XCdc">     57.06150925 </i>
    <i name="pawpsdc">    267.12118254 </i>
    <i name="pawaedc">   -272.22506177 </i>
    <i name="eentropy">     -0.00000000 </i>
    <i name="bandstr">   -189.23827714 </i>
    <i name="atom">    588.62352690 </i>
    <i name="e_fr_energy">    -36.82794842 </i>
    <i name="e_wo_entrp">    -36.82794842 </i>
    <i name="e_0_energy">    -36.82794842 </i>
   </energy>
  </scstep>
  <scstep>
   <time name="diag">   78.08   78.40</time>
   <time name="diis">  172.65  173.49</time>
   <time name="orth">    3.08    3.08</time>
   <time name="total">  285.89  287.31</time>
   <energy>
    <i name="e_fr_energy">    -36.82794842 </i>
    <i name="e_wo_entrp">    -36.82794842 </i>
    <i name="e_0_energy">    -36.82794842 </i>
   </energy>
  </scstep>
  <scstep>
   <time name="diag">   77.92   78.40</time>
   <time name="diis">  168.72  169.91</time>
   <time name="orth">    3.08    3.08</time>
   <time name="total">  281.93  283.82</time>
   <energy>
    <i name="e_fr_energy">    -36.82794842 </i>
    <i name="e_wo_entrp">    -36.82794842 </i>
    <i name="e_0_energy">    -36.82794842 </i>
   </energy>
  </scstep>
  <scstep>
   <time name="diag">   78.37   78.41</time>
   <time name="diis">  164.50  164.54</time>
   <time name="orth">    3.09    3.09</time>
   <time name="total">  278.02  278.13</time>
   <energy>
    <i name="e_fr_energy">    -36.82794842 </i>
    <i name="e_wo_entrp">    -36.82794842 </i>
    <i name="e_0_energy">    -36.82794842 </i>
   </energy>
  </scstep>
  <scstep>
   <time name="diag">   78.41   78.43</time>
   <time name="diis">  162.03  162.15</time>
   <time name="orth">    3.09    3.09</time>
   <time name="total">  245.97  246.11</time>
   <energy>
    <i name="alphaZ">      6.18334092 </i>
    <i name="ewald">   2421.06212233 </i>
    <i name="hartreedc">  -2915.41631111 </i>
    <i name="XCdc">     57.06150950 </i>
    <i name="pawpsdc">    267.12118745 </i>
    <i name="pawaedc">   -272.22506668 </i>
    <i name="eentropy">     -0.00000000 </i>
    <i name="bandstr">   -189.23825773 </i>
    <i name="atom">    588.62352690 </i>
    <i name="e_fr_energy">    -36.82794842 </i>
    <i name="e_wo_entrp">    -36.82794842 </i>
    <i name="e_0_energy">    -36.82794842 </i>
   </energy>
  </scstep>
  <structure>
   <crystal>
    <varray name="basis" >
     <v>       4.40253380       0.00000000       0.00000000 </v>
     <v>       0.00000000       2.45534040       0.00000000 </v>
     <v>       0.00000000       0.00000000      19.50447553 </v>
    </varray>
    <i name="volume">    210.83790140 </i>
    <varray name="rec_basis" >
     <v>       0.22714192       0.00000000       0.00000000 </v>
     <v>       0.00000000       0.40727550       0.00000000 </v>
     <v>       0.00000000       0.00000000       0.05127028 </v>
    </varray>
   </crystal>
   <varray name="positions" >
    <v>       0.99938786      -0.00000000       0.00000000 </v>
    <v>       0.16727880       0.50000000      -0.00000000 </v>
    <v>       0.49938786       0.50000000       0.00000000 </v>
    <v>       0.66727880      -0.00000000      -0.00000000 </v>
   </varray>
  </structure>
  <varray name="forces" >
   <v>      -0.00000650      -0.00000000      -0.00000000 </v>
   <v>       0.00000650       0.00000000       0.00000000 </v>
   <v>      -0.00000650      -0.00000000      -0.00000000 </v>
   <v>       0.00000650       0.00000000       0.00000000 </v>
  </varray>
  <varray name="stress" >
   <v>     -49.44216074       0.00000000       0.00000000 </v>
   <v>       0.00000000       0.00521033       0.00000000 </v>
   <v>       0.00000000       0.00000000      -0.01011505 </v>
  </varray>
  <energy>
   <i name="e_fr_energy">    -36.82794842 </i>
   <i name="e_wo_entrp">    -36.82794842 </i>
   <i name="e_0_energy">     -0.00000000 </i>
  </energy>
  <time name="totalsc"> 1472.40 1476.79</time>
 </calculation>
 <calculation>
  <scstep>
   <time name="dav">  240.06  240.11</time>
   <time name="total">  272.01  272.07</time>
   <energy>
    <i name="alphaZ">      6.18334092 </i>
    <i name="ewald">   2421.06212157 </i>
    <i name="hartreedc">  -2915.41631133 </i>
    <i name="XCdc">     57.06150948 </i>
    <i name="pawpsdc">    267.12118754 </i>
    <i name="pawaedc">   -272.22506677 </i>
    <i name="eentropy">     -0.00000000 </i>
    <i name="bandstr">   -189.23825674 </i>
    <i name="atom">    588.62352690 </i>
    <i name="e_fr_energy">    -36.82794842 </i>
    <i name="e_wo_entrp">    -36.82794842 </i>
    <i name="e_0_energy">    -36.82794842 </i>
   </energy>
  </scstep>
  <scstep>
   <time name="diag">   78.38   78.39</time>
   <time name="diis">  148.69  148.72</time>
   <time name="orth">    3.07    3.07</time>
   <time name="total">  262.21  262.27</time>
   <energy>
    <i name="e_fr_energy">    -36.82794842 </i>
    <i name="e_wo_entrp">    -36.82794842 </i>
    <i name="e_0_energy">    -36.82794842 </i>
   </energy>
  </scstep>
  <scstep>
   <time name="diag">   78.45   78.47</time>
   <time name="diis">  152.63  152.68</time>
   <time name="orth">    3.09    3.09</time>
   <time name="total">  266.43  266.52</time>
   <energy>
    <i name="e_fr_energy">    -36.82794842 </i>
    <i name="e_wo_entrp">    -36.82794842 </i>
    <i name="e_0_energy">    -36.82794842 </i>
   </energy>
  </scstep>
  <scstep>
   <time name="diag">   78.44   78.45</time>
   <time name="diis">  151.61  151.64</time>
   <time name="orth">    3.09    3.09</time>
[...]
       <r>   -9.3821    1.0000 </r>
       <r>   -5.4965    1.0000 </r>
       <r>   -5.4965    1.0000 </r>
       <r>   -0.5093    0.0000 </r>
       <r>   -0.5093    0.0000 </r>
       <r>    3.9994    0.0000 </r>
       <r>    3.9994    0.0000 </r>
      </set>
      <set comment="kpoint 209">
       <r>  -18.5782    1.0000 </r>
       <r>  -16.7567    1.0000 </r>
       <r>  -14.2480    1.0000 </r>
       <r>  -12.5739    1.0000 </r>
       <r>  -12.2710    1.0000 </r>
       <r>  -10.7621    1.0000 </r>
       <r>   -6.2463    1.0000 </r>
       <r>   -4.3722    1.0000 </r>
       <r>   -1.2492    0.0000 </r>
       <r>    0.9075    0.0000 </r>
       <r>    5.3275    0.0000 </r>
       <r>    6.0934    0.0000 </r>
      </set>
      <set comment="kpoint 210">
       <r>  -18.5691    1.0000 </r>
       <r>  -16.7496    1.0000 </r>
       <r>  -14.3116    1.0000 </r>
       <r>  -12.6339    1.0000 </r>
       <r>  -12.1998    1.0000 </r>
       <r>  -10.7047    1.0000 </r>
       <r>   -6.2381    1.0000 </r>
       <r>   -4.3765    1.0000 </r>
       <r>   -1.2549    0.0000 </r>
       <r>    0.8855    0.0000 </r>
       <r>    5.3402    0.0000 </r>
       <r>    6.1083    0.0000 </r>
      </set>
      <set comment="kpoint 211">
       <r>  -18.5418    1.0000 </r>
       <r>  -16.7290    1.0000 </r>
       <r>  -14.4786    1.0000 </r>
       <r>  -12.7937    1.0000 </r>
       <r>  -12.0098    1.0000 </r>
       <r>  -10.5532    1.0000 </r>
       <r>   -6.2136    1.0000 </r>
       <r>   -4.3896    1.0000 </r>
       <r>   -1.2706    0.0000 </r>
       <r>    0.8208    0.0000 </r>
       <r>    5.3783    0.0000 </r>
       <r>    6.1528    0.0000 </r>
      </set>
      <set comment="kpoint 212">
       <r>  -18.4963    1.0000 </r>
       <r>  -16.6960    1.0000 </r>
       <r>  -14.7043    1.0000 </r>
       <r>  -13.0150    1.0000 </r>
       <r>  -11.7455    1.0000 </r>
       <r>  -10.3477    1.0000 </r>
       <r>   -6.1730    1.0000 </r>
       <r>   -4.4128    1.0000 </r>
       <r>   -1.2923    0.0000 </r>
       <r>    0.7176    0.0000 </r>
       <r>    5.4407    0.0000 </r>
       <r>    6.2262    0.0000 </r>
      </set>
      <set comment="kpoint 213">
       <r>  -18.4329    1.0000 </r>
       <r>  -16.6539    1.0000 </r>
       <r>  -14.9531    1.0000 </r>
       <r>  -13.2682    1.0000 </r>
       <r>  -11.4418    1.0000 </r>
       <r>  -10.1212    1.0000 </r>
       <r>   -6.1169    1.0000 </r>
       <r>   -4.4480    1.0000 </r>
       <r>   -1.3141    0.0000 </r>
       <r>    0.5819    0.0000 </r>
       <r>    5.5127    0.0000 </r>
       <r>    5.7221    0.0000 </r>
      </set>
      <set comment="kpoint 214">
       <r>  -18.3516    1.0000 </r>
       <r>  -16.6087    1.0000 </r>
       <r>  -15.1998    1.0000 </r>
       <r>  -13.5352    1.0000 </r>
       <r>  -11.1208    1.0000 </r>
       <r>   -9.8960    1.0000 </r>
       <r>   -6.0458    1.0000 </r>
       <r>   -4.4970    1.0000 </r>
       <r>   -1.3291    0.0000 </r>
       <r>    0.4209    0.0000 </r>
       <r>    5.2059    0.0000 </r>
       <r>    5.6638    0.0000 </r>
      </set>
      <set comment="kpoint 215">
       <r>  -18.2528    1.0000 </r>
       <r>  -16.5732    1.0000 </r>
       <r>  -15.4211    1.0000 </r>
       <r>  -13.8053    1.0000 </r>
       <r>  -10.7971    1.0000 </r>
       <r>   -9.6881    1.0000 </r>
       <r>   -5.9606    1.0000 </r>
       <r>   -4.5616    1.0000 </r>
       <r>   -1.3303    0.0000 </r>
       <r>    0.2420    0.0000 </r>
       <r>    4.7859    0.0000 </r>
       <r>    5.8003    0.0000 </r>
      </set>
      <set comment="kpoint 216">
       <r>  -18.1368    1.0000 </r>
       <r>  -16.5713    1.0000 </r>
       <r>  -15.5867    1.0000 </r>
       <r>  -14.0721    1.0000 </r>
       <r>  -10.4818    1.0000 </r>
       <r>   -9.5097    1.0000 </r>
       <r>   -5.8624    1.0000 </r>
       <r>   -4.6425    1.0000 </r>
       <r>   -1.3122    0.0000 </r>
       <r>    0.0522    0.0000 </r>
       <r>    4.4273    0.0000 </r>
       <r>    5.3825    0.0000 </r>
      </set>
      <set comment="kpoint 217">
       <r>  -18.0042    1.0000 </r>
       <r>  -16.6332    1.0000 </r>
       <r>  -15.6629    1.0000 </r>
       <r>  -14.3312    1.0000 </r>
       <r>  -10.1846    1.0000 </r>
       <r>   -9.3714    1.0000 </r>
       <r>   -5.7525    1.0000 </r>
       <r>   -4.7392    1.0000 </r>
       <r>   -1.2707    0.0000 </r>
       <r>   -0.1420    0.0000 </r>
       <r>    4.1420    0.0000 </r>
       <r>    4.9458    0.0000 </r>
      </set>
      <set comment="kpoint 218">
       <r>  -17.8557    1.0000 </r>
       <r>  -16.7650    1.0000 </r>
       <r>  -15.6413    1.0000 </r>
       <r>  -14.5792    1.0000 </r>
       <r>   -9.9147    1.0000 </r>
       <r>   -9.2816    1.0000 </r>
       <r>   -5.6328    1.0000 </r>
       <r>   -4.8500    1.0000 </r>
       <r>   -1.2036    0.0000 </r>
       <r>   -0.3346    0.0000 </r>
       <r>    3.9382    0.0000 </r>
       <r>    4.5666    0.0000 </r>
      </set>
      <set comment="kpoint 219">
       <r>  -17.6922    1.0000 </r>
       <r>  -16.9407    1.0000 </r>
       <r>  -15.5464    1.0000 </r>
       <r>  -14.8136    1.0000 </r>
       <r>   -9.6807    1.0000 </r>
       <r>   -9.2466    1.0000 </r>
       <r>   -5.5053    1.0000 </r>
       <r>   -4.9723    1.0000 </r>
       <r>   -1.1108    0.0000 </r>
       <r>   -0.5204    0.0000 </r>
       <r>    3.8221    0.0000 </r>
       <r>    4.2541    0.0000 </r>
      </set>
      <set comment="kpoint 220">
       <r>  -17.5153    1.0000 </r>
       <r>  -17.1334    1.0000 </r>
       <r>  -15.4043    1.0000 </r>
       <r>  -15.0315    1.0000 </r>
       <r>   -9.4909    1.0000 </r>
       <r>   -9.2700    1.0000 </r>
       <r>   -5.3724    1.0000 </r>
       <r>   -5.1025    1.0000 </r>
       <r>   -0.9934    0.0000 </r>
       <r>   -0.6948    0.0000 </r>
       <r>    3.7968    0.0000 </r>
       <r>    4.0170    0.0000 </r>
      </set>
      <set comment="kpoint 221">
       <r>  -17.3276    1.0000 </r>
       <r>  -17.3276    1.0000 </r>
       <r>  -15.2300    1.0000 </r>
       <r>  -15.2300    1.0000 </r>
       <r>   -9.3523    1.0000 </r>
       <r>   -9.3523    1.0000 </r>
       <r>   -5.2370    1.0000 </r>
       <r>   -5.2370    1.0000 </r>
       <r>   -0.8537    0.0000 </r>
       <r>   -0.8537    0.0000 </r>
       <r>    3.8627    0.0000 </r>
       <r>    3.8627    0.0000 </r>
      </set>
      <set comment="kpoint 222">
       <r>  -18.1484    1.0000 </r>
       <r>  -17.2339    1.0000 </r>
       <r>  -13.8605    1.0000 </r>
       <r>  -13.0227    1.0000 </r>
       <r>  -11.9244    1.0000 </r>
       <r>  -11.1649    1.0000 </r>
       <r>   -5.7876    1.0000 </r>
       <r>   -4.8448    1.0000 </r>
       <r>   -0.7421    0.0000 </r>
       <r>    0.3386    0.0000 </r>
       <r>    5.9350    0.0000 </r>
       <r>    6.6542    0.0000 </r>
      </set>
      <set comment="kpoint 223">
       <r>  -18.1395    1.0000 </r>
       <r>  -17.2257    1.0000 </r>
       <r>  -13.9246    1.0000 </r>
       <r>  -13.0845    1.0000 </r>
       <r>  -11.8554    1.0000 </r>
       <r>  -11.1030    1.0000 </r>
       <r>   -5.7807    1.0000 </r>
       <r>   -4.8432    1.0000 </r>
       <r>   -0.7549    0.0000 </r>
       <r>    0.3186    0.0000 </r>
       <r>    5.9477    0.0000 </r>
       <r>    6.6700    0.0000 </r>
      </set>
      <set comment="kpoint 224">
       <r>  -18.1127    1.0000 </r>
       <r>  -17.2013    1.0000 </r>
       <r>  -14.0936    1.0000 </r>
       <r>  -13.2485    1.0000 </r>
       <r>  -11.6721    1.0000 </r>
       <r>  -10.9394    1.0000 </r>
       <r>   -5.7602    1.0000 </r>
       <r>   -4.8389    1.0000 </r>
       <r>   -0.7918    0.0000 </r>
       <r>    0.2599    0.0000 </r>
       <r>    5.9854    0.0000 </r>
       <r>    6.7171    0.0000 </r>
      </set>
      <set comment="kpoint 225">
       <r>  -18.0681    1.0000 </r>
       <r>  -17.1612    1.0000 </r>
       <r>  -14.3242    1.0000 </r>
       <r>  -13.4746    1.0000 </r>
       <r>  -11.4188    1.0000 </r>
       <r>  -10.7158    1.0000 </r>
       <r>   -5.7265    1.0000 </r>
       <r>   -4.8327    1.0000 </r>
       <r>   -0.8487    0.0000 </r>
       <r>    0.1666    0.0000 </r>
       <r>    6.0456    0.0000 </r>
       <r>    6.5273    0.0000 </r>
      </set>
      <set comment="kpoint 226">
       <r>  -18.0059    1.0000 </r>
       <r>  -17.1062    1.0000 </r>
       <r>  -14.5833    1.0000 </r>
       <r>  -13.7319    1.0000 </r>
       <r>  -11.1301    1.0000 </r>
       <r>  -10.4659    1.0000 </r>
       <r>   -5.6802    1.0000 </r>
       <r>   -4.8265    1.0000 </r>
       <r>   -0.9194    0.0000 </r>
       <r>    0.0449    0.0000 </r>
       <r>    5.9515    0.0000 </r>
       <r>    6.1638    0.0000 </r>
      </set>
      <set comment="kpoint 227">
       <r>  -17.9265    1.0000 </r>
       <r>  -17.0380    1.0000 </r>
       <r>  -14.8503    1.0000 </r>
       <r>  -14.0020    1.0000 </r>
       <r>  -10.8282    1.0000 </r>
       <r>  -10.2120    1.0000 </r>
       <r>   -5.6223    1.0000 </r>
       <r>   -4.8224    1.0000 </r>
       <r>   -0.9959    0.0000 </r>
       <r>   -0.0980    0.0000 </r>
       <r>    5.4587    0.0000 </r>
       <r>    6.0525    0.0000 </r>
      </set>
      <set comment="kpoint 228">
       <r>  -17.8303    1.0000 </r>
       <r>  -16.9595    1.0000 </r>
       <r>  -15.1119    1.0000 </r>
       <r>  -14.2739    1.0000 </r>
       <r>  -10.5281    1.0000 </r>
       <r>   -9.9699    1.0000 </r>
       <r>   -5.5543    1.0000 </r>
       <r>   -4.8232    1.0000 </r>
       <r>   -1.0700    0.0000 </r>
       <r>   -0.2546    0.0000 </r>
       <r>    5.0028    0.0000 </r>
       <r>    5.5463    0.0000 </r>
      </set>
      <set comment="kpoint 229">
       <r>  -17.7180    1.0000 </r>
       <r>  -16.8765    1.0000 </r>
       <r>  -15.3563    1.0000 </r>
       <r>  -14.5409    1.0000 </r>
       <r>  -10.2414    1.0000 </r>
       <r>   -9.7518    1.0000 </r>
       <r>   -5.4777    1.0000 </r>
       <r>   -4.8318    1.0000 </r>
       <r>   -1.1334    0.0000 </r>
       <r>   -0.4171    0.0000 </r>
       <r>    4.6048    0.0000 </r>
       <r>    5.0854    0.0000 </r>
      </set>
      <set comment="kpoint 230">
       <r>  -17.5905    1.0000 </r>
       <r>  -16.8002    1.0000 </r>
       <r>  -15.5684    1.0000 </r>
       <r>  -14.7982    1.0000 </r>
       <r>   -9.9782    1.0000 </r>
       <r>   -9.5682    1.0000 </r>
       <r>   -5.3949    1.0000 </r>
       <r>   -4.8509    1.0000 </r>
       <r>   -1.1785    0.0000 </r>
       <r>   -0.5784    0.0000 </r>
       <r>    4.2745    0.0000 </r>
       <r>    4.6793    0.0000 </r>
      </set>
      <set comment="kpoint 231">
       <r>  -17.4495    1.0000 </r>
       <r>  -16.7525    1.0000 </r>
       <r>  -15.7240    1.0000 </r>
       <r>  -15.0417    1.0000 </r>
       <r>   -9.7477    1.0000 </r>
       <r>   -9.4283    1.0000 </r>
       <r>   -5.3082    1.0000 </r>
       <r>   -4.8825    1.0000 </r>
       <r>   -1.1994    0.0000 </r>
       <r>   -0.7318    0.0000 </r>
       <r>    4.0207    0.0000 </r>
       <r>    4.3374    0.0000 </r>
      </set>
      <set comment="kpoint 232">
       <r>  -17.2976    1.0000 </r>
       <r>  -16.7647    1.0000 </r>
       <r>  -15.7905    1.0000 </r>
       <r>  -15.2672    1.0000 </r>
       <r>   -9.5586    1.0000 </r>
       <r>   -9.3394    1.0000 </r>
       <r>   -5.2207    1.0000 </r>
       <r>   -4.9278    1.0000 </r>
       <r>   -1.1920    0.0000 </r>
       <r>   -0.8712    0.0000 </r>
       <r>    3.8507    0.0000 </r>
       <r>    4.0686    0.0000 </r>
      </set>
      <set comment="kpoint 233">
       <r>  -17.1395    1.0000 </r>
       <r>  -16.8496    1.0000 </r>
       <r>  -15.7541    1.0000 </r>
       <r>  -15.4689    1.0000 </r>
       <r>   -9.4186    1.0000 </r>
       <r>   -9.3070    1.0000 </r>
       <r>   -5.1356    1.0000 </r>
       <r>   -4.9863    1.0000 </r>
       <r>   -1.1543    0.0000 </r>
       <r>   -0.9910    0.0000 </r>
       <r>    3.7695    0.0000 </r>
       <r>    3.8806    0.0000 </r>
      </set>
      <set comment="kpoint 234">
       <r>  -16.9842    1.0000 </r>
       <r>  -16.9842    1.0000 </r>
       <r>  -15.6372    1.0000 </r>
       <r>  -15.6372    1.0000 </r>
       <r>   -9.3336    1.0000 </r>
       <r>   -9.3336    1.0000 </r>
       <r>   -5.0564    1.0000 </r>
       <r>   -5.0564    1.0000 </r>
       <r>   -1.0865    0.0000 </r>
       <r>   -1.0865    0.0000 </r>
       <r>    3.7797    0.0000 </r>
       <r>    3.7797    0.0000 </r>
      </set>
      <set comment="kpoint 235">
       <r>  -17.6994    1.0000 </r>
       <r>  -17.6994    1.0000 </r>
       <r>  -13.4518    1.0000 </r>
       <r>  -13.4518    1.0000 </r>
       <r>  -11.5538    1.0000 </r>
       <r>  -11.5538    1.0000 </r>
       <r>   -5.3187    1.0000 </r>
       <r>   -5.3187    1.0000 </r>
       <r>   -0.2121    0.0000 </r>
       <r>   -0.2121    0.0000 </r>
       <r>    6.5748    0.0000 </r>
       <r>    6.5748    0.0000 </r>
      </set>
      <set comment="kpoint 236">
       <r>  -17.6907    1.0000 </r>
       <r>  -17.6907    1.0000 </r>
       <r>  -13.5151    1.0000 </r>
       <r>  -13.5151    1.0000 </r>
       <r>  -11.4880    1.0000 </r>
       <r>  -11.4880    1.0000 </r>
       <r>   -5.3138    1.0000 </r>
       <r>   -5.3138    1.0000 </r>
       <r>   -0.2293    0.0000 </r>
       <r>   -0.2293    0.0000 </r>
       <r>    6.5874    0.0000 </r>
       <r>    6.5874    0.0000 </r>
      </set>
      <set comment="kpoint 237">
       <r>  -17.6647    1.0000 </r>
       <r>  -17.6647    1.0000 </r>
       <r>  -13.6825    1.0000 </r>
       <r>  -13.6825    1.0000 </r>
       <r>  -11.3137    1.0000 </r>
       <r>  -11.3137    1.0000 </r>
       <r>   -5.2995    1.0000 </r>
       <r>   -5.2995    1.0000 </r>
       <r>   -0.2793    0.0000 </r>
       <r>   -0.2793    0.0000 </r>
       <r>    6.6244    0.0000 </r>
       <r>    6.6244    0.0000 </r>
      </set>
      <set comment="kpoint 238">
       <r>  -17.6216    1.0000 </r>
       <r>  -17.6216    1.0000 </r>
       <r>  -13.9121    1.0000 </r>
       <r>  -13.9121    1.0000 </r>
       <r>  -11.0741    1.0000 </r>
       <r>  -11.0741    1.0000 </r>
       <r>   -5.2762    1.0000 </r>
       <r>   -5.2762    1.0000 </r>
       <r>   -0.3581    0.0000 </r>
       <r>   -0.3581    0.0000 </r>
       <r>    6.6726    0.0000 </r>
       <r>    6.6727    0.0000 </r>
      </set>
      <set comment="kpoint 239">
       <r>  -17.5617    1.0000 </r>
       <r>  -17.5617    1.0000 </r>
       <r>  -14.1720    1.0000 </r>
       <r>  -14.1720    1.0000 </r>
       <r>  -10.8034    1.0000 </r>
       <r>  -10.8034    1.0000 </r>
       <r>   -5.2452    1.0000 </r>
       <r>   -5.2452    1.0000 </r>
       <r>   -0.4596    0.0000 </r>
       <r>   -0.4596    0.0000 </r>
       <r>    6.2658    0.0000 </r>
       <r>    6.2658    0.0000 </r>
      </set>
      <set comment="kpoint 240">
       <r>  -17.4858    1.0000 </r>
       <r>  -17.4858    1.0000 </r>
       <r>  -14.4430    1.0000 </r>
       <r>  -14.4430    1.0000 </r>
       <r>  -10.5240    1.0000 </r>
       <r>  -10.5240    1.0000 </r>
       <r>   -5.2080    1.0000 </r>
       <r>   -5.2080    1.0000 </r>
       <r>   -0.5762    0.0000 </r>
       <r>   -0.5762    0.0000 </r>
       <r>    5.7412    0.0000 </r>
       <r>    5.7412    0.0000 </r>
      </set>
      <set comment="kpoint 241">
       <r>  -17.3947    1.0000 </r>
       <r>  -17.3947    1.0000 </r>
       <r>  -14.7139    1.0000 </r>
       <r>  -14.7139    1.0000 </r>
       <r>  -10.2512    1.0000 </r>
       <r>  -10.2512    1.0000 </r>
       <r>   -5.1667    1.0000 </r>
       <r>   -5.1667    1.0000 </r>
       <r>   -0.6998    0.0000 </r>
       <r>   -0.6998    0.0000 </r>
       <r>    5.2572    0.0000 </r>
       <r>    5.2572    0.0000 </r>
      </set>
      <set comment="kpoint 242">
       <r>  -17.2901    1.0000 </r>
       <r>  -17.2901    1.0000 </r>
       <r>  -14.9767    1.0000 </r>
       <r>  -14.9767    1.0000 </r>
       <r>   -9.9969    1.0000 </r>
       <r>   -9.9969    1.0000 </r>
       <r>   -5.1238    1.0000 </r>
       <r>   -5.1238    1.0000 </r>
       <r>   -0.8223    0.0000 </r>
       <r>   -0.8223    0.0000 </r>
       <r>    4.8251    0.0000 </r>
       <r>    4.8251    0.0000 </r>
      </set>
      <set comment="kpoint 243">
       <r>  -17.1747    1.0000 </r>
       <r>  -17.1747    1.0000 </r>
       <r>  -15.2251    1.0000 </r>
       <r>  -15.2251    1.0000 </r>
       <r>   -9.7715    1.0000 </r>
       <r>   -9.7715    1.0000 </r>
       <r>   -5.0823    1.0000 </r>
       <r>   -5.0823    1.0000 </r>
       <r>   -0.9357    0.0000 </r>
       <r>   -0.9357    0.0000 </r>
       <r>    4.4545    0.0000 </r>
       <r>    4.4545    0.0000 </r>
      </set>
      <set comment="kpoint 244">
       <r>  -17.0537    1.0000 </r>
       <r>  -17.0537    1.0000 </r>
       <r>  -15.4514    1.0000 </r>
       <r>  -15.4514    1.0000 </r>
       <r>   -9.5845    1.0000 </r>
       <r>   -9.5845    1.0000 </r>
       <r>   -5.0453    1.0000 </r>
       <r>   -5.0453    1.0000 </r>
       <r>   -1.0327    0.0000 </r>
       <r>   -1.0327    0.0000 </r>
       <r>    4.1545    0.0000 </r>
       <r>    4.1545    0.0000 </r>
      </set>
      <set comment="kpoint 245">
       <r>  -16.9374    1.0000 </r>
       <r>  -16.9374    1.0000 </r>
       <r>  -15.6439    1.0000 </r>
       <r>  -15.6439    1.0000 </r>
       <r>   -9.4440    1.0000 </r>
       <r>   -9.4440    1.0000 </r>
       <r>   -5.0161    1.0000 </r>
       <r>   -5.0161    1.0000 </r>
       <r>   -1.1071    0.0000 </r>
       <r>   -1.1071    0.0000 </r>
       <r>    3.9333    0.0000 </r>
       <r>    3.9333    0.0000 </r>
      </set>
      <set comment="kpoint 246">
       <r>  -16.8454    1.0000 </r>
       <r>  -16.8454    1.0000 </r>
       <r>  -15.7819    1.0000 </r>
       <r>  -15.7819    1.0000 </r>
       <r>   -9.3568    1.0000 </r>
       <r>   -9.3568    1.0000 </r>
       <r>   -4.9972    1.0000 </r>
       <r>   -4.9972    1.0000 </r>
       <r>   -1.1539    0.0000 </r>
       <r>   -1.1539    0.0000 </r>
       <r>    3.7976    0.0000 </r>
       <r>    3.7976    0.0000 </r>
      </set>
      <set comment="kpoint 247">
       <r>  -16.8086    1.0000 </r>
       <r>  -16.8086    1.0000 </r>
       <r>  -15.8342    1.0000 </r>
       <r>  -15.8342    1.0000 </r>
       <r>   -9.3272    1.0000 </r>
       <r>   -9.3272    1.0000 </r>
       <r>   -4.9907    1.0000 </r>
       <r>   -4.9907    1.0000 </r>
       <r>   -1.1699    0.0000 </r>
       <r>   -1.1699    0.0000 </r>
       <r>    3.7519    0.0000 </r>
       <r>    3.7519    0.0000 </r>
      </set>
     </set>
    </set>
   </array>
  </eigenvalues>
  <separator name="orbital magnetization" >
   <v name="MAGDIPOLOUT">      0.00000000      0.00000000      0.00000000</v>
  </separator>
 </calculation>
 <structure name="finalpos" >
  <crystal>
   <varray name="basis" >
    <v>       4.40253380       0.00000000       0.00000000 </v>
    <v>       0.00000000       2.45534040       0.00000000 </v>
    <v>       0.00000000       0.00000000      19.50447553 </v>
   </varray>
   <i name="volume">    210.83790140 </i>
   <varray name="rec_basis" >
    <v>       0.22714192       0.00000000       0.00000000 </v>
    <v>       0.00000000       0.40727550       0.00000000 </v>
    <v>       0.00000000       0.00000000       0.05127028 </v>
   </varray>
  </crystal>
  <varray name="positions" >
   <v>       0.99938786      -0.00000000      -0.00000000 </v>
   <v>       0.16727881       0.50000000       0.00000000 </v>
   <v>       0.49938786       0.50000000      -0.00000000 </v>
   <v>       0.66727881      -0.00000000       0.00000000 </v>
  </varray>
 </structure>
</modeling>
