gr                                      
           1
     4.402534    0.000000    0.000000
     0.000000    2.455340    0.000000
     0.000000    0.000000   19.504476
   C 
   4
Direct configuration=     1
   0.99938979  0.00000000  0.00000000
   0.16727688  0.50000000  0.00000000
   0.49938979  0.50000000  0.00000000
   0.66727688  0.00000000  0.00000000
Direct configuration=     2
   0.99938094 -0.00000000 -0.00000000
   0.16728573  0.50000000  0.00000000
   0.49938094  0.50000000 -0.00000000
   0.66728573 -0.00000000  0.00000000
Direct configuration=     3
   0.99938785 -0.00000000 -0.00000000
   0.16727881  0.50000000  0.00000000
   0.49938785  0.50000000 -0.00000000
   0.66727881 -0.00000000  0.00000000
Direct configuration=     4
   0.99938786 -0.00000000  0.00000000
   0.16727880  0.50000000 -0.00000000
   0.49938786  0.50000000  0.00000000
   0.66727880 -0.00000000 -0.00000000
Direct configuration=     5
   0.99938786 -0.00000000 -0.00000000
   0.16727881  0.50000000  0.00000000
   0.49938786  0.50000000 -0.00000000
   0.66727881 -0.00000000  0.00000000
