    4    4  400    1
  0.5270948E+02  0.4358087E-09  0.2459050E-09  0.1967367E-08  0.5000000E-15
  1.000000000000000E-004
  CAR 
 gr                                      
     16    247     12
 
  0.0000000E+00  0.0000000E+00  0.0000000E+00  0.1157407E-02
    1      -22.116266
    2      -17.211110
    3      -15.863312
    4      -10.252857
    5       -8.874903
    6       -5.963937
    7       -5.737901
    8       -5.290371
    9       -1.165169
   10        0.540404
   11        1.339170
   12        1.730448
 
  0.4166667E-01  0.0000000E+00  0.0000000E+00  0.2314815E-02
    1      -22.106410
    2      -17.337221
    3      -15.722162
    4      -10.241144
    5       -8.865308
    6       -6.007918
    7       -5.758468
    8       -5.350628
    9       -1.089128
   10        0.553744
   11        1.352700
   12        1.744147
 
  0.8333333E-01  0.0000000E+00  0.0000000E+00  0.2314815E-02
    1      -22.076844
    2      -17.622919
    3      -15.391426
    4      -10.206025
    5       -8.836573
    6       -6.137821
    7       -5.819088
    8       -5.518955
    9       -0.873606
   10        0.593770
   11        1.393285
   12        1.785244
 
  0.1250000E+00  0.0000000E+00  0.0000000E+00  0.2314815E-02
    1      -22.027590
    2      -17.962805
    3      -14.976736
    4      -10.147557
    5       -8.788850
    6       -6.347916
    7       -5.916681
    8       -5.766942
    9       -0.547495
   10        0.660499
   11        1.460911
   12        1.853743
 
  0.1666667E+00  0.0000000E+00  0.0000000E+00  0.2314815E-02
    1      -21.958682
    2      -18.314850
    3      -14.520522
    4      -10.065839
    5       -8.722399
    6       -6.629794
    7       -6.065254
    8       -6.046631
    9       -0.140946
   10        0.753950
   11        1.555552
   12        1.949647
 
  0.2083333E+00  0.0000000E+00  0.0000000E+00  0.2314815E-02
    1      -21.870170
    2      -18.663565
    3      -14.038848
    4       -9.961011
    5       -8.637597
    6       -6.973598
    7       -6.391135
    8       -6.203380
    9        0.322107
   10        0.874135
   11        1.677168
   12        2.072960
 
  0.2500000E+00  0.0000000E+00  0.0000000E+00  0.2314815E-02
    1      -21.762119
    2      -19.002319
    3      -13.539111
    4       -9.833265
    5       -8.534944
    6       -7.369131
    7       -6.728894
    8       -6.381004
    9        0.824387
   10        1.021053
   11        1.825695
   12        2.223681
 
  0.2916667E+00  0.0000000E+00  0.0000000E+00  0.2314815E-02
    1      -21.634612
    2      -19.327805
    3      -13.025595
    4       -9.682849
    5       -8.415085
    6       -7.806646
    7       -7.068095
    8       -6.573674
    9        1.194686
   10        1.353370
   11        2.001033
   12        2.401809
 
  0.3333333E+00  0.0000000E+00  0.0000000E+00  0.2314815E-02
    1      -21.487751
    2      -19.638152
    3      -12.501391
    4       -9.510076
    5       -8.278826
    6       -8.277298
    7       -7.401771
    8       -6.775965
    9        1.395003
   10        1.899253
   11        2.203016
   12        2.607340
 
  0.3750000E+00  0.0000000E+00  0.0000000E+00  0.2314815E-02
    1      -21.321657
    2      -19.932194
    3      -11.969167
    4       -9.315341
    5       -8.773317
    6       -8.127164
    7       -7.725179
    8       -6.983013
    9        1.621956
   10        2.431330
   11        2.452823
   12        2.840267
 
  0.4166667E+00  0.0000000E+00  0.0000000E+00  0.2314815E-02
    1      -21.136477
    2      -20.209139
    3      -11.431536
    4       -9.288012
    5       -9.099140
    6       -8.035002
    7       -7.961314
    8       -7.190576
    9        1.875478
   10        2.685290
   11        2.999473
   12        3.100576
 
  0.4583333E+00  0.0000000E+00  0.0000000E+00  0.2314815E-02
    1      -20.932391
    2      -20.468421
    3      -10.891273
    4       -9.815678
    5       -8.862096
    6       -8.328860
    7       -7.782755
    8       -7.395021
    9        2.155482
   10        2.794409
   11        2.962934
   12        3.388493
 
  0.5000000E+00  0.0000000E+00  0.0000000E+00  0.1157407E-02
    1      -20.709616
    2      -20.709616
    3      -10.351474
    4      -10.351474
    5       -8.604998
    6       -8.604998
    7       -7.593273
    8       -7.593273
    9        2.461848
   10        2.461848
   11        3.255098
   12        3.255098
 
  0.0000000E+00  0.2777778E-01  0.0000000E+00  0.2314815E-02
    1      -22.102469
    2      -17.199160
    3      -15.851561
    4      -10.236460
    5       -8.937883
    6       -5.990838
    7       -5.796524
    8       -5.273693
    9       -1.167897
   10        0.559103
   11        1.358068
   12        1.749582
 
  0.4166667E-01  0.2777778E-01  0.0000000E+00  0.4629630E-02
    1      -22.092613
    2      -17.325143
    3      -15.710585
    4      -10.224751
    5       -8.928275
    6       -6.035990
    7       -5.815302
    8       -5.334070
    9       -1.091841
   10        0.572442
   11        1.371597
   12        1.763281
 
  0.8333333E-01  0.2777778E-01  0.0000000E+00  0.4629630E-02
    1      -22.063052
    2      -17.610612
    3      -15.380216
    4      -10.189644
    5       -8.899501
    6       -6.167383
    7       -5.872688
    8       -5.502678
    9       -0.876353
   10        0.612469
   11        1.412180
   12        1.804378
 
  0.1250000E+00  0.2777778E-01  0.0000000E+00  0.4629630E-02
    1      -22.013805
    2      -17.950283
    3      -14.965977
    4      -10.131196
    5       -8.851712
    6       -6.377090
    7       -5.968091
    8       -5.750965
    9       -0.550469
   10        0.679199
   11        1.479802
   12        1.872877
 
  0.1666667E+00  0.2777778E-01  0.0000000E+00  0.4629630E-02
    1      -21.944908
    2      -18.302140
    3      -14.510290
    4      -10.049505
    5       -8.785163
    6       -6.656602
    7       -6.097359
    8       -6.049509
    9       -0.144429
   10        0.772652
   11        1.574439
   12        1.968782
 
  0.2083333E+00  0.2777778E-01  0.0000000E+00  0.4629630E-02
    1      -21.856411
    2      -18.650694
    3      -14.029232
    4       -9.944713
    5       -8.700223
    6       -6.996788
    7       -6.375532
    8       -6.254535
    9        0.317813
   10        0.892842
   11        1.696049
   12        2.092096
 
  0.2500000E+00  0.2777778E-01  0.0000000E+00  0.4629630E-02
    1      -21.748379
    2      -18.989309
    3      -13.530216
    4       -9.817010
    5       -8.597384
    6       -7.388164
    7       -6.713356
    8       -6.433226
    9        0.818998
   10        1.039765
   11        1.844570
   12        2.242819
 
  0.2916667E+00  0.2777778E-01  0.0000000E+00  0.4629630E-02
    1      -21.620895
    2      -19.314676
    3      -13.017549
    4       -9.666644
    5       -8.477281
    6       -7.821481
    7       -7.052563
    8       -6.627256
    9        1.213406
   10        1.346639
   11        2.019904
   12        2.420950
 
  0.3333333E+00  0.2777778E-01  0.0000000E+00  0.4629630E-02
    1      -21.474061
    2      -19.624919
    3      -12.494347
    4       -9.493929
    5       -8.340708
    6       -8.288181
    7       -7.386207
    8       -6.830973
    9        1.413731
   10        1.891002
   11        2.221885
   12        2.626485
 
  0.3750000E+00  0.2777778E-01  0.0000000E+00  0.4629630E-02
    1      -21.307998
    2      -19.918871
    3      -11.963308
    4       -9.299259
    5       -8.780634
    6       -8.188646
    7       -7.709558
    8       -7.039386
    9        1.640694
   10        2.443060
   11        2.450204
   12        2.859415
 
  0.4166667E+00  0.2777778E-01  0.0000000E+00  0.4629630E-02
    1      -21.122856
    2      -20.195738
    3      -11.427079
    4       -9.292196
    5       -9.083130
    6       -8.022294
    7       -8.019309
    8       -7.248184
    9        1.894228
   10        2.704179
   11        2.989101
   12        3.119731
 
  0.4583333E+00  0.2777778E-01  0.0000000E+00  0.4629630E-02
    1      -20.918813
    2      -20.454953
    3      -10.888477
    4       -9.817157
    5       -8.846162
    6       -8.313088
    7       -7.843113
    8       -7.453705
    9        2.174245
   10        2.813222
   11        2.981842
   12        3.407450
 
  0.5000000E+00  0.2777778E-01  0.0000000E+00  0.2314815E-02
    1      -20.696089
    2      -20.696089
    3      -10.350641
    4      -10.350641
    5       -8.589144
    6       -8.589144
    7       -7.652871
    8       -7.652871
    9        2.480631
   10        2.480631
   11        3.273723
   12        3.273723
 
  0.0000000E+00  0.5555556E-01  0.0000000E+00  0.2314815E-02
    1      -22.061086
    2      -17.163314
    3      -15.816452
    4      -10.187305
    5       -9.121729
    6       -6.071089
    7       -5.967604
    8       -5.223681
    9       -1.176893
   10        0.615198
   11        1.414753
   12        1.806984
 
  0.4166667E-01  0.5555556E-01  0.0000000E+00  0.4629630E-02
    1      -22.051234
    2      -17.288922
    3      -15.675991
    4      -10.175608
    5       -9.112080
    6       -6.124326
    7       -5.976478
    8       -5.284427
    9       -1.100787
   10        0.628537
   11        1.428280
   12        1.820683
 
  0.8333333E-01  0.5555556E-01  0.0000000E+00  0.4629630E-02
    1      -22.021686
    2      -17.573709
    3      -15.346729
    4      -10.140537
    5       -9.083179
    6       -6.263310
    7       -6.021134
    8       -5.453901
    9       -0.885397
   10        0.668563
   11        1.468856
   12        1.861780
 
  0.1250000E+00  0.5555556E-01  0.0000000E+00  0.4629630E-02
    1      -21.972464
    2      -17.912734
    3      -14.933859
    4      -10.082148
    5       -9.035168
    6       -6.472022
    7       -6.109900
    8       -5.703108
    9       -0.560203
   10        0.735295
   11        1.536467
   12        1.930280
 
  0.1666667E+00  0.5555556E-01  0.0000000E+00  0.4629630E-02
    1      -21.903600
    2      -18.264029
    3      -14.479778
    4      -10.000541
    5       -8.968288
    6       -6.743768
    7       -6.237862
    8       -6.002359
    9       -0.155715
   10        0.828752
   11        1.631089
   12        2.026187
 
  0.2083333E+00  0.5555556E-01  0.0000000E+00  0.4629630E-02
    1      -21.815148
    2      -18.612099
    3      -14.000602
    4       -9.895856
    5       -8.882888
    6       -7.072217
    7       -6.397244
    8       -6.328814
    9        0.304049
   10        0.948950
   11        1.752682
   12        2.149503
 
  0.2500000E+00  0.5555556E-01  0.0000000E+00  0.4629630E-02
    1      -21.707170
    2      -18.950297
    3      -13.503800
    4       -9.768284
    5       -8.779433
    6       -7.450187
    7       -6.666832
    8       -6.580088
    9        0.801883
   10        1.095885
   11        1.901185
   12        2.300231
 
  0.2916667E+00  0.5555556E-01  0.0000000E+00  0.4629630E-02
    1      -21.579755
    2      -19.275303
    3      -12.993747
    4       -9.618073
    5       -8.658523
    6       -7.870002
    7       -7.006057
    8       -6.779088
    9        1.269543
   10        1.325411
   11        2.076504
   12        2.478368
 
  0.3333333E+00  0.5555556E-01  0.0000000E+00  0.4629630E-02
    1      -21.433001
    2      -19.585234
    3      -12.473640
    4       -9.445535
    5       -8.520909
    6       -8.324033
    7       -7.339599
    8       -6.987871
    9        1.469888
   10        1.865096
   11        2.278479
   12        2.683911
 
  0.3750000E+00  0.5555556E-01  0.0000000E+00  0.4629630E-02
    1      -21.267035
    2      -19.878916
    3      -11.946273
    4       -9.251063
    5       -8.805100
    6       -8.367523
    7       -7.662771
    8       -7.201034
    9        1.696874
   10        2.412400
   11        2.506812
   12        2.916853
 
  0.4166667E+00  0.5555556E-01  0.0000000E+00  0.4629630E-02
    1      -21.082005
    2      -20.155549
    3      -11.414407
    4       -9.306704
    5       -9.035151
    6       -8.199507
    7       -7.972301
    8       -7.414066
    9        1.950433
   10        2.760837
   11        2.955841
   12        3.177184
 
  0.4583333E+00  0.5555556E-01  0.0000000E+00  0.4629630E-02
    1      -20.878093
    2      -20.414561
    3      -10.880990
    4       -9.823105
    5       -8.798416
    6       -8.265837
    7       -8.018257
    8       -7.623237
    9        2.230482
   10        2.869567
   11        3.038562
   12        3.430739
 
  0.5000000E+00  0.5555556E-01  0.0000000E+00  0.2314815E-02
    1      -20.655521
    2      -20.655521
    3      -10.349308
    4      -10.349308
    5       -8.541644
    6       -8.541644
    7       -7.825476
    8       -7.825476
    9        2.536910
   10        2.536910
   11        3.329429
   12        3.329429
 
  0.0000000E+00  0.8333333E-01  0.0000000E+00  0.2314815E-02
    1      -21.992151
    2      -17.103584
    3      -15.758436
    4      -10.105497
    5       -9.412598
    6       -6.238252
    7       -6.203328
    8       -5.140397
    9       -1.194589
   10        0.708691
   11        1.509203
   12        1.902655
 
  0.4166667E-01  0.8333333E-01  0.0000000E+00  0.4629630E-02
    1      -21.982307
    2      -17.228587
    3      -15.618826
    4      -10.093821
    5       -9.402865
    6       -6.311454
    7       -6.189318
    8       -5.201797
    9       -1.118383
   10        0.722029
   11        1.522726
   12        1.916353
 
  0.8333333E-01  0.8333333E-01  0.0000000E+00  0.4629630E-02
    1      -21.952783
    2      -17.512261
    3      -15.291421
    4      -10.058811
    5       -9.373706
    6       -6.456565
    7       -6.219568
    8       -5.372791
    9       -0.903134
   10        0.762050
   11        1.563289
   12        1.957451
 
  0.1250000E+00  0.8333333E-01  0.0000000E+00  0.4629630E-02
    1      -21.903600
    2      -17.850217
    3      -14.880887
    4      -10.000525
    5       -9.325247
    6       -6.658598
    7       -6.302643
    8       -5.623601
    9       -0.579112
   10        0.828777
   11        1.630880
   12        2.025950
 
  0.1666667E+00  0.8333333E-01  0.0000000E+00  0.4629630E-02
    1      -21.834793
    2      -18.200575
    3      -14.429576
    4       -9.919061
    5       -9.257702
    6       -6.914256
    7       -6.431865
    8       -5.924071
    9       -0.177301
   10        0.922231
   11        1.725474
   12        2.121858
 
  0.2083333E+00  0.8333333E-01  0.0000000E+00  0.4629630E-02
    1      -21.746414
    2      -18.547835
    3      -13.953672
    4       -9.814560
    5       -9.171378
    6       -7.220275
    7       -6.597967
    8       -6.251262
    9        0.278182
   10        1.042429
   11        1.847035
   12        2.245176
 
  0.2500000E+00  0.8333333E-01  0.0000000E+00  0.4629630E-02
    1      -21.638530
    2      -18.885335
    3      -13.460746
    4       -9.687213
    5       -9.066688
    6       -7.572724
    7       -6.790962
    8       -6.589601
    9        0.770224
   10        1.189372
   11        1.995503
   12        2.395909
 
  0.2916667E+00  0.8333333E-01  0.0000000E+00  0.4629630E-02
    1      -21.511228
    2      -19.209736
    3      -12.955300
    4       -9.537266
    5       -8.944160
    6       -7.966701
    7       -7.001544
    8       -6.928844
    9        1.286630
   10        1.363042
   11        2.170791
   12        2.574053
 
  0.3333333E+00  0.8333333E-01  0.0000000E+00  0.4629630E-02
    1      -21.364610
    2      -19.519145
    3      -12.440687
    4       -9.365032
    5       -8.804458
    6       -8.396453
    7       -7.262200
    8       -7.221846
    9        1.563405
   10        1.818152
   11        2.372750
   12        2.779607
 
  0.3750000E+00  0.8333333E-01  0.0000000E+00  0.4629630E-02
    1      -21.198804
    2      -19.812374
    3      -11.919888
    4       -9.170902
    5       -8.855784
    6       -8.648407
    7       -7.585058
    8       -7.445582
    9        1.790411
   10        2.356896
   11        2.601105
   12        3.012562
 
  0.4166667E+00  0.8333333E-01  0.0000000E+00  0.4629630E-02
    1      -21.013962
    2      -20.088615
    3      -11.395891
    4       -9.338522
    5       -8.955364
    6       -8.477020
    7       -7.894199
    8       -7.667846
    9        2.043991
   10        2.855221
   11        2.893915
   12        3.272911
 
  0.4583333E+00  0.8333333E-01  0.0000000E+00  0.4629630E-02
    1      -20.810268
    2      -20.347286
    3      -10.871911
    4       -9.838860
    5       -8.719033
    6       -8.291542
    7       -8.187311
    8       -7.884818
    9        2.324063
   10        2.963223
   11        3.133076
   12        3.398530
 
  0.5000000E+00  0.8333333E-01  0.0000000E+00  0.2314815E-02
    1      -20.587951
    2      -20.587951
    3      -10.351540
    4      -10.351540
    5       -8.462685
    6       -8.462685
    7       -8.093508
    8       -8.093508
    9        2.630519
   10        2.630519
   11        3.421390
   12        3.421390
 
  0.0000000E+00  0.1111111E+00  0.0000000E+00  0.2314815E-02
    1      -21.895726
    2      -17.019991
    3      -15.678365
    4       -9.991215
    5       -9.791282
    6       -6.590952
    7       -6.385280
    8       -5.023952
    9       -1.225036
   10        0.839580
   11        1.641380
   12        2.036597
 
  0.4166667E-01  0.1111111E+00  0.0000000E+00  0.4629630E-02
    1      -21.885893
    2      -17.144192
    3      -15.539929
    4       -9.979569
    5       -9.781398
    6       -6.641483
    7       -6.390090
    8       -5.086351
    9       -1.148643
   10        0.852914
   11        1.654895
   12        2.050294
 
  0.8333333E-01  0.1111111E+00  0.0000000E+00  0.4629630E-02
    1      -21.856402
    2      -17.426356
    3      -15.215161
    4       -9.944649
    5       -9.751778
    6       -6.772535
    7       -6.423417
    8       -5.259652
    9       -0.933525
   10        0.892922
   11        1.695438
   12        2.091390
 
  0.1250000E+00  0.1111111E+00  0.0000000E+00  0.4629630E-02
    1      -21.807275
    2      -17.762833
    3      -14.808033
    4       -9.886512
    5       -9.702518
    6       -6.960785
    7       -6.503698
    8       -5.512861
    9       -0.611175
   10        0.959630
   11        1.762995
   12        2.159887
 
  0.1666667E+00  0.1111111E+00  0.0000000E+00  0.4629630E-02
    1      -21.738547
    2      -18.111881
    3      -14.360833
    4       -9.805258
    5       -9.633781
    6       -7.195599
    7       -6.633654
    8       -5.815128
    9       -0.213277
   10        1.053063
   11        1.857543
   12        2.255791
 
  0.2083333E+00  0.1111111E+00  0.0000000E+00  0.4629630E-02
    1      -21.650272
    2      -18.458001
    3      -13.889849
    4       -9.701026
    5       -9.545802
    6       -7.472054
    7       -6.807746
    8       -6.143379
    9        0.235923
   10        1.173243
   11        1.979047
   12        2.379110
 
  0.2500000E+00  0.1111111E+00  0.0000000E+00  0.4629630E-02
    1      -21.542520
    2      -18.794514
    3      -13.402820
    4       -9.574009
    5       -9.438888
    6       -7.787821
    7       -7.016071
    8       -6.482162
    9        0.719461
   10        1.320173
   11        2.127454
   12        2.529844
 
  0.2916667E+00  0.1111111E+00  0.0000000E+00  0.4629630E-02
    1      -21.415376
    2      -19.118062
    3      -12.904468
    4       -9.424451
    5       -9.313434
    6       -8.141482
    7       -7.246983
    8       -6.821403
    9        1.225396
   10        1.493837
   11        2.302684
   12        2.707994
 
  0.3333333E+00  0.1111111E+00  0.0000000E+00  0.4629630E-02
    1      -21.268949
    2      -19.426732
    3      -12.398422
    4       -9.252663
    5       -9.169925
    6       -8.531113
    7       -7.489397
    8       -7.154458
    9        1.694198
   10        1.744836
   11        2.504608
   12        2.913555
 
  0.3750000E+00  0.1111111E+00  0.0000000E+00  0.4629630E-02
    1      -21.103367
    2      -19.719320
    3      -11.888010
    4       -9.059035
    5       -9.008958
    6       -8.953419
    7       -7.734333
    8       -7.476833
    9        1.921202
   10        2.270532
   11        2.732983
   12        3.146523
 
  0.4166667E+00  0.1111111E+00  0.0000000E+00  0.4629630E-02
    1      -20.918789
    2      -19.995007
    3      -11.376647
    4       -9.403737
    5       -8.844049
    6       -8.831260
    7       -7.975327
    8       -7.785387
    9        2.174779
   10        2.795534
   11        2.987245
   12        3.406887
 
  0.4583333E+00  0.1111111E+00  0.0000000E+00  0.4629630E-02
    1      -20.715406
    2      -20.253199
    3      -10.868070
    4       -9.876615
    5       -8.637728
    6       -8.608314
    7       -8.208019
    8       -8.077864
    9        2.454841
   10        3.093966
   11        3.265353
   12        3.307659
 
  0.5000000E+00  0.1111111E+00  0.0000000E+00  0.2314815E-02
    1      -20.493448
    2      -20.493448
    3      -10.366479
    4      -10.366479
    5       -8.429491
    6       -8.429491
    7       -8.352594
    8       -8.352594
    9        2.761281
   10        2.761281
   11        3.545049
   12        3.545049
 
  0.0000000E+00  0.1388889E+00  0.0000000E+00  0.2314815E-02
    1      -21.771898
    2      -16.912565
    3      -15.577673
    4      -10.236695
    5       -9.844717
    6       -7.007166
    7       -6.613781
    8       -4.874500
    9       -1.273831
   10        1.007857
   11        1.811223
   12        2.208810
 
  0.4166667E-01  0.1388889E+00  0.0000000E+00  0.4629630E-02
    1      -21.762079
    2      -17.035820
    3      -15.440722
    4      -10.226553
    5       -9.833112
    6       -7.053431
    7       -6.618283
    8       -4.938353
    9       -1.197086
   10        1.021182
   11        1.824727
   12        2.222506
 
  0.8333333E-01  0.1388889E+00  0.0000000E+00  0.4629630E-02
    1      -21.732630
    2      -17.316134
    3      -15.119442
    4      -10.196140
    5       -9.798314
    6       -7.178127
    7       -6.644840
    8       -5.114967
    9       -0.981966
   10        1.061167
   11        1.865237
   12        2.263597
 
  0.1250000E+00  0.1388889E+00  0.0000000E+00  0.4629630E-02
    1      -21.683574
    2      -17.650741
    3      -14.716995
    4      -10.145501
    5       -9.740381
    6       -7.358739
    7       -6.712716
    8       -5.371555
    9       -0.661757
   10        1.127836
   11        1.932739
   12        2.332088
 
  0.1666667E+00  0.1388889E+00  0.0000000E+00  0.4629630E-02
    1      -21.614949
    2      -17.998103
    3      -14.275591
    4      -10.074701
    5       -9.659412
    6       -7.580406
    7       -6.831136
    8       -5.676291
    9       -0.269119
   10        1.221222
   11        2.027211
   12        2.427985
 
  0.2083333E+00  0.1388889E+00  0.0000000E+00  0.4629630E-02
    1      -21.526809
    2      -18.342745
    3      -13.811687
    4       -9.983831
    5       -9.555549
    6       -7.834820
    7       -7.000360
    8       -6.005956
    9        0.171575
   10        1.341351
   11        2.148621
   12        2.551296
 
  0.2500000E+00  0.1388889E+00  0.0000000E+00  0.4629630E-02
    1      -21.419225
    2      -18.677974
    3      -13.333307
    4       -9.872996
    5       -9.428982
    6       -8.117843
    7       -7.214393
    8       -6.345288
    9        0.643603
   10        1.488234
   11        2.296919
   12        2.702026
 
  0.2916667E+00  0.1388889E+00  0.0000000E+00  0.4629630E-02
    1      -21.292287
    2      -19.000408
    3      -12.845565
    4       -9.742305
    5       -9.279956
    6       -8.428335
    7       -7.462838
    8       -6.684466
    9        1.135383
   10        1.661857
   11        2.472038
   12        2.880175
 
  0.3333333E+00  0.1388889E+00  0.0000000E+00  0.4629630E-02
    1      -21.146106
    2      -19.308115
    3      -12.352603
    4       -9.591865
    5       -9.108780
    6       -8.767187
    7       -7.732699
    8       -7.017059
    9        1.638446
   10        1.862182
   11        2.673871
   12        3.085741
 
  0.3750000E+00  0.1388889E+00  0.0000000E+00  0.4629630E-02
    1      -20.980817
    2      -19.599869
    3      -11.858420
    4       -9.421762
    5       -9.135911
    6       -8.915841
    7       -8.010578
    8       -7.338729
    9        2.089150
   10        2.146132
   11        2.902236
   12        3.318716
 
  0.4166667E+00  0.1388889E+00  0.0000000E+00  0.4629630E-02
    1      -20.796582
    2      -19.874834
    3      -11.367276
    4       -9.534890
    5       -9.232074
    6       -8.701616
    7       -8.284987
    8       -7.646446
    9        2.342684
   10        2.652727
   11        3.156704
   12        3.579092
 
  0.4583333E+00  0.1388889E+00  0.0000000E+00  0.4629630E-02
    1      -20.593601
    2      -20.132401
    3      -10.883927
    4       -9.962199
    5       -9.022908
    6       -8.547852
    7       -8.466706
    8       -7.938029
    9        2.622689
   10        3.152337
   11        3.261630
   12        3.435346
 
  0.5000000E+00  0.1388889E+00  0.0000000E+00  0.2314815E-02
    1      -20.372110
    2      -20.372110
    3      -10.413682
    4      -10.413682
    5       -8.794550
    6       -8.794550
    7       -8.211859
    8       -8.211859
    9        2.929051
   10        2.929051
   11        3.615644
   12        3.615649
 
  0.0000000E+00  0.1666667E+00  0.0000000E+00  0.2314815E-02
    1      -21.620781
    2      -16.781347
    3      -15.458757
    4      -10.728116
    5       -9.666349
    6       -7.469774
    7       -6.884845
    8       -4.692245
    9       -1.347891
   10        1.213502
   11        2.018649
   12        2.419296
 
  0.4166667E-01  0.1666667E+00  0.0000000E+00  0.4629630E-02
    1      -21.610980
    2      -16.903590
    3      -15.323600
    4      -10.717531
    5       -9.654797
    6       -7.515543
    7       -6.884784
    8       -4.758192
    9       -1.270479
   10        1.226815
   11        2.032136
   12        2.432990
 
  0.8333333E-01  0.1666667E+00  0.0000000E+00  0.4629630E-02
    1      -21.581584
    2      -17.181801
    3      -15.006817
    4      -10.685755
    5       -9.620160
    6       -7.639759
    7       -6.897195
    8       -4.939488
    9       -1.054952
   10        1.266762
   11        2.072591
   12        2.474074
 
  0.1250000E+00  0.1666667E+00  0.0000000E+00  0.4629630E-02
    1      -21.532616
    2      -17.514173
    3      -14.610744
    4      -10.632722
    5       -9.562495
    6       -7.819153
    7       -6.943665
    8       -5.200711
    9       -0.737221
   10        1.333370
   11        2.140002
   12        2.542552
 
  0.1666667E+00  0.1666667E+00  0.0000000E+00  0.4629630E-02
    1      -21.464117
    2      -17.859470
    3      -14.177527
    4      -10.558304
    5       -9.481903
    6       -8.036269
    7       -7.038296
    8       -5.508722
    9       -0.351233
   10        1.426675
   11        2.234346
   12        2.638434
 
  0.2083333E+00  0.1666667E+00  0.0000000E+00  0.4629630E-02
    1      -21.376142
    2      -18.202281
    3      -13.723926
    4      -10.462287
    5       -9.378525
    6       -8.280271
    7       -7.186447
    8       -5.840173
    9        0.078567
   10        1.546711
   11        2.355588
   12        2.761727
 
  0.2500000E+00  0.1666667E+00  0.0000000E+00  0.4629630E-02
    1      -21.268765
    2      -18.535911
    3      -13.258498
    4      -10.344331
    5       -9.252552
    6       -8.544706
    7       -7.386849
    8       -6.180120
    9        0.535873
   10        1.693497
   11        2.503682
   12        2.912442
 
  0.2916667E+00  0.1666667E+00  0.0000000E+00  0.4629630E-02
    1      -21.142080
    2      -18.856958
    3      -12.787126
    4      -10.203916
    5       -9.104229
    6       -8.826239
    7       -7.633200
    8       -6.519105
    9        1.009631
   10        1.867029
   11        2.678566
   12        3.090580
 
  0.3333333E+00  0.1666667E+00  0.0000000E+00  0.4629630E-02
    1      -20.996203
    2      -19.163463
    3      -12.314992
    4      -10.040276
    5       -9.124178
    6       -8.933865
    7       -7.915343
    8       -6.850991
    9        1.491919
   10        2.067269
   11        2.880156
   12        3.296142
 
  0.3750000E+00  0.1666667E+00  0.0000000E+00  0.4629630E-02
    1      -20.831275
    2      -19.454177
    3      -11.847439
    4       -9.852364
    5       -9.440212
    6       -8.741842
    7       -8.220334
    8       -7.171651
    9        1.976672
   10        2.294154
   11        3.108339
   12        3.529118
 
  0.4166667E+00  0.1666667E+00  0.0000000E+00  0.4629630E-02
    1      -20.647467
    2      -19.728242
    3      -11.390314
    4       -9.777856
    5       -9.638920
    6       -8.533722
    7       -8.528634
    8       -7.478200
    9        2.458955
   10        2.547597
   11        3.362929
   12        3.789499
 
  0.4583333E+00  0.1666667E+00  0.0000000E+00  0.4629630E-02
    1      -20.444982
    2      -19.985033
    3      -10.949878
    4      -10.141051
    5       -9.398838
    6       -8.841428
    7       -8.294829
    8       -7.768554
    9        2.827490
   10        2.934516
   11        3.466087
   12        3.642954
 
  0.5000000E+00  0.1666667E+00  0.0000000E+00  0.2314815E-02
    1      -20.224071
    2      -20.224071
    3      -10.532063
    4      -10.532063
    5       -9.132111
    6       -9.132111
    7       -8.041160
    8       -8.041160
    9        3.133704
   10        3.133704
   11        3.399402
   12        3.399407
 