       N       E                     dE             d eps       ncg     rms          rms(c)
DAV:   1     0.186687547392E+03    0.18669E+03   -0.10622E+04  5928   0.275E+03
DAV:   2    -0.938213188131E+01   -0.19607E+03   -0.17388E+03 10320   0.260E+02
DAV:   3    -0.381685113411E+02   -0.28786E+02   -0.28251E+02  7476   0.119E+02    0.715E+00
RMM:   4    -0.376108088094E+02    0.55770E+00   -0.94939E+00  5928   0.263E+01    0.414E+00
RMM:   5    -0.368924426230E+02    0.71837E+00   -0.26866E+00  5933   0.112E+01    0.703E-01
RMM:   6    -0.368941959288E+02   -0.17533E-02   -0.80837E-02  6361   0.202E+00    0.505E-01
RMM:   7    -0.368851256230E+02    0.90703E-02   -0.31277E-02  5938   0.154E+00    0.330E-01
RMM:   8    -0.368801066424E+02    0.50190E-02   -0.64985E-03  5928   0.535E-01    0.136E-01
RMM:   9    -0.368798313284E+02    0.27531E-03   -0.19962E-02  5928   0.836E-01    0.153E-01
RMM:  10    -0.368797063873E+02    0.12494E-03   -0.21165E-03  5928   0.334E-01    0.271E-02
RMM:  11    -0.368820749431E+02   -0.23686E-02   -0.74015E-04  5929   0.182E-01    0.433E-02
RMM:  12    -0.368825623388E+02   -0.48740E-03   -0.21098E-04  5944   0.964E-02    0.487E-03
RMM:  13    -0.368828203122E+02   -0.25797E-03   -0.46299E-05  6036   0.356E-02    0.301E-03
RMM:  14    -0.368829032537E+02   -0.82941E-04   -0.97333E-06  5979   0.142E-02    0.890E-04
RMM:  15    -0.368829163261E+02   -0.13072E-04   -0.17710E-06  5947   0.725E-03    0.211E-03
RMM:  16    -0.368829287423E+02   -0.12416E-04   -0.17873E-06  5928   0.880E-03    0.133E-03
RMM:  17    -0.368829347072E+02   -0.59649E-05   -0.16818E-07  5933   0.251E-03    0.552E-04
RMM:  18    -0.368829357601E+02   -0.10529E-05   -0.34361E-08  5988   0.151E-03    0.952E-05
RMM:  19    -0.368829365534E+02   -0.79336E-06   -0.10444E-08  5765   0.462E-04    0.171E-05
RMM:  20    -0.368829365973E+02   -0.43864E-07   -0.76782E-10  4502   0.142E-04    0.236E-05
RMM:  21    -0.368829366117E+02   -0.14348E-07   -0.20595E-10  4332   0.838E-05    0.824E-06
RMM:  22    -0.368829366114E+02    0.20850E-09   -0.15738E-11  3885   0.496E-05    0.986E-07
RMM:  23    -0.368829366122E+02   -0.77875E-09   -0.22085E-11  3580   0.397E-05    0.204E-06
RMM:  24    -0.368829366123E+02   -0.61391E-10   -0.40448E-12  3075   0.281E-05
   1 F= -.36882937E+02 E0= -.36882936E+02  d E =-.368829E+02
       N       E                     dE             d eps       ncg     rms          rms(c)
DAV:   1    -0.368829354539E+02    0.11584E-05   -0.10850E-04  6344   0.976E-02    0.198E-03
RMM:   2    -0.368829355335E+02   -0.79589E-07   -0.17314E-06  5955   0.116E-02    0.143E-03
RMM:   3    -0.368829354968E+02    0.36653E-07   -0.29512E-07  5967   0.437E-03    0.382E-04
RMM:   4    -0.368829354893E+02    0.74881E-08   -0.19967E-08  6114   0.112E-03    0.109E-04
RMM:   5    -0.368829354904E+02   -0.10606E-08   -0.14659E-09  5665   0.267E-04    0.488E-05
RMM:   6    -0.368829354906E+02   -0.24193E-09   -0.19595E-10  3976   0.115E-04    0.513E-06
RMM:   7    -0.368829354905E+02    0.98339E-10   -0.11758E-11  3750   0.534E-05
   2 F= -.36882935E+02 E0= -.36882935E+02  d E =0.112176E-05
       N       E                     dE             d eps       ncg     rms          rms(c)
DAV:   1    -0.368829367062E+02   -0.12155E-05   -0.67930E-05  6668   0.773E-02    0.157E-03
RMM:   2    -0.368829367402E+02   -0.34033E-07   -0.10580E-06  5958   0.921E-03    0.113E-03
RMM:   3    -0.368829367032E+02    0.36950E-07   -0.18300E-07  5968   0.344E-03    0.294E-04
RMM:   4    -0.368829367014E+02    0.18446E-08   -0.12133E-08  6104   0.876E-04    0.857E-05
RMM:   5    -0.368829367006E+02    0.78467E-09   -0.90222E-10  5080   0.210E-04    0.386E-05
RMM:   6    -0.368829367007E+02   -0.48544E-10   -0.11583E-10  3802   0.939E-05
   3 F= -.36882937E+02 E0= -.36882936E+02  d E =-.121015E-05
       N       E                     dE             d eps       ncg     rms          rms(c)
DAV:   1    -0.368829367000E+02    0.65393E-09    0.53527E-09  4836   0.929E-05    0.281E-06
RMM:   2    -0.368829367006E+02   -0.58844E-09    0.25717E-12  3122   0.310E-05    0.175E-06
RMM:   3    -0.368829367005E+02    0.50022E-10   -0.16760E-12  2970   0.319E-05    0.196E-07
RMM:   4    -0.368829367005E+02    0.19895E-10   -0.13214E-12  2696   0.297E-05    0.135E-07
RMM:   5    -0.368829367004E+02    0.95611E-10   -0.18639E-12  2516   0.266E-05
   4 F= -.36882937E+02 E0= -.36882936E+02  d E =0.279556E-09
       N       E                     dE             d eps       ncg     rms          rms(c)
DAV:   1    -0.368829367000E+02    0.45986E-09    0.54072E-09  4624   0.542E-05    0.531E-07
RMM:   2    -0.368829367006E+02   -0.56411E-09    0.44721E-13  1650   0.158E-05    0.329E-07
RMM:   3    -0.368829367004E+02    0.19031E-09   -0.41350E-13  1561   0.157E-05    0.282E-08
RMM:   4    -0.368829367005E+02   -0.74351E-10   -0.28527E-13  1518   0.155E-05    0.185E-08
RMM:   5    -0.368829367006E+02   -0.12687E-09    0.36596E-15  1491   0.152E-05    0.111E-08
RMM:   6    -0.368829367006E+02    0.19099E-10   -0.35332E-13  1450   0.150E-05
   5 F= -.36882937E+02 E0= -.36882936E+02  d E =-.191676E-09
