<?xml version="1.0" encoding="ISO-8859-1"?>
<modeling>
 <generator>
  <i name="program" type="string">vasp </i>
  <i name="version" type="string">5.3.5  </i>
  <i name="subversion" type="string">31Mar14 (build Mar 02 2015 18:14:16) complex                          parallel </i>
  <i name="platform" type="string">LinuxIFC </i>
  <i name="date" type="string">2018 08 08 </i>
  <i name="time" type="string">18:40:36 </i>
 </generator>
 <incar>
  <i type="string" name="SYSTEM">  gr</i>
  <i type="string" name="PREC">accurate : accuracy</i>
  <i type="string" name="ALGO"> FAST.</i>
  <i type="int" name="NELM">   100</i>
  <i type="int" name="NELMDL">    -3</i>
  <i type="int" name="NELMIN">     5</i>
  <i type="int" name="IBRION">     1</i>
  <i name="EDIFF">      0.00000000</i>
  <i name="EDIFFG">     -0.00000100</i>
  <i type="int" name="NSW">   400</i>
  <i type="int" name="ISIF">     2</i>
  <i name="ENCUT">   2000.00000000</i>
  <i type="int" name="ISMEAR">     0</i>
  <i name="SIGMA">      0.05000000</i>
  <i type="int" name="NWRITE">     2</i>
  <i type="logical" name="LWAVE"> F  </i>
  <i type="logical" name="LCHARG"> F  </i>
  <i type="int" name="NELM">   100</i>
 </incar>
 <kpoints>
  <generation param="Gamma">
   <v type="int" name="divisions">      24       36        1 </v>
   <v name="usershift">      0.00000000       0.00000000       0.00000000 </v>
   <v name="genvec1">      0.04166667       0.00000000       0.00000000 </v>
   <v name="genvec2">      0.00000000       0.02777778       0.00000000 </v>
   <v name="genvec3">      0.00000000       0.00000000       1.00000000 </v>
   <v name="shift">      0.00000000       0.00000000       0.00000000 </v>
  </generation>
  <varray name="kpointlist" >
   <v>       0.00000000       0.00000000       0.00000000 </v>
   <v>       0.04166667       0.00000000       0.00000000 </v>
   <v>       0.08333333       0.00000000       0.00000000 </v>
   <v>       0.12500000       0.00000000       0.00000000 </v>
   <v>       0.16666667       0.00000000       0.00000000 </v>
   <v>       0.20833333       0.00000000       0.00000000 </v>
   <v>       0.25000000       0.00000000       0.00000000 </v>
   <v>       0.29166667       0.00000000       0.00000000 </v>
   <v>       0.33333333       0.00000000       0.00000000 </v>
   <v>       0.37500000       0.00000000       0.00000000 </v>
   <v>       0.41666667       0.00000000       0.00000000 </v>
   <v>       0.45833333       0.00000000       0.00000000 </v>
   <v>       0.50000000       0.00000000       0.00000000 </v>
   <v>       0.00000000       0.02777778       0.00000000 </v>
   <v>       0.04166667       0.02777778       0.00000000 </v>
   <v>       0.08333333       0.02777778       0.00000000 </v>
   <v>       0.12500000       0.02777778       0.00000000 </v>
   <v>       0.16666667       0.02777778       0.00000000 </v>
   <v>       0.20833333       0.02777778       0.00000000 </v>
   <v>       0.25000000       0.02777778       0.00000000 </v>
   <v>       0.29166667       0.02777778       0.00000000 </v>
   <v>       0.33333333       0.02777778       0.00000000 </v>
   <v>       0.37500000       0.02777778       0.00000000 </v>
   <v>       0.41666667       0.02777778       0.00000000 </v>
   <v>       0.45833333       0.02777778       0.00000000 </v>
   <v>       0.50000000       0.02777778       0.00000000 </v>
   <v>       0.00000000       0.05555556       0.00000000 </v>
   <v>       0.04166667       0.05555556       0.00000000 </v>
   <v>       0.08333333       0.05555556       0.00000000 </v>
   <v>       0.12500000       0.05555556       0.00000000 </v>
   <v>       0.16666667       0.05555556       0.00000000 </v>
   <v>       0.20833333       0.05555556       0.00000000 </v>
   <v>       0.25000000       0.05555556       0.00000000 </v>
   <v>       0.29166667       0.05555556       0.00000000 </v>
   <v>       0.33333333       0.05555556       0.00000000 </v>
   <v>       0.37500000       0.05555556       0.00000000 </v>
   <v>       0.41666667       0.05555556       0.00000000 </v>
   <v>       0.45833333       0.05555556       0.00000000 </v>
   <v>       0.50000000       0.05555556       0.00000000 </v>
   <v>       0.00000000       0.08333333       0.00000000 </v>
   <v>       0.04166667       0.08333333       0.00000000 </v>
   <v>       0.08333333       0.08333333       0.00000000 </v>
   <v>       0.12500000       0.08333333       0.00000000 </v>
   <v>       0.16666667       0.08333333       0.00000000 </v>
   <v>       0.20833333       0.08333333       0.00000000 </v>
   <v>       0.25000000       0.08333333       0.00000000 </v>
   <v>       0.29166667       0.08333333       0.00000000 </v>
   <v>       0.33333333       0.08333333       0.00000000 </v>
   <v>       0.37500000       0.08333333       0.00000000 </v>
   <v>       0.41666667       0.08333333       0.00000000 </v>
   <v>       0.45833333       0.08333333       0.00000000 </v>
   <v>       0.50000000       0.08333333       0.00000000 </v>
   <v>       0.00000000       0.11111111       0.00000000 </v>
   <v>       0.04166667       0.11111111       0.00000000 </v>
   <v>       0.08333333       0.11111111       0.00000000 </v>
   <v>       0.12500000       0.11111111       0.00000000 </v>
   <v>       0.16666667       0.11111111       0.00000000 </v>
   <v>       0.20833333       0.11111111       0.00000000 </v>
   <v>       0.25000000       0.11111111       0.00000000 </v>
   <v>       0.29166667       0.11111111       0.00000000 </v>
   <v>       0.33333333       0.11111111       0.00000000 </v>
   <v>       0.37500000       0.11111111       0.00000000 </v>
   <v>       0.41666667       0.11111111       0.00000000 </v>
   <v>       0.45833333       0.11111111       0.00000000 </v>
   <v>       0.50000000       0.11111111       0.00000000 </v>
   <v>       0.00000000       0.13888889       0.00000000 </v>
   <v>       0.04166667       0.13888889       0.00000000 </v>
   <v>       0.08333333       0.13888889       0.00000000 </v>
   <v>       0.12500000       0.13888889       0.00000000 </v>
   <v>       0.16666667       0.13888889       0.00000000 </v>
   <v>       0.20833333       0.13888889       0.00000000 </v>
   <v>       0.25000000       0.13888889       0.00000000 </v>
   <v>       0.29166667       0.13888889       0.00000000 </v>
   <v>       0.33333333       0.13888889       0.00000000 </v>
   <v>       0.37500000       0.13888889       0.00000000 </v>
   <v>       0.41666667       0.13888889       0.00000000 </v>
   <v>       0.45833333       0.13888889       0.00000000 </v>
   <v>       0.50000000       0.13888889       0.00000000 </v>
   <v>       0.00000000       0.16666667       0.00000000 </v>
   <v>       0.04166667       0.16666667       0.00000000 </v>
   <v>       0.08333333       0.16666667       0.00000000 </v>
   <v>       0.12500000       0.16666667       0.00000000 </v>
   <v>       0.16666667       0.16666667       0.00000000 </v>
   <v>       0.20833333       0.16666667       0.00000000 </v>
   <v>       0.25000000       0.16666667       0.00000000 </v>
   <v>       0.29166667       0.16666667       0.00000000 </v>
   <v>       0.33333333       0.16666667       0.00000000 </v>
   <v>       0.37500000       0.16666667       0.00000000 </v>
   <v>       0.41666667       0.16666667       0.00000000 </v>
   <v>       0.45833333       0.16666667       0.00000000 </v>
   <v>       0.50000000       0.16666667       0.00000000 </v>
   <v>       0.00000000       0.19444444       0.00000000 </v>
   <v>       0.04166667       0.19444444       0.00000000 </v>
   <v>       0.08333333       0.19444444       0.00000000 </v>
   <v>       0.12500000       0.19444444       0.00000000 </v>
   <v>       0.16666667       0.19444444       0.00000000 </v>
   <v>       0.20833333       0.19444444       0.00000000 </v>
   <v>       0.25000000       0.19444444       0.00000000 </v>
   <v>       0.29166667       0.19444444       0.00000000 </v>
   <v>       0.33333333       0.19444444       0.00000000 </v>
   <v>       0.37500000       0.19444444       0.00000000 </v>
   <v>       0.41666667       0.19444444       0.00000000 </v>
   <v>       0.45833333       0.19444444       0.00000000 </v>
   <v>       0.50000000       0.19444444       0.00000000 </v>
   <v>       0.00000000       0.22222222       0.00000000 </v>
   <v>       0.04166667       0.22222222       0.00000000 </v>
   <v>       0.08333333       0.22222222       0.00000000 </v>
   <v>       0.12500000       0.22222222       0.00000000 </v>
   <v>       0.16666667       0.22222222       0.00000000 </v>
   <v>       0.20833333       0.22222222       0.00000000 </v>
   <v>       0.25000000       0.22222222       0.00000000 </v>
   <v>       0.29166667       0.22222222       0.00000000 </v>
   <v>       0.33333333       0.22222222       0.00000000 </v>
   <v>       0.37500000       0.22222222       0.00000000 </v>
   <v>       0.41666667       0.22222222       0.00000000 </v>
   <v>       0.45833333       0.22222222       0.00000000 </v>
   <v>       0.50000000       0.22222222       0.00000000 </v>
   <v>       0.00000000       0.25000000       0.00000000 </v>
   <v>       0.04166667       0.25000000       0.00000000 </v>
   <v>       0.08333333       0.25000000       0.00000000 </v>
   <v>       0.12500000       0.25000000       0.00000000 </v>
   <v>       0.16666667       0.25000000       0.00000000 </v>
   <v>       0.20833333       0.25000000       0.00000000 </v>
   <v>       0.25000000       0.25000000       0.00000000 </v>
   <v>       0.29166667       0.25000000       0.00000000 </v>
   <v>       0.33333333       0.25000000       0.00000000 </v>
   <v>       0.37500000       0.25000000       0.00000000 </v>
   <v>       0.41666667       0.25000000       0.00000000 </v>
   <v>       0.45833333       0.25000000       0.00000000 </v>
   <v>       0.50000000       0.25000000       0.00000000 </v>
   <v>       0.00000000       0.27777778       0.00000000 </v>
   <v>       0.04166667       0.27777778       0.00000000 </v>
   <v>       0.08333333       0.27777778       0.00000000 </v>
   <v>       0.12500000       0.27777778       0.00000000 </v>
   <v>       0.16666667       0.27777778       0.00000000 </v>
   <v>       0.20833333       0.27777778       0.00000000 </v>
   <v>       0.25000000       0.27777778       0.00000000 </v>
   <v>       0.29166667       0.27777778       0.00000000 </v>
   <v>       0.33333333       0.27777778       0.00000000 </v>
   <v>       0.37500000       0.27777778       0.00000000 </v>
   <v>       0.41666667       0.27777778       0.00000000 </v>
   <v>       0.45833333       0.27777778       0.00000000 </v>
   <v>       0.50000000       0.27777778       0.00000000 </v>
   <v>       0.00000000       0.30555556       0.00000000 </v>
   <v>       0.04166667       0.30555556       0.00000000 </v>
   <v>       0.08333333       0.30555556       0.00000000 </v>
   <v>       0.12500000       0.30555556       0.00000000 </v>
   <v>       0.16666667       0.30555556       0.00000000 </v>
   <v>       0.20833333       0.30555556       0.00000000 </v>
   <v>       0.25000000       0.30555556       0.00000000 </v>
   <v>       0.29166667       0.30555556       0.00000000 </v>
   <v>       0.33333333       0.30555556       0.00000000 </v>
   <v>       0.37500000       0.30555556       0.00000000 </v>
   <v>       0.41666667       0.30555556       0.00000000 </v>
   <v>       0.45833333       0.30555556       0.00000000 </v>
   <v>       0.50000000       0.30555556       0.00000000 </v>
   <v>       0.00000000       0.33333333       0.00000000 </v>
   <v>       0.04166667       0.33333333       0.00000000 </v>
   <v>       0.08333333       0.33333333       0.00000000 </v>
   <v>       0.12500000       0.33333333       0.00000000 </v>
   <v>       0.16666667       0.33333333       0.00000000 </v>
   <v>       0.20833333       0.33333333       0.00000000 </v>
   <v>       0.25000000       0.33333333       0.00000000 </v>
   <v>       0.29166667       0.33333333       0.00000000 </v>
   <v>       0.33333333       0.33333333       0.00000000 </v>
   <v>       0.37500000       0.33333333       0.00000000 </v>
   <v>       0.41666667       0.33333333       0.00000000 </v>
   <v>       0.45833333       0.33333333       0.00000000 </v>
   <v>       0.50000000       0.33333333       0.00000000 </v>
   <v>       0.00000000       0.36111111       0.00000000 </v>
   <v>       0.04166667       0.36111111       0.00000000 </v>
   <v>       0.08333333       0.36111111       0.00000000 </v>
   <v>       0.12500000       0.36111111       0.00000000 </v>
   <v>       0.16666667       0.36111111       0.00000000 </v>
   <v>       0.20833333       0.36111111       0.00000000 </v>
   <v>       0.25000000       0.36111111       0.00000000 </v>
   <v>       0.29166667       0.36111111       0.00000000 </v>
   <v>       0.33333333       0.36111111       0.00000000 </v>
   <v>       0.37500000       0.36111111       0.00000000 </v>
   <v>       0.41666667       0.36111111       0.00000000 </v>
   <v>       0.45833333       0.36111111       0.00000000 </v>
   <v>       0.50000000       0.36111111       0.00000000 </v>
   <v>       0.00000000       0.38888889       0.00000000 </v>
   <v>       0.04166667       0.38888889       0.00000000 </v>
   <v>       0.08333333       0.38888889       0.00000000 </v>
   <v>       0.12500000       0.38888889       0.00000000 </v>
   <v>       0.16666667       0.38888889       0.00000000 </v>
   <v>       0.20833333       0.38888889       0.00000000 </v>
   <v>       0.25000000       0.38888889       0.00000000 </v>
   <v>       0.29166667       0.38888889       0.00000000 </v>
   <v>       0.33333333       0.38888889       0.00000000 </v>
   <v>       0.37500000       0.38888889       0.00000000 </v>
   <v>       0.41666667       0.38888889       0.00000000 </v>
   <v>       0.45833333       0.38888889       0.00000000 </v>
   <v>       0.50000000       0.38888889       0.00000000 </v>
   <v>       0.00000000       0.41666667       0.00000000 </v>
   <v>       0.04166667       0.41666667       0.00000000 </v>
   <v>       0.08333333       0.41666667       0.00000000 </v>
   <v>       0.12500000       0.41666667       0.00000000 </v>
   <v>       0.16666667       0.41666667       0.00000000 </v>
   <v>       0.20833333       0.41666667       0.00000000 </v>
   <v>       0.25000000       0.41666667       0.00000000 </v>
   <v>       0.29166667       0.41666667       0.00000000 </v>
   <v>       0.33333333       0.41666667       0.00000000 </v>
   <v>       0.37500000       0.41666667       0.00000000 </v>
   <v>       0.41666667       0.41666667       0.00000000 </v>
   <v>       0.45833333       0.41666667       0.00000000 </v>
   <v>       0.50000000       0.41666667       0.00000000 </v>
   <v>       0.00000000       0.44444444       0.00000000 </v>
   <v>       0.04166667       0.44444444       0.00000000 </v>
   <v>       0.08333333       0.44444444       0.00000000 </v>
   <v>       0.12500000       0.44444444       0.00000000 </v>
   <v>       0.16666667       0.44444444       0.00000000 </v>
   <v>       0.20833333       0.44444444       0.00000000 </v>
   <v>       0.25000000       0.44444444       0.00000000 </v>
   <v>       0.29166667       0.44444444       0.00000000 </v>
   <v>       0.33333333       0.44444444       0.00000000 </v>
   <v>       0.37500000       0.44444444       0.00000000 </v>
   <v>       0.41666667       0.44444444       0.00000000 </v>
   <v>       0.45833333       0.44444444       0.00000000 </v>
   <v>       0.50000000       0.44444444       0.00000000 </v>
   <v>       0.00000000       0.47222222       0.00000000 </v>
   <v>       0.04166667       0.47222222       0.00000000 </v>
   <v>       0.08333333       0.47222222       0.00000000 </v>
   <v>       0.12500000       0.47222222       0.00000000 </v>
   <v>       0.16666667       0.47222222       0.00000000 </v>
   <v>       0.20833333       0.47222222       0.00000000 </v>
   <v>       0.25000000       0.47222222       0.00000000 </v>
   <v>       0.29166667       0.47222222       0.00000000 </v>
   <v>       0.33333333       0.47222222       0.00000000 </v>
   <v>       0.37500000       0.47222222       0.00000000 </v>
   <v>       0.41666667       0.47222222       0.00000000 </v>
   <v>       0.45833333       0.47222222       0.00000000 </v>
   <v>       0.50000000       0.47222222       0.00000000 </v>
   <v>       0.00000000       0.50000000       0.00000000 </v>
   <v>       0.04166667       0.50000000       0.00000000 </v>
   <v>       0.08333333       0.50000000       0.00000000 </v>
   <v>       0.12500000       0.50000000       0.00000000 </v>
   <v>       0.16666667       0.50000000       0.00000000 </v>
   <v>       0.20833333       0.50000000       0.00000000 </v>
   <v>       0.25000000       0.50000000       0.00000000 </v>
   <v>       0.29166667       0.50000000       0.00000000 </v>
   <v>       0.33333333       0.50000000       0.00000000 </v>
   <v>       0.37500000       0.50000000       0.00000000 </v>
   <v>       0.41666667       0.50000000       0.00000000 </v>
   <v>       0.45833333       0.50000000       0.00000000 </v>
   <v>       0.50000000       0.50000000       0.00000000 </v>
  </varray>
  <varray name="weights" >
   <v>       0.00115741 </v>
   <v>       0.00231481 </v>
   <v>       0.00231481 </v>
   <v>       0.00231481 </v>
   <v>       0.00231481 </v>
   <v>       0.00231481 </v>
   <v>       0.00231481 </v>
   <v>       0.00231481 </v>
   <v>       0.00231481 </v>
   <v>       0.00231481 </v>
   <v>       0.00231481 </v>
   <v>       0.00231481 </v>
   <v>       0.00115741 </v>
   <v>       0.00231481 </v>
   <v>       0.00462963 </v>
   <v>       0.00462963 </v>
   <v>       0.00462963 </v>
   <v>       0.00462963 </v>
   <v>       0.00462963 </v>
   <v>       0.00462963 </v>
   <v>       0.00462963 </v>
   <v>       0.00462963 </v>
   <v>       0.00462963 </v>
   <v>       0.00462963 </v>
   <v>       0.00462963 </v>
   <v>       0.00231481 </v>
   <v>       0.00231481 </v>
   <v>       0.00462963 </v>
   <v>       0.00462963 </v>
   <v>       0.00462963 </v>
   <v>       0.00462963 </v>
   <v>       0.00462963 </v>
   <v>       0.00462963 </v>
   <v>       0.00462963 </v>
   <v>       0.00462963 </v>
   <v>       0.00462963 </v>
   <v>       0.00462963 </v>
   <v>       0.00462963 </v>
   <v>       0.00231481 </v>
   <v>       0.00231481 </v>
   <v>       0.00462963 </v>
   <v>       0.00462963 </v>
   <v>       0.00462963 </v>
   <v>       0.00462963 </v>
   <v>       0.00462963 </v>
   <v>       0.00462963 </v>
   <v>       0.00462963 </v>
   <v>       0.00462963 </v>
   <v>       0.00462963 </v>
   <v>       0.00462963 </v>
   <v>       0.00462963 </v>
   <v>       0.00231481 </v>
   <v>       0.00231481 </v>
   <v>       0.00462963 </v>
   <v>       0.00462963 </v>
   <v>       0.00462963 </v>
   <v>       0.00462963 </v>
   <v>       0.00462963 </v>
   <v>       0.00462963 </v>
   <v>       0.00462963 </v>
   <v>       0.00462963 </v>
   <v>       0.00462963 </v>
   <v>       0.00462963 </v>
   <v>       0.00462963 </v>
   <v>       0.00231481 </v>
   <v>       0.00231481 </v>
   <v>       0.00462963 </v>
   <v>       0.00462963 </v>
   <v>       0.00462963 </v>
   <v>       0.00462963 </v>
   <v>       0.00462963 </v>
   <v>       0.00462963 </v>
   <v>       0.00462963 </v>
   <v>       0.00462963 </v>
   <v>       0.00462963 </v>
   <v>       0.00462963 </v>
   <v>       0.00462963 </v>
   <v>       0.00231481 </v>
   <v>       0.00231481 </v>
   <v>       0.00462963 </v>
   <v>       0.00462963 </v>
   <v>       0.00462963 </v>
   <v>       0.00462963 </v>
   <v>       0.00462963 </v>
   <v>       0.00462963 </v>
   <v>       0.00462963 </v>
   <v>       0.00462963 </v>
   <v>       0.00462963 </v>
   <v>       0.00462963 </v>
   <v>       0.00462963 </v>
   <v>       0.00231481 </v>
   <v>       0.00231481 </v>
   <v>       0.00462963 </v>
   <v>       0.00462963 </v>
   <v>       0.00462963 </v>
   <v>       0.00462963 </v>
   <v>       0.00462963 </v>
   <v>       0.00462963 </v>
   <v>       0.00462963 </v>
   <v>       0.00462963 </v>
   <v>       0.00462963 </v>
   <v>       0.00462963 </v>
   <v>       0.00462963 </v>
   <v>       0.00231481 </v>
   <v>       0.00231481 </v>
   <v>       0.00462963 </v>
   <v>       0.00462963 </v>
   <v>       0.00462963 </v>
   <v>       0.00462963 </v>
   <v>       0.00462963 </v>
   <v>       0.00462963 </v>
   <v>       0.00462963 </v>
   <v>       0.00462963 </v>
   <v>       0.00462963 </v>
   <v>       0.00462963 </v>
   <v>       0.00462963 </v>
   <v>       0.00231481 </v>
   <v>       0.00231481 </v>
   <v>       0.00462963 </v>
   <v>       0.00462963 </v>
   <v>       0.00462963 </v>
   <v>       0.00462963 </v>
   <v>       0.00462963 </v>
   <v>       0.00462963 </v>
   <v>       0.00462963 </v>
   <v>       0.00462963 </v>
   <v>       0.00462963 </v>
   <v>       0.00462963 </v>
   <v>       0.00462963 </v>
   <v>       0.00231481 </v>
   <v>       0.00231481 </v>
   <v>       0.00462963 </v>
   <v>       0.00462963 </v>
   <v>       0.00462963 </v>
   <v>       0.00462963 </v>
   <v>       0.00462963 </v>
   <v>       0.00462963 </v>
   <v>       0.00462963 </v>
   <v>       0.00462963 </v>
   <v>       0.00462963 </v>
   <v>       0.00462963 </v>
   <v>       0.00462963 </v>
   <v>       0.00231481 </v>
   <v>       0.00231481 </v>
   <v>       0.00462963 </v>
   <v>       0.00462963 </v>
   <v>       0.00462963 </v>
   <v>       0.00462963 </v>
   <v>       0.00462963 </v>
   <v>       0.00462963 </v>
   <v>       0.00462963 </v>
   <v>       0.00462963 </v>
   <v>       0.00462963 </v>
   <v>       0.00462963 </v>
   <v>       0.00462963 </v>
   <v>       0.00231481 </v>
   <v>       0.00231481 </v>
   <v>       0.00462963 </v>
   <v>       0.00462963 </v>
   <v>       0.00462963 </v>
   <v>       0.00462963 </v>
   <v>       0.00462963 </v>
   <v>       0.00462963 </v>
   <v>       0.00462963 </v>
   <v>       0.00462963 </v>
   <v>       0.00462963 </v>
   <v>       0.00462963 </v>
   <v>       0.00462963 </v>
   <v>       0.00231481 </v>
   <v>       0.00231481 </v>
   <v>       0.00462963 </v>
   <v>       0.00462963 </v>
   <v>       0.00462963 </v>
   <v>       0.00462963 </v>
   <v>       0.00462963 </v>
   <v>       0.00462963 </v>
   <v>       0.00462963 </v>
   <v>       0.00462963 </v>
   <v>       0.00462963 </v>
   <v>       0.00462963 </v>
   <v>       0.00462963 </v>
   <v>       0.00231481 </v>
   <v>       0.00231481 </v>
   <v>       0.00462963 </v>
   <v>       0.00462963 </v>
   <v>       0.00462963 </v>
   <v>       0.00462963 </v>
   <v>       0.00462963 </v>
   <v>       0.00462963 </v>
   <v>       0.00462963 </v>
   <v>       0.00462963 </v>
   <v>       0.00462963 </v>
   <v>       0.00462963 </v>
   <v>       0.00462963 </v>
   <v>       0.00231481 </v>
   <v>       0.00231481 </v>
   <v>       0.00462963 </v>
   <v>       0.00462963 </v>
   <v>       0.00462963 </v>
   <v>       0.00462963 </v>
   <v>       0.00462963 </v>
   <v>       0.00462963 </v>
   <v>       0.00462963 </v>
   <v>       0.00462963 </v>
   <v>       0.00462963 </v>
   <v>       0.00462963 </v>
   <v>       0.00462963 </v>
   <v>       0.00231481 </v>
   <v>       0.00231481 </v>
   <v>       0.00462963 </v>
   <v>       0.00462963 </v>
   <v>       0.00462963 </v>
   <v>       0.00462963 </v>
   <v>       0.00462963 </v>
   <v>       0.00462963 </v>
   <v>       0.00462963 </v>
   <v>       0.00462963 </v>
   <v>       0.00462963 </v>
   <v>       0.00462963 </v>
   <v>       0.00462963 </v>
   <v>       0.00231481 </v>
   <v>       0.00231481 </v>
   <v>       0.00462963 </v>
   <v>       0.00462963 </v>
   <v>       0.00462963 </v>
   <v>       0.00462963 </v>
   <v>       0.00462963 </v>
   <v>       0.00462963 </v>
   <v>       0.00462963 </v>
   <v>       0.00462963 </v>
   <v>       0.00462963 </v>
   <v>       0.00462963 </v>
   <v>       0.00462963 </v>
   <v>       0.00231481 </v>
   <v>       0.00115741 </v>
   <v>       0.00231481 </v>
   <v>       0.00231481 </v>
   <v>       0.00231481 </v>
   <v>       0.00231481 </v>
   <v>       0.00231481 </v>
   <v>       0.00231481 </v>
   <v>       0.00231481 </v>
   <v>       0.00231481 </v>
   <v>       0.00231481 </v>
   <v>       0.00231481 </v>
   <v>       0.00231481 </v>
   <v>       0.00115741 </v>
  </varray>
 </kpoints>
 <parameters>
  <separator name="general" >
   <i type="string" name="SYSTEM">gr</i>
   <i type="logical" name="LCOMPAT"> F  </i>
  </separator>
  <separator name="electronic" >
   <i type="string" name="PREC">accura</i>
   <i name="ENMAX">   2000.00000000</i>
   <i name="ENAUG">    644.87300000</i>
   <i name="EDIFF">      0.00000000</i>
   <i type="int" name="IALGO">    68</i>
   <i type="int" name="IWAVPR">    11</i>
   <i type="int" name="NBANDS">    12</i>
   <i name="NELECT">     16.00000000</i>
   <i type="int" name="TURBO">     0</i>
   <i type="int" name="IRESTART">     0</i>
   <i type="int" name="NREBOOT">     0</i>
   <i type="int" name="NMIN">     0</i>
   <i name="EREF">      0.00000000</i>
   <separator name="electronic smearing" >
    <i type="int" name="ISMEAR">     0</i>
    <i name="SIGMA">      0.05000000</i>
    <i name="KSPACING">      0.50000000</i>
    <i type="logical" name="KGAMMA"> T  </i>
   </separator>
   <separator name="electronic projectors" >
    <i type="logical" name="LREAL"> F  </i>
    <v name="ROPT">      0.00000000</v>
    <i type="int" name="LMAXPAW">  -100</i>
    <i type="int" name="LMAXMIX">     2</i>
    <i type="logical" name="NLSPLINE"> F  </i>
   </separator>
   <separator name="electronic startup" >
    <i type="int" name="ISTART">     0</i>
    <i type="int" name="ICHARG">     2</i>
    <i type="int" name="INIWAV">     1</i>
   </separator>
   <separator name="electronic spin" >
    <i type="int" name="ISPIN">     1</i>
    <i type="logical" name="LNONCOLLINEAR"> F  </i>
    <v name="MAGMOM">      1.00000000      1.00000000      1.00000000      1.00000000</v>
    <i name="NUPDOWN">     -1.00000000</i>
    <i type="logical" name="LSORBIT"> F  </i>
    <v name="SAXIS">      0.00000000      0.00000000      1.00000000</v>
    <i type="logical" name="LSPIRAL"> F  </i>
    <v name="QSPIRAL">      0.00000000      0.00000000      0.00000000</v>
    <i type="logical" name="LZEROZ"> F  </i>
   </separator>
   <separator name="electronic exchange-correlation" >
    <i type="logical" name="LASPH"> F  </i>
    <i type="logical" name="LMETAGGA"> F  </i>
   </separator>
   <separator name="electronic convergence" >
    <i type="int" name="NELM">   100</i>
    <i type="int" name="NELMDL">    -3</i>
    <i type="int" name="NELMIN">     5</i>
    <i name="ENINI">   2000.00000000</i>
    <separator name="electronic convergence detail" >
     <i type="logical" name="LDIAG"> T  </i>
     <i type="logical" name="LSUBROT"> F  </i>
     <i name="WEIMIN">      0.00100000</i>
     <i name="EBREAK">      0.00000000</i>
     <i name="DEPER">      0.30000000</i>
     <i type="int" name="NRMM">     4</i>
     <i name="TIME">      0.40000000</i>
    </separator>
   </separator>
   <separator name="electronic mixer" >
    <i name="AMIX">      0.40000000</i>
    <i name="BMIX">      1.00000000</i>
    <i name="AMIN">      0.10000000</i>
    <i name="AMIX_MAG">      1.60000000</i>
    <i name="BMIX_MAG">      1.00000000</i>
    <separator name="electronic mixer details" >
     <i type="int" name="IMIX">     4</i>
     <i type="int" name="MAXMIX">   -45</i>
     <i name="WC">    100.00000000</i>
     <i type="int" name="INIMIX">     1</i>
     <i type="int" name="MIXPRE">     1</i>
     <i type="int" name="MREMOVE">     5</i>
    </separator>
   </separator>
   <separator name="electronic dipolcorrection" >
    <i type="logical" name="LDIPOL"> F  </i>
    <i type="logical" name="LMONO"> F  </i>
    <i type="int" name="IDIPOL">     0</i>
    <i name="EPSILON">      1.00000000</i>
    <v name="DIPOL">   -100.00000000   -100.00000000   -100.00000000</v>
    <i name="EFIELD">      0.00000000</i>
   </separator>
  </separator>
  <separator name="grids" >
   <i type="int" name="NGX">    64</i>
   <i type="int" name="NGY">    36</i>
   <i type="int" name="NGZ">   288</i>
   <i type="int" name="NGXF">   128</i>
   <i type="int" name="NGYF">    72</i>
   <i type="int" name="NGZF">   576</i>
   <i type="logical" name="ADDGRID"> F  </i>
  </separator>
  <separator name="ionic" >
   <i type="int" name="NSW">   400</i>
   <i type="int" name="IBRION">     1</i>
   <i type="int" name="ISIF">     2</i>
   <i name="PSTRESS">      0.00000000</i>
   <i name="EDIFFG">     -0.00000100</i>
   <i type="int" name="NFREE">     0</i>
   <i name="POTIM">      0.50000000</i>
   <i name="SMASS">     -3.00000000</i>
   <i name="SCALEE">      1.00000000</i>
  </separator>
  <separator name="ionic md" >
   <i name="TEBEG">      0.00010000</i>
   <i name="TEEND">      0.00010000</i>
   <i type="int" name="NBLOCK">     1</i>
   <i type="int" name="KBLOCK">   400</i>
   <i type="int" name="NPACO">   256</i>
   <i name="APACO">     16.00000000</i>
  </separator>
  <separator name="symmetry" >
   <i type="int" name="ISYM">     2</i>
   <i name="SYMPREC">      0.00001000</i>
  </separator>
  <separator name="dos" >
   <i type="logical" name="LORBIT"> F  </i>
   <v name="RWIGS">     -1.00000000</v>
   <i type="int" name="NEDOS">   301</i>
   <i name="EMIN">     10.00000000</i>
   <i name="EMAX">    -10.00000000</i>
   <i name="EFERMI">      0.00000000</i>
  </separator>
  <separator name="writing" >
   <i type="int" name="NWRITE">     2</i>
   <i type="logical" name="LWAVE"> F  </i>
   <i type="logical" name="LCHARG"> F  </i>
   <i type="logical" name="LPARD"> F  </i>
   <i type="logical" name="LVTOT"> F  </i>
   <i type="logical" name="LVHAR"> F  </i>
   <i type="logical" name="LELF"> F  </i>
   <i type="logical" name="LOPTICS"> F  </i>
   <v name="STM">      0.00000000      0.00000000      0.00000000      0.00000000      0.00000000      0.00000000      0.00000000</v>
  </separator>
  <separator name="performance" >
   <i type="int" name="NPAR">     4</i>
   <i type="int" name="NSIM">     4</i>
   <i type="int" name="NBLK">    -1</i>
   <i type="logical" name="LPLANE"> T  </i>
   <i type="logical" name="LSCALAPACK"> F  </i>
   <i type="logical" name="LSCAAWARE"> F  </i>
   <i type="logical" name="LSCALU"> F  </i>
   <i type="logical" name="LASYNC"> F  </i>
   <i type="logical" name="LORBITALREAL"> F  </i>
  </separator>
  <separator name="miscellaneous" >
   <i type="int" name="IDIOT">     3</i>
   <i type="logical" name="LMUSIC"> F  </i>
   <v name="POMASS">     12.01100000</v>
   <v name="DARWINR">      0.00000000</v>
   <v name="DARWINV">      1.00000000</v>
   <i type="logical" name="LCORR"> T  </i>
  </separator>
  <i type="logical" name="GGA_COMPAT"> T  </i>
  <i type="logical" name="LBERRY"> F  </i>
  <i type="int" name="ICORELEVEL">     0</i>
  <i type="logical" name="LDAU"> F  </i>
  <i type="int" name="I_CONSTRAINED_M">     0</i>
  <separator name="electronic exchange-correlation" >
   <i type="string" name="GGA">--</i>
   <i type="int" name="VOSKOWN">     0</i>
   <i type="logical" name="LHFCALC"> F  </i>
   <i type="string" name="PRECFOCK"></i>
   <i type="logical" name="LSYMGRAD"> F  </i>
   <i type="logical" name="LHFONE"> F  </i>
   <i type="logical" name="LRHFCALC"> F  </i>
   <i type="logical" name="LTHOMAS"> F  </i>
   <i type="logical" name="LMODELHF"> F  </i>
   <i name="ENCUT4O">     -1.00000000</i>
   <i type="int" name="EXXOEP">     0</i>
   <i type="int" name="FOURORBIT">     0</i>
   <i name="AEXX">      0.00000000</i>
   <i name="HFALPHA">      0.00000000</i>
   <i name="MCALPHA">      0.00000000</i>
   <i name="ALDAX">      1.00000000</i>
   <i name="AGGAX">      1.00000000</i>
   <i name="ALDAC">      1.00000000</i>
   <i name="AGGAC">      1.00000000</i>
   <i type="int" name="NKREDX">     1</i>
   <i type="int" name="NKREDY">     1</i>
   <i type="int" name="NKREDZ">     1</i>
   <i type="logical" name="SHIFTRED"> F  </i>
   <i type="logical" name="ODDONLY"> F  </i>
   <i type="logical" name="EVENONLY"> F  </i>
   <i type="int" name="LMAXFOCK">     0</i>
   <i type="int" name="NMAXFOCKAE">     0</i>
   <i type="logical" name="LFOCKAEDFT"> F  </i>
   <i name="HFSCREEN">      0.00000000</i>
   <i name="HFSCREENC">      0.00000000</i>
   <i type="int" name="NBANDSGWLOW">     0</i>
  </separator>
  <separator name="vdW DFT" >
   <i type="logical" name="LUSE_VDW"> F  </i>
   <i name="Zab_VDW">     -0.84910000</i>
   <i name="PARAM1">      0.12340000</i>
   <i name="PARAM2">      1.00000000</i>
   <i name="PARAM3">      0.00000000</i>
  </separator>
  <separator name="model GW" >
   <i type="int" name="MODEL_GW">     0</i>
   <i name="MODEL_EPS0">     31.62568521</i>
   <i name="MODEL_ALPHA">      1.00000000</i>
  </separator>
  <separator name="linear response parameters" >
   <i type="logical" name="LEPSILON"> F  </i>
   <i type="logical" name="LRPA"> F  </i>
   <i type="logical" name="LNABLA"> F  </i>
   <i type="logical" name="LVEL"> F  </i>
   <i type="int" name="KINTER">     0</i>
   <i name="CSHIFT">      0.10000000</i>
   <i name="OMEGAMAX">     -1.00000000</i>
   <i name="DEG_THRESHOLD">      0.00200000</i>
  </separator>
  <separator name="orbital magnetization" >
   <i type="logical" name="NUCIND"> F  </i>
   <v name="MAGPOS">      0.00000000      0.00000000      0.00000000</v>
   <i type="logical" name="LNICSALL"> T  </i>
   <i type="logical" name="ORBITALMAG"> F  </i>
   <i type="logical" name="LMAGBLOCH"> F  </i>
   <i type="logical" name="LCHIMAG"> F  </i>
   <i type="logical" name="LGAUGE"> T  </i>
   <i type="int" name="MAGATOM">     0</i>
   <v name="MAGDIPOL">      0.00000000      0.00000000      0.00000000</v>
   <v name="AVECCONST">      0.00000000      0.00000000      0.00000000</v>
  </separator>
  <separator name="response functions" >
   <i type="logical" name="LADDER"> F  </i>
   <i type="logical" name="LFXC"> F  </i>
   <i type="logical" name="LHARTREE"> T  </i>
   <i type="int" name="IBSE">     0</i>
   <i type="logical" name="LTCTE"> F  </i>
   <i type="logical" name="LTETE"> F  </i>
   <i type="logical" name="LTRIPLET"> F  </i>
   <i type="logical" name="LFXCEPS"> F  </i>
   <i type="logical" name="LFXHEG"> F  </i>
   <i type="logical" name="L2ORDER"> F  </i>
   <i type="logical" name="LUSEW"> F  </i>
   <i name="ENCUTGW">     -2.00000000</i>
   <i name="ENCUTGWSOFT">     -2.00000000</i>
   <i name="ENCUTLF">     -1.00000000</i>
   <i type="int" name="LMAXMP2">    -1</i>
   <i name="SCISSOR">      0.00000000</i>
   <i type="int" name="NOMEGA">     0</i>
   <i type="int" name="NOMEGAR">     0</i>
   <i type="int" name="NBANDSGW">    -1</i>
   <i type="int" name="NBANDSO">    -1</i>
   <i type="int" name="NBANDSV">    -1</i>
   <i type="int" name="NELM">   100</i>
   <i type="int" name="DIM">     3</i>
   <i type="int" name="ANTIRES">     0</i>
   <i name="OMEGAMAX">    -30.00000000</i>
   <i name="OMEGAMIN">    -30.00000000</i>
   <i name="OMEGATL">   -200.00000000</i>
   <i type="int" name="OMEGAGRID">     0</i>
   <i name="CSHIFT">     -0.10000000</i>
   <i type="logical" name="SELFENERGY"> F  </i>
   <i type="logical" name="LSPECTRAL"> F  </i>
   <i type="logical" name="ODDONLYGW"> F  </i>
   <i type="logical" name="EVENONLYGW"> F  </i>
   <i type="int" name="NKREDLFX">     1</i>
   <i type="int" name="NKREDLFY">     1</i>
   <i type="int" name="NKREDLFZ">     1</i>
   <i type="int" name="MAXMEM">  1800</i>
   <i type="int" name="TELESCOPE">     0</i>
   <i type="int" name="TAUPAR">     1</i>
  </separator>
  <separator name="External order field" >
   <i name="OFIELD_KAPPA">      0.00000000</i>
   <v name="OFIELD_K">      0.00000000      0.00000000      0.00000000</v>
   <i name="OFIELD_Q6_NEAR">      0.00000000</i>
   <i name="OFIELD_Q6_FAR">      0.00000000</i>
   <i name="OFIELD_A">      0.00000000</i>
  </separator>
 </parameters>
 <atominfo>
  <atoms>       4 </atoms>
  <types>       1 </types>
  <array name="atoms" >
   <dimension dim="1">ion</dimension>
   <field type="string">element</field>
   <field type="int">atomtype</field>
   <set>
    <rc><c>C </c><c>   1</c></rc>
    <rc><c>C </c><c>   1</c></rc>
    <rc><c>C </c><c>   1</c></rc>
    <rc><c>C </c><c>   1</c></rc>
   </set>
  </array>
  <array name="atomtypes" >
   <dimension dim="1">type</dimension>
   <field type="int">atomspertype</field>
   <field type="string">element</field>
   <field>mass</field>
   <field>valence</field>
   <field type="string">pseudopotential</field>
   <set>
    <rc><c>   4</c><c>C </c><c>     12.01100000</c><c>      4.00000000</c><c> PAW_PBE C 08Apr2002                    </c></rc>
   </set>
  </array>
 </atominfo>
 <structure name="initialpos" >
  <crystal>
   <varray name="basis" >
    <v>       4.35808750       0.00000000       0.00000000 </v>
    <v>       0.00000000       2.45904990       0.00000000 </v>
    <v>       0.00000000       0.00000000      19.67367067 </v>
   </varray>
   <i name="volume">    210.83790140 </i>
   <varray name="rec_basis" >
    <v>       0.22945845       0.00000000       0.00000000 </v>
    <v>       0.00000000       0.40666113       0.00000000 </v>
    <v>       0.00000000       0.00000000       0.05082936 </v>
   </varray>
  </crystal>
  <varray name="positions" >
   <v>       0.99954297       0.00000000       0.00000000 </v>
   <v>       0.16712369       0.50000000       0.00000000 </v>
   <v>       0.49954297       0.50000000       0.00000000 </v>
   <v>       0.66712369       0.00000000       0.00000000 </v>
  </varray>
 </structure>
 <calculation>
  <scstep>
   <time name="dav">  293.35  295.78</time>
   <time name="total">  295.89  298.60</time>
   <energy>
    <i name="alphaZ">      6.18334092 </i>
    <i name="ewald">   2477.14620310 </i>
    <i name="hartreedc">  -2905.81079705 </i>
    <i name="XCdc">     54.87433600 </i>
    <i name="pawpsdc">    151.32577238 </i>
    <i name="pawaedc">   -155.92769107 </i>
    <i name="eentropy">     -0.00137245 </i>
    <i name="bandstr">    -29.72577135 </i>
    <i name="atom">    588.62352690 </i>
    <i name="e_fr_energy">    186.68754739 </i>
    <i name="e_wo_entrp">    186.68891984 </i>
    <i name="e_0_energy">    186.68823362 </i>
   </energy>
  </scstep>
  <scstep>
   <time name="dav">  437.72  440.22</time>
   <time name="total">  437.73  440.23</time>
   <energy>
    <i name="e_fr_energy">     -9.38213188 </i>
    <i name="e_wo_entrp">     -9.38162373 </i>
    <i name="e_0_energy">     -9.38187780 </i>
   </energy>
  </scstep>
  <scstep>
   <time name="dav">  340.08  341.80</time>
   <time name="total">  369.96  372.08</time>
   <energy>
    <i name="e_fr_energy">    -38.16851134 </i>
    <i name="e_wo_entrp">    -38.16851122 </i>
    <i name="e_0_energy">    -38.16851128 </i>
   </energy>
  </scstep>
  <scstep>
   <time name="diag">   78.52   78.72</time>
   <time name="diis">  335.13  337.21</time>
   <time name="orth">    3.07    3.07</time>
   <time name="total">  449.14  451.57</time>
   <energy>
    <i name="e_fr_energy">    -37.61080881 </i>
    <i name="e_wo_entrp">    -37.61080853 </i>
    <i name="e_0_energy">    -37.61080867 </i>
   </energy>
  </scstep>
  <scstep>
   <time name="diag">   78.15   78.59</time>
   <time name="diis">  331.37  332.68</time>
   <time name="orth">    3.12    3.15</time>
   <time name="total">  444.73  451.32</time>
   <energy>
    <i name="e_fr_energy">    -36.89244262 </i>
    <i name="e_wo_entrp">    -36.89244202 </i>
    <i name="e_0_energy">    -36.89244232 </i>
   </energy>
  </scstep>
  <scstep>
   <time name="diag">   78.07   78.59</time>
   <time name="diis">  361.73  364.12</time>
   <time name="orth">    3.07    3.08</time>
   <time name="total">  475.04  478.29</time>
   <energy>
    <i name="e_fr_energy">    -36.89419593 </i>
    <i name="e_wo_entrp">    -36.89419538 </i>
    <i name="e_0_energy">    -36.89419565 </i>
   </energy>
  </scstep>
  <scstep>
   <time name="diag">   77.82   78.63</time>
   <time name="diis">  329.08  330.35</time>
   <time name="orth">    3.07    3.08</time>
   <time name="total">  442.34  444.55</time>
   <energy>
    <i name="e_fr_energy">    -36.88512562 </i>
    <i name="e_wo_entrp">    -36.88512521 </i>
    <i name="e_0_energy">    -36.88512542 </i>
   </energy>
  </scstep>
  <scstep>
   <time name="diag">   78.40   78.63</time>
   <time name="diis">  331.15  331.82</time>
   <time name="orth">    3.07    3.07</time>
   <time name="total">  444.99  445.99</time>
   <energy>
    <i name="e_fr_energy">    -36.88010664 </i>
    <i name="e_wo_entrp">    -36.88010619 </i>
    <i name="e_0_energy">    -36.88010642 </i>
   </energy>
  </scstep>
  <scstep>
   <time name="diag">   78.12   78.60</time>
   <time name="diis">  315.16  316.90</time>
   <time name="orth">    3.12    3.14</time>
   <time name="total">  428.53  431.43</time>
   <energy>
    <i name="e_fr_energy">    -36.87983133 </i>
    <i name="e_wo_entrp">    -36.87983081 </i>
    <i name="e_0_energy">    -36.87983107 </i>
   </energy>
  </scstep>
  <scstep>
   <time name="diag">   78.04   78.61</time>
   <time name="diis">  315.30  318.26</time>
   <time name="orth">    3.08    3.08</time>
   <time name="total">  428.46  432.77</time>
   <energy>
    <i name="e_fr_energy">    -36.87970639 </i>
    <i name="e_wo_entrp">    -36.87970591 </i>
    <i name="e_0_energy">    -36.87970615 </i>
   </energy>
  </scstep>
  <scstep>
   <time name="diag">   78.02   78.55</time>
   <time name="diis">  317.15  319.79</time>
   <time name="orth">    3.09    3.10</time>
   <time name="total">  430.35  438.32</time>
   <energy>
    <i name="e_fr_energy">    -36.88207494 </i>
    <i name="e_wo_entrp">    -36.88207448 </i>
    <i name="e_0_energy">    -36.88207471 </i>
   </energy>
  </scstep>
  <scstep>
   <time name="diag">   78.05   78.57</time>
   <time name="diis">  318.51  319.45</time>
   <time name="orth">    3.09    3.10</time>
   <time name="total">  431.96  435.01</time>
   <energy>
    <i name="e_fr_energy">    -36.88256234 </i>
    <i name="e_wo_entrp">    -36.88256186 </i>
    <i name="e_0_energy">    -36.88256210 </i>
   </energy>
  </scstep>
  <scstep>
   <time name="diag">   78.06   78.56</time>
   <time name="diis">  323.17  325.83</time>
   <time name="orth">    3.08    3.10</time>
   <time name="total">  436.55  440.01</time>
   <energy>
    <i name="e_fr_energy">    -36.88282031 </i>
    <i name="e_wo_entrp">    -36.88281984 </i>
    <i name="e_0_energy">    -36.88282007 </i>
   </energy>
  </scstep>
  <scstep>
   <time name="diag">   78.05   78.54</time>
   <time name="diis">  321.67  322.38</time>
   <time name="orth">    3.07    3.07</time>
   <time name="total">  435.08  436.53</time>
   <energy>
    <i name="e_fr_energy">    -36.88290325 </i>
    <i name="e_wo_entrp">    -36.88290278 </i>
    <i name="e_0_energy">    -36.88290302 </i>
   </energy>
  </scstep>
  <scstep>
   <time name="diag">   78.23   78.62</time>
   <time name="diis">  317.95  318.60</time>
   <time name="orth">    3.09    3.09</time>
   <time name="total">  431.58  432.85</time>
   <energy>
    <i name="e_fr_energy">    -36.88291633 </i>
    <i name="e_wo_entrp">    -36.88291585 </i>
    <i name="e_0_energy">    -36.88291609 </i>
   </energy>
  </scstep>
  <scstep>
   <time name="diag">   78.41   78.58</time>
   <time name="diis">  316.62  317.62</time>
   <time name="orth">    3.07    3.07</time>
   <time name="total">  430.46  431.71</time>
   <energy>
    <i name="e_fr_energy">    -36.88292874 </i>
    <i name="e_wo_entrp">    -36.88292827 </i>
    <i name="e_0_energy">    -36.88292850 </i>
   </energy>
  </scstep>
  <scstep>
   <time name="diag">   78.38   78.53</time>
   <time name="diis">  314.36  318.10</time>
   <time name="orth">    3.07    3.09</time>
   <time name="total">  427.79  432.42</time>
   <energy>
    <i name="e_fr_energy">    -36.88293471 </i>
    <i name="e_wo_entrp">    -36.88293423 </i>
    <i name="e_0_energy">    -36.88293447 </i>
   </energy>
  </scstep>
  <scstep>
   <time name="diag">   77.75   78.57</time>
   <time name="diis">  316.52  320.13</time>
   <time name="orth">    3.07    3.08</time>
   <time name="total">  429.46  434.30</time>
   <energy>
    <i name="e_fr_energy">    -36.88293576 </i>
    <i name="e_wo_entrp">    -36.88293529 </i>
    <i name="e_0_energy">    -36.88293552 </i>
   </energy>
  </scstep>
  <scstep>
   <time name="diag">   78.27   78.63</time>
   <time name="diis">  315.16  318.79</time>
   <time name="orth">    3.07    3.08</time>
   <time name="total">  428.64  433.22</time>
   <energy>
    <i name="e_fr_energy">    -36.88293655 </i>
    <i name="e_wo_entrp">    -36.88293608 </i>
    <i name="e_0_energy">    -36.88293632 </i>
   </energy>
  </scstep>
  <scstep>
   <time name="diag">   78.21   78.60</time>
   <time name="diis">  250.95  251.16</time>
   <time name="orth">    3.07    3.07</time>
   <time name="total">  364.59  365.49</time>
   <energy>
    <i name="e_fr_energy">    -36.88293660 </i>
    <i name="e_wo_entrp">    -36.88293612 </i>
    <i name="e_0_energy">    -36.88293636 </i>
   </energy>
  </scstep>
  <scstep>
   <time name="diag">   78.48   78.59</time>
   <time name="diis">  242.09  242.54</time>
   <time name="orth">    3.09    3.10</time>
   <time name="total">  356.00  358.13</time>
   <energy>
    <i name="e_fr_energy">    -36.88293661 </i>
    <i name="e_wo_entrp">    -36.88293614 </i>
    <i name="e_0_energy">    -36.88293637 </i>
   </energy>
  </scstep>
  <scstep>
   <time name="diag">   78.26   78.60</time>
   <time name="diis">  218.23  218.64</time>
   <time name="orth">    3.09    3.10</time>
   <time name="total">  332.04  334.11</time>
   <energy>
    <i name="e_fr_energy">    -36.88293661 </i>
    <i name="e_wo_entrp">    -36.88293614 </i>
    <i name="e_0_energy">    -36.88293637 </i>
   </energy>
  </scstep>
  <scstep>
   <time name="diag">   78.54   78.61</time>
   <time name="diis">  210.05  210.94</time>
   <time name="orth">    3.07    3.09</time>
   <time name="total">  323.91  325.10</time>
   <energy>
    <i name="e_fr_energy">    -36.88293661 </i>
    <i name="e_wo_entrp">    -36.88293614 </i>
    <i name="e_0_energy">    -36.88293637 </i>
   </energy>
  </scstep>
  <scstep>
   <time name="diag">   78.01   78.60</time>
   <time name="diis">  194.15  195.59</time>
   <time name="orth">    3.10    3.10</time>
   <time name="total">  277.62  280.63</time>
   <energy>
    <i name="alphaZ">      6.18334092 </i>
    <i name="ewald">   2477.14620310 </i>
    <i name="hartreedc">  -2971.36341972 </i>
    <i name="XCdc">     57.21939006 </i>
    <i name="pawpsdc">    270.48152807 </i>
    <i name="pawaedc">   -275.60049266 </i>
    <i name="eentropy">     -0.00000047 </i>
    <i name="bandstr">   -189.57301280 </i>
    <i name="atom">    588.62352690 </i>
    <i name="e_fr_energy">    -36.88293661 </i>
    <i name="e_wo_entrp">    -36.88293614 </i>
    <i name="e_0_energy">    -36.88293638 </i>
   </energy>
  </scstep>
  <structure>
   <crystal>
    <varray name="basis" >
     <v>       4.35808750       0.00000000       0.00000000 </v>
     <v>       0.00000000       2.45904990       0.00000000 </v>
     <v>       0.00000000       0.00000000      19.67367067 </v>
    </varray>
    <i name="volume">    210.83790140 </i>
    <varray name="rec_basis" >
     <v>       0.22945845       0.00000000       0.00000000 </v>
     <v>       0.00000000       0.40666113       0.00000000 </v>
     <v>       0.00000000       0.00000000       0.05082936 </v>
    </varray>
   </crystal>
   <varray name="positions" >
    <v>       0.99954297       0.00000000       0.00000000 </v>
    <v>       0.16712369       0.50000000       0.00000000 </v>
    <v>       0.49954297       0.50000000       0.00000000 </v>
    <v>       0.66712369       0.00000000       0.00000000 </v>
   </varray>
  </structure>
  <varray name="forces" >
   <v>       0.00205365      -0.00000000       0.00000000 </v>
   <v>      -0.00205365       0.00000000       0.00000000 </v>
   <v>       0.00205365      -0.00000000       0.00000000 </v>
   <v>      -0.00205365       0.00000000       0.00000000 </v>
  </varray>
  <varray name="stress" >
   <v>     -32.85593164       0.00000000       0.00000000 </v>
   <v>       0.00000000      -0.01656203       0.00000000 </v>
   <v>       0.00000000       0.00000000      -0.01029296 </v>
  </varray>
  <energy>
   <i name="e_fr_energy">    -36.88293661 </i>
   <i name="e_wo_entrp">    -36.88293638 </i>
   <i name="e_0_energy">     -0.00000047 </i>
  </energy>
  <time name="totalsc"> 9855.92 9935.28</time>
 </calculation>
 <calculation>
  <scstep>
   <time name="dav">  304.25  307.09</time>
   <time name="total">  336.58  339.74</time>
   <energy>
    <i name="alphaZ">      6.18334092 </i>
    <i name="ewald">   2477.14789421 </i>
    <i name="hartreedc">  -2971.36416996 </i>
    <i name="XCdc">     57.21943860 </i>
    <i name="pawpsdc">    270.48153692 </i>
    <i name="pawaedc">   -275.60050166 </i>
    <i name="eentropy">     -0.00000041 </i>
    <i name="bandstr">   -189.57400097 </i>
    <i name="atom">    588.62352690 </i>
    <i name="e_fr_energy">    -36.88293545 </i>
    <i name="e_wo_entrp">    -36.88293504 </i>
    <i name="e_0_energy">    -36.88293525 </i>
   </energy>
  </scstep>
  <scstep>
   <time name="diag">   78.02   78.57</time>
   <time name="diis">  324.76  325.47</time>
   <time name="orth">    3.11    3.15</time>
   <time name="total">  438.44  439.84</time>
   <energy>
    <i name="e_fr_energy">    -36.88293553 </i>
    <i name="e_wo_entrp">    -36.88293512 </i>
    <i name="e_0_energy">    -36.88293533 </i>
   </energy>
  </scstep>
  <scstep>
   <time name="diag">   78.15   78.56</time>
   <time name="diis">  324.81  327.91</time>
   <time name="orth">    3.08    3.08</time>
   <time name="total">  438.35  442.19</time>
   <energy>
    <i name="e_fr_energy">    -36.88293550 </i>
    <i name="e_wo_entrp">    -36.88293508 </i>
    <i name="e_0_energy">    -36.88293529 </i>
   </energy>
  </scstep>
  <scstep>
   <time name="diag">   78.19   78.50</time>
   <time name="diis">  336.63  339.06</time>
   <time name="orth">    3.08    3.08</time>
   <time name="total">  450.15  454.51</time>
   <energy>
    <i name="e_fr_energy">    -36.88293549 </i>
    <i name="e_wo_entrp">    -36.88293507 </i>
    <i name="e_0_energy">    -36.88293528 </i>
   </energy>
  </scstep>
  <scstep>
   <time name="diag">   77.88   78.52</time>
   <time name="diis">  309.68  312.71</time>
   <time name="orth">    3.09    3.09</time>
   <time name="total">  422.90  431.68</time>
   <energy>
    <i name="e_fr_energy">    -36.88293549 </i>
    <i name="e_wo_entrp">    -36.88293507 </i>
    <i name="e_0_energy">    -36.88293528 </i>
   </energy>
  </scstep>
  <scstep>
   <time name="diag">   78.01   78.56</time>
   <time name="diis">  224.85  226.42</time>
   <time name="orth">    3.08    3.10</time>
   <time name="total">  338.25  340.81</time>
   <energy>
    <i name="e_fr_energy">    -36.88293549 </i>
    <i name="e_wo_entrp">    -36.88293507 </i>
    <i name="e_0_energy">    -36.88293528 </i>
   </energy>
  </scstep>
  <scstep>
   <time name="diag">   78.08   78.57</time>
   <time name="diis">  215.50  216.21</time>
   <time name="orth">    3.09    3.10</time>
   <time name="total">  299.09  300.31</time>
   <energy>
    <i name="alphaZ">      6.18334092 </i>
    <i name="ewald">   2477.14789421 </i>
    <i name="hartreedc">  -2971.36481927 </i>
    <i name="XCdc">     57.21946659 </i>
    <i name="pawpsdc">    270.48442826 </i>
    <i name="pawaedc">   -275.60340568 </i>
    <i name="eentropy">     -0.00000042 </i>
    <i name="bandstr">   -189.57336700 </i>
    <i name="atom">    588.62352690 </i>
    <i name="e_fr_energy">    -36.88293549 </i>
    <i name="e_wo_entrp">    -36.88293507 </i>
    <i name="e_0_energy">    -36.88293528 </i>
   </energy>
  </scstep>
  <structure>
   <crystal>
    <varray name="basis" >
     <v>       4.35808750       0.00000000       0.00000000 </v>
     <v>       0.00000000       2.45904990       0.00000000 </v>
     <v>       0.00000000       0.00000000      19.67367067 </v>
    </varray>
    <i name="volume">    210.83790140 </i>
    <varray name="rec_basis" >
     <v>       0.22945845       0.00000000       0.00000000 </v>
     <v>       0.00000000       0.40666113       0.00000000 </v>
     <v>       0.00000000       0.00000000       0.05082936 </v>
    </varray>
   </crystal>
   <varray name="positions" >
    <v>       0.99956571      -0.00000000       0.00000000 </v>
    <v>       0.16710096       0.50000000       0.00000000 </v>
    <v>       0.49956571       0.50000000       0.00000000 </v>
    <v>       0.66710096       0.00000000       0.00000000 </v>
   </varray>
  </structure>
  <varray name="forces" >
   <v>      -0.00779560       0.00000000       0.00000000 </v>
   <v>       0.00779560      -0.00000000      -0.00000000 </v>
   <v>      -0.00779560      -0.00000000       0.00000000 </v>
   <v>       0.00779560       0.00000000      -0.00000000 </v>
  </varray>
  <varray name="stress" >
   <v>     -32.87547373       0.00000000       0.00000000 </v>
   <v>       0.00000000       0.01609404       0.00000000 </v>
   <v>       0.00000000       0.00000000      -0.01021524 </v>
  </varray>
  <energy>
   <i name="e_fr_energy">    -36.88293549 </i>
   <i name="e_wo_entrp">    -36.88293528 </i>
   <i name="e_0_energy">     -0.00000042 </i>
  </energy>
  <time name="totalsc"> 2828.55 2854.35</time>
 </calculation>
 <calculation>
  <scstep>
   <time name="dav">  315.68  317.11</time>
   <time name="total">  348.14  349.76</time>
   <energy>
    <i name="alphaZ">      6.18334092 </i>
    <i name="ewald">   2477.14655459 </i>
    <i name="hartreedc">  -2971.36425128 </i>
    <i name="XCdc">     57.21942866 </i>
    <i name="pawpsdc">    270.48443491 </i>
    <i name="pawaedc">   -275.60341232 </i>
    <i name="eentropy">     -0.00000047 </i>
    <i name="bandstr">   -189.57255862 </i>
    <i name="atom">    588.62352690 </i>
    <i name="e_fr_energy">    -36.88293671 </i>
    <i name="e_wo_entrp">    -36.88293624 </i>
    <i name="e_0_energy">    -36.88293647 </i>
   </energy>
  </scstep>
  <scstep>
   <time name="diag">   78.04   78.61</time>
   <time name="diis">  324.68  326.54</time>
   <time name="orth">    3.08    3.10</time>
   <time name="total">  438.12  440.88</time>
   <energy>
    <i name="e_fr_energy">    -36.88293674 </i>
    <i name="e_wo_entrp">    -36.88293628 </i>
    <i name="e_0_energy">    -36.88293651 </i>
   </energy>
  </scstep>
  <scstep>
   <time name="diag">   77.93   78.52</time>
   <time name="diis">  323.38  326.70</time>
   <time name="orth">    3.08    3.10</time>
   <time name="total">  436.73  441.02</time>
   <energy>
    <i name="e_fr_energy">    -36.88293670 </i>
    <i name="e_wo_entrp">    -36.88293624 </i>
    <i name="e_0_energy">    -36.88293647 </i>
   </energy>
  </scstep>
  <scstep>
   <time name="diag">   77.90   78.55</time>
   <time name="diis">  329.71  333.37</time>
   <time name="orth">    3.08    3.10</time>
   <time name="total">  443.10  447.76</time>
   <energy>
    <i name="e_fr_energy">    -36.88293670 </i>
    <i name="e_wo_entrp">    -36.88293624 </i>
    <i name="e_0_energy">    -36.88293647 </i>
   </energy>
  </scstep>
  <scstep>
   <time name="diag">   77.89   78.56</time>
   <time name="diis">  279.98  282.83</time>
   <time name="orth">    3.07    3.10</time>
   <time name="total">  393.26  397.17</time>
   <energy>
    <i name="e_fr_energy">    -36.88293670 </i>
    <i name="e_wo_entrp">    -36.88293624 </i>
    <i name="e_0_energy">    -36.88293647 </i>
   </energy>
  </scstep>
  <scstep>
   <time name="diag">   77.91   78.55</time>
   <time name="diis">  216.05  217.96</time>
   <time name="orth">    3.10    3.10</time>
   <time name="total">  299.46  304.35</time>
   <energy>
    <i name="alphaZ">      6.18334092 </i>
    <i name="ewald">   2477.14655459 </i>
    <i name="hartreedc">  -2971.36377783 </i>
    <i name="XCdc">     57.21940691 </i>
    <i name="pawpsdc">    270.48214481 </i>
    <i name="pawaedc">   -275.60111219 </i>
    <i name="eentropy">     -0.00000046 </i>
    <i name="bandstr">   -189.57302035 </i>
    <i name="atom">    588.62352690 </i>
    <i name="e_fr_energy">    -36.88293670 </i>
    <i name="e_wo_entrp">    -36.88293624 </i>
    <i name="e_0_energy">    -36.88293647 </i>
   </energy>
  </scstep>
  <structure>
   <crystal>
    <varray name="basis" >
     <v>       4.35808750       0.00000000       0.00000000 </v>
     <v>       0.00000000       2.45904990       0.00000000 </v>
     <v>       0.00000000       0.00000000      19.67367067 </v>
    </varray>
    <i name="volume">    210.83790140 </i>
    <varray name="rec_basis" >
     <v>       0.22945845       0.00000000       0.00000000 </v>
     <v>       0.00000000       0.40666113       0.00000000 </v>
     <v>       0.00000000       0.00000000       0.05082936 </v>
    </varray>
   </crystal>
   <varray name="positions" >
    <v>       0.99954771       0.00000000       0.00000000 </v>
    <v>       0.16711895       0.50000000      -0.00000000 </v>
    <v>       0.49954771       0.50000000       0.00000000 </v>
    <v>       0.66711895       0.00000000      -0.00000000 </v>
   </varray>
  </structure>
  <varray name="forces" >
   <v>      -0.00001013       0.00000000       0.00000000 </v>
   <v>       0.00001013       0.00000000      -0.00000000 </v>
   <v>      -0.00001013      -0.00000000       0.00000000 </v>
   <v>       0.00001013       0.00000000      -0.00000000 </v>
  </varray>
  <varray name="stress" >
   <v>     -32.86013201       0.00000000       0.00000000 </v>
   <v>       0.00000000      -0.00961612       0.00000000 </v>
   <v>       0.00000000       0.00000000      -0.01036980 </v>
  </varray>
  <energy>
   <i name="e_fr_energy">    -36.88293670 </i>
   <i name="e_wo_entrp">    -36.88293647 </i>
   <i name="e_0_energy">     -0.00000046 </i>
  </energy>
  <time name="totalsc"> 2463.15 2487.76</time>
 </calculation>
 <calculation>
  <scstep>
   <time name="dav">  257.64  259.31</time>
   <time name="total">  290.20  292.01</time>
   <energy>
    <i name="alphaZ">      6.18334092 </i>
    <i name="ewald">   2477.14655285 </i>
    <i name="hartreedc">  -2971.36376202 </i>
    <i name="XCdc">     57.21940649 </i>
    <i name="pawpsdc">    270.48213800 </i>
    <i name="pawaedc">   -275.60110528 </i>
    <i name="eentropy">     -0.00000046 </i>
    <i name="bandstr">   -189.57303410 </i>
    <i name="atom">    588.62352690 </i>
    <i name="e_fr_energy">    -36.88293670 </i>
    <i name="e_wo_entrp">    -36.88293624 </i>
    <i name="e_0_energy">    -36.88293647 </i>
   </energy>
  </scstep>
  <scstep>
   <time name="diag">   78.25   78.69</time>
   <time name="diis">  196.57  197.41</time>
   <time name="orth">    3.10    3.10</time>
   <time name="total">  310.51  311.87</time>
   <energy>
    <i name="e_fr_energy">    -36.88293670 </i>
    <i name="e_wo_entrp">    -36.88293624 </i>
    <i name="e_0_energy">    -36.88293647 </i>
   </energy>
  </scstep>
  <scstep>
   <time name="diag">   78.44   78.57</time>
   <time name="diis">  193.51  193.84</time>
   <time name="orth">    3.10    3.12</time>
   <time name="total">  307.54  308.19</time>
   <energy>
    <i name="e_fr_energy">    -36.88293670 </i>
    <i name="e_wo_entrp">    -36.88293624 </i>
    <i name="e_0_energy">    -36.88293647 </i>
   </energy>
  </scstep>
  <scstep>
   <time name="diag">   78.44   78.72</time>
   <time name="diis">  184.10  184.66</time>
   <time name="orth">    3.09    3.10</time>
   <time name="total">  297.85  301.20</time>
   <energy>
    <i name="e_fr_energy">    -36.88293670 </i>
    <i name="e_wo_entrp">    -36.88293624 </i>
    <i name="e_0_energy">    -36.88293647 </i>
   </energy>
  </scstep>
  <scstep>
   <time name="diag">   77.90   78.62</time>
   <time name="diis">  177.78  179.35</time>
   <time name="orth">    3.08    3.10</time>
   <time name="total">  261.19  263.53</time>
   <energy>
    <i name="alphaZ">      6.18334092 </i>
    <i name="ewald">   2477.14655285 </i>
    <i name="hartreedc">  -2971.36372849 </i>
    <i name="XCdc">     57.21940620 </i>
    <i name="pawpsdc">    270.48213249 </i>
    <i name="pawaedc">   -275.60109983 </i>
    <i name="eentropy">     -0.00000046 </i>
    <i name="bandstr">   -189.57306728 </i>
    <i name="atom">    588.62352690 </i>
    <i name="e_fr_energy">    -36.88293670 </i>
    <i name="e_wo_entrp">    -36.88293624 </i>
    <i name="e_0_energy">    -36.88293647 </i>
   </energy>
  </scstep>
  <structure>
   <crystal>
    <varray name="basis" >
     <v>       4.35808750       0.00000000       0.00000000 </v>
     <v>       0.00000000       2.45904990       0.00000000 </v>
     <v>       0.00000000       0.00000000      19.67367067 </v>
    </varray>
    <i name="volume">    210.83790140 </i>
    <varray name="rec_basis" >
     <v>       0.22945845       0.00000000       0.00000000 </v>
     <v>       0.00000000       0.40666113       0.00000000 </v>
     <v>       0.00000000       0.00000000       0.05082936 </v>
    </varray>
   </crystal>
   <varray name="positions" >
    <v>       0.99954769       0.00000000       0.00000000 </v>
    <v>       0.16711898       0.50000000      -0.00000000 </v>
    <v>       0.49954769       0.50000000       0.00000000 </v>
    <v>       0.66711898       0.00000000      -0.00000000 </v>
   </varray>
  </structure>
  <varray name="forces" >
   <v>       0.00001253       0.00000000       0.00000000 </v>
   <v>      -0.00001253       0.00000000       0.00000000 </v>
   <v>       0.00001253      -0.00000000       0.00000000 </v>
   <v>      -0.00001253       0.00000000       0.00000000 </v>
  </varray>
  <varray name="stress" >
   <v>     -32.85997610       0.00000000       0.00000000 </v>
   <v>       0.00000000      -0.00977862       0.00000000 </v>
   <v>       0.00000000       0.00000000      -0.01030896 </v>
  </varray>
  <energy>
   <i name="e_fr_energy">    -36.88293670 </i>
   <i name="e_wo_entrp">    -36.88293647 </i>
   <i name="e_0_energy">     -0.00000046 </i>
  </energy>
  <time name="totalsc"> 1571.96 1582.77</time>
 </calculation>
 <calculation>
  <scstep>
   <time name="dav">  249.71  251.43</time>
   <time name="total">  282.09  284.08</time>
   <energy>
    <i name="alphaZ">      6.18334092 </i>
    <i name="ewald">   2477.14655381 </i>
    <i name="hartreedc">  -2971.36372792 </i>
    <i name="XCdc">     57.21940622 </i>
    <i name="pawpsdc">    270.48213269 </i>
    <i name="pawaedc">   -275.60110002 </i>
    <i name="eentropy">     -0.00000046 </i>
    <i name="bandstr">   -189.57306883 </i>
    <i name="atom">    588.62352690 </i>
    <i name="e_fr_energy">    -36.88293670 </i>
    <i name="e_wo_entrp">    -36.88293624 </i>
    <i name="e_0_energy">    -36.88293647 </i>
   </energy>
  </scstep>
  <scstep>
   <time name="diag">   77.87   78.52</time>
   <time name="diis">  153.76  155.16</time>
   <time name="orth">    3.07    3.11</time>
   <time name="total">  267.04  269.48</time>
   <energy>
    <i name="e_fr_energy">    -36.88293670 </i>
    <i name="e_wo_entrp">    -36.88293624 </i>
    <i name="e_0_energy">    -36.88293647 </i>
   </energy>
  </scstep>
  <scstep>
   <time name="diag">   77.97   78.58</time>
   <time name="diis">  151.96  153.23</time>
   <time name="orth">    3.08    3.08</time>
   <time name="total">  265.25  267.71</time>
   <energy>
    <i name="e_fr_energy">    -36.88293670 </i>
    <i name="e_wo_entrp">    -36.88293624 </i>
    <i name="e_0_energy">    -36.88293647 </i>
   </energy>
  </scstep>
  <scstep>
   <time name="diag">   78.30   78.51</time>
   <time name="diis">  150.52  151.80</time>
   <time name="orth">    3.08    3.08</time>
   <time name="total">  264.25  266.11</time>
   <energy>
    <i name="e_fr_energy">    -36.88293670 </i>
    <i name="e_wo_entrp">    -36.88293624 </i>
    <i name="e_0_energy">    -36.88293647 </i>
   </energy>
  </scstep>
  <scstep>
   <time name="diag">   77.92   78.62</time>
   <time name="diis">  150.24  151.43</time>
   <time name="orth">    3.10    3.15</time>
   <time name="total">  263.51  265.89</time>
   <energy>
    <i name="e_fr_energy">    -36.88293670 </i>
    <i name="e_wo_entrp">    -36.88293624 </i>
    <i name="e_0_energy">    -36.88293647 </i>
   </energy>
  </scstep>
  <scstep>
   <time name="diag">   77.72   78.55</time>
   <time name="diis">  147.01  148.33</time>
   <time name="orth">    3.07    3.10</time>
   <time name="total">  230.25  232.44</time>
   <energy>
    <i name="alphaZ">      6.18334092 </i>
    <i name="ewald">   2477.14655381 </i>
    <i name="hartreedc">  -2971.36373068 </i>
    <i name="XCdc">     57.21940634 </i>
    <i name="pawpsdc">    270.48213496 </i>
    <i name="pawaedc">   -275.60110232 </i>
    <i name="eentropy">     -0.00000046 </i>
    <i name="bandstr">   -189.57306618 </i>
    <i name="atom">    588.62352690 </i>
    <i name="e_fr_energy">    -36.88293670 </i>
    <i name="e_wo_entrp">    -36.88293624 </i>
    <i name="e_0_energy">    -36.88293647 </i>
   </energy>
  </scstep>
  <structure>
   <crystal>
    <varray name="basis" >
     <v>       4.35808750       0.00000000       0.00000000 </v>
     <v>       0.00000000       2.45904990       0.00000000 </v>
     <v>       0.00000000       0.00000000      19.67367067 </v>
    </varray>
    <i name="volume">    210.83790140 </i>
    <varray name="rec_basis" >
     <v>       0.22945845       0.00000000       0.00000000 </v>
     <v>       0.00000000       0.40666113       0.00000000 </v>
     <v>       0.00000000       0.00000000       0.05082936 </v>
    </varray>
   </crystal>
   <varray name="positions" >
    <v>       0.99954770       0.00000000       0.00000000 </v>
    <v>       0.16711897       0.50000000      -0.00000000 </v>
    <v>       0.49954770       0.50000000       0.00000000 </v>
    <v>       0.66711897       0.00000000      -0.00000000 </v>
   </varray>
  </structure>
  <varray name="forces" >
   <v>       0.00000089      -0.00000000       0.00000000 </v>
   <v>      -0.00000089       0.00000000      -0.00000000 </v>
   <v>       0.00000089       0.00000000       0.00000000 </v>
   <v>      -0.00000089      -0.00000000      -0.00000000 </v>
  </varray>
  <varray name="stress" >
   <v>     -32.86001593       0.00000000       0.00000000 </v>
   <v>       0.00000000      -0.00973618       0.00000000 </v>
   <v>       0.00000000       0.00000000      -0.01028688 </v>
  </varray>
  <energy>
   <i name="e_fr_energy">    -36.88293670 </i>
   <i name="e_wo_entrp">    -36.88293647 </i>
   <i name="e_0_energy">     -0.00000046 </i>
  </energy>
  <time name="totalsc"> 1668.44 1689.11</time>
  <eigenvalues>
   <array>
    <dimension dim="1">band</dimension>
    <dimension dim="2">kpoint</dimension>
    <dimension dim="3">spin</dimension>
    <field>eigene</field>
    <field>occ</field>
    <set>
     <set comment="spin 1">
      <set comment="kpoint 1">
       <r>  -22.1163    1.0000 </r>
       <r>  -17.2111    1.0000 </r>
       <r>  -15.8633    1.0000 </r>
       <r>  -10.2529    1.0000 </r>
       <r>   -8.8749    1.0000 </r>
       <r>   -5.9639    1.0000 </r>
       <r>   -5.7379    1.0000 </r>
       <r>   -5.2904    1.0000 </r>
       <r>   -1.1652    0.0000 </r>
       <r>    0.5404    0.0000 </r>
       <r>    1.3392    0.0000 </r>
       <r>    1.7304    0.0000 </r>
      </set>
      <set comment="kpoint 2">
       <r>  -22.1064    1.0000 </r>
       <r>  -17.3372    1.0000 </r>
       <r>  -15.7222    1.0000 </r>
       <r>  -10.2411    1.0000 </r>
       <r>   -8.8653    1.0000 </r>
       <r>   -6.0079    1.0000 </r>
       <r>   -5.7585    1.0000 </r>
       <r>   -5.3506    1.0000 </r>
       <r>   -1.0891    0.0000 </r>
       <r>    0.5537    0.0000 </r>
       <r>    1.3527    0.0000 </r>
       <r>    1.7441    0.0000 </r>
      </set>
      <set comment="kpoint 3">
       <r>  -22.0768    1.0000 </r>
       <r>  -17.6229    1.0000 </r>
       <r>  -15.3914    1.0000 </r>
       <r>  -10.2060    1.0000 </r>
       <r>   -8.8366    1.0000 </r>
       <r>   -6.1378    1.0000 </r>
       <r>   -5.8191    1.0000 </r>
       <r>   -5.5190    1.0000 </r>
       <r>   -0.8736    0.0000 </r>
       <r>    0.5938    0.0000 </r>
       <r>    1.3933    0.0000 </r>
       <r>    1.7852    0.0000 </r>
      </set>
      <set comment="kpoint 4">
       <r>  -22.0276    1.0000 </r>
       <r>  -17.9628    1.0000 </r>
       <r>  -14.9767    1.0000 </r>
       <r>  -10.1476    1.0000 </r>
       <r>   -8.7888    1.0000 </r>
       <r>   -6.3479    1.0000 </r>
       <r>   -5.9167    1.0000 </r>
       <r>   -5.7669    1.0000 </r>
       <r>   -0.5475    0.0000 </r>
       <r>    0.6605    0.0000 </r>
       <r>    1.4609    0.0000 </r>
       <r>    1.8537    0.0000 </r>
      </set>
      <set comment="kpoint 5">
       <r>  -21.9587    1.0000 </r>
       <r>  -18.3148    1.0000 </r>
       <r>  -14.5205    1.0000 </r>
       <r>  -10.0658    1.0000 </r>
       <r>   -8.7224    1.0000 </r>
       <r>   -6.6298    1.0000 </r>
       <r>   -6.0653    1.0000 </r>
       <r>   -6.0466    1.0000 </r>
       <r>   -0.1409    0.0000 </r>
       <r>    0.7539    0.0000 </r>
       <r>    1.5556    0.0000 </r>
       <r>    1.9496    0.0000 </r>
      </set>
      <set comment="kpoint 6">
       <r>  -21.8702    1.0000 </r>
       <r>  -18.6636    1.0000 </r>
       <r>  -14.0388    1.0000 </r>
       <r>   -9.9610    1.0000 </r>
       <r>   -8.6376    1.0000 </r>
       <r>   -6.9736    1.0000 </r>
       <r>   -6.3911    1.0000 </r>
       <r>   -6.2034    1.0000 </r>
       <r>    0.3221    0.0000 </r>
       <r>    0.8741    0.0000 </r>
       <r>    1.6772    0.0000 </r>
       <r>    2.0730    0.0000 </r>
      </set>
      <set comment="kpoint 7">
       <r>  -21.7621    1.0000 </r>
       <r>  -19.0023    1.0000 </r>
       <r>  -13.5391    1.0000 </r>
       <r>   -9.8333    1.0000 </r>
       <r>   -8.5349    1.0000 </r>
       <r>   -7.3691    1.0000 </r>
       <r>   -6.7289    1.0000 </r>
       <r>   -6.3810    1.0000 </r>
       <r>    0.8244    0.0000 </r>
       <r>    1.0211    0.0000 </r>
       <r>    1.8257    0.0000 </r>
       <r>    2.2237    0.0000 </r>
      </set>
      <set comment="kpoint 8">
       <r>  -21.6346    1.0000 </r>
       <r>  -19.3278    1.0000 </r>
       <r>  -13.0256    1.0000 </r>
       <r>   -9.6828    1.0000 </r>
       <r>   -8.4151    1.0000 </r>
       <r>   -7.8066    1.0000 </r>
       <r>   -7.0681    1.0000 </r>
       <r>   -6.5737    1.0000 </r>
       <r>    1.1947    0.0000 </r>
       <r>    1.3534    0.0000 </r>
       <r>    2.0010    0.0000 </r>
       <r>    2.4018    0.0000 </r>
      </set>
      <set comment="kpoint 9">
       <r>  -21.4878    1.0000 </r>
       <r>  -19.6382    1.0000 </r>
       <r>  -12.5014    1.0000 </r>
       <r>   -9.5101    1.0000 </r>
       <r>   -8.2788    1.0000 </r>
       <r>   -8.2773    1.0000 </r>
       <r>   -7.4018    1.0000 </r>
       <r>   -6.7760    1.0000 </r>
       <r>    1.3950    0.0000 </r>
       <r>    1.8993    0.0000 </r>
       <r>    2.2030    0.0000 </r>
       <r>    2.6073    0.0000 </r>
      </set>
      <set comment="kpoint 10">
       <r>  -21.3217    1.0000 </r>
       <r>  -19.9322    1.0000 </r>
       <r>  -11.9692    1.0000 </r>
       <r>   -9.3153    1.0000 </r>
       <r>   -8.7733    1.0000 </r>
       <r>   -8.1272    1.0000 </r>
       <r>   -7.7252    1.0000 </r>
       <r>   -6.9830    1.0000 </r>
       <r>    1.6220    0.0000 </r>
       <r>    2.4313    0.0000 </r>
       <r>    2.4528    0.0000 </r>
       <r>    2.8403    0.0000 </r>
      </set>
      <set comment="kpoint 11">
       <r>  -21.1365    1.0000 </r>
       <r>  -20.2091    1.0000 </r>
       <r>  -11.4315    1.0000 </r>
       <r>   -9.2880    1.0000 </r>
       <r>   -9.0991    1.0000 </r>
       <r>   -8.0350    1.0000 </r>
       <r>   -7.9613    1.0000 </r>
       <r>   -7.1906    1.0000 </r>
       <r>    1.8755    0.0000 </r>
       <r>    2.6853    0.0000 </r>
       <r>    2.9995    0.0000 </r>
       <r>    3.1006    0.0000 </r>
      </set>
      <set comment="kpoint 12">
       <r>  -20.9324    1.0000 </r>
       <r>  -20.4684    1.0000 </r>
       <r>  -10.8913    1.0000 </r>
       <r>   -9.8157    1.0000 </r>
       <r>   -8.8621    1.0000 </r>
       <r>   -8.3289    1.0000 </r>
       <r>   -7.7828    1.0000 </r>
       <r>   -7.3950    1.0000 </r>
       <r>    2.1555    0.0000 </r>
       <r>    2.7944    0.0000 </r>
       <r>    2.9629    0.0000 </r>
       <r>    3.3885    0.0000 </r>
      </set>
      <set comment="kpoint 13">
       <r>  -20.7096    1.0000 </r>
       <r>  -20.7096    1.0000 </r>
       <r>  -10.3515    1.0000 </r>
       <r>  -10.3515    1.0000 </r>
       <r>   -8.6050    1.0000 </r>
       <r>   -8.6050    1.0000 </r>
       <r>   -7.5933    1.0000 </r>
       <r>   -7.5933    1.0000 </r>
       <r>    2.4618    0.0000 </r>
       <r>    2.4618    0.0000 </r>
       <r>    3.2551    0.0000 </r>
       <r>    3.2551    0.0000 </r>
      </set>
      <set comment="kpoint 14">
       <r>  -22.1025    1.0000 </r>
       <r>  -17.1992    1.0000 </r>
       <r>  -15.8516    1.0000 </r>
       <r>  -10.2365    1.0000 </r>
       <r>   -8.9379    1.0000 </r>
       <r>   -5.9908    1.0000 </r>
       <r>   -5.7965    1.0000 </r>
       <r>   -5.2737    1.0000 </r>
       <r>   -1.1679    0.0000 </r>
       <r>    0.5591    0.0000 </r>
       <r>    1.3581    0.0000 </r>
       <r>    1.7496    0.0000 </r>
      </set>
      <set comment="kpoint 15">
       <r>  -22.0926    1.0000 </r>
       <r>  -17.3251    1.0000 </r>
       <r>  -15.7106    1.0000 </r>
       <r>  -10.2248    1.0000 </r>
       <r>   -8.9283    1.0000 </r>
       <r>   -6.0360    1.0000 </r>
       <r>   -5.8153    1.0000 </r>
       <r>   -5.3341    1.0000 </r>
       <r>   -1.0918    0.0000 </r>
       <r>    0.5724    0.0000 </r>
       <r>    1.3716    0.0000 </r>
       <r>    1.7633    0.0000 </r>
      </set>
      <set comment="kpoint 16">
       <r>  -22.0631    1.0000 </r>
       <r>  -17.6106    1.0000 </r>
       <r>  -15.3802    1.0000 </r>
       <r>  -10.1896    1.0000 </r>
       <r>   -8.8995    1.0000 </r>
       <r>   -6.1674    1.0000 </r>
       <r>   -5.8727    1.0000 </r>
       <r>   -5.5027    1.0000 </r>
       <r>   -0.8764    0.0000 </r>
       <r>    0.6125    0.0000 </r>
       <r>    1.4122    0.0000 </r>
       <r>    1.8044    0.0000 </r>
      </set>
      <set comment="kpoint 17">
       <r>  -22.0138    1.0000 </r>
       <r>  -17.9503    1.0000 </r>
       <r>  -14.9660    1.0000 </r>
       <r>  -10.1312    1.0000 </r>
       <r>   -8.8517    1.0000 </r>
       <r>   -6.3771    1.0000 </r>
       <r>   -5.9681    1.0000 </r>
       <r>   -5.7510    1.0000 </r>
       <r>   -0.5505    0.0000 </r>
       <r>    0.6792    0.0000 </r>
       <r>    1.4798    0.0000 </r>
       <r>    1.8729    0.0000 </r>
      </set>
      <set comment="kpoint 18">
       <r>  -21.9449    1.0000 </r>
       <r>  -18.3021    1.0000 </r>
       <r>  -14.5103    1.0000 </r>
       <r>  -10.0495    1.0000 </r>
       <r>   -8.7852    1.0000 </r>
       <r>   -6.6566    1.0000 </r>
       <r>   -6.0974    1.0000 </r>
       <r>   -6.0495    1.0000 </r>
       <r>   -0.1444    0.0000 </r>
       <r>    0.7727    0.0000 </r>
       <r>    1.5744    0.0000 </r>
       <r>    1.9688    0.0000 </r>
      </set>
      <set comment="kpoint 19">
       <r>  -21.8564    1.0000 </r>
       <r>  -18.6507    1.0000 </r>
       <r>  -14.0292    1.0000 </r>
       <r>   -9.9447    1.0000 </r>
       <r>   -8.7002    1.0000 </r>
       <r>   -6.9968    1.0000 </r>
       <r>   -6.3755    1.0000 </r>
       <r>   -6.2545    1.0000 </r>
       <r>    0.3178    0.0000 </r>
       <r>    0.8928    0.0000 </r>
       <r>    1.6960    0.0000 </r>
       <r>    2.0921    0.0000 </r>
      </set>
      <set comment="kpoint 20">
       <r>  -21.7484    1.0000 </r>
       <r>  -18.9893    1.0000 </r>
       <r>  -13.5302    1.0000 </r>
       <r>   -9.8170    1.0000 </r>
       <r>   -8.5974    1.0000 </r>
       <r>   -7.3882    1.0000 </r>
       <r>   -6.7134    1.0000 </r>
       <r>   -6.4332    1.0000 </r>
       <r>    0.8190    0.0000 </r>
       <r>    1.0398    0.0000 </r>
       <r>    1.8446    0.0000 </r>
       <r>    2.2428    0.0000 </r>
      </set>
      <set comment="kpoint 21">
       <r>  -21.6209    1.0000 </r>
       <r>  -19.3147    1.0000 </r>
       <r>  -13.0175    1.0000 </r>
       <r>   -9.6666    1.0000 </r>
       <r>   -8.4773    1.0000 </r>
       <r>   -7.8215    1.0000 </r>
       <r>   -7.0526    1.0000 </r>
       <r>   -6.6273    1.0000 </r>
       <r>    1.2134    0.0000 </r>
       <r>    1.3466    0.0000 </r>
       <r>    2.0199    0.0000 </r>
       <r>    2.4209    0.0000 </r>
      </set>
      <set comment="kpoint 22">
       <r>  -21.4741    1.0000 </r>
       <r>  -19.6249    1.0000 </r>
       <r>  -12.4943    1.0000 </r>
       <r>   -9.4939    1.0000 </r>
       <r>   -8.3407    1.0000 </r>
       <r>   -8.2882    1.0000 </r>
       <r>   -7.3862    1.0000 </r>
       <r>   -6.8310    1.0000 </r>
       <r>    1.4137    0.0000 </r>
       <r>    1.8910    0.0000 </r>
       <r>    2.2219    0.0000 </r>
       <r>    2.6265    0.0000 </r>
      </set>
      <set comment="kpoint 23">
       <r>  -21.3080    1.0000 </r>
       <r>  -19.9189    1.0000 </r>
       <r>  -11.9633    1.0000 </r>
       <r>   -9.2993    1.0000 </r>
       <r>   -8.7806    1.0000 </r>
       <r>   -8.1886    1.0000 </r>
       <r>   -7.7096    1.0000 </r>
       <r>   -7.0394    1.0000 </r>
       <r>    1.6407    0.0000 </r>
       <r>    2.4431    0.0000 </r>
       <r>    2.4502    0.0000 </r>
       <r>    2.8594    0.0000 </r>
      </set>
      <set comment="kpoint 24">
       <r>  -21.1229    1.0000 </r>
       <r>  -20.1957    1.0000 </r>
       <r>  -11.4271    1.0000 </r>
       <r>   -9.2922    1.0000 </r>
       <r>   -9.0831    1.0000 </r>
       <r>   -8.0223    1.0000 </r>
       <r>   -8.0193    1.0000 </r>
       <r>   -7.2482    1.0000 </r>
       <r>    1.8942    0.0000 </r>
       <r>    2.7042    0.0000 </r>
       <r>    2.9891    0.0000 </r>
       <r>    3.1197    0.0000 </r>
      </set>
      <set comment="kpoint 25">
       <r>  -20.9188    1.0000 </r>
       <r>  -20.4550    1.0000 </r>
       <r>  -10.8885    1.0000 </r>
       <r>   -9.8172    1.0000 </r>
       <r>   -8.8462    1.0000 </r>
       <r>   -8.3131    1.0000 </r>
       <r>   -7.8431    1.0000 </r>
       <r>   -7.4537    1.0000 </r>
       <r>    2.1742    0.0000 </r>
       <r>    2.8132    0.0000 </r>
       <r>    2.9818    0.0000 </r>
       <r>    3.4075    0.0000 </r>
      </set>
      <set comment="kpoint 26">
       <r>  -20.6961    1.0000 </r>
       <r>  -20.6961    1.0000 </r>
       <r>  -10.3506    1.0000 </r>
       <r>  -10.3506    1.0000 </r>
       <r>   -8.5891    1.0000 </r>
       <r>   -8.5891    1.0000 </r>
       <r>   -7.6529    1.0000 </r>
       <r>   -7.6529    1.0000 </r>
       <r>    2.4806    0.0000 </r>
       <r>    2.4806    0.0000 </r>
       <r>    3.2737    0.0000 </r>
       <r>    3.2737    0.0000 </r>
      </set>
      <set comment="kpoint 27">
       <r>  -22.0611    1.0000 </r>
       <r>  -17.1633    1.0000 </r>
       <r>  -15.8165    1.0000 </r>
       <r>  -10.1873    1.0000 </r>
       <r>   -9.1217    1.0000 </r>
       <r>   -6.0711    1.0000 </r>
       <r>   -5.9676    1.0000 </r>
       <r>   -5.2237    1.0000 </r>
       <r>   -1.1769    0.0000 </r>
       <r>    0.6152    0.0000 </r>
[...]
       <r>   -9.3283    1.0000 </r>
       <r>   -5.5307    1.0000 </r>
       <r>   -5.5307    1.0000 </r>
       <r>   -0.4771    0.0000 </r>
       <r>   -0.4771    0.0000 </r>
       <r>    4.2806    0.0000 </r>
       <r>    4.2806    0.0000 </r>
      </set>
      <set comment="kpoint 209">
       <r>  -18.6670    1.0000 </r>
       <r>  -16.8556    1.0000 </r>
       <r>  -14.1826    1.0000 </r>
       <r>  -12.5234    1.0000 </r>
       <r>  -12.3252    1.0000 </r>
       <r>  -10.8085    1.0000 </r>
       <r>   -6.3053    1.0000 </r>
       <r>   -4.4254    1.0000 </r>
       <r>   -1.1592    0.0000 </r>
       <r>    1.0020    0.0000 </r>
       <r>    5.3018    0.0000 </r>
       <r>    6.0753    0.0000 </r>
      </set>
      <set comment="kpoint 210">
       <r>  -18.6576    1.0000 </r>
       <r>  -16.8483    1.0000 </r>
       <r>  -14.2530    1.0000 </r>
       <r>  -12.5893    1.0000 </r>
       <r>  -12.2471    1.0000 </r>
       <r>  -10.7450    1.0000 </r>
       <r>   -6.2969    1.0000 </r>
       <r>   -4.4292    1.0000 </r>
       <r>   -1.1662    0.0000 </r>
       <r>    0.9788    0.0000 </r>
       <r>    5.3148    0.0000 </r>
       <r>    6.0906    0.0000 </r>
      </set>
      <set comment="kpoint 211">
       <r>  -18.6297    1.0000 </r>
       <r>  -16.8268    1.0000 </r>
       <r>  -14.4350    1.0000 </r>
       <r>  -12.7624    1.0000 </r>
       <r>  -12.0420    1.0000 </r>
       <r>  -10.5800    1.0000 </r>
       <r>   -6.2717    1.0000 </r>
       <r>   -4.4410    1.0000 </r>
       <r>   -1.1857    0.0000 </r>
       <r>    0.9108    0.0000 </r>
       <r>    5.3538    0.0000 </r>
       <r>    6.1362    0.0000 </r>
      </set>
      <set comment="kpoint 212">
       <r>  -18.5833    1.0000 </r>
       <r>  -16.7925    1.0000 </r>
       <r>  -14.6768    1.0000 </r>
       <r>  -12.9981    1.0000 </r>
       <r>  -11.7618    1.0000 </r>
       <r>  -10.3599    1.0000 </r>
       <r>   -6.2302    1.0000 </r>
       <r>   -4.4622    1.0000 </r>
       <r>   -1.2132    0.0000 </r>
       <r>    0.8025    0.0000 </r>
       <r>    5.4180    0.0000 </r>
       <r>    6.2112    0.0000 </r>
      </set>
      <set comment="kpoint 213">
       <r>  -18.5184    1.0000 </r>
       <r>  -16.7482    1.0000 </r>
       <r>  -14.9402    1.0000 </r>
       <r>  -13.2643    1.0000 </r>
       <r>  -11.4439    1.0000 </r>
       <r>  -10.1200    1.0000 </r>
       <r>   -6.1726    1.0000 </r>
       <r>   -4.4948    1.0000 </r>
       <r>   -1.2423    0.0000 </r>
       <r>    0.6604    0.0000 </r>
       <r>    5.5036    0.0000 </r>
       <r>    6.0308    0.0000 </r>
      </set>
      <set comment="kpoint 214">
       <r>  -18.4353    1.0000 </r>
       <r>  -16.6998    1.0000 </r>
       <r>  -15.2003    1.0000 </r>
       <r>  -13.5427    1.0000 </r>
       <r>  -11.1106    1.0000 </r>
       <r>   -9.8830    1.0000 </r>
       <r>   -6.0998    1.0000 </r>
       <r>   -4.5409    1.0000 </r>
       <r>   -1.2654    0.0000 </r>
       <r>    0.4923    0.0000 </r>
       <r>    5.4851    0.0000 </r>
       <r>    5.6803    0.0000 </r>
      </set>
      <set comment="kpoint 215">
       <r>  -18.3344    1.0000 </r>
       <r>  -16.6589    1.0000 </r>
       <r>  -15.4349    1.0000 </r>
       <r>  -13.8229    1.0000 </r>
       <r>  -10.7764    1.0000 </r>
       <r>   -9.6649    1.0000 </r>
       <r>   -6.0125    1.0000 </r>
       <r>   -4.6026    1.0000 </r>
       <r>   -1.2749    0.0000 </r>
       <r>    0.3059    0.0000 </r>
       <r>    5.0875    0.0000 </r>
       <r>    5.7906    0.0000 </r>
      </set>
      <set comment="kpoint 216">
       <r>  -18.2158    1.0000 </r>
       <r>  -16.6486    1.0000 </r>
       <r>  -15.6155    1.0000 </r>
       <r>  -14.0986    1.0000 </r>
       <r>  -10.4521    1.0000 </r>
       <r>   -9.4778    1.0000 </r>
       <r>   -5.9119    1.0000 </r>
       <r>   -4.6809    1.0000 </r>
       <r>   -1.2645    0.0000 </r>
       <r>    0.1088    0.0000 </r>
       <r>    4.7250    0.0000 </r>
       <r>    5.6900    0.0000 </r>
      </set>
      <set comment="kpoint 217">
       <r>  -18.0803    1.0000 </r>
       <r>  -16.7001    1.0000 </r>
       <r>  -15.7071    1.0000 </r>
       <r>  -14.3656    1.0000 </r>
       <r>  -10.1474    1.0000 </r>
       <r>   -9.3322    1.0000 </r>
       <r>   -5.7996    1.0000 </r>
       <r>   -4.7757    1.0000 </r>
       <r>   -1.2294    0.0000 </r>
       <r>   -0.0921    0.0000 </r>
       <r>    4.4347    0.0000 </r>
       <r>    5.2463    0.0000 </r>
      </set>
      <set comment="kpoint 218">
       <r>  -17.9285    1.0000 </r>
       <r>  -16.8247    1.0000 </r>
       <r>  -15.6964    1.0000 </r>
       <r>  -14.6208    1.0000 </r>
       <r>   -9.8713    1.0000 </r>
       <r>   -9.2367    1.0000 </r>
       <r>   -5.6773    1.0000 </r>
       <r>   -4.8855    1.0000 </r>
       <r>   -1.1672    0.0000 </r>
       <r>   -0.2907    0.0000 </r>
       <r>    4.2267    0.0000 </r>
       <r>    4.8609    0.0000 </r>
      </set>
      <set comment="kpoint 219">
       <r>  -17.7616    1.0000 </r>
       <r>  -16.9986    1.0000 </r>
       <r>  -15.6060    1.0000 </r>
       <r>  -14.8613    1.0000 </r>
       <r>   -9.6328    1.0000 </r>
       <r>   -9.1976    1.0000 </r>
       <r>   -5.5473    1.0000 </r>
       <r>   -5.0076    1.0000 </r>
       <r>   -1.0774    0.0000 </r>
       <r>   -0.4815    0.0000 </r>
       <r>    4.1075    0.0000 </r>
       <r>    4.5434    0.0000 </r>
      </set>
      <set comment="kpoint 220">
       <r>  -17.5812    1.0000 </r>
       <r>  -17.1928    1.0000 </r>
       <r>  -15.4639    1.0000 </r>
       <r>  -15.0845    1.0000 </r>
       <r>   -9.4401    1.0000 </r>
       <r>   -9.2186    1.0000 </r>
       <r>   -5.4120    1.0000 </r>
       <r>   -5.1386    1.0000 </r>
       <r>   -0.9611    0.0000 </r>
       <r>   -0.6597    0.0000 </r>
       <r>    4.0807    0.0000 </r>
       <r>    4.3028    0.0000 </r>
      </set>
      <set comment="kpoint 221">
       <r>  -17.3900    1.0000 </r>
       <r>  -17.3900    1.0000 </r>
       <r>  -15.2870    1.0000 </r>
       <r>  -15.2870    1.0000 </r>
       <r>   -9.3003    1.0000 </r>
       <r>   -9.3003    1.0000 </r>
       <r>   -5.2746    1.0000 </r>
       <r>   -5.2746    1.0000 </r>
       <r>   -0.8208    0.0000 </r>
       <r>   -0.8208    0.0000 </r>
       <r>    4.1467    0.0000 </r>
       <r>    4.1467    0.0000 </r>
      </set>
      <set comment="kpoint 222">
       <r>  -18.2395    1.0000 </r>
       <r>  -17.3300    1.0000 </r>
       <r>  -13.7985    1.0000 </r>
       <r>  -12.9681    1.0000 </r>
       <r>  -11.9774    1.0000 </r>
       <r>  -11.2141    1.0000 </r>
       <r>   -5.8460    1.0000 </r>
       <r>   -4.9004    1.0000 </r>
       <r>   -0.6514    0.0000 </r>
       <r>    0.4314    0.0000 </r>
       <r>    5.9070    0.0000 </r>
       <r>    6.6371    0.0000 </r>
      </set>
      <set comment="kpoint 223">
       <r>  -18.2304    1.0000 </r>
       <r>  -17.3217    1.0000 </r>
       <r>  -13.8693    1.0000 </r>
       <r>  -13.0362    1.0000 </r>
       <r>  -11.9017    1.0000 </r>
       <r>  -11.1459    1.0000 </r>
       <r>   -5.8389    1.0000 </r>
       <r>   -4.8986    1.0000 </r>
       <r>   -0.6654    0.0000 </r>
       <r>    0.4102    0.0000 </r>
       <r>    5.9200    0.0000 </r>
       <r>    6.6533    0.0000 </r>
      </set>
      <set comment="kpoint 224">
       <r>  -18.2029    1.0000 </r>
       <r>  -17.2966    1.0000 </r>
       <r>  -14.0529    1.0000 </r>
       <r>  -13.2140    1.0000 </r>
       <r>  -11.7036    1.0000 </r>
       <r>  -10.9683    1.0000 </r>
       <r>   -5.8178    1.0000 </r>
       <r>   -4.8934    1.0000 </r>
       <r>   -0.7056    0.0000 </r>
       <r>    0.3483    0.0000 </r>
       <r>    5.9587    0.0000 </r>
       <r>    6.7015    0.0000 </r>
      </set>
      <set comment="kpoint 225">
       <r>  -18.1573    1.0000 </r>
       <r>  -17.2554    1.0000 </r>
       <r>  -14.2989    1.0000 </r>
       <r>  -13.4548    1.0000 </r>
       <r>  -11.4347    1.0000 </r>
       <r>  -10.7297    1.0000 </r>
       <r>   -5.7830    1.0000 </r>
       <r>   -4.8860    1.0000 </r>
       <r>   -0.7677    0.0000 </r>
       <r>    0.2501    0.0000 </r>
       <r>    6.0218    0.0000 </r>
       <r>    6.7803    0.0000 </r>
      </set>
      <set comment="kpoint 226">
       <r>  -18.0938    1.0000 </r>
       <r>  -17.1990    1.0000 </r>
       <r>  -14.5717    1.0000 </r>
       <r>  -13.7254    1.0000 </r>
       <r>  -11.1320    1.0000 </r>
       <r>  -10.4663    1.0000 </r>
       <r>   -5.7353    1.0000 </r>
       <r>   -4.8780    1.0000 </r>
       <r>   -0.8448    0.0000 </r>
       <r>    0.1220    0.0000 </r>
       <r>    6.0927    0.0000 </r>
       <r>    6.3247    0.0000 </r>
      </set>
      <set comment="kpoint 227">
       <r>  -18.0126    1.0000 </r>
       <r>  -17.1288    1.0000 </r>
       <r>  -14.8507    1.0000 </r>
       <r>  -14.0070    1.0000 </r>
       <r>  -10.8180    1.0000 </r>
       <r>  -10.2006    1.0000 </r>
       <r>   -5.6758    1.0000 </r>
       <r>   -4.8719    1.0000 </r>
       <r>   -0.9287    0.0000 </r>
       <r>   -0.0280    0.0000 </r>
       <r>    5.7690    0.0000 </r>
       <r>    6.2524    0.0000 </r>
      </set>
      <set comment="kpoint 228">
       <r>  -17.9143    1.0000 </r>
       <r>  -17.0480    1.0000 </r>
       <r>  -15.1228    1.0000 </r>
       <r>  -14.2890    1.0000 </r>
       <r>  -10.5076    1.0000 </r>
       <r>   -9.9483    1.0000 </r>
       <r>   -5.6058    1.0000 </r>
       <r>   -4.8705    1.0000 </r>
       <r>   -1.0104    0.0000 </r>
       <r>   -0.1919    0.0000 </r>
       <r>    5.3108    0.0000 </r>
       <r>    5.8602    0.0000 </r>
      </set>
      <set comment="kpoint 229">
       <r>  -17.7994    1.0000 </r>
       <r>  -16.9619    1.0000 </r>
       <r>  -15.3766    1.0000 </r>
       <r>  -14.5649    1.0000 </r>
       <r>  -10.2120    1.0000 </r>
       <r>   -9.7214    1.0000 </r>
       <r>   -5.5272    1.0000 </r>
       <r>   -4.8769    1.0000 </r>
       <r>   -1.0811    0.0000 </r>
       <r>   -0.3615    0.0000 </r>
       <r>    4.9070    0.0000 </r>
       <r>    5.3921    0.0000 </r>
      </set>
      <set comment="kpoint 230">
       <r>  -17.6692    1.0000 </r>
       <r>  -16.8817    1.0000 </r>
       <r>  -15.5976    1.0000 </r>
       <r>  -14.8300    1.0000 </r>
       <r>   -9.9413    1.0000 </r>
       <r>   -9.5305    1.0000 </r>
       <r>   -5.4421    1.0000 </r>
       <r>   -4.8939    1.0000 </r>
       <r>   -1.1328    0.0000 </r>
       <r>   -0.5294    0.0000 </r>
       <r>    4.5710    0.0000 </r>
       <r>    4.9794    0.0000 </r>
      </set>
      <set comment="kpoint 231">
       <r>  -17.5251    1.0000 </r>
       <r>  -16.8291    1.0000 </r>
       <r>  -15.7619    1.0000 </r>
       <r>  -15.0804    1.0000 </r>
       <r>   -9.7049    1.0000 </r>
       <r>   -9.3848    1.0000 </r>
       <r>   -5.3533    1.0000 </r>
       <r>   -4.9239    1.0000 </r>
       <r>   -1.1591    0.0000 </r>
       <r>   -0.6885    0.0000 </r>
       <r>    4.3124    0.0000 </r>
       <r>    4.6318    0.0000 </r>
      </set>
      <set comment="kpoint 232">
       <r>  -17.3701    1.0000 </r>
       <r>  -16.8358    1.0000 </r>
       <r>  -15.8365    1.0000 </r>
       <r>  -15.3116    1.0000 </r>
       <r>   -9.5115    1.0000 </r>
       <r>   -9.2918    1.0000 </r>
       <r>   -5.2638    1.0000 </r>
       <r>   -4.9681    1.0000 </r>
       <r>   -1.1554    0.0000 </r>
       <r>   -0.8324    0.0000 </r>
       <r>    4.1387    0.0000 </r>
       <r>    4.3585    0.0000 </r>
      </set>
      <set comment="kpoint 233">
       <r>  -17.2091    1.0000 </r>
       <r>  -16.9173    1.0000 </r>
       <r>  -15.8050    1.0000 </r>
       <r>  -15.5178    1.0000 </r>
       <r>   -9.3687    1.0000 </r>
       <r>   -9.2569    1.0000 </r>
       <r>   -5.1772    1.0000 </r>
       <r>   -5.0263    1.0000 </r>
       <r>   -1.1198    0.0000 </r>
       <r>   -0.9553    0.0000 </r>
       <r>    4.0556    0.0000 </r>
       <r>    4.1676    0.0000 </r>
      </set>
      <set comment="kpoint 234">
       <r>  -17.0519    1.0000 </r>
       <r>  -17.0519    1.0000 </r>
       <r>  -15.6887    1.0000 </r>
       <r>  -15.6887    1.0000 </r>
       <r>   -9.2827    1.0000 </r>
       <r>   -9.2827    1.0000 </r>
       <r>   -5.0969    1.0000 </r>
       <r>   -5.0969    1.0000 </r>
       <r>   -1.0524    0.0000 </r>
       <r>   -1.0524    0.0000 </r>
       <r>    4.0654    0.0000 </r>
       <r>    4.0654    0.0000 </r>
      </set>
      <set comment="kpoint 235">
       <r>  -17.7929    1.0000 </r>
       <r>  -17.7929    1.0000 </r>
       <r>  -13.3935    1.0000 </r>
       <r>  -13.3935    1.0000 </r>
       <r>  -11.6052    1.0000 </r>
       <r>  -11.6052    1.0000 </r>
       <r>   -5.3760    1.0000 </r>
       <r>   -5.3760    1.0000 </r>
       <r>   -0.1205    0.0000 </r>
       <r>   -0.1205    0.0000 </r>
       <r>    6.5442    0.0000 </r>
       <r>    6.5442    0.0000 </r>
      </set>
      <set comment="kpoint 236">
       <r>  -17.7840    1.0000 </r>
       <r>  -17.7840    1.0000 </r>
       <r>  -13.4633    1.0000 </r>
       <r>  -13.4633    1.0000 </r>
       <r>  -11.5329    1.0000 </r>
       <r>  -11.5329    1.0000 </r>
       <r>   -5.3709    1.0000 </r>
       <r>   -5.3709    1.0000 </r>
       <r>   -0.1388    0.0000 </r>
       <r>   -0.1388    0.0000 </r>
       <r>    6.5571    0.0000 </r>
       <r>    6.5571    0.0000 </r>
      </set>
      <set comment="kpoint 237">
       <r>  -17.7574    1.0000 </r>
       <r>  -17.7574    1.0000 </r>
       <r>  -13.6448    1.0000 </r>
       <r>  -13.6448    1.0000 </r>
       <r>  -11.3442    1.0000 </r>
       <r>  -11.3442    1.0000 </r>
       <r>   -5.3559    1.0000 </r>
       <r>   -5.3559    1.0000 </r>
       <r>   -0.1921    0.0000 </r>
       <r>   -0.1921    0.0000 </r>
       <r>    6.5953    0.0000 </r>
       <r>    6.5953    0.0000 </r>
      </set>
      <set comment="kpoint 238">
       <r>  -17.7133    1.0000 </r>
       <r>  -17.7133    1.0000 </r>
       <r>  -13.8895    1.0000 </r>
       <r>  -13.8895    1.0000 </r>
       <r>  -11.0892    1.0000 </r>
       <r>  -11.0892    1.0000 </r>
       <r>   -5.3316    1.0000 </r>
       <r>   -5.3316    1.0000 </r>
       <r>   -0.2759    0.0000 </r>
       <r>   -0.2759    0.0000 </r>
       <r>    6.6557    0.0000 </r>
       <r>    6.6557    0.0000 </r>
      </set>
      <set comment="kpoint 239">
       <r>  -17.6521    1.0000 </r>
       <r>  -17.6521    1.0000 </r>
       <r>  -14.1628    1.0000 </r>
       <r>  -14.1628    1.0000 </r>
       <r>  -10.8048    1.0000 </r>
       <r>  -10.8048    1.0000 </r>
       <r>   -5.2992    1.0000 </r>
       <r>   -5.2992    1.0000 </r>
       <r>   -0.3836    0.0000 </r>
       <r>   -0.3836    0.0000 </r>
       <r>    6.5725    0.0000 </r>
       <r>    6.5725    0.0000 </r>
      </set>
      <set comment="kpoint 240">
       <r>  -17.5743    1.0000 </r>
       <r>  -17.5743    1.0000 </r>
       <r>  -14.4456    1.0000 </r>
       <r>  -14.4456    1.0000 </r>
       <r>  -10.5134    1.0000 </r>
       <r>  -10.5134    1.0000 </r>
       <r>   -5.2603    1.0000 </r>
       <r>   -5.2603    1.0000 </r>
       <r>   -0.5073    0.0000 </r>
       <r>   -0.5073    0.0000 </r>
       <r>    6.0586    0.0000 </r>
       <r>    6.0586    0.0000 </r>
      </set>
      <set comment="kpoint 241">
       <r>  -17.4811    1.0000 </r>
       <r>  -17.4811    1.0000 </r>
       <r>  -14.7265    1.0000 </r>
       <r>  -14.7265    1.0000 </r>
       <r>  -10.2303    1.0000 </r>
       <r>  -10.2303    1.0000 </r>
       <r>   -5.2171    1.0000 </r>
       <r>   -5.2171    1.0000 </r>
       <r>   -0.6382    0.0000 </r>
       <r>   -0.6382    0.0000 </r>
       <r>    5.5688    0.0000 </r>
       <r>    5.5688    0.0000 </r>
      </set>
      <set comment="kpoint 242">
       <r>  -17.3740    1.0000 </r>
       <r>  -17.3740    1.0000 </r>
       <r>  -14.9983    1.0000 </r>
       <r>  -14.9983    1.0000 </r>
       <r>   -9.9673    1.0000 </r>
       <r>   -9.9673    1.0000 </r>
       <r>   -5.1721    1.0000 </r>
       <r>   -5.1721    1.0000 </r>
       <r>   -0.7678    0.0000 </r>
       <r>   -0.7678    0.0000 </r>
       <r>    5.1301    0.0000 </r>
       <r>    5.1301    0.0000 </r>
      </set>
      <set comment="kpoint 243">
       <r>  -17.2559    1.0000 </r>
       <r>  -17.2559    1.0000 </r>
       <r>  -15.2544    1.0000 </r>
       <r>  -15.2544    1.0000 </r>
       <r>   -9.7346    1.0000 </r>
       <r>   -9.7346    1.0000 </r>
       <r>   -5.1286    1.0000 </r>
       <r>   -5.1286    1.0000 </r>
       <r>   -0.8877    0.0000 </r>
       <r>   -0.8877    0.0000 </r>
       <r>    4.7534    0.0000 </r>
       <r>    4.7534    0.0000 </r>
      </set>
      <set comment="kpoint 244">
       <r>  -17.1321    1.0000 </r>
       <r>  -17.1321    1.0000 </r>
       <r>  -15.4873    1.0000 </r>
       <r>  -15.4873    1.0000 </r>
       <r>   -9.5417    1.0000 </r>
       <r>   -9.5417    1.0000 </r>
       <r>   -5.0898    1.0000 </r>
       <r>   -5.0898    1.0000 </r>
       <r>   -0.9902    0.0000 </r>
       <r>   -0.9902    0.0000 </r>
       <r>    4.4481    0.0000 </r>
       <r>    4.4481    0.0000 </r>
      </set>
      <set comment="kpoint 245">
       <r>  -17.0129    1.0000 </r>
       <r>  -17.0129    1.0000 </r>
       <r>  -15.6853    1.0000 </r>
       <r>  -15.6853    1.0000 </r>
       <r>   -9.3970    1.0000 </r>
       <r>   -9.3970    1.0000 </r>
       <r>   -5.0590    1.0000 </r>
       <r>   -5.0590    1.0000 </r>
       <r>   -1.0688    0.0000 </r>
       <r>   -1.0688    0.0000 </r>
       <r>    4.2229    0.0000 </r>
       <r>    4.2229    0.0000 </r>
      </set>
      <set comment="kpoint 246">
       <r>  -16.9188    1.0000 </r>
       <r>  -16.9188    1.0000 </r>
       <r>  -15.8271    1.0000 </r>
       <r>  -15.8271    1.0000 </r>
       <r>   -9.3072    1.0000 </r>
       <r>   -9.3072    1.0000 </r>
       <r>   -5.0392    1.0000 </r>
       <r>   -5.0392    1.0000 </r>
       <r>   -1.1182    0.0000 </r>
       <r>   -1.1182    0.0000 </r>
       <r>    4.0847    0.0000 </r>
       <r>    4.0847    0.0000 </r>
      </set>
      <set comment="kpoint 247">
       <r>  -16.8811    1.0000 </r>
       <r>  -16.8811    1.0000 </r>
       <r>  -15.8807    1.0000 </r>
       <r>  -15.8807    1.0000 </r>
       <r>   -9.2767    1.0000 </r>
       <r>   -9.2767    1.0000 </r>
       <r>   -5.0324    1.0000 </r>
       <r>   -5.0324    1.0000 </r>
       <r>   -1.1350    0.0000 </r>
       <r>   -1.1350    0.0000 </r>
       <r>    4.0381    0.0000 </r>
       <r>    4.0381    0.0000 </r>
      </set>
     </set>
    </set>
   </array>
  </eigenvalues>
  <separator name="orbital magnetization" >
   <v name="MAGDIPOLOUT">      0.00000000      0.00000000      0.00000000</v>
  </separator>
 </calculation>
 <structure name="finalpos" >
  <crystal>
   <varray name="basis" >
    <v>       4.35808750       0.00000000       0.00000000 </v>
    <v>       0.00000000       2.45904990       0.00000000 </v>
    <v>       0.00000000       0.00000000      19.67367067 </v>
   </varray>
   <i name="volume">    210.83790140 </i>
   <varray name="rec_basis" >
    <v>       0.22945845       0.00000000       0.00000000 </v>
    <v>       0.00000000       0.40666113       0.00000000 </v>
    <v>       0.00000000       0.00000000       0.05082936 </v>
   </varray>
  </crystal>
  <varray name="positions" >
   <v>       0.99954770       0.00000000       0.00000000 </v>
   <v>       0.16711897       0.50000000      -0.00000000 </v>
   <v>       0.49954770       0.50000000       0.00000000 </v>
   <v>       0.66711897       0.00000000      -0.00000000 </v>
  </varray>
 </structure>
</modeling>
