gr                                      
           1
     4.358087    0.000000    0.000000
     0.000000    2.459050    0.000000
     0.000000    0.000000   19.673671
   C 
   4
Direct configuration=     1
   0.99954297  0.00000000  0.00000000
   0.16712369  0.50000000  0.00000000
   0.49954297  0.50000000  0.00000000
   0.66712369  0.00000000  0.00000000
Direct configuration=     2
   0.99956571 -0.00000000  0.00000000
   0.16710096  0.50000000  0.00000000
   0.49956571  0.50000000  0.00000000
   0.66710096  0.00000000  0.00000000
Direct configuration=     3
   0.99954771  0.00000000  0.00000000
   0.16711895  0.50000000 -0.00000000
   0.49954771  0.50000000  0.00000000
   0.66711895  0.00000000 -0.00000000
Direct configuration=     4
   0.99954769  0.00000000  0.00000000
   0.16711898  0.50000000 -0.00000000
   0.49954769  0.50000000  0.00000000
   0.66711898  0.00000000 -0.00000000
Direct configuration=     5
   0.99954770  0.00000000  0.00000000
   0.16711897  0.50000000 -0.00000000
   0.49954770  0.50000000  0.00000000
   0.66711897  0.00000000 -0.00000000
