    4    4  400    1
  0.5270948E+02  0.4379883E-09  0.2457198E-09  0.1959052E-08  0.5000000E-15
  1.000000000000000E-004
  CAR 
 gr                                      
     16    247     12
 
  0.0000000E+00  0.0000000E+00  0.0000000E+00  0.1157407E-02
    1      -22.080933
    2      -17.257097
    3      -15.832816
    4      -10.225592
    5       -8.805336
    6       -6.006179
    7       -5.727258
    8       -5.334970
    9       -1.185815
   10        0.544758
   11        1.342845
   12        1.736242
 
  0.4166667E-01  0.0000000E+00  0.0000000E+00  0.2314815E-02
    1      -22.071174
    2      -17.375338
    3      -15.699595
    4      -10.214012
    5       -8.795889
    6       -6.050465
    7       -5.747329
    8       -5.393696
    9       -1.111371
   10        0.557958
   11        1.356237
   12        1.749803
 
  0.8333333E-01  0.0000000E+00  0.0000000E+00  0.2314815E-02
    1      -22.041903
    2      -17.648884
    3      -15.381185
    4      -10.179293
    5       -8.767600
    6       -6.181210
    7       -5.806500
    8       -5.558020
    9       -0.900050
   10        0.597562
   11        1.396408
   12        1.790485
 
  0.1250000E+00  0.0000000E+00  0.0000000E+00  0.2314815E-02
    1      -21.993140
    2      -17.979328
    3      -14.976219
    4      -10.121491
    5       -8.720621
    6       -6.392490
    7       -5.901801
    8       -5.800700
    9       -0.579568
   10        0.663594
   11        1.463342
   12        1.858294
 
  0.1666667E+00  0.0000000E+00  0.0000000E+00  0.2314815E-02
    1      -21.924920
    2      -18.324224
    3      -14.527535
    4      -10.040704
    5       -8.655211
    6       -6.675641
    7       -6.093316
    8       -6.028775
    9       -0.179147
   10        0.756076
   11        1.557014
   12        1.953233
 
  0.2083333E+00  0.0000000E+00  0.0000000E+00  0.2314815E-02
    1      -21.837294
    2      -18.667206
    3      -14.052060
    4       -9.937077
    5       -8.571745
    6       -7.020561
    7       -6.413586
    8       -6.182039
    9        0.277769
   10        0.875024
   11        1.677380
   12        2.075307
 
  0.2500000E+00  0.0000000E+00  0.0000000E+00  0.2314815E-02
    1      -21.730327
    2      -19.001128
    3      -13.557686
    4       -9.810799
    5       -8.470724
    6       -7.416858
    7       -6.746012
    8       -6.355842
    9        0.774119
   10        1.020440
   11        1.824373
   12        2.224515
 
  0.2916667E+00  0.0000000E+00  0.0000000E+00  0.2314815E-02
    1      -21.604104
    2      -19.322400
    3      -13.048956
    4       -9.662119
    5       -8.352789
    6       -7.854655
    7       -7.080216
    8       -6.544507
    9        1.192310
   10        1.297458
   11        1.997887
   12        2.400858
 
  0.3333333E+00  0.0000000E+00  0.0000000E+00  0.2314815E-02
    1      -21.458728
    2      -19.628993
    3      -12.529093
    4       -9.491352
    5       -8.325042
    6       -8.218744
    7       -7.409238
    8       -6.742732
    9        1.390601
   10        1.838015
   11        2.197739
   12        2.604330
 
  0.3750000E+00  0.0000000E+00  0.0000000E+00  0.2314815E-02
    1      -21.294323
    2      -19.919647
    3      -12.000821
    4       -9.298895
    5       -8.820232
    6       -8.069580
    7       -7.728324
    8       -6.945754
    9        1.615267
   10        2.386623
   11        2.423586
   12        2.834925
 
  0.4166667E+00  0.0000000E+00  0.0000000E+00  0.2314815E-02
    1      -21.111040
    2      -20.193511
    3      -11.466775
    4       -9.333546
    5       -9.085246
    6       -8.034146
    7       -7.906509
    8       -7.149405
    9        1.866242
   10        2.674662
   11        2.929143
   12        3.092629
 
  0.4583333E+00  0.0000000E+00  0.0000000E+00  0.2314815E-02
    1      -20.909063
    2      -20.449985
    3      -10.929723
    4       -9.859314
    5       -8.851031
    6       -8.324308
    7       -7.730997
    8       -7.350104
    9        2.143441
   10        2.776000
   11        2.948719
   12        3.375552
 
  0.5000000E+00  0.0000000E+00  0.0000000E+00  0.1157407E-02
    1      -20.688619
    2      -20.688619
    3      -10.392734
    4      -10.392734
    5       -8.597045
    6       -8.597045
    7       -7.544818
    8       -7.544818
    9        2.446748
   10        2.446748
   11        3.234813
   12        3.234813
 
  0.0000000E+00  0.2777778E-01  0.0000000E+00  0.2314815E-02
    1      -22.067104
    2      -17.245094
    3      -15.821025
    4      -10.209179
    5       -8.868652
    6       -6.032279
    7       -5.786313
    8       -5.318283
    9       -1.188257
   10        0.563493
   11        1.361769
   12        1.755405
 
  0.4166667E-01  0.2777778E-01  0.0000000E+00  0.4629630E-02
    1      -22.057347
    2      -17.363216
    3      -15.687967
    4      -10.197603
    5       -8.859194
    6       -6.077288
    7       -5.805055
    8       -5.377122
    9       -1.113802
   10        0.576692
   11        1.375160
   12        1.768965
 
  0.8333333E-01  0.2777778E-01  0.0000000E+00  0.4629630E-02
    1      -22.028080
    2      -17.636540
    3      -15.369913
    4      -10.162895
    5       -8.830870
    6       -6.208889
    7       -5.861664
    8       -5.541716
    9       -0.902517
   10        0.616297
   11        1.415329
   12        1.809648
 
  0.1250000E+00  0.2777778E-01  0.0000000E+00  0.4629630E-02
    1      -21.979325
    2      -17.966772
    3      -14.965387
    4      -10.105113
    5       -8.783829
    6       -6.419541
    7       -5.955071
    8       -5.784685
    9       -0.582257
   10        0.682329
   11        1.482260
   12        1.877457
 
  0.1666667E+00  0.2777778E-01  0.0000000E+00  0.4629630E-02
    1      -21.911116
    2      -18.311482
    3      -14.517219
    4      -10.024354
    5       -8.718328
    6       -6.700406
    7       -6.081349
    8       -6.077527
    9       -0.182329
   10        0.774813
   11        1.575928
   12        1.972397
 
  0.2083333E+00  0.2777778E-01  0.0000000E+00  0.4629630E-02
    1      -21.823505
    2      -18.654304
    3      -14.042344
    4       -9.920761
    5       -8.634735
    6       -7.041937
    7       -6.397938
    8       -6.234883
    9        0.273804
   10        0.893765
   11        1.696289
   12        2.094472
 
  0.2500000E+00  0.2777778E-01  0.0000000E+00  0.4629630E-02
    1      -21.716556
    2      -18.988088
    3      -13.548671
    4       -9.794525
    5       -8.533542
    6       -7.434350
    7       -6.730430
    8       -6.409547
    9        0.769095
   10        1.039186
   11        1.843277
   12        2.243682
 
  0.2916667E+00  0.2777778E-01  0.0000000E+00  0.4629630E-02
    1      -21.590356
    2      -19.309241
    3      -13.040766
    4       -9.645894
    5       -8.415381
    6       -7.868216
    7       -7.064643
    8       -6.599366
    9        1.211062
   10        1.291134
   11        2.016787
   12        2.420027
 
  0.3333333E+00  0.2777778E-01  0.0000000E+00  0.4629630E-02
    1      -21.445007
    2      -19.615730
    3      -12.521872
    4       -9.475184
    5       -8.334889
    6       -8.281046
    7       -7.393635
    8       -6.798834
    9        1.409360
   10        1.830219
   11        2.216638
   12        2.623502
 
  0.3750000E+00  0.2777778E-01  0.0000000E+00  0.4629630E-02
    1      -21.280634
    2      -19.906294
    3      -11.994745
    4       -9.282791
    5       -8.826714
    6       -8.131515
    7       -7.712667
    8       -7.003062
    9        1.634035
   10        2.377359
   11        2.442492
   12        2.854101
 
  0.4166667E+00  0.2777778E-01  0.0000000E+00  0.4629630E-02
    1      -21.097389
    2      -20.180081
    3      -11.462049
    4       -9.337063
    5       -9.069212
    6       -8.018420
    7       -7.967982
    8       -7.207816
    9        1.885020
   10        2.693583
   11        2.919229
   12        3.111826
 
  0.4583333E+00  0.2777778E-01  0.0000000E+00  0.4629630E-02
    1      -20.895456
    2      -20.436487
    3      -10.926589
    4       -9.860261
    5       -8.835072
    6       -8.308505
    7       -7.791901
    8       -7.409486
    9        2.162232
   10        2.794835
   11        2.967652
   12        3.372044
 
  0.5000000E+00  0.2777778E-01  0.0000000E+00  0.2314815E-02
    1      -20.675062
    2      -20.675062
    3      -10.391478
    4      -10.391478
    5       -8.581164
    6       -8.581164
    7       -7.605030
    8       -7.605030
    9        2.465555
   10        2.465555
   11        3.253335
   12        3.253335
 
  0.0000000E+00  0.5555556E-01  0.0000000E+00  0.2314815E-02
    1      -22.025627
    2      -17.209085
    3      -15.785793
    4      -10.159976
    5       -9.053470
    6       -6.110187
    7       -5.958617
    8       -5.268243
    9       -1.196389
   10        0.619697
   11        1.418535
   12        1.812893
 
  0.4166667E-01  0.5555556E-01  0.0000000E+00  0.4629630E-02
    1      -22.015874
    2      -17.326857
    3      -15.653222
    4      -10.148412
    5       -9.043973
    6       -6.160181
    7       -5.970594
    8       -5.327434
    9       -1.121893
   10        0.632895
   11        1.431923
   12        1.826454
 
  0.8333333E-01  0.5555556E-01  0.0000000E+00  0.4629630E-02
    1      -21.986621
    2      -17.599524
    3      -15.336237
    4      -10.113740
    5       -9.015530
    6       -6.297180
    7       -6.016771
    8       -5.492854
    9       -0.910717
   10        0.672500
   11        1.472086
   12        1.867137
 
  0.1250000E+00  0.5555556E-01  0.0000000E+00  0.4629630E-02
    1      -21.937889
    2      -17.929121
    3      -14.933048
    4      -10.056016
    5       -8.968283
    6       -6.506637
    7       -6.103902
    8       -5.736711
    9       -0.591131
   10        0.738532
   11        1.539007
   12        1.934946
 
  0.1666667E+00  0.5555556E-01  0.0000000E+00  0.4629630E-02
    1      -21.869715
    2      -18.273275
    3      -14.486448
    4       -9.975339
    5       -8.902475
    6       -6.780359
    7       -6.228444
    8       -6.030243
    9       -0.192706
   10        0.831018
   11        1.632660
   12        2.029887
 
  0.2083333E+00  0.5555556E-01  0.0000000E+00  0.4629630E-02
    1      -21.782148
    2      -18.615616
    3      -14.013408
    4       -9.871851
    5       -8.818455
    6       -7.111092
    7       -6.383451
    8       -6.351081
    9        0.261032
   10        0.949976
   11        1.753005
   12        2.151964
 
  0.2500000E+00  0.5555556E-01  0.0000000E+00  0.4629630E-02
    1      -21.675256
    2      -18.948985
    3      -13.521888
    4       -9.745743
    5       -8.716690
    6       -7.491111
    7       -6.683771
    8       -6.561457
    9        0.753080
   10        1.095406
   11        1.899977
   12        2.301179
 
  0.2916667E+00  0.5555556E-01  0.0000000E+00  0.4629630E-02
    1      -21.549125
    2      -19.269778
    3      -13.016516
    4       -9.597264
    5       -8.597783
    6       -7.912431
    7       -7.018009
    8       -6.755471
    9        1.267296
   10        1.271138
   11        2.073474
   12        2.477530
 
  0.3333333E+00  0.5555556E-01  0.0000000E+00  0.4629630E-02
    1      -21.403857
    2      -19.575957
    3      -12.500613
    4       -9.426728
    5       -8.462487
    6       -8.367274
    7       -7.346909
    8       -6.959322
    9        1.465611
   10        1.805691
   11        2.273323
   12        2.681013
 
  0.3750000E+00  0.5555556E-01  0.0000000E+00  0.4629630E-02
    1      -21.239581
    2      -19.866251
    3      -11.977024
    4       -9.234528
    5       -8.848419
    6       -8.311735
    7       -7.665773
    8       -7.167727
    9        1.690305
   10        2.348217
   11        2.499194
   12        2.911623
 
  0.4166667E+00  0.5555556E-01  0.0000000E+00  0.4629630E-02
    1      -21.056448
    2      -20.139803
    3      -11.448519
    4       -9.349385
    5       -9.021162
    6       -8.146675
    7       -7.971312
    8       -7.376249
    9        1.941313
   10        2.750337
   11        2.887438
   12        3.169348
 
  0.4583333E+00  0.5555556E-01  0.0000000E+00  0.4629630E-02
    1      -20.854646
    2      -20.396006
    3      -10.918023
    4       -9.864482
    5       -8.787249
    6       -8.261163
    7       -7.968702
    8       -7.581196
    9        2.218551
   10        2.851246
   11        3.024443
   12        3.367454
 
  0.5000000E+00  0.5555556E-01  0.0000000E+00  0.2314815E-02
    1      -20.634405
    2      -20.634405
    3      -10.388781
    4      -10.388781
    5       -8.533580
    6       -8.533580
    7       -7.779519
    8       -7.779519
    9        2.521910
   10        2.521910
   11        3.308649
   12        3.308649
 
  0.0000000E+00  0.8333333E-01  0.0000000E+00  0.2314815E-02
    1      -21.956537
    2      -17.149085
    3      -15.727566
    4      -10.078090
    5       -9.345839
    6       -6.238724
    7       -6.231122
    8       -5.184915
    9       -1.212628
   10        0.713368
   11        1.513118
   12        1.908708
 
  0.4166667E-01  0.8333333E-01  0.0000000E+00  0.4629630E-02
    1      -21.946791
    2      -17.266291
    3      -15.595798
    4      -10.066546
    5       -9.336263
    6       -6.324239
    7       -6.204712
    8       -5.244727
    9       -1.138048
   10        0.726565
   11        1.526503
   12        1.922268
 
  0.8333333E-01  0.8333333E-01  0.0000000E+00  0.4629630E-02
    1      -21.917562
    2      -17.537883
    3      -15.280608
    4      -10.031933
    5       -9.307579
    6       -6.472137
    7       -6.231865
    8       -5.411599
    9       -0.927033
   10        0.766164
   11        1.566653
   12        1.962951
 
  0.1250000E+00  0.8333333E-01  0.0000000E+00  0.4629630E-02
    1      -21.868870
    2      -17.866430
    3      -14.879698
    4       -9.974310
    5       -9.259914
    6       -6.677053
    7       -6.311401
    8       -5.657002
    9       -0.608595
   10        0.832190
   11        1.633555
   12        2.030760
 
  0.1666667E+00  0.8333333E-01  0.0000000E+00  0.4629630E-02
    1      -21.800753
    2      -18.209657
    3      -14.435799
    4       -9.893774
    5       -9.193485
    6       -6.936276
    7       -6.435907
    8       -5.951724
    9       -0.212761
   10        0.924670
   11        1.727183
   12        2.125701
 
  0.2083333E+00  0.8333333E-01  0.0000000E+00  0.4629630E-02
    1      -21.713260
    2      -18.551195
    3      -13.965942
    4       -9.790467
    5       -9.108604
    6       -7.246318
    7       -6.596212
    8       -6.273292
    9        0.236836
   10        1.043626
   11        1.847497
   12        2.247780
 
  0.2500000E+00  0.8333333E-01  0.0000000E+00  0.4629630E-02
    1      -21.606462
    2      -18.883869
    3      -13.478182
    4       -9.664580
    5       -9.005691
    6       -7.602751
    7       -6.782747
    8       -6.606309
    9        0.723279
   10        1.189059
   11        1.994438
   12        2.396999
 
  0.2916667E+00  0.8333333E-01  0.0000000E+00  0.4629630E-02
    1      -21.480445
    2      -19.204061
    3      -12.977265
    4       -9.516361
    5       -8.885283
    6       -8.000185
    7       -6.986685
    8       -6.940580
    9        1.234436
   10        1.360957
   11        2.167909
   12        2.573356
 
  0.3333333E+00  0.8333333E-01  0.0000000E+00  0.4629630E-02
    1      -21.335314
    2      -19.509718
    3      -12.466656
    4       -9.346122
    5       -8.748057
    6       -8.432537
    7       -7.269309
    8       -7.200524
    9        1.559285
   10        1.761077
   11        2.367748
   12        2.776849
 
  0.3750000E+00  0.8333333E-01  0.0000000E+00  0.4629630E-02
    1      -21.171198
    2      -19.799560
    3      -11.949374
    4       -9.154257
    5       -8.893472
    6       -8.594852
    7       -7.587875
    8       -7.418195
    9        1.783993
   10        2.295298
   11        2.593649
   12        3.007471
 
  0.4166667E+00  0.8333333E-01  0.0000000E+00  0.4629630E-02
    1      -20.988254
    2      -20.072721
    3      -11.428395
    4       -9.376813
    5       -8.941256
    6       -8.426701
    7       -7.893042
    8       -7.634885
    9        2.035016
   10        2.828191
   11        2.844887
   12        3.265216
 
  0.4583333E+00  0.8333333E-01  0.0000000E+00  0.4629630E-02
    1      -20.786672
    2      -20.328583
    3      -10.906887
    4       -9.876830
    5       -8.707737
    6       -8.244872
    7       -8.182483
    8       -7.846798
    9        2.312270
   10        2.945020
   11        3.119075
   12        3.331855
 
  0.5000000E+00  0.8333333E-01  0.0000000E+00  0.2314815E-02
    1      -20.566687
    2      -20.566687
    3      -10.388369
    4      -10.388369
    5       -8.454481
    6       -8.454481
    7       -8.050927
    8       -8.050927
    9        2.615650
   10        2.615650
   11        3.399471
   12        3.399471
 
  0.0000000E+00  0.1111111E+00  0.0000000E+00  0.2314815E-02
    1      -21.859893
    2      -17.065113
    3      -15.647178
    4       -9.963700
    5       -9.726428
    6       -6.586108
    7       -6.415885
    8       -5.068410
    9       -1.241005
   10        0.844503
   11        1.645480
   12        2.042851
 
  0.4166667E-01  0.1111111E+00  0.0000000E+00  0.4629630E-02
    1      -21.850158
    2      -17.181567
    3      -15.516523
    4       -9.952185
    5       -9.716711
    6       -6.639140
    7       -6.418167
    8       -5.129169
    9       -1.166266
   10        0.857695
   11        1.658859
   12        2.056410
 
  0.8333333E-01  0.1111111E+00  0.0000000E+00  0.4629630E-02
    1      -21.820963
    2      -17.451701
    3      -15.203883
    4       -9.917661
    5       -9.687594
    6       -6.772904
    7       -6.448645
    8       -5.298245
    9       -0.955415
   10        0.897281
   11        1.698989
   12        2.097090
 
  0.1250000E+00  0.1111111E+00  0.0000000E+00  0.4629630E-02
    1      -21.772327
    2      -17.778796
    3      -14.806287
    4       -9.860185
    5       -9.639178
    6       -6.963110
    7       -6.526590
    8       -5.545962
    9       -0.638616
   10        0.963287
   11        1.765859
   12        2.164896
 
  0.1666667E+00  0.1111111E+00  0.0000000E+00  0.4629630E-02
    1      -21.704289
    2      -18.120728
    3      -14.366385
    4       -9.779854
    5       -9.571634
    6       -7.200339
    7       -6.653331
    8       -5.842440
    9       -0.246573
   10        1.055744
   11        1.859443
   12        2.259834
 
  0.2083333E+00  0.1111111E+00  0.0000000E+00  0.4629630E-02
    1      -21.616902
    2      -18.461136
    3      -13.901300
    4       -9.676812
    5       -9.485208
    6       -7.480306
    7       -6.822531
    8       -6.165061
    9        0.196943
   10        1.174676
   11        1.979706
   12        2.381912
 
  0.2500000E+00  0.1111111E+00  0.0000000E+00  0.4629630E-02
    1      -21.510236
    2      -18.792830
    3      -13.419240
    4       -9.551249
    5       -9.380226
    6       -7.800685
    7       -7.024173
    8       -6.498534
    9        0.675148
   10        1.320092
   11        2.126591
   12        2.531131
 
  0.2916667E+00  0.1111111E+00  0.0000000E+00  0.4629630E-02
    1      -21.384378
    2      -19.112173
    3      -12.925154
    4       -9.403411
    5       -9.257105
    6       -8.159546
    7       -7.247080
    8       -6.832823
    9        1.176153
   10        1.491977
   11        2.300012
   12        2.707493
 
  0.3333333E+00  0.1111111E+00  0.0000000E+00  0.4629630E-02
    1      -21.239439
    2      -19.417095
    3      -12.422761
    4       -9.233610
    5       -9.116365
    6       -8.554196
    7       -7.480957
    8       -7.161279
    9        1.690297
   10        1.691069
   11        2.499827
   12        2.910994
 
  0.3750000E+00  0.1111111E+00  0.0000000E+00  0.4629630E-02
    1      -21.075549
    2      -19.706297
    3      -11.915393
    4       -9.042235
    5       -8.980659
    6       -8.958644
    7       -7.717572
    8       -7.479386
    9        1.914998
   10        2.212623
   11        2.725763
   12        3.141627
 
  0.4166667E+00  0.1111111E+00  0.0000000E+00  0.4629630E-02
    1      -20.892871
    2      -19.978906
    3      -11.406413
    4       -9.433893
    5       -8.829774
    6       -8.784728
    7       -7.950931
    8       -7.783990
    9        2.166009
   10        2.733820
   11        2.977160
   12        3.399383
 
  0.4583333E+00  0.1111111E+00  0.0000000E+00  0.4629630E-02
    1      -20.691600
    2      -20.234288
    3      -10.899455
    4       -9.908361
    5       -8.596837
    6       -8.595588
    7       -8.176859
    8       -8.072819
    9        2.443246
   10        3.075939
   11        3.242724
   12        3.251514
 
  0.5000000E+00  0.1111111E+00  0.0000000E+00  0.2314815E-02
    1      -20.471974
    2      -20.471974
    3      -10.398580
    4      -10.398580
    5       -8.392442
    6       -8.392442
    7       -8.344191
    8       -8.344191
    9        2.746600
   10        2.746600
   11        3.518362
   12        3.518362
 
  0.0000000E+00  0.1388889E+00  0.0000000E+00  0.2314815E-02
    1      -21.735783
    2      -16.957200
    3      -15.546040
    4      -10.174052
    5       -9.817066
    6       -7.004864
    7       -6.638833
    8       -4.918884
    9       -1.287102
   10        1.013089
   11        1.815562
   12        2.215322
 
  0.4166667E-01  0.1388889E+00  0.0000000E+00  0.4629630E-02
    1      -21.726062
    2      -17.072761
    3      -15.416798
    4      -10.164092
    5       -9.805592
    6       -7.050866
    7       -6.643626
    8       -4.981021
    9       -1.212058
   10        1.026273
   11        1.828930
   12        2.228880
 
  0.8333333E-01  0.1388889E+00  0.0000000E+00  0.4629630E-02
    1      -21.696909
    2      -17.341106
    3      -15.107526
    4      -10.134232
    5       -9.771188
    6       -7.174665
    7       -6.671110
    8       -5.153258
    9       -1.001263
   10        1.065834
   11        1.869029
   12        2.269555
 
  0.1250000E+00  0.1388889E+00  0.0000000E+00  0.4629630E-02
    1      -21.648346
    2      -17.666368
    3      -14.714471
    4      -10.084521
    5       -9.713912
    6       -7.354105
    7       -6.740051
    8       -5.404237
    9       -0.686570
   10        1.131801
   11        1.935846
   12        2.337354
 
  0.1666667E+00  0.1388889E+00  0.0000000E+00  0.4629630E-02
    1      -21.580411
    2      -18.006637
    3      -14.280183
    4      -10.015047
    5       -9.633863
    6       -7.574991
    7       -6.858817
    8       -5.703130
    9       -0.299626
   10        1.224209
   11        2.029359
   12        2.432283
 
  0.2083333E+00  0.1388889E+00  0.0000000E+00  0.4629630E-02
    1      -21.493160
    2      -18.345582
    3      -13.821931
    4       -9.925925
    5       -9.531182
    6       -7.829608
    7       -7.026884
    8       -6.027158
    9        0.135650
   10        1.343086
   11        2.149533
   12        2.554352
 
  0.2500000E+00  0.1388889E+00  0.0000000E+00  0.4629630E-02
    1      -21.386663
    2      -18.676004
    3      -13.348185
    4       -9.817299
    5       -9.406061
    6       -8.114279
    7       -7.237652
    8       -6.361202
    9        0.602692
   10        1.488449
   11        2.296318
   12        2.703566
 
  0.2916667E+00  0.1388889E+00  0.0000000E+00  0.4629630E-02
    1      -21.261013
    2      -18.994241
    3      -12.864249
    4       -9.689336
    5       -9.258745
    6       -8.428105
    7       -7.480404
    8       -6.695462
    9        1.089951
   10        1.660286
   11        2.469641
   12        2.879926
 
  0.3333333E+00  0.1388889E+00  0.0000000E+00  0.4629630E-02
    1      -21.116321
    2      -19.298203
    3      -12.374307
    4       -9.542219
    5       -9.089544
    6       -8.771830
    7       -7.742290
    8       -7.023492
    9        1.588945
   10        1.858562
   11        2.669387
   12        3.083429
 
  0.3750000E+00  0.1388889E+00  0.0000000E+00  0.4629630E-02
    1      -20.952725
    2      -19.586574
    3      -11.882291
    4       -9.376144
    5       -9.146295
    6       -8.898843
    7       -8.010631
    8       -7.340931
    9        2.083218
   10        2.092979
   11        2.895343
   12        3.314068
 
  0.4166667E+00  0.1388889E+00  0.0000000E+00  0.4629630E-02
    1      -20.770392
    2      -19.858462
    3      -11.392323
    4       -9.550876
    5       -9.191328
    6       -8.687126
    7       -8.275033
    8       -7.644732
    9        2.334179
   10        2.596277
   11        3.146985
   12        3.571844
 
  0.4583333E+00  0.1388889E+00  0.0000000E+00  0.4629630E-02
    1      -20.569523
    2      -20.113220
    3      -10.908954
    4       -9.982744
    5       -8.988051
    6       -8.528426
    7       -8.454993
    8       -7.932697
    9        2.611349
   10        3.092816
   11        3.243836
   12        3.421707
 
  0.5000000E+00  0.1388889E+00  0.0000000E+00  0.2314815E-02
    1      -20.350366
    2      -20.350366
    3      -10.437263
    4      -10.437263
    5       -8.766771
    6       -8.766771
    7       -8.203197
    8       -8.203197
    9        2.914614
   10        2.914614
   11        3.557505
   12        3.557508
 
  0.0000000E+00  0.1666667E+00  0.0000000E+00  0.2314815E-02
    1      -21.584320
    2      -16.825388
    3      -15.426499
    4      -10.667942
    5       -9.638538
    6       -7.470138
    7       -6.903922
    8       -4.736545
    9       -1.357846
   10        1.219104
   11        2.023278
   12        2.426121
 
  0.4166667E-01  0.1666667E+00  0.0000000E+00  0.4629630E-02
    1      -21.574618
    2      -16.939981
    3      -15.298976
    4      -10.657567
    5       -9.627117
    6       -7.514852
    7       -6.904990
    8       -4.800662
    9       -1.282209
   10        1.232276
   11        2.036628
   12        2.439677
 
  0.8333333E-01  0.1666667E+00  0.0000000E+00  0.4629630E-02
    1      -21.545518
    2      -17.206289
    3      -14.994039
    4      -10.626427
    5       -9.592871
    6       -7.636535
    7       -6.920102
    8       -4.977362
    9       -1.071113
   10        1.271801
   11        2.076675
   12        2.480345
 
  0.1250000E+00  0.1666667E+00  0.0000000E+00  0.4629630E-02
    1      -21.497043
    2      -17.529363
    3      -14.607136
    4      -10.574474
    5       -9.535859
    6       -7.812924
    7       -6.969707
    8       -5.232817
    9       -0.758867
   10        1.337707
   11        2.143406
   12        2.548131
 
  0.1666667E+00  0.1666667E+00  0.0000000E+00  0.4629630E-02
    1      -21.429235
    2      -17.867602
    3      -14.180729
    4      -10.501621
    5       -9.456180
    6       -8.027204
    7       -7.067070
    8       -5.534920
    9       -0.378378
   10        1.430031
   11        2.236796
   12        2.643043
 
  0.2083333E+00  0.1666667E+00  0.0000000E+00  0.4629630E-02
    1      -21.342150
    2      -18.204741
    3      -13.732353
    4      -10.407711
    5       -9.353976
    6       -8.268942
    7       -7.216944
    8       -5.860736
    9        0.046331
   10        1.548812
   11        2.356813
   12        2.765093
 
  0.2500000E+00  0.1666667E+00  0.0000000E+00  0.4629630E-02
    1      -21.235862
    2      -18.533580
    3      -13.270958
    4      -10.292494
    5       -9.229439
    6       -8.532013
    7       -7.417554
    8       -6.195431
    9        0.499071
   10        1.694072
   11        2.503410
   12        2.914288
 
  0.2916667E+00  0.1666667E+00  0.0000000E+00  0.4629630E-02
    1      -21.110467
    2      -18.850442
    3      -12.802537
    4      -10.155576
    5       -9.082813
    6       -8.813423
    7       -7.662148
    8       -6.529548
    9        0.968791
   10        1.865809
   11        2.676522
   12        3.090635
 
  0.3333333E+00  0.1666667E+00  0.0000000E+00  0.4629630E-02
    1      -20.966081
    2      -19.153210
    3      -12.332210
    4       -9.996373
    5       -9.112820
    6       -8.914407
    7       -7.940189
    8       -6.856924
    9        1.447532
   10        2.063991
   11        2.876063
   12        3.294132
 
  0.3750000E+00  0.1666667E+00  0.0000000E+00  0.4629630E-02
    1      -20.802847
    2      -19.440546
    3      -11.865126
    4       -9.814071
    5       -9.432133
    6       -8.724604
    7       -8.238523
    8       -7.173404
    9        1.929182
   10        2.288554
   11        3.101907
   12        3.524771
 
  0.4166667E+00  0.1666667E+00  0.0000000E+00  0.4629630E-02
    1      -20.620941
    2      -19.711536
    3      -11.406866
    4       -9.774771
    5       -9.607667
    6       -8.542878
    7       -8.513880
    8       -7.476084
    9        2.408741
   10        2.539413
   11        3.353810
   12        3.782576
 
  0.4583333E+00  0.1666667E+00  0.0000000E+00  0.4629630E-02
    1      -20.420572
    2      -19.965519
    3      -10.963473
    4      -10.143996
    5       -9.376235
    6       -8.839953
    7       -8.282825
    8       -7.762863
    9        2.816461
   10        2.881875
   11        3.448579
   12        3.629443
 
  0.5000000E+00  0.1666667E+00  0.0000000E+00  0.2314815E-02
    1      -20.201994
    2      -20.201994
    3      -10.540931
    4      -10.540931
    5       -9.119654
    6       -9.119654
    7       -8.032175
    8       -8.032175
    9        3.119567
   10        3.119567
   11        3.344444
   12        3.344444
 