<?xml version="1.0" encoding="ISO-8859-1"?>
<modeling>
 <generator>
  <i name="program" type="string">vasp </i>
  <i name="version" type="string">5.3.5  </i>
  <i name="subversion" type="string">31Mar14 (build Mar 02 2015 18:14:16) complex                          parallel </i>
  <i name="platform" type="string">LinuxIFC </i>
  <i name="date" type="string">2018 08 09 </i>
  <i name="time" type="string">14:10:33 </i>
 </generator>
 <incar>
  <i type="string" name="SYSTEM">  gr</i>
  <i type="string" name="PREC">accurate : accuracy</i>
  <i type="string" name="ALGO"> FAST.</i>
  <i type="int" name="NELM">   100</i>
  <i type="int" name="NELMDL">    -3</i>
  <i type="int" name="NELMIN">     5</i>
  <i type="int" name="IBRION">     1</i>
  <i name="EDIFF">      0.00000000</i>
  <i name="EDIFFG">     -0.00000100</i>
  <i type="int" name="NSW">   400</i>
  <i type="int" name="ISIF">     2</i>
  <i name="ENCUT">   2000.00000000</i>
  <i type="int" name="ISMEAR">     0</i>
  <i name="SIGMA">      0.05000000</i>
  <i type="int" name="NWRITE">     2</i>
  <i type="logical" name="LWAVE"> F  </i>
  <i type="logical" name="LCHARG"> F  </i>
  <i type="int" name="NELM">   100</i>
 </incar>
 <kpoints>
  <generation param="Gamma">
   <v type="int" name="divisions">      24       36        1 </v>
   <v name="usershift">      0.00000000       0.00000000       0.00000000 </v>
   <v name="genvec1">      0.04166667       0.00000000       0.00000000 </v>
   <v name="genvec2">      0.00000000       0.02777778       0.00000000 </v>
   <v name="genvec3">      0.00000000       0.00000000       1.00000000 </v>
   <v name="shift">      0.00000000       0.00000000       0.00000000 </v>
  </generation>
  <varray name="kpointlist" >
   <v>       0.00000000       0.00000000       0.00000000 </v>
   <v>       0.04166667       0.00000000       0.00000000 </v>
   <v>       0.08333333       0.00000000       0.00000000 </v>
   <v>       0.12500000       0.00000000       0.00000000 </v>
   <v>       0.16666667       0.00000000       0.00000000 </v>
   <v>       0.20833333       0.00000000       0.00000000 </v>
   <v>       0.25000000       0.00000000       0.00000000 </v>
   <v>       0.29166667       0.00000000       0.00000000 </v>
   <v>       0.33333333       0.00000000       0.00000000 </v>
   <v>       0.37500000       0.00000000       0.00000000 </v>
   <v>       0.41666667       0.00000000       0.00000000 </v>
   <v>       0.45833333       0.00000000       0.00000000 </v>
   <v>       0.50000000       0.00000000       0.00000000 </v>
   <v>       0.00000000       0.02777778       0.00000000 </v>
   <v>       0.04166667       0.02777778       0.00000000 </v>
   <v>       0.08333333       0.02777778       0.00000000 </v>
   <v>       0.12500000       0.02777778       0.00000000 </v>
   <v>       0.16666667       0.02777778       0.00000000 </v>
   <v>       0.20833333       0.02777778       0.00000000 </v>
   <v>       0.25000000       0.02777778       0.00000000 </v>
   <v>       0.29166667       0.02777778       0.00000000 </v>
   <v>       0.33333333       0.02777778       0.00000000 </v>
   <v>       0.37500000       0.02777778       0.00000000 </v>
   <v>       0.41666667       0.02777778       0.00000000 </v>
   <v>       0.45833333       0.02777778       0.00000000 </v>
   <v>       0.50000000       0.02777778       0.00000000 </v>
   <v>       0.00000000       0.05555556       0.00000000 </v>
   <v>       0.04166667       0.05555556       0.00000000 </v>
   <v>       0.08333333       0.05555556       0.00000000 </v>
   <v>       0.12500000       0.05555556       0.00000000 </v>
   <v>       0.16666667       0.05555556       0.00000000 </v>
   <v>       0.20833333       0.05555556       0.00000000 </v>
   <v>       0.25000000       0.05555556       0.00000000 </v>
   <v>       0.29166667       0.05555556       0.00000000 </v>
   <v>       0.33333333       0.05555556       0.00000000 </v>
   <v>       0.37500000       0.05555556       0.00000000 </v>
   <v>       0.41666667       0.05555556       0.00000000 </v>
   <v>       0.45833333       0.05555556       0.00000000 </v>
   <v>       0.50000000       0.05555556       0.00000000 </v>
   <v>       0.00000000       0.08333333       0.00000000 </v>
   <v>       0.04166667       0.08333333       0.00000000 </v>
   <v>       0.08333333       0.08333333       0.00000000 </v>
   <v>       0.12500000       0.08333333       0.00000000 </v>
   <v>       0.16666667       0.08333333       0.00000000 </v>
   <v>       0.20833333       0.08333333       0.00000000 </v>
   <v>       0.25000000       0.08333333       0.00000000 </v>
   <v>       0.29166667       0.08333333       0.00000000 </v>
   <v>       0.33333333       0.08333333       0.00000000 </v>
   <v>       0.37500000       0.08333333       0.00000000 </v>
   <v>       0.41666667       0.08333333       0.00000000 </v>
   <v>       0.45833333       0.08333333       0.00000000 </v>
   <v>       0.50000000       0.08333333       0.00000000 </v>
   <v>       0.00000000       0.11111111       0.00000000 </v>
   <v>       0.04166667       0.11111111       0.00000000 </v>
   <v>       0.08333333       0.11111111       0.00000000 </v>
   <v>       0.12500000       0.11111111       0.00000000 </v>
   <v>       0.16666667       0.11111111       0.00000000 </v>
   <v>       0.20833333       0.11111111       0.00000000 </v>
   <v>       0.25000000       0.11111111       0.00000000 </v>
   <v>       0.29166667       0.11111111       0.00000000 </v>
   <v>       0.33333333       0.11111111       0.00000000 </v>
   <v>       0.37500000       0.11111111       0.00000000 </v>
   <v>       0.41666667       0.11111111       0.00000000 </v>
   <v>       0.45833333       0.11111111       0.00000000 </v>
   <v>       0.50000000       0.11111111       0.00000000 </v>
   <v>       0.00000000       0.13888889       0.00000000 </v>
   <v>       0.04166667       0.13888889       0.00000000 </v>
   <v>       0.08333333       0.13888889       0.00000000 </v>
   <v>       0.12500000       0.13888889       0.00000000 </v>
   <v>       0.16666667       0.13888889       0.00000000 </v>
   <v>       0.20833333       0.13888889       0.00000000 </v>
   <v>       0.25000000       0.13888889       0.00000000 </v>
   <v>       0.29166667       0.13888889       0.00000000 </v>
   <v>       0.33333333       0.13888889       0.00000000 </v>
   <v>       0.37500000       0.13888889       0.00000000 </v>
   <v>       0.41666667       0.13888889       0.00000000 </v>
   <v>       0.45833333       0.13888889       0.00000000 </v>
   <v>       0.50000000       0.13888889       0.00000000 </v>
   <v>       0.00000000       0.16666667       0.00000000 </v>
   <v>       0.04166667       0.16666667       0.00000000 </v>
   <v>       0.08333333       0.16666667       0.00000000 </v>
   <v>       0.12500000       0.16666667       0.00000000 </v>
   <v>       0.16666667       0.16666667       0.00000000 </v>
   <v>       0.20833333       0.16666667       0.00000000 </v>
   <v>       0.25000000       0.16666667       0.00000000 </v>
   <v>       0.29166667       0.16666667       0.00000000 </v>
   <v>       0.33333333       0.16666667       0.00000000 </v>
   <v>       0.37500000       0.16666667       0.00000000 </v>
   <v>       0.41666667       0.16666667       0.00000000 </v>
   <v>       0.45833333       0.16666667       0.00000000 </v>
   <v>       0.50000000       0.16666667       0.00000000 </v>
   <v>       0.00000000       0.19444444       0.00000000 </v>
   <v>       0.04166667       0.19444444       0.00000000 </v>
   <v>       0.08333333       0.19444444       0.00000000 </v>
   <v>       0.12500000       0.19444444       0.00000000 </v>
   <v>       0.16666667       0.19444444       0.00000000 </v>
   <v>       0.20833333       0.19444444       0.00000000 </v>
   <v>       0.25000000       0.19444444       0.00000000 </v>
   <v>       0.29166667       0.19444444       0.00000000 </v>
   <v>       0.33333333       0.19444444       0.00000000 </v>
   <v>       0.37500000       0.19444444       0.00000000 </v>
   <v>       0.41666667       0.19444444       0.00000000 </v>
   <v>       0.45833333       0.19444444       0.00000000 </v>
   <v>       0.50000000       0.19444444       0.00000000 </v>
   <v>       0.00000000       0.22222222       0.00000000 </v>
   <v>       0.04166667       0.22222222       0.00000000 </v>
   <v>       0.08333333       0.22222222       0.00000000 </v>
   <v>       0.12500000       0.22222222       0.00000000 </v>
   <v>       0.16666667       0.22222222       0.00000000 </v>
   <v>       0.20833333       0.22222222       0.00000000 </v>
   <v>       0.25000000       0.22222222       0.00000000 </v>
   <v>       0.29166667       0.22222222       0.00000000 </v>
   <v>       0.33333333       0.22222222       0.00000000 </v>
   <v>       0.37500000       0.22222222       0.00000000 </v>
   <v>       0.41666667       0.22222222       0.00000000 </v>
   <v>       0.45833333       0.22222222       0.00000000 </v>
   <v>       0.50000000       0.22222222       0.00000000 </v>
   <v>       0.00000000       0.25000000       0.00000000 </v>
   <v>       0.04166667       0.25000000       0.00000000 </v>
   <v>       0.08333333       0.25000000       0.00000000 </v>
   <v>       0.12500000       0.25000000       0.00000000 </v>
   <v>       0.16666667       0.25000000       0.00000000 </v>
   <v>       0.20833333       0.25000000       0.00000000 </v>
   <v>       0.25000000       0.25000000       0.00000000 </v>
   <v>       0.29166667       0.25000000       0.00000000 </v>
   <v>       0.33333333       0.25000000       0.00000000 </v>
   <v>       0.37500000       0.25000000       0.00000000 </v>
   <v>       0.41666667       0.25000000       0.00000000 </v>
   <v>       0.45833333       0.25000000       0.00000000 </v>
   <v>       0.50000000       0.25000000       0.00000000 </v>
   <v>       0.00000000       0.27777778       0.00000000 </v>
   <v>       0.04166667       0.27777778       0.00000000 </v>
   <v>       0.08333333       0.27777778       0.00000000 </v>
   <v>       0.12500000       0.27777778       0.00000000 </v>
   <v>       0.16666667       0.27777778       0.00000000 </v>
   <v>       0.20833333       0.27777778       0.00000000 </v>
   <v>       0.25000000       0.27777778       0.00000000 </v>
   <v>       0.29166667       0.27777778       0.00000000 </v>
   <v>       0.33333333       0.27777778       0.00000000 </v>
   <v>       0.37500000       0.27777778       0.00000000 </v>
   <v>       0.41666667       0.27777778       0.00000000 </v>
   <v>       0.45833333       0.27777778       0.00000000 </v>
   <v>       0.50000000       0.27777778       0.00000000 </v>
   <v>       0.00000000       0.30555556       0.00000000 </v>
   <v>       0.04166667       0.30555556       0.00000000 </v>
   <v>       0.08333333       0.30555556       0.00000000 </v>
   <v>       0.12500000       0.30555556       0.00000000 </v>
   <v>       0.16666667       0.30555556       0.00000000 </v>
   <v>       0.20833333       0.30555556       0.00000000 </v>
   <v>       0.25000000       0.30555556       0.00000000 </v>
   <v>       0.29166667       0.30555556       0.00000000 </v>
   <v>       0.33333333       0.30555556       0.00000000 </v>
   <v>       0.37500000       0.30555556       0.00000000 </v>
   <v>       0.41666667       0.30555556       0.00000000 </v>
   <v>       0.45833333       0.30555556       0.00000000 </v>
   <v>       0.50000000       0.30555556       0.00000000 </v>
   <v>       0.00000000       0.33333333       0.00000000 </v>
   <v>       0.04166667       0.33333333       0.00000000 </v>
   <v>       0.08333333       0.33333333       0.00000000 </v>
   <v>       0.12500000       0.33333333       0.00000000 </v>
   <v>       0.16666667       0.33333333       0.00000000 </v>
   <v>       0.20833333       0.33333333       0.00000000 </v>
   <v>       0.25000000       0.33333333       0.00000000 </v>
   <v>       0.29166667       0.33333333       0.00000000 </v>
   <v>       0.33333333       0.33333333       0.00000000 </v>
   <v>       0.37500000       0.33333333       0.00000000 </v>
   <v>       0.41666667       0.33333333       0.00000000 </v>
   <v>       0.45833333       0.33333333       0.00000000 </v>
   <v>       0.50000000       0.33333333       0.00000000 </v>
   <v>       0.00000000       0.36111111       0.00000000 </v>
   <v>       0.04166667       0.36111111       0.00000000 </v>
   <v>       0.08333333       0.36111111       0.00000000 </v>
   <v>       0.12500000       0.36111111       0.00000000 </v>
   <v>       0.16666667       0.36111111       0.00000000 </v>
   <v>       0.20833333       0.36111111       0.00000000 </v>
   <v>       0.25000000       0.36111111       0.00000000 </v>
   <v>       0.29166667       0.36111111       0.00000000 </v>
   <v>       0.33333333       0.36111111       0.00000000 </v>
   <v>       0.37500000       0.36111111       0.00000000 </v>
   <v>       0.41666667       0.36111111       0.00000000 </v>
   <v>       0.45833333       0.36111111       0.00000000 </v>
   <v>       0.50000000       0.36111111       0.00000000 </v>
   <v>       0.00000000       0.38888889       0.00000000 </v>
   <v>       0.04166667       0.38888889       0.00000000 </v>
   <v>       0.08333333       0.38888889       0.00000000 </v>
   <v>       0.12500000       0.38888889       0.00000000 </v>
   <v>       0.16666667       0.38888889       0.00000000 </v>
   <v>       0.20833333       0.38888889       0.00000000 </v>
   <v>       0.25000000       0.38888889       0.00000000 </v>
   <v>       0.29166667       0.38888889       0.00000000 </v>
   <v>       0.33333333       0.38888889       0.00000000 </v>
   <v>       0.37500000       0.38888889       0.00000000 </v>
   <v>       0.41666667       0.38888889       0.00000000 </v>
   <v>       0.45833333       0.38888889       0.00000000 </v>
   <v>       0.50000000       0.38888889       0.00000000 </v>
   <v>       0.00000000       0.41666667       0.00000000 </v>
   <v>       0.04166667       0.41666667       0.00000000 </v>
   <v>       0.08333333       0.41666667       0.00000000 </v>
   <v>       0.12500000       0.41666667       0.00000000 </v>
   <v>       0.16666667       0.41666667       0.00000000 </v>
   <v>       0.20833333       0.41666667       0.00000000 </v>
   <v>       0.25000000       0.41666667       0.00000000 </v>
   <v>       0.29166667       0.41666667       0.00000000 </v>
   <v>       0.33333333       0.41666667       0.00000000 </v>
   <v>       0.37500000       0.41666667       0.00000000 </v>
   <v>       0.41666667       0.41666667       0.00000000 </v>
   <v>       0.45833333       0.41666667       0.00000000 </v>
   <v>       0.50000000       0.41666667       0.00000000 </v>
   <v>       0.00000000       0.44444444       0.00000000 </v>
   <v>       0.04166667       0.44444444       0.00000000 </v>
   <v>       0.08333333       0.44444444       0.00000000 </v>
   <v>       0.12500000       0.44444444       0.00000000 </v>
   <v>       0.16666667       0.44444444       0.00000000 </v>
   <v>       0.20833333       0.44444444       0.00000000 </v>
   <v>       0.25000000       0.44444444       0.00000000 </v>
   <v>       0.29166667       0.44444444       0.00000000 </v>
   <v>       0.33333333       0.44444444       0.00000000 </v>
   <v>       0.37500000       0.44444444       0.00000000 </v>
   <v>       0.41666667       0.44444444       0.00000000 </v>
   <v>       0.45833333       0.44444444       0.00000000 </v>
   <v>       0.50000000       0.44444444       0.00000000 </v>
   <v>       0.00000000       0.47222222       0.00000000 </v>
   <v>       0.04166667       0.47222222       0.00000000 </v>
   <v>       0.08333333       0.47222222       0.00000000 </v>
   <v>       0.12500000       0.47222222       0.00000000 </v>
   <v>       0.16666667       0.47222222       0.00000000 </v>
   <v>       0.20833333       0.47222222       0.00000000 </v>
   <v>       0.25000000       0.47222222       0.00000000 </v>
   <v>       0.29166667       0.47222222       0.00000000 </v>
   <v>       0.33333333       0.47222222       0.00000000 </v>
   <v>       0.37500000       0.47222222       0.00000000 </v>
   <v>       0.41666667       0.47222222       0.00000000 </v>
   <v>       0.45833333       0.47222222       0.00000000 </v>
   <v>       0.50000000       0.47222222       0.00000000 </v>
   <v>       0.00000000       0.50000000       0.00000000 </v>
   <v>       0.04166667       0.50000000       0.00000000 </v>
   <v>       0.08333333       0.50000000       0.00000000 </v>
   <v>       0.12500000       0.50000000       0.00000000 </v>
   <v>       0.16666667       0.50000000       0.00000000 </v>
   <v>       0.20833333       0.50000000       0.00000000 </v>
   <v>       0.25000000       0.50000000       0.00000000 </v>
   <v>       0.29166667       0.50000000       0.00000000 </v>
   <v>       0.33333333       0.50000000       0.00000000 </v>
   <v>       0.37500000       0.50000000       0.00000000 </v>
   <v>       0.41666667       0.50000000       0.00000000 </v>
   <v>       0.45833333       0.50000000       0.00000000 </v>
   <v>       0.50000000       0.50000000       0.00000000 </v>
  </varray>
  <varray name="weights" >
   <v>       0.00115741 </v>
   <v>       0.00231481 </v>
   <v>       0.00231481 </v>
   <v>       0.00231481 </v>
   <v>       0.00231481 </v>
   <v>       0.00231481 </v>
   <v>       0.00231481 </v>
   <v>       0.00231481 </v>
   <v>       0.00231481 </v>
   <v>       0.00231481 </v>
   <v>       0.00231481 </v>
   <v>       0.00231481 </v>
   <v>       0.00115741 </v>
   <v>       0.00231481 </v>
   <v>       0.00462963 </v>
   <v>       0.00462963 </v>
   <v>       0.00462963 </v>
   <v>       0.00462963 </v>
   <v>       0.00462963 </v>
   <v>       0.00462963 </v>
   <v>       0.00462963 </v>
   <v>       0.00462963 </v>
   <v>       0.00462963 </v>
   <v>       0.00462963 </v>
   <v>       0.00462963 </v>
   <v>       0.00231481 </v>
   <v>       0.00231481 </v>
   <v>       0.00462963 </v>
   <v>       0.00462963 </v>
   <v>       0.00462963 </v>
   <v>       0.00462963 </v>
   <v>       0.00462963 </v>
   <v>       0.00462963 </v>
   <v>       0.00462963 </v>
   <v>       0.00462963 </v>
   <v>       0.00462963 </v>
   <v>       0.00462963 </v>
   <v>       0.00462963 </v>
   <v>       0.00231481 </v>
   <v>       0.00231481 </v>
   <v>       0.00462963 </v>
   <v>       0.00462963 </v>
   <v>       0.00462963 </v>
   <v>       0.00462963 </v>
   <v>       0.00462963 </v>
   <v>       0.00462963 </v>
   <v>       0.00462963 </v>
   <v>       0.00462963 </v>
   <v>       0.00462963 </v>
   <v>       0.00462963 </v>
   <v>       0.00462963 </v>
   <v>       0.00231481 </v>
   <v>       0.00231481 </v>
   <v>       0.00462963 </v>
   <v>       0.00462963 </v>
   <v>       0.00462963 </v>
   <v>       0.00462963 </v>
   <v>       0.00462963 </v>
   <v>       0.00462963 </v>
   <v>       0.00462963 </v>
   <v>       0.00462963 </v>
   <v>       0.00462963 </v>
   <v>       0.00462963 </v>
   <v>       0.00462963 </v>
   <v>       0.00231481 </v>
   <v>       0.00231481 </v>
   <v>       0.00462963 </v>
   <v>       0.00462963 </v>
   <v>       0.00462963 </v>
   <v>       0.00462963 </v>
   <v>       0.00462963 </v>
   <v>       0.00462963 </v>
   <v>       0.00462963 </v>
   <v>       0.00462963 </v>
   <v>       0.00462963 </v>
   <v>       0.00462963 </v>
   <v>       0.00462963 </v>
   <v>       0.00231481 </v>
   <v>       0.00231481 </v>
   <v>       0.00462963 </v>
   <v>       0.00462963 </v>
   <v>       0.00462963 </v>
   <v>       0.00462963 </v>
   <v>       0.00462963 </v>
   <v>       0.00462963 </v>
   <v>       0.00462963 </v>
   <v>       0.00462963 </v>
   <v>       0.00462963 </v>
   <v>       0.00462963 </v>
   <v>       0.00462963 </v>
   <v>       0.00231481 </v>
   <v>       0.00231481 </v>
   <v>       0.00462963 </v>
   <v>       0.00462963 </v>
   <v>       0.00462963 </v>
   <v>       0.00462963 </v>
   <v>       0.00462963 </v>
   <v>       0.00462963 </v>
   <v>       0.00462963 </v>
   <v>       0.00462963 </v>
   <v>       0.00462963 </v>
   <v>       0.00462963 </v>
   <v>       0.00462963 </v>
   <v>       0.00231481 </v>
   <v>       0.00231481 </v>
   <v>       0.00462963 </v>
   <v>       0.00462963 </v>
   <v>       0.00462963 </v>
   <v>       0.00462963 </v>
   <v>       0.00462963 </v>
   <v>       0.00462963 </v>
   <v>       0.00462963 </v>
   <v>       0.00462963 </v>
   <v>       0.00462963 </v>
   <v>       0.00462963 </v>
   <v>       0.00462963 </v>
   <v>       0.00231481 </v>
   <v>       0.00231481 </v>
   <v>       0.00462963 </v>
   <v>       0.00462963 </v>
   <v>       0.00462963 </v>
   <v>       0.00462963 </v>
   <v>       0.00462963 </v>
   <v>       0.00462963 </v>
   <v>       0.00462963 </v>
   <v>       0.00462963 </v>
   <v>       0.00462963 </v>
   <v>       0.00462963 </v>
   <v>       0.00462963 </v>
   <v>       0.00231481 </v>
   <v>       0.00231481 </v>
   <v>       0.00462963 </v>
   <v>       0.00462963 </v>
   <v>       0.00462963 </v>
   <v>       0.00462963 </v>
   <v>       0.00462963 </v>
   <v>       0.00462963 </v>
   <v>       0.00462963 </v>
   <v>       0.00462963 </v>
   <v>       0.00462963 </v>
   <v>       0.00462963 </v>
   <v>       0.00462963 </v>
   <v>       0.00231481 </v>
   <v>       0.00231481 </v>
   <v>       0.00462963 </v>
   <v>       0.00462963 </v>
   <v>       0.00462963 </v>
   <v>       0.00462963 </v>
   <v>       0.00462963 </v>
   <v>       0.00462963 </v>
   <v>       0.00462963 </v>
   <v>       0.00462963 </v>
   <v>       0.00462963 </v>
   <v>       0.00462963 </v>
   <v>       0.00462963 </v>
   <v>       0.00231481 </v>
   <v>       0.00231481 </v>
   <v>       0.00462963 </v>
   <v>       0.00462963 </v>
   <v>       0.00462963 </v>
   <v>       0.00462963 </v>
   <v>       0.00462963 </v>
   <v>       0.00462963 </v>
   <v>       0.00462963 </v>
   <v>       0.00462963 </v>
   <v>       0.00462963 </v>
   <v>       0.00462963 </v>
   <v>       0.00462963 </v>
   <v>       0.00231481 </v>
   <v>       0.00231481 </v>
   <v>       0.00462963 </v>
   <v>       0.00462963 </v>
   <v>       0.00462963 </v>
   <v>       0.00462963 </v>
   <v>       0.00462963 </v>
   <v>       0.00462963 </v>
   <v>       0.00462963 </v>
   <v>       0.00462963 </v>
   <v>       0.00462963 </v>
   <v>       0.00462963 </v>
   <v>       0.00462963 </v>
   <v>       0.00231481 </v>
   <v>       0.00231481 </v>
   <v>       0.00462963 </v>
   <v>       0.00462963 </v>
   <v>       0.00462963 </v>
   <v>       0.00462963 </v>
   <v>       0.00462963 </v>
   <v>       0.00462963 </v>
   <v>       0.00462963 </v>
   <v>       0.00462963 </v>
   <v>       0.00462963 </v>
   <v>       0.00462963 </v>
   <v>       0.00462963 </v>
   <v>       0.00231481 </v>
   <v>       0.00231481 </v>
   <v>       0.00462963 </v>
   <v>       0.00462963 </v>
   <v>       0.00462963 </v>
   <v>       0.00462963 </v>
   <v>       0.00462963 </v>
   <v>       0.00462963 </v>
   <v>       0.00462963 </v>
   <v>       0.00462963 </v>
   <v>       0.00462963 </v>
   <v>       0.00462963 </v>
   <v>       0.00462963 </v>
   <v>       0.00231481 </v>
   <v>       0.00231481 </v>
   <v>       0.00462963 </v>
   <v>       0.00462963 </v>
   <v>       0.00462963 </v>
   <v>       0.00462963 </v>
   <v>       0.00462963 </v>
   <v>       0.00462963 </v>
   <v>       0.00462963 </v>
   <v>       0.00462963 </v>
   <v>       0.00462963 </v>
   <v>       0.00462963 </v>
   <v>       0.00462963 </v>
   <v>       0.00231481 </v>
   <v>       0.00231481 </v>
   <v>       0.00462963 </v>
   <v>       0.00462963 </v>
   <v>       0.00462963 </v>
   <v>       0.00462963 </v>
   <v>       0.00462963 </v>
   <v>       0.00462963 </v>
   <v>       0.00462963 </v>
   <v>       0.00462963 </v>
   <v>       0.00462963 </v>
   <v>       0.00462963 </v>
   <v>       0.00462963 </v>
   <v>       0.00231481 </v>
   <v>       0.00115741 </v>
   <v>       0.00231481 </v>
   <v>       0.00231481 </v>
   <v>       0.00231481 </v>
   <v>       0.00231481 </v>
   <v>       0.00231481 </v>
   <v>       0.00231481 </v>
   <v>       0.00231481 </v>
   <v>       0.00231481 </v>
   <v>       0.00231481 </v>
   <v>       0.00231481 </v>
   <v>       0.00231481 </v>
   <v>       0.00115741 </v>
  </varray>
 </kpoints>
 <parameters>
  <separator name="general" >
   <i type="string" name="SYSTEM">gr</i>
   <i type="logical" name="LCOMPAT"> F  </i>
  </separator>
  <separator name="electronic" >
   <i type="string" name="PREC">accura</i>
   <i name="ENMAX">   2000.00000000</i>
   <i name="ENAUG">    644.87300000</i>
   <i name="EDIFF">      0.00000000</i>
   <i type="int" name="IALGO">    68</i>
   <i type="int" name="IWAVPR">    11</i>
   <i type="int" name="NBANDS">    12</i>
   <i name="NELECT">     16.00000000</i>
   <i type="int" name="TURBO">     0</i>
   <i type="int" name="IRESTART">     0</i>
   <i type="int" name="NREBOOT">     0</i>
   <i type="int" name="NMIN">     0</i>
   <i name="EREF">      0.00000000</i>
   <separator name="electronic smearing" >
    <i type="int" name="ISMEAR">     0</i>
    <i name="SIGMA">      0.05000000</i>
    <i name="KSPACING">      0.50000000</i>
    <i type="logical" name="KGAMMA"> T  </i>
   </separator>
   <separator name="electronic projectors" >
    <i type="logical" name="LREAL"> F  </i>
    <v name="ROPT">      0.00000000</v>
    <i type="int" name="LMAXPAW">  -100</i>
    <i type="int" name="LMAXMIX">     2</i>
    <i type="logical" name="NLSPLINE"> F  </i>
   </separator>
   <separator name="electronic startup" >
    <i type="int" name="ISTART">     0</i>
    <i type="int" name="ICHARG">     2</i>
    <i type="int" name="INIWAV">     1</i>
   </separator>
   <separator name="electronic spin" >
    <i type="int" name="ISPIN">     1</i>
    <i type="logical" name="LNONCOLLINEAR"> F  </i>
    <v name="MAGMOM">      1.00000000      1.00000000      1.00000000      1.00000000</v>
    <i name="NUPDOWN">     -1.00000000</i>
    <i type="logical" name="LSORBIT"> F  </i>
    <v name="SAXIS">      0.00000000      0.00000000      1.00000000</v>
    <i type="logical" name="LSPIRAL"> F  </i>
    <v name="QSPIRAL">      0.00000000      0.00000000      0.00000000</v>
    <i type="logical" name="LZEROZ"> F  </i>
   </separator>
   <separator name="electronic exchange-correlation" >
    <i type="logical" name="LASPH"> F  </i>
    <i type="logical" name="LMETAGGA"> F  </i>
   </separator>
   <separator name="electronic convergence" >
    <i type="int" name="NELM">   100</i>
    <i type="int" name="NELMDL">    -3</i>
    <i type="int" name="NELMIN">     5</i>
    <i name="ENINI">   2000.00000000</i>
    <separator name="electronic convergence detail" >
     <i type="logical" name="LDIAG"> T  </i>
     <i type="logical" name="LSUBROT"> F  </i>
     <i name="WEIMIN">      0.00100000</i>
     <i name="EBREAK">      0.00000000</i>
     <i name="DEPER">      0.30000000</i>
     <i type="int" name="NRMM">     4</i>
     <i name="TIME">      0.40000000</i>
    </separator>
   </separator>
   <separator name="electronic mixer" >
    <i name="AMIX">      0.40000000</i>
    <i name="BMIX">      1.00000000</i>
    <i name="AMIN">      0.10000000</i>
    <i name="AMIX_MAG">      1.60000000</i>
    <i name="BMIX_MAG">      1.00000000</i>
    <separator name="electronic mixer details" >
     <i type="int" name="IMIX">     4</i>
     <i type="int" name="MAXMIX">   -45</i>
     <i name="WC">    100.00000000</i>
     <i type="int" name="INIMIX">     1</i>
     <i type="int" name="MIXPRE">     1</i>
     <i type="int" name="MREMOVE">     5</i>
    </separator>
   </separator>
   <separator name="electronic dipolcorrection" >
    <i type="logical" name="LDIPOL"> F  </i>
    <i type="logical" name="LMONO"> F  </i>
    <i type="int" name="IDIPOL">     0</i>
    <i name="EPSILON">      1.00000000</i>
    <v name="DIPOL">   -100.00000000   -100.00000000   -100.00000000</v>
    <i name="EFIELD">      0.00000000</i>
   </separator>
  </separator>
  <separator name="grids" >
   <i type="int" name="NGX">    64</i>
   <i type="int" name="NGY">    36</i>
   <i type="int" name="NGZ">   288</i>
   <i type="int" name="NGXF">   128</i>
   <i type="int" name="NGYF">    72</i>
   <i type="int" name="NGZF">   576</i>
   <i type="logical" name="ADDGRID"> F  </i>
  </separator>
  <separator name="ionic" >
   <i type="int" name="NSW">   400</i>
   <i type="int" name="IBRION">     1</i>
   <i type="int" name="ISIF">     2</i>
   <i name="PSTRESS">      0.00000000</i>
   <i name="EDIFFG">     -0.00000100</i>
   <i type="int" name="NFREE">     0</i>
   <i name="POTIM">      0.50000000</i>
   <i name="SMASS">     -3.00000000</i>
   <i name="SCALEE">      1.00000000</i>
  </separator>
  <separator name="ionic md" >
   <i name="TEBEG">      0.00010000</i>
   <i name="TEEND">      0.00010000</i>
   <i type="int" name="NBLOCK">     1</i>
   <i type="int" name="KBLOCK">   400</i>
   <i type="int" name="NPACO">   256</i>
   <i name="APACO">     16.00000000</i>
  </separator>
  <separator name="symmetry" >
   <i type="int" name="ISYM">     2</i>
   <i name="SYMPREC">      0.00001000</i>
  </separator>
  <separator name="dos" >
   <i type="logical" name="LORBIT"> F  </i>
   <v name="RWIGS">     -1.00000000</v>
   <i type="int" name="NEDOS">   301</i>
   <i name="EMIN">     10.00000000</i>
   <i name="EMAX">    -10.00000000</i>
   <i name="EFERMI">      0.00000000</i>
  </separator>
  <separator name="writing" >
   <i type="int" name="NWRITE">     2</i>
   <i type="logical" name="LWAVE"> F  </i>
   <i type="logical" name="LCHARG"> F  </i>
   <i type="logical" name="LPARD"> F  </i>
   <i type="logical" name="LVTOT"> F  </i>
   <i type="logical" name="LVHAR"> F  </i>
   <i type="logical" name="LELF"> F  </i>
   <i type="logical" name="LOPTICS"> F  </i>
   <v name="STM">      0.00000000      0.00000000      0.00000000      0.00000000      0.00000000      0.00000000      0.00000000</v>
  </separator>
  <separator name="performance" >
   <i type="int" name="NPAR">     4</i>
   <i type="int" name="NSIM">     4</i>
   <i type="int" name="NBLK">    -1</i>
   <i type="logical" name="LPLANE"> T  </i>
   <i type="logical" name="LSCALAPACK"> F  </i>
   <i type="logical" name="LSCAAWARE"> F  </i>
   <i type="logical" name="LSCALU"> F  </i>
   <i type="logical" name="LASYNC"> F  </i>
   <i type="logical" name="LORBITALREAL"> F  </i>
  </separator>
  <separator name="miscellaneous" >
   <i type="int" name="IDIOT">     3</i>
   <i type="logical" name="LMUSIC"> F  </i>
   <v name="POMASS">     12.01100000</v>
   <v name="DARWINR">      0.00000000</v>
   <v name="DARWINV">      1.00000000</v>
   <i type="logical" name="LCORR"> T  </i>
  </separator>
  <i type="logical" name="GGA_COMPAT"> T  </i>
  <i type="logical" name="LBERRY"> F  </i>
  <i type="int" name="ICORELEVEL">     0</i>
  <i type="logical" name="LDAU"> F  </i>
  <i type="int" name="I_CONSTRAINED_M">     0</i>
  <separator name="electronic exchange-correlation" >
   <i type="string" name="GGA">--</i>
   <i type="int" name="VOSKOWN">     0</i>
   <i type="logical" name="LHFCALC"> F  </i>
   <i type="string" name="PRECFOCK"></i>
   <i type="logical" name="LSYMGRAD"> F  </i>
   <i type="logical" name="LHFONE"> F  </i>
   <i type="logical" name="LRHFCALC"> F  </i>
   <i type="logical" name="LTHOMAS"> F  </i>
   <i type="logical" name="LMODELHF"> F  </i>
   <i name="ENCUT4O">     -1.00000000</i>
   <i type="int" name="EXXOEP">     0</i>
   <i type="int" name="FOURORBIT">     0</i>
   <i name="AEXX">      0.00000000</i>
   <i name="HFALPHA">      0.00000000</i>
   <i name="MCALPHA">      0.00000000</i>
   <i name="ALDAX">      1.00000000</i>
   <i name="AGGAX">      1.00000000</i>
   <i name="ALDAC">      1.00000000</i>
   <i name="AGGAC">      1.00000000</i>
   <i type="int" name="NKREDX">     1</i>
   <i type="int" name="NKREDY">     1</i>
   <i type="int" name="NKREDZ">     1</i>
   <i type="logical" name="SHIFTRED"> F  </i>
   <i type="logical" name="ODDONLY"> F  </i>
   <i type="logical" name="EVENONLY"> F  </i>
   <i type="int" name="LMAXFOCK">     0</i>
   <i type="int" name="NMAXFOCKAE">     0</i>
   <i type="logical" name="LFOCKAEDFT"> F  </i>
   <i name="HFSCREEN">      0.00000000</i>
   <i name="HFSCREENC">      0.00000000</i>
   <i type="int" name="NBANDSGWLOW">     0</i>
  </separator>
  <separator name="vdW DFT" >
   <i type="logical" name="LUSE_VDW"> F  </i>
   <i name="Zab_VDW">     -0.84910000</i>
   <i name="PARAM1">      0.12340000</i>
   <i name="PARAM2">      1.00000000</i>
   <i name="PARAM3">      0.00000000</i>
  </separator>
  <separator name="model GW" >
   <i type="int" name="MODEL_GW">     0</i>
   <i name="MODEL_EPS0">     31.62568521</i>
   <i name="MODEL_ALPHA">      1.00000000</i>
  </separator>
  <separator name="linear response parameters" >
   <i type="logical" name="LEPSILON"> F  </i>
   <i type="logical" name="LRPA"> F  </i>
   <i type="logical" name="LNABLA"> F  </i>
   <i type="logical" name="LVEL"> F  </i>
   <i type="int" name="KINTER">     0</i>
   <i name="CSHIFT">      0.10000000</i>
   <i name="OMEGAMAX">     -1.00000000</i>
   <i name="DEG_THRESHOLD">      0.00200000</i>
  </separator>
  <separator name="orbital magnetization" >
   <i type="logical" name="NUCIND"> F  </i>
   <v name="MAGPOS">      0.00000000      0.00000000      0.00000000</v>
   <i type="logical" name="LNICSALL"> T  </i>
   <i type="logical" name="ORBITALMAG"> F  </i>
   <i type="logical" name="LMAGBLOCH"> F  </i>
   <i type="logical" name="LCHIMAG"> F  </i>
   <i type="logical" name="LGAUGE"> T  </i>
   <i type="int" name="MAGATOM">     0</i>
   <v name="MAGDIPOL">      0.00000000      0.00000000      0.00000000</v>
   <v name="AVECCONST">      0.00000000      0.00000000      0.00000000</v>
  </separator>
  <separator name="response functions" >
   <i type="logical" name="LADDER"> F  </i>
   <i type="logical" name="LFXC"> F  </i>
   <i type="logical" name="LHARTREE"> T  </i>
   <i type="int" name="IBSE">     0</i>
   <i type="logical" name="LTCTE"> F  </i>
   <i type="logical" name="LTETE"> F  </i>
   <i type="logical" name="LTRIPLET"> F  </i>
   <i type="logical" name="LFXCEPS"> F  </i>
   <i type="logical" name="LFXHEG"> F  </i>
   <i type="logical" name="L2ORDER"> F  </i>
   <i type="logical" name="LUSEW"> F  </i>
   <i name="ENCUTGW">     -2.00000000</i>
   <i name="ENCUTGWSOFT">     -2.00000000</i>
   <i name="ENCUTLF">     -1.00000000</i>
   <i type="int" name="LMAXMP2">    -1</i>
   <i name="SCISSOR">      0.00000000</i>
   <i type="int" name="NOMEGA">     0</i>
   <i type="int" name="NOMEGAR">     0</i>
   <i type="int" name="NBANDSGW">    -1</i>
   <i type="int" name="NBANDSO">    -1</i>
   <i type="int" name="NBANDSV">    -1</i>
   <i type="int" name="NELM">   100</i>
   <i type="int" name="DIM">     3</i>
   <i type="int" name="ANTIRES">     0</i>
   <i name="OMEGAMAX">    -30.00000000</i>
   <i name="OMEGAMIN">    -30.00000000</i>
   <i name="OMEGATL">   -200.00000000</i>
   <i type="int" name="OMEGAGRID">     0</i>
   <i name="CSHIFT">     -0.10000000</i>
   <i type="logical" name="SELFENERGY"> F  </i>
   <i type="logical" name="LSPECTRAL"> F  </i>
   <i type="logical" name="ODDONLYGW"> F  </i>
   <i type="logical" name="EVENONLYGW"> F  </i>
   <i type="int" name="NKREDLFX">     1</i>
   <i type="int" name="NKREDLFY">     1</i>
   <i type="int" name="NKREDLFZ">     1</i>
   <i type="int" name="MAXMEM">  1800</i>
   <i type="int" name="TELESCOPE">     0</i>
   <i type="int" name="TAUPAR">     1</i>
  </separator>
  <separator name="External order field" >
   <i name="OFIELD_KAPPA">      0.00000000</i>
   <v name="OFIELD_K">      0.00000000      0.00000000      0.00000000</v>
   <i name="OFIELD_Q6_NEAR">      0.00000000</i>
   <i name="OFIELD_Q6_FAR">      0.00000000</i>
   <i name="OFIELD_A">      0.00000000</i>
  </separator>
 </parameters>
 <atominfo>
  <atoms>       4 </atoms>
  <types>       1 </types>
  <array name="atoms" >
   <dimension dim="1">ion</dimension>
   <field type="string">element</field>
   <field type="int">atomtype</field>
   <set>
    <rc><c>C </c><c>   1</c></rc>
    <rc><c>C </c><c>   1</c></rc>
    <rc><c>C </c><c>   1</c></rc>
    <rc><c>C </c><c>   1</c></rc>
   </set>
  </array>
  <array name="atomtypes" >
   <dimension dim="1">type</dimension>
   <field type="int">atomspertype</field>
   <field type="string">element</field>
   <field>mass</field>
   <field>valence</field>
   <field type="string">pseudopotential</field>
   <set>
    <rc><c>   4</c><c>C </c><c>     12.01100000</c><c>      4.00000000</c><c> PAW_PBE C 08Apr2002                    </c></rc>
   </set>
  </array>
 </atominfo>
 <structure name="initialpos" >
  <crystal>
   <varray name="basis" >
    <v>       4.37988328       0.00000000       0.00000000 </v>
    <v>       0.00000000       2.45719828       0.00000000 </v>
    <v>       0.00000000       0.00000000      19.59051912 </v>
   </varray>
   <i name="volume">    210.83790140 </i>
   <varray name="rec_basis" >
    <v>       0.22831659       0.00000000       0.00000000 </v>
    <v>       0.00000000       0.40696756       0.00000000 </v>
    <v>       0.00000000       0.00000000       0.05104510 </v>
   </varray>
  </crystal>
  <varray name="positions" >
   <v>       0.99945869       0.00000000       0.00000000 </v>
   <v>       0.16720798       0.50000000       0.00000000 </v>
   <v>       0.49945869       0.50000000       0.00000000 </v>
   <v>       0.66720798       0.00000000       0.00000000 </v>
  </varray>
 </structure>
 <calculation>
  <scstep>
   <time name="dav">  292.96  295.54</time>
   <time name="total">  295.58  298.77</time>
   <energy>
    <i name="alphaZ">      6.18334092 </i>
    <i name="ewald">   2449.51425361 </i>
    <i name="hartreedc">  -2879.00649392 </i>
    <i name="XCdc">     54.81722773 </i>
    <i name="pawpsdc">    151.32577238 </i>
    <i name="pawaedc">   -155.92769107 </i>
    <i name="eentropy">     -0.00204056 </i>
    <i name="bandstr">    -30.27080567 </i>
    <i name="atom">    588.62352690 </i>
    <i name="e_fr_energy">    185.25709033 </i>
    <i name="e_wo_entrp">    185.25913089 </i>
    <i name="e_0_energy">    185.25811061 </i>
   </energy>
  </scstep>
  <scstep>
   <time name="dav">  442.47  443.49</time>
   <time name="total">  442.48  443.57</time>
   <energy>
    <i name="e_fr_energy">     -9.06339314 </i>
    <i name="e_wo_entrp">     -9.06309537 </i>
    <i name="e_0_energy">     -9.06324425 </i>
   </energy>
  </scstep>
  <scstep>
   <time name="dav">  343.31  345.12</time>
   <time name="total">  374.13  376.37</time>
   <energy>
    <i name="e_fr_energy">    -38.04835990 </i>
    <i name="e_wo_entrp">    -38.04835977 </i>
    <i name="e_0_energy">    -38.04835984 </i>
   </energy>
  </scstep>
  <scstep>
   <time name="diag">   80.07   80.62</time>
   <time name="diis">  339.08  341.66</time>
   <time name="orth">    3.08    3.08</time>
   <time name="total">  455.46  458.76</time>
   <energy>
    <i name="e_fr_energy">    -37.57477706 </i>
    <i name="e_wo_entrp">    -37.57477706 </i>
    <i name="e_0_energy">    -37.57477706 </i>
   </energy>
  </scstep>
  <scstep>
   <time name="diag">   79.97   80.49</time>
   <time name="diis">  333.56  335.88</time>
   <time name="orth">    3.07    3.09</time>
   <time name="total">  449.55  452.84</time>
   <energy>
    <i name="e_fr_energy">    -36.86762471 </i>
    <i name="e_wo_entrp">    -36.86762468 </i>
    <i name="e_0_energy">    -36.86762470 </i>
   </energy>
  </scstep>
  <scstep>
   <time name="diag">   80.04   80.67</time>
   <time name="diis">  368.65  369.03</time>
   <time name="orth">    3.08    3.10</time>
   <time name="total">  485.18  486.33</time>
   <energy>
    <i name="e_fr_energy">    -36.86949880 </i>
    <i name="e_wo_entrp">    -36.86949878 </i>
    <i name="e_0_energy">    -36.86949879 </i>
   </energy>
  </scstep>
  <scstep>
   <time name="diag">   80.45   80.59</time>
   <time name="diis">  333.84  334.36</time>
   <time name="orth">    3.07    3.08</time>
   <time name="total">  450.45  451.43</time>
   <energy>
    <i name="e_fr_energy">    -36.86067305 </i>
    <i name="e_wo_entrp">    -36.86067303 </i>
    <i name="e_0_energy">    -36.86067304 </i>
   </energy>
  </scstep>
  <scstep>
   <time name="diag">   79.92   80.55</time>
   <time name="diis">  334.71  337.39</time>
   <time name="orth">    3.08    3.08</time>
   <time name="total">  450.84  454.80</time>
   <energy>
    <i name="e_fr_energy">    -36.85591922 </i>
    <i name="e_wo_entrp">    -36.85591920 </i>
    <i name="e_0_energy">    -36.85591921 </i>
   </energy>
  </scstep>
  <scstep>
   <time name="diag">   80.33   80.54</time>
   <time name="diis">  324.79  325.55</time>
   <time name="orth">    3.08    3.09</time>
   <time name="total">  441.54  442.64</time>
   <energy>
    <i name="e_fr_energy">    -36.85559361 </i>
    <i name="e_wo_entrp">    -36.85559359 </i>
    <i name="e_0_energy">    -36.85559360 </i>
   </energy>
  </scstep>
  <scstep>
   <time name="diag">   80.43   80.56</time>
   <time name="diis">  324.70  326.32</time>
   <time name="orth">    3.08    3.08</time>
   <time name="total">  441.44  443.44</time>
   <energy>
    <i name="e_fr_energy">    -36.85551314 </i>
    <i name="e_wo_entrp">    -36.85551312 </i>
    <i name="e_0_energy">    -36.85551313 </i>
   </energy>
  </scstep>
  <scstep>
   <time name="diag">   80.37   80.53</time>
   <time name="diis">  327.77  328.45</time>
   <time name="orth">    3.09    3.09</time>
   <time name="total">  444.57  445.56</time>
   <energy>
    <i name="e_fr_energy">    -36.85778273 </i>
    <i name="e_wo_entrp">    -36.85778271 </i>
    <i name="e_0_energy">    -36.85778272 </i>
   </energy>
  </scstep>
  <scstep>
   <time name="diag">   80.40   80.46</time>
   <time name="diis">  329.19  329.25</time>
   <time name="orth">    3.09    3.09</time>
   <time name="total">  446.07  446.21</time>
   <energy>
    <i name="e_fr_energy">    -36.85829877 </i>
    <i name="e_wo_entrp">    -36.85829875 </i>
    <i name="e_0_energy">    -36.85829876 </i>
   </energy>
  </scstep>
  <scstep>
   <time name="diag">   80.49   80.50</time>
   <time name="diis">  335.43  335.48</time>
   <time name="orth">    3.07    3.07</time>
   <time name="total">  452.50  452.61</time>
   <energy>
    <i name="e_fr_energy">    -36.85855043 </i>
    <i name="e_wo_entrp">    -36.85855041 </i>
    <i name="e_0_energy">    -36.85855042 </i>
   </energy>
  </scstep>
  <scstep>
   <time name="diag">   80.48   80.49</time>
   <time name="diis">  333.20  333.25</time>
   <time name="orth">    3.08    3.08</time>
   <time name="total">  450.20  450.37</time>
   <energy>
    <i name="e_fr_energy">    -36.85863363 </i>
    <i name="e_wo_entrp">    -36.85863361 </i>
    <i name="e_0_energy">    -36.85863362 </i>
   </energy>
  </scstep>
  <scstep>
   <time name="diag">   80.47   80.49</time>
   <time name="diis">  326.81  326.89</time>
   <time name="orth">    3.08    3.08</time>
   <time name="total">  443.79  443.93</time>
   <energy>
    <i name="e_fr_energy">    -36.85864726 </i>
    <i name="e_wo_entrp">    -36.85864724 </i>
    <i name="e_0_energy">    -36.85864725 </i>
   </energy>
  </scstep>
  <scstep>
   <time name="diag">   80.24   80.55</time>
   <time name="diis">  324.87  326.10</time>
   <time name="orth">    3.09    3.09</time>
   <time name="total">  441.59  443.16</time>
   <energy>
    <i name="e_fr_energy">    -36.85866035 </i>
    <i name="e_wo_entrp">    -36.85866033 </i>
    <i name="e_0_energy">    -36.85866034 </i>
   </energy>
  </scstep>
  <scstep>
   <time name="diag">   80.49   80.51</time>
   <time name="diis">  326.90  326.96</time>
   <time name="orth">    3.10    3.10</time>
   <time name="total">  443.90  444.02</time>
   <energy>
    <i name="e_fr_energy">    -36.85866635 </i>
    <i name="e_wo_entrp">    -36.85866633 </i>
    <i name="e_0_energy">    -36.85866634 </i>
   </energy>
  </scstep>
  <scstep>
   <time name="diag">   80.54   80.57</time>
   <time name="diis">  331.03  331.09</time>
   <time name="orth">    3.08    3.08</time>
   <time name="total">  448.08  448.20</time>
   <energy>
    <i name="e_fr_energy">    -36.85866738 </i>
    <i name="e_wo_entrp">    -36.85866736 </i>
    <i name="e_0_energy">    -36.85866737 </i>
   </energy>
  </scstep>
  <scstep>
   <time name="diag">   80.44   80.51</time>
   <time name="diis">  295.31  296.52</time>
   <time name="orth">    3.07    3.09</time>
   <time name="total">  412.04  413.54</time>
   <energy>
    <i name="e_fr_energy">    -36.85866814 </i>
    <i name="e_wo_entrp">    -36.85866812 </i>
    <i name="e_0_energy">    -36.85866813 </i>
   </energy>
  </scstep>
  <scstep>
   <time name="diag">   80.11   80.51</time>
   <time name="diis">  254.41  255.69</time>
   <time name="orth">    3.07    3.08</time>
   <time name="total">  370.88  372.86</time>
   <energy>
    <i name="e_fr_energy">    -36.85866817 </i>
    <i name="e_wo_entrp">    -36.85866815 </i>
    <i name="e_0_energy">    -36.85866816 </i>
   </energy>
  </scstep>
  <scstep>
   <time name="diag">   80.17   80.56</time>
   <time name="diis">  243.91  245.16</time>
   <time name="orth">    3.08    3.09</time>
   <time name="total">  360.56  362.38</time>
   <energy>
    <i name="e_fr_energy">    -36.85866818 </i>
    <i name="e_wo_entrp">    -36.85866817 </i>
    <i name="e_0_energy">    -36.85866818 </i>
   </energy>
  </scstep>
  <scstep>
   <time name="diag">   80.36   80.51</time>
   <time name="diis">  224.58  225.02</time>
   <time name="orth">    3.07    3.07</time>
   <time name="total">  341.46  342.17</time>
   <energy>
    <i name="e_fr_energy">    -36.85866818 </i>
    <i name="e_wo_entrp">    -36.85866817 </i>
    <i name="e_0_energy">    -36.85866817 </i>
   </energy>
  </scstep>
  <scstep>
   <time name="diag">   80.27   80.45</time>
   <time name="diis">  217.05  217.40</time>
   <time name="orth">    3.08    3.08</time>
   <time name="total">  333.91  334.50</time>
   <energy>
    <i name="e_fr_energy">    -36.85866819 </i>
    <i name="e_wo_entrp">    -36.85866817 </i>
    <i name="e_0_energy">    -36.85866818 </i>
   </energy>
  </scstep>
  <scstep>
   <time name="diag">   80.27   80.42</time>
   <time name="diis">  201.24  202.06</time>
   <time name="orth">    3.07    3.08</time>
   <time name="total">  287.06  288.05</time>
   <energy>
    <i name="alphaZ">      6.18334092 </i>
    <i name="ewald">   2449.51425361 </i>
    <i name="hartreedc">  -2943.79922796 </i>
    <i name="XCdc">     57.14182454 </i>
    <i name="pawpsdc">    268.82369251 </i>
    <i name="pawaedc">   -273.93520317 </i>
    <i name="eentropy">     -0.00000002 </i>
    <i name="bandstr">   -189.41087552 </i>
    <i name="atom">    588.62352690 </i>
    <i name="e_fr_energy">    -36.85866819 </i>
    <i name="e_wo_entrp">    -36.85866817 </i>
    <i name="e_0_energy">    -36.85866818 </i>
   </energy>
  </scstep>
  <structure>
   <crystal>
    <varray name="basis" >
     <v>       4.37988328       0.00000000       0.00000000 </v>
     <v>       0.00000000       2.45719828       0.00000000 </v>
     <v>       0.00000000       0.00000000      19.59051912 </v>
    </varray>
    <i name="volume">    210.83790140 </i>
    <varray name="rec_basis" >
     <v>       0.22831659       0.00000000       0.00000000 </v>
     <v>       0.00000000       0.40696756       0.00000000 </v>
     <v>       0.00000000       0.00000000       0.05104510 </v>
    </varray>
   </crystal>
   <varray name="positions" >
    <v>       0.99945869       0.00000000       0.00000000 </v>
    <v>       0.16720798       0.50000000       0.00000000 </v>
    <v>       0.49945869       0.50000000       0.00000000 </v>
    <v>       0.66720798       0.00000000       0.00000000 </v>
   </varray>
  </structure>
  <varray name="forces" >
   <v>       0.00103344       0.00000000       0.00000000 </v>
   <v>      -0.00103344      -0.00000000       0.00000000 </v>
   <v>       0.00103344       0.00000000       0.00000000 </v>
   <v>      -0.00103344      -0.00000000       0.00000000 </v>
  </varray>
  <varray name="stress" >
   <v>     -41.05991415       0.00000000       0.00000000 </v>
   <v>       0.00000000      -0.01075985       0.00000000 </v>
   <v>       0.00000000       0.00000000      -0.01020669 </v>
  </varray>
  <energy>
   <i name="e_fr_energy">    -36.85866819 </i>
   <i name="e_wo_entrp">    -36.85866818 </i>
   <i name="e_0_energy">     -0.00000002 </i>
  </energy>
  <time name="totalsc">10064.9910098.92</time>
 </calculation>
 <calculation>
  <scstep>
   <time name="dav">  311.53  313.40</time>
   <time name="total">  344.84  347.04</time>
   <energy>
    <i name="alphaZ">      6.18334092 </i>
    <i name="ewald">   2449.51531837 </i>
    <i name="hartreedc">  -2943.79970911 </i>
    <i name="XCdc">     57.14185544 </i>
    <i name="pawpsdc">    268.82370504 </i>
    <i name="pawaedc">   -273.93521586 </i>
    <i name="eentropy">     -0.00000002 </i>
    <i name="bandstr">   -189.41148959 </i>
    <i name="atom">    588.62352690 </i>
    <i name="e_fr_energy">    -36.85866790 </i>
    <i name="e_wo_entrp">    -36.85866788 </i>
    <i name="e_0_energy">    -36.85866789 </i>
   </energy>
  </scstep>
  <scstep>
   <time name="diag">   79.68   80.58</time>
   <time name="diis">  323.66  326.52</time>
   <time name="orth">    3.09    3.10</time>
   <time name="total">  439.51  443.66</time>
   <energy>
    <i name="e_fr_energy">    -36.85866793 </i>
    <i name="e_wo_entrp">    -36.85866791 </i>
    <i name="e_0_energy">    -36.85866792 </i>
   </energy>
  </scstep>
  <scstep>
   <time name="diag">   79.95   80.47</time>
   <time name="diis">  328.51  330.93</time>
   <time name="orth">    3.08    3.08</time>
   <time name="total">  444.56  447.80</time>
   <energy>
    <i name="e_fr_energy">    -36.85866792 </i>
    <i name="e_wo_entrp">    -36.85866790 </i>
    <i name="e_0_energy">    -36.85866791 </i>
   </energy>
  </scstep>
  <scstep>
   <time name="diag">   80.27   80.56</time>
   <time name="diis">  335.97  337.73</time>
   <time name="orth">    3.09    3.09</time>
   <time name="total">  452.60  454.82</time>
   <energy>
    <i name="e_fr_energy">    -36.85866792 </i>
    <i name="e_wo_entrp">    -36.85866790 </i>
    <i name="e_0_energy">    -36.85866791 </i>
   </energy>
  </scstep>
  <scstep>
   <time name="diag">   80.39   80.53</time>
   <time name="diis">  244.84  246.82</time>
   <time name="orth">    3.09    3.10</time>
   <time name="total">  361.06  363.71</time>
   <energy>
    <i name="e_fr_energy">    -36.85866792 </i>
    <i name="e_wo_entrp">    -36.85866790 </i>
    <i name="e_0_energy">    -36.85866791 </i>
   </energy>
  </scstep>
  <scstep>
   <time name="diag">   79.60   80.48</time>
   <time name="diis">  216.04  218.53</time>
   <time name="orth">    3.08    3.10</time>
   <time name="total">  331.70  335.50</time>
   <energy>
    <i name="e_fr_energy">    -36.85866792 </i>
    <i name="e_wo_entrp">    -36.85866790 </i>
    <i name="e_0_energy">    -36.85866791 </i>
   </energy>
  </scstep>
  <scstep>
   <time name="diag">   80.32   80.52</time>
   <time name="diis">  215.18  215.78</time>
   <time name="orth">    3.07    3.08</time>
   <time name="total">  301.00  301.86</time>
   <energy>
    <i name="alphaZ">      6.18334092 </i>
    <i name="ewald">   2449.51531837 </i>
    <i name="hartreedc">  -2943.80011457 </i>
    <i name="XCdc">     57.14187288 </i>
    <i name="pawpsdc">    268.82550750 </i>
    <i name="pawaedc">   -273.93702626 </i>
    <i name="eentropy">     -0.00000002 </i>
    <i name="bandstr">   -189.41109365 </i>
    <i name="atom">    588.62352690 </i>
    <i name="e_fr_energy">    -36.85866792 </i>
    <i name="e_wo_entrp">    -36.85866790 </i>
    <i name="e_0_energy">    -36.85866791 </i>
   </energy>
  </scstep>
  <structure>
   <crystal>
    <varray name="basis" >
     <v>       4.37988328       0.00000000       0.00000000 </v>
     <v>       0.00000000       2.45719828       0.00000000 </v>
     <v>       0.00000000       0.00000000      19.59051912 </v>
    </varray>
    <i name="volume">    210.83790140 </i>
    <varray name="rec_basis" >
     <v>       0.22831659       0.00000000       0.00000000 </v>
     <v>       0.00000000       0.40696756       0.00000000 </v>
     <v>       0.00000000       0.00000000       0.05104510 </v>
    </varray>
   </crystal>
   <varray name="positions" >
    <v>       0.99947007       0.00000000       0.00000000 </v>
    <v>       0.16719659       0.50000000       0.00000000 </v>
    <v>       0.49947007       0.50000000       0.00000000 </v>
    <v>       0.66719659      -0.00000000       0.00000000 </v>
   </varray>
  </structure>
  <varray name="forces" >
   <v>      -0.00381116      -0.00000000       0.00000000 </v>
   <v>       0.00381116       0.00000000       0.00000000 </v>
   <v>      -0.00381116      -0.00000000       0.00000000 </v>
   <v>       0.00381116       0.00000000       0.00000000 </v>
  </varray>
  <varray name="stress" >
   <v>     -41.06770641       0.00000000       0.00000000 </v>
   <v>       0.00000000       0.00527252       0.00000000 </v>
   <v>       0.00000000       0.00000000      -0.01014382 </v>
  </varray>
  <energy>
   <i name="e_fr_energy">    -36.85866792 </i>
   <i name="e_wo_entrp">    -36.85866791 </i>
   <i name="e_0_energy">     -0.00000002 </i>
  </energy>
  <time name="totalsc"> 2777.55 2797.37</time>
 </calculation>
 <calculation>
  <scstep>
   <time name="dav">  321.02  322.59</time>
   <time name="total">  354.12  356.06</time>
   <energy>
    <i name="alphaZ">      6.18334092 </i>
    <i name="ewald">   2449.51448045 </i>
    <i name="hartreedc">  -2943.79975757 </i>
    <i name="XCdc">     57.14184906 </i>
    <i name="pawpsdc">    268.82551118 </i>
    <i name="pawaedc">   -273.93702989 </i>
    <i name="eentropy">     -0.00000002 </i>
    <i name="bandstr">   -189.41058926 </i>
    <i name="atom">    588.62352690 </i>
    <i name="e_fr_energy">    -36.85866822 </i>
    <i name="e_wo_entrp">    -36.85866820 </i>
    <i name="e_0_energy">    -36.85866821 </i>
   </energy>
  </scstep>
  <scstep>
   <time name="diag">   79.83   80.54</time>
   <time name="diis">  327.98  329.81</time>
   <time name="orth">    3.08    3.08</time>
   <time name="total">  444.27  446.88</time>
   <energy>
    <i name="e_fr_energy">    -36.85866822 </i>
    <i name="e_wo_entrp">    -36.85866820 </i>
    <i name="e_0_energy">    -36.85866821 </i>
   </energy>
  </scstep>
  <scstep>
   <time name="diag">   80.34   80.54</time>
   <time name="diis">  328.60  331.85</time>
   <time name="orth">    3.08    3.08</time>
   <time name="total">  445.17  448.92</time>
   <energy>
    <i name="e_fr_energy">    -36.85866821 </i>
    <i name="e_wo_entrp">    -36.85866819 </i>
    <i name="e_0_energy">    -36.85866820 </i>
   </energy>
  </scstep>
  <scstep>
   <time name="diag">   80.34   80.57</time>
   <time name="diis">  337.13  337.85</time>
   <time name="orth">    3.08    3.08</time>
   <time name="total">  453.71  454.94</time>
   <energy>
    <i name="e_fr_energy">    -36.85866821 </i>
    <i name="e_wo_entrp">    -36.85866819 </i>
    <i name="e_0_energy">    -36.85866820 </i>
   </energy>
  </scstep>
  <scstep>
   <time name="diag">   79.66   80.50</time>
   <time name="diis">  232.54  235.02</time>
   <time name="orth">    3.08    3.10</time>
   <time name="total">  348.09  351.93</time>
   <energy>
    <i name="e_fr_energy">    -36.85866821 </i>
    <i name="e_wo_entrp">    -36.85866819 </i>
    <i name="e_0_energy">    -36.85866820 </i>
   </energy>
  </scstep>
  <scstep>
   <time name="diag">   79.75   80.50</time>
   <time name="diis">  215.06  217.48</time>
   <time name="orth">    3.08    3.10</time>
   <time name="total">  331.08  334.52</time>
   <energy>
    <i name="e_fr_energy">    -36.85866821 </i>
    <i name="e_wo_entrp">    -36.85866819 </i>
    <i name="e_0_energy">    -36.85866820 </i>
   </energy>
  </scstep>
  <scstep>
   <time name="diag">   80.27   80.54</time>
   <time name="diis">  211.90  213.63</time>
   <time name="orth">    3.09    3.10</time>
   <time name="total">  328.48  330.79</time>
   <energy>
    <i name="e_fr_energy">    -36.85866821 </i>
    <i name="e_wo_entrp">    -36.85866819 </i>
    <i name="e_0_energy">    -36.85866820 </i>
   </energy>
  </scstep>
  <scstep>
   <time name="diag">   79.98   80.52</time>
   <time name="diis">  198.89  199.15</time>
   <time name="orth">    3.08    3.10</time>
   <time name="total">  315.35  316.35</time>
   <energy>
    <i name="e_fr_energy">    -36.85866821 </i>
    <i name="e_wo_entrp">    -36.85866819 </i>
    <i name="e_0_energy">    -36.85866820 </i>
   </energy>
  </scstep>
  <scstep>
   <time name="diag">   79.84   80.57</time>
   <time name="diis">  187.07  187.91</time>
   <time name="orth">    3.10    3.10</time>
   <time name="total">  303.40  305.09</time>
   <energy>
    <i name="e_fr_energy">    -36.85866821 </i>
    <i name="e_wo_entrp">    -36.85866819 </i>
    <i name="e_0_energy">    -36.85866820 </i>
   </energy>
  </scstep>
  <scstep>
   <time name="diag">   79.92   80.53</time>
   <time name="diis">  177.66  179.84</time>
   <time name="orth">    3.08    3.08</time>
   <time name="total">  263.15  265.96</time>
   <energy>
    <i name="alphaZ">      6.18334092 </i>
    <i name="ewald">   2449.51448045 </i>
    <i name="hartreedc">  -2943.79943369 </i>
    <i name="XCdc">     57.14183511 </i>
    <i name="pawpsdc">    268.82408380 </i>
    <i name="pawaedc">   -273.93559627 </i>
    <i name="eentropy">     -0.00000002 </i>
    <i name="bandstr">   -189.41090542 </i>
    <i name="atom">    588.62352690 </i>
    <i name="e_fr_energy">    -36.85866821 </i>
    <i name="e_wo_entrp">    -36.85866819 </i>
    <i name="e_0_energy">    -36.85866820 </i>
   </energy>
  </scstep>
  <structure>
   <crystal>
    <varray name="basis" >
     <v>       4.37988328       0.00000000       0.00000000 </v>
     <v>       0.00000000       2.45719828       0.00000000 </v>
     <v>       0.00000000       0.00000000      19.59051912 </v>
    </varray>
    <i name="volume">    210.83790140 </i>
    <varray name="rec_basis" >
     <v>       0.22831659       0.00000000       0.00000000 </v>
     <v>       0.00000000       0.40696756       0.00000000 </v>
     <v>       0.00000000       0.00000000       0.05104510 </v>
    </varray>
   </crystal>
   <varray name="positions" >
    <v>       0.99946112      -0.00000000       0.00000000 </v>
    <v>       0.16720555       0.50000000       0.00000000 </v>
    <v>       0.49946112       0.50000000       0.00000000 </v>
    <v>       0.66720555       0.00000000       0.00000000 </v>
   </varray>
  </structure>
  <varray name="forces" >
   <v>      -0.00000144      -0.00000000       0.00000000 </v>
   <v>       0.00000144      -0.00000000       0.00000000 </v>
   <v>      -0.00000144      -0.00000000       0.00000000 </v>
   <v>       0.00000144       0.00000000       0.00000000 </v>
  </varray>
  <varray name="stress" >
   <v>     -41.06158322       0.00000000       0.00000000 </v>
   <v>       0.00000000      -0.00730315       0.00000000 </v>
   <v>       0.00000000       0.00000000      -0.01020684 </v>
  </varray>
  <energy>
   <i name="e_fr_energy">    -36.85866821 </i>
   <i name="e_wo_entrp">    -36.85866820 </i>
   <i name="e_0_energy">     -0.00000002 </i>
  </energy>
  <time name="totalsc"> 3690.67 3717.78</time>
 </calculation>
 <calculation>
  <scstep>
   <time name="dav">  250.27  251.71</time>
   <time name="total">  283.46  285.29</time>
   <energy>
    <i name="alphaZ">      6.18334092 </i>
    <i name="ewald">   2449.51448014 </i>
    <i name="hartreedc">  -2943.79943198 </i>
    <i name="XCdc">     57.14183509 </i>
    <i name="pawpsdc">    268.82408418 </i>
    <i name="pawaedc">   -273.93559664 </i>
    <i name="eentropy">     -0.00000002 </i>
    <i name="bandstr">   -189.41090679 </i>
    <i name="atom">    588.62352690 </i>
    <i name="e_fr_energy">    -36.85866821 </i>
    <i name="e_wo_entrp">    -36.85866819 </i>
    <i name="e_0_energy">    -36.85866820 </i>
   </energy>
  </scstep>
  <scstep>
   <time name="diag">   79.74   80.51</time>
   <time name="diis">  148.83  150.09</time>
   <time name="orth">    3.08    3.10</time>
   <time name="total">  264.75  267.17</time>
   <energy>
    <i name="e_fr_energy">    -36.85866821 </i>
    <i name="e_wo_entrp">    -36.85866819 </i>
    <i name="e_0_energy">    -36.85866820 </i>
   </energy>
  </scstep>
  <scstep>
   <time name="diag">   79.97   80.48</time>
   <time name="diis">  147.87  148.77</time>
   <time name="orth">    3.09    3.10</time>
   <time name="total">  264.09  265.79</time>
   <energy>
    <i name="e_fr_energy">    -36.85866821 </i>
    <i name="e_wo_entrp">    -36.85866819 </i>
    <i name="e_0_energy">    -36.85866820 </i>
   </energy>
  </scstep>
  <scstep>
   <time name="diag">   80.04   80.54</time>
   <time name="diis">  146.56  147.36</time>
   <time name="orth">    3.10    3.10</time>
   <time name="total">  263.16  264.53</time>
   <energy>
    <i name="e_fr_energy">    -36.85866821 </i>
    <i name="e_wo_entrp">    -36.85866819 </i>
    <i name="e_0_energy">    -36.85866820 </i>
   </energy>
  </scstep>
  <scstep>
   <time name="diag">   80.35   80.55</time>
   <time name="diis">  146.13  147.08</time>
   <time name="orth">    3.08    3.08</time>
   <time name="total">  262.86  264.27</time>
   <energy>
    <i name="e_fr_energy">    -36.85866821 </i>
    <i name="e_wo_entrp">    -36.85866819 </i>
    <i name="e_0_energy">    -36.85866820 </i>
   </energy>
  </scstep>
  <scstep>
   <time name="diag">   80.15   80.51</time>
   <time name="diis">  145.25  146.15</time>
   <time name="orth">    3.11    3.12</time>
   <time name="total">  261.71  263.26</time>
   <energy>
    <i name="e_fr_energy">    -36.85866821 </i>
    <i name="e_wo_entrp">    -36.85866819 </i>
    <i name="e_0_energy">    -36.85866820 </i>
   </energy>
  </scstep>
  <scstep>
   <time name="diag">   79.95   80.55</time>
   <time name="diis">  143.61  144.58</time>
   <time name="orth">    3.08    3.08</time>
   <time name="total">  259.83  261.74</time>
   <energy>
    <i name="e_fr_energy">    -36.85866821 </i>
    <i name="e_wo_entrp">    -36.85866819 </i>
    <i name="e_0_energy">    -36.85866820 </i>
   </energy>
  </scstep>
  <scstep>
   <time name="diag">   80.16   80.56</time>
   <time name="diis">  143.82  144.11</time>
   <time name="orth">    3.10    3.10</time>
   <time name="total">  260.56  261.28</time>
   <energy>
    <i name="e_fr_energy">    -36.85866821 </i>
    <i name="e_wo_entrp">    -36.85866819 </i>
    <i name="e_0_energy">    -36.85866820 </i>
   </energy>
  </scstep>
  <scstep>
   <time name="diag">   80.24   80.54</time>
   <time name="diis">  133.75  134.91</time>
   <time name="orth">    3.09    3.10</time>
   <time name="total">  219.57  221.06</time>
   <energy>
    <i name="alphaZ">      6.18334092 </i>
    <i name="ewald">   2449.51448014 </i>
    <i name="hartreedc">  -2943.79943074 </i>
    <i name="XCdc">     57.14183513 </i>
    <i name="pawpsdc">    268.82408412 </i>
    <i name="pawaedc">   -273.93559660 </i>
    <i name="eentropy">     -0.00000002 </i>
    <i name="bandstr">   -189.41090807 </i>
    <i name="atom">    588.62352690 </i>
    <i name="e_fr_energy">    -36.85866821 </i>
    <i name="e_wo_entrp">    -36.85866819 </i>
    <i name="e_0_energy">    -36.85866820 </i>
   </energy>
  </scstep>
  <structure>
   <crystal>
    <varray name="basis" >
     <v>       4.37988328       0.00000000       0.00000000 </v>
     <v>       0.00000000       2.45719828       0.00000000 </v>
     <v>       0.00000000       0.00000000      19.59051912 </v>
    </varray>
    <i name="volume">    210.83790140 </i>
    <varray name="rec_basis" >
     <v>       0.22831659       0.00000000       0.00000000 </v>
     <v>       0.00000000       0.40696756       0.00000000 </v>
     <v>       0.00000000       0.00000000       0.05104510 </v>
    </varray>
   </crystal>
   <varray name="positions" >
    <v>       0.99946112      -0.00000000       0.00000000 </v>
    <v>       0.16720555       0.50000000       0.00000000 </v>
    <v>       0.49946112       0.50000000       0.00000000 </v>
    <v>       0.66720555       0.00000000       0.00000000 </v>
   </varray>
  </structure>
  <varray name="forces" >
   <v>       0.00000030      -0.00000000      -0.00000000 </v>
   <v>      -0.00000030       0.00000000       0.00000000 </v>
   <v>       0.00000030      -0.00000000      -0.00000000 </v>
   <v>      -0.00000030       0.00000000       0.00000000 </v>
  </varray>
  <varray name="stress" >
   <v>     -41.06157365       0.00000000       0.00000000 </v>
   <v>       0.00000000      -0.00732151       0.00000000 </v>
   <v>       0.00000000       0.00000000      -0.01018709 </v>
  </varray>
  <energy>
   <i name="e_fr_energy">    -36.85866821 </i>
   <i name="e_wo_entrp">    -36.85866820 </i>
   <i name="e_0_energy">     -0.00000002 </i>
  </energy>
  <time name="totalsc"> 2437.11 2455.12</time>
  <eigenvalues>
   <array>
    <dimension dim="1">band</dimension>
    <dimension dim="2">kpoint</dimension>
    <dimension dim="3">spin</dimension>
    <field>eigene</field>
    <field>occ</field>
    <set>
     <set comment="spin 1">
      <set comment="kpoint 1">
       <r>  -22.0809    1.0000 </r>
       <r>  -17.2571    1.0000 </r>
       <r>  -15.8328    1.0000 </r>
       <r>  -10.2256    1.0000 </r>
       <r>   -8.8053    1.0000 </r>
       <r>   -6.0062    1.0000 </r>
       <r>   -5.7273    1.0000 </r>
       <r>   -5.3350    1.0000 </r>
       <r>   -1.1858    0.0000 </r>
       <r>    0.5448    0.0000 </r>
       <r>    1.3428    0.0000 </r>
       <r>    1.7362    0.0000 </r>
      </set>
      <set comment="kpoint 2">
       <r>  -22.0712    1.0000 </r>
       <r>  -17.3753    1.0000 </r>
       <r>  -15.6996    1.0000 </r>
       <r>  -10.2140    1.0000 </r>
       <r>   -8.7959    1.0000 </r>
       <r>   -6.0505    1.0000 </r>
       <r>   -5.7473    1.0000 </r>
       <r>   -5.3937    1.0000 </r>
       <r>   -1.1114    0.0000 </r>
       <r>    0.5580    0.0000 </r>
       <r>    1.3562    0.0000 </r>
       <r>    1.7498    0.0000 </r>
      </set>
      <set comment="kpoint 3">
       <r>  -22.0419    1.0000 </r>
       <r>  -17.6489    1.0000 </r>
       <r>  -15.3812    1.0000 </r>
       <r>  -10.1793    1.0000 </r>
       <r>   -8.7676    1.0000 </r>
       <r>   -6.1812    1.0000 </r>
       <r>   -5.8065    1.0000 </r>
       <r>   -5.5580    1.0000 </r>
       <r>   -0.9000    0.0000 </r>
       <r>    0.5976    0.0000 </r>
       <r>    1.3964    0.0000 </r>
       <r>    1.7905    0.0000 </r>
      </set>
      <set comment="kpoint 4">
       <r>  -21.9931    1.0000 </r>
       <r>  -17.9793    1.0000 </r>
       <r>  -14.9762    1.0000 </r>
       <r>  -10.1215    1.0000 </r>
       <r>   -8.7206    1.0000 </r>
       <r>   -6.3925    1.0000 </r>
       <r>   -5.9018    1.0000 </r>
       <r>   -5.8007    1.0000 </r>
       <r>   -0.5796    0.0000 </r>
       <r>    0.6636    0.0000 </r>
       <r>    1.4633    0.0000 </r>
       <r>    1.8583    0.0000 </r>
      </set>
      <set comment="kpoint 5">
       <r>  -21.9249    1.0000 </r>
       <r>  -18.3242    1.0000 </r>
       <r>  -14.5275    1.0000 </r>
       <r>  -10.0407    1.0000 </r>
       <r>   -8.6552    1.0000 </r>
       <r>   -6.6756    1.0000 </r>
       <r>   -6.0933    1.0000 </r>
       <r>   -6.0288    1.0000 </r>
       <r>   -0.1791    0.0000 </r>
       <r>    0.7561    0.0000 </r>
       <r>    1.5570    0.0000 </r>
       <r>    1.9532    0.0000 </r>
      </set>
      <set comment="kpoint 6">
       <r>  -21.8373    1.0000 </r>
       <r>  -18.6672    1.0000 </r>
       <r>  -14.0521    1.0000 </r>
       <r>   -9.9371    1.0000 </r>
       <r>   -8.5717    1.0000 </r>
       <r>   -7.0206    1.0000 </r>
       <r>   -6.4136    1.0000 </r>
       <r>   -6.1820    1.0000 </r>
       <r>    0.2778    0.0000 </r>
       <r>    0.8750    0.0000 </r>
       <r>    1.6774    0.0000 </r>
       <r>    2.0753    0.0000 </r>
      </set>
      <set comment="kpoint 7">
       <r>  -21.7303    1.0000 </r>
       <r>  -19.0011    1.0000 </r>
       <r>  -13.5577    1.0000 </r>
       <r>   -9.8108    1.0000 </r>
       <r>   -8.4707    1.0000 </r>
       <r>   -7.4169    1.0000 </r>
       <r>   -6.7460    1.0000 </r>
       <r>   -6.3558    1.0000 </r>
       <r>    0.7741    0.0000 </r>
       <r>    1.0204    0.0000 </r>
       <r>    1.8244    0.0000 </r>
       <r>    2.2245    0.0000 </r>
      </set>
      <set comment="kpoint 8">
       <r>  -21.6041    1.0000 </r>
       <r>  -19.3224    1.0000 </r>
       <r>  -13.0490    1.0000 </r>
       <r>   -9.6621    1.0000 </r>
       <r>   -8.3528    1.0000 </r>
       <r>   -7.8547    1.0000 </r>
       <r>   -7.0802    1.0000 </r>
       <r>   -6.5445    1.0000 </r>
       <r>    1.1923    0.0000 </r>
       <r>    1.2975    0.0000 </r>
       <r>    1.9979    0.0000 </r>
       <r>    2.4009    0.0000 </r>
      </set>
      <set comment="kpoint 9">
       <r>  -21.4587    1.0000 </r>
       <r>  -19.6290    1.0000 </r>
       <r>  -12.5291    1.0000 </r>
       <r>   -9.4914    1.0000 </r>
       <r>   -8.3250    1.0000 </r>
       <r>   -8.2187    1.0000 </r>
       <r>   -7.4092    1.0000 </r>
       <r>   -6.7427    1.0000 </r>
       <r>    1.3906    0.0000 </r>
       <r>    1.8380    0.0000 </r>
       <r>    2.1977    0.0000 </r>
       <r>    2.6043    0.0000 </r>
      </set>
      <set comment="kpoint 10">
       <r>  -21.2943    1.0000 </r>
       <r>  -19.9196    1.0000 </r>
       <r>  -12.0008    1.0000 </r>
       <r>   -9.2989    1.0000 </r>
       <r>   -8.8202    1.0000 </r>
       <r>   -8.0696    1.0000 </r>
       <r>   -7.7283    1.0000 </r>
       <r>   -6.9458    1.0000 </r>
       <r>    1.6153    0.0000 </r>
       <r>    2.3866    0.0000 </r>
       <r>    2.4236    0.0000 </r>
       <r>    2.8349    0.0000 </r>
      </set>
      <set comment="kpoint 11">
       <r>  -21.1110    1.0000 </r>
       <r>  -20.1935    1.0000 </r>
       <r>  -11.4668    1.0000 </r>
       <r>   -9.3335    1.0000 </r>
       <r>   -9.0852    1.0000 </r>
       <r>   -8.0341    1.0000 </r>
       <r>   -7.9065    1.0000 </r>
       <r>   -7.1494    1.0000 </r>
       <r>    1.8662    0.0000 </r>
       <r>    2.6747    0.0000 </r>
       <r>    2.9291    0.0000 </r>
       <r>    3.0926    0.0000 </r>
      </set>
      <set comment="kpoint 12">
       <r>  -20.9091    1.0000 </r>
       <r>  -20.4500    1.0000 </r>
       <r>  -10.9297    1.0000 </r>
       <r>   -9.8593    1.0000 </r>
       <r>   -8.8510    1.0000 </r>
       <r>   -8.3243    1.0000 </r>
       <r>   -7.7310    1.0000 </r>
       <r>   -7.3501    1.0000 </r>
       <r>    2.1434    0.0000 </r>
       <r>    2.7760    0.0000 </r>
       <r>    2.9487    0.0000 </r>
       <r>    3.3756    0.0000 </r>
      </set>
      <set comment="kpoint 13">
       <r>  -20.6886    1.0000 </r>
       <r>  -20.6886    1.0000 </r>
       <r>  -10.3927    1.0000 </r>
       <r>  -10.3927    1.0000 </r>
       <r>   -8.5970    1.0000 </r>
       <r>   -8.5970    1.0000 </r>
       <r>   -7.5448    1.0000 </r>
       <r>   -7.5448    1.0000 </r>
       <r>    2.4467    0.0000 </r>
       <r>    2.4467    0.0000 </r>
       <r>    3.2348    0.0000 </r>
       <r>    3.2348    0.0000 </r>
      </set>
      <set comment="kpoint 14">
       <r>  -22.0671    1.0000 </r>
       <r>  -17.2451    1.0000 </r>
       <r>  -15.8210    1.0000 </r>
       <r>  -10.2092    1.0000 </r>
       <r>   -8.8687    1.0000 </r>
       <r>   -6.0323    1.0000 </r>
       <r>   -5.7863    1.0000 </r>
       <r>   -5.3183    1.0000 </r>
       <r>   -1.1883    0.0000 </r>
       <r>    0.5635    0.0000 </r>
       <r>    1.3618    0.0000 </r>
       <r>    1.7554    0.0000 </r>
      </set>
      <set comment="kpoint 15">
       <r>  -22.0573    1.0000 </r>
       <r>  -17.3632    1.0000 </r>
       <r>  -15.6880    1.0000 </r>
       <r>  -10.1976    1.0000 </r>
       <r>   -8.8592    1.0000 </r>
       <r>   -6.0773    1.0000 </r>
       <r>   -5.8051    1.0000 </r>
       <r>   -5.3771    1.0000 </r>
       <r>   -1.1138    0.0000 </r>
       <r>    0.5767    0.0000 </r>
       <r>    1.3752    0.0000 </r>
       <r>    1.7690    0.0000 </r>
      </set>
      <set comment="kpoint 16">
       <r>  -22.0281    1.0000 </r>
       <r>  -17.6365    1.0000 </r>
       <r>  -15.3699    1.0000 </r>
       <r>  -10.1629    1.0000 </r>
       <r>   -8.8309    1.0000 </r>
       <r>   -6.2089    1.0000 </r>
       <r>   -5.8617    1.0000 </r>
       <r>   -5.5417    1.0000 </r>
       <r>   -0.9025    0.0000 </r>
       <r>    0.6163    0.0000 </r>
       <r>    1.4153    0.0000 </r>
       <r>    1.8096    0.0000 </r>
      </set>
      <set comment="kpoint 17">
       <r>  -21.9793    1.0000 </r>
       <r>  -17.9668    1.0000 </r>
       <r>  -14.9654    1.0000 </r>
       <r>  -10.1051    1.0000 </r>
       <r>   -8.7838    1.0000 </r>
       <r>   -6.4195    1.0000 </r>
       <r>   -5.9551    1.0000 </r>
       <r>   -5.7847    1.0000 </r>
       <r>   -0.5823    0.0000 </r>
       <r>    0.6823    0.0000 </r>
       <r>    1.4823    0.0000 </r>
       <r>    1.8775    0.0000 </r>
      </set>
      <set comment="kpoint 18">
       <r>  -21.9111    1.0000 </r>
       <r>  -18.3115    1.0000 </r>
       <r>  -14.5172    1.0000 </r>
       <r>  -10.0244    1.0000 </r>
       <r>   -8.7183    1.0000 </r>
       <r>   -6.7004    1.0000 </r>
       <r>   -6.0813    1.0000 </r>
       <r>   -6.0775    1.0000 </r>
       <r>   -0.1823    0.0000 </r>
       <r>    0.7748    0.0000 </r>
       <r>    1.5759    0.0000 </r>
       <r>    1.9724    0.0000 </r>
      </set>
      <set comment="kpoint 19">
       <r>  -21.8235    1.0000 </r>
       <r>  -18.6543    1.0000 </r>
       <r>  -14.0423    1.0000 </r>
       <r>   -9.9208    1.0000 </r>
       <r>   -8.6347    1.0000 </r>
       <r>   -7.0419    1.0000 </r>
       <r>   -6.3979    1.0000 </r>
       <r>   -6.2349    1.0000 </r>
       <r>    0.2738    0.0000 </r>
       <r>    0.8938    0.0000 </r>
       <r>    1.6963    0.0000 </r>
       <r>    2.0945    0.0000 </r>
      </set>
      <set comment="kpoint 20">
       <r>  -21.7166    1.0000 </r>
       <r>  -18.9881    1.0000 </r>
       <r>  -13.5487    1.0000 </r>
       <r>   -9.7945    1.0000 </r>
       <r>   -8.5335    1.0000 </r>
       <r>   -7.4344    1.0000 </r>
       <r>   -6.7304    1.0000 </r>
       <r>   -6.4095    1.0000 </r>
       <r>    0.7691    0.0000 </r>
       <r>    1.0392    0.0000 </r>
       <r>    1.8433    0.0000 </r>
       <r>    2.2437    0.0000 </r>
      </set>
      <set comment="kpoint 21">
       <r>  -21.5904    1.0000 </r>
       <r>  -19.3092    1.0000 </r>
       <r>  -13.0408    1.0000 </r>
       <r>   -9.6459    1.0000 </r>
       <r>   -8.4154    1.0000 </r>
       <r>   -7.8682    1.0000 </r>
       <r>   -7.0646    1.0000 </r>
       <r>   -6.5994    1.0000 </r>
       <r>    1.2111    0.0000 </r>
       <r>    1.2911    0.0000 </r>
       <r>    2.0168    0.0000 </r>
       <r>    2.4200    0.0000 </r>
      </set>
      <set comment="kpoint 22">
       <r>  -21.4450    1.0000 </r>
       <r>  -19.6157    1.0000 </r>
       <r>  -12.5219    1.0000 </r>
       <r>   -9.4752    1.0000 </r>
       <r>   -8.3349    1.0000 </r>
       <r>   -8.2810    1.0000 </r>
       <r>   -7.3936    1.0000 </r>
       <r>   -6.7988    1.0000 </r>
       <r>    1.4094    0.0000 </r>
       <r>    1.8302    0.0000 </r>
       <r>    2.2166    0.0000 </r>
       <r>    2.6235    0.0000 </r>
      </set>
      <set comment="kpoint 23">
       <r>  -21.2806    1.0000 </r>
       <r>  -19.9063    1.0000 </r>
       <r>  -11.9947    1.0000 </r>
       <r>   -9.2828    1.0000 </r>
       <r>   -8.8267    1.0000 </r>
       <r>   -8.1315    1.0000 </r>
       <r>   -7.7127    1.0000 </r>
       <r>   -7.0031    1.0000 </r>
       <r>    1.6340    0.0000 </r>
       <r>    2.3774    0.0000 </r>
       <r>    2.4425    0.0000 </r>
       <r>    2.8541    0.0000 </r>
      </set>
      <set comment="kpoint 24">
       <r>  -21.0974    1.0000 </r>
       <r>  -20.1801    1.0000 </r>
       <r>  -11.4620    1.0000 </r>
       <r>   -9.3371    1.0000 </r>
       <r>   -9.0692    1.0000 </r>
       <r>   -8.0184    1.0000 </r>
       <r>   -7.9680    1.0000 </r>
       <r>   -7.2078    1.0000 </r>
       <r>    1.8850    0.0000 </r>
       <r>    2.6936    0.0000 </r>
       <r>    2.9192    0.0000 </r>
       <r>    3.1118    0.0000 </r>
      </set>
      <set comment="kpoint 25">
       <r>  -20.8955    1.0000 </r>
       <r>  -20.4365    1.0000 </r>
       <r>  -10.9266    1.0000 </r>
       <r>   -9.8603    1.0000 </r>
       <r>   -8.8351    1.0000 </r>
       <r>   -8.3085    1.0000 </r>
       <r>   -7.7919    1.0000 </r>
       <r>   -7.4095    1.0000 </r>
       <r>    2.1622    0.0000 </r>
       <r>    2.7948    0.0000 </r>
       <r>    2.9677    0.0000 </r>
       <r>    3.3720    0.0000 </r>
      </set>
      <set comment="kpoint 26">
       <r>  -20.6751    1.0000 </r>
       <r>  -20.6751    1.0000 </r>
       <r>  -10.3915    1.0000 </r>
       <r>  -10.3915    1.0000 </r>
       <r>   -8.5812    1.0000 </r>
       <r>   -8.5812    1.0000 </r>
       <r>   -7.6050    1.0000 </r>
       <r>   -7.6050    1.0000 </r>
       <r>    2.4656    0.0000 </r>
       <r>    2.4656    0.0000 </r>
       <r>    3.2533    0.0000 </r>
       <r>    3.2533    0.0000 </r>
      </set>
      <set comment="kpoint 27">
       <r>  -22.0256    1.0000 </r>
       <r>  -17.2091    1.0000 </r>
       <r>  -15.7858    1.0000 </r>
       <r>  -10.1600    1.0000 </r>
       <r>   -9.0535    1.0000 </r>
       <r>   -6.1102    1.0000 </r>
       <r>   -5.9586    1.0000 </r>
       <r>   -5.2682    1.0000 </r>
       <r>   -1.1964    0.0000 </r>
       <r>    0.6197    0.0000 </r>
       <r>    1.4185    0.0000 </r>
       <r>    1.8129    0.0000 </r>
      </set>
      <set comment="kpoint 28">
       <r>  -22.0159    1.0000 </r>
       <r>  -17.3269    1.0000 </r>
       <r>  -15.6532    1.0000 </r>
       <r>  -10.1484    1.0000 </r>
       <r>   -9.0440    1.0000 </r>
       <r>   -6.1602    1.0000 </r>
       <r>   -5.9706    1.0000 </r>
       <r>   -5.3274    1.0000 </r>
       <r>   -1.1219    0.0000 </r>
       <r>    0.6329    0.0000 </r>
       <r>    1.4319    0.0000 </r>
       <r>    1.8265    0.0000 </r>
      </set>
      <set comment="kpoint 29">
       <r>  -21.9866    1.0000 </r>
       <r>  -17.5995    1.0000 </r>
       <r>  -15.3362    1.0000 </r>
       <r>  -10.1137    1.0000 </r>
       <r>   -9.0155    1.0000 </r>
       <r>   -6.2972    1.0000 </r>
       <r>   -6.0168    1.0000 </r>
       <r>   -5.4929    1.0000 </r>
       <r>   -0.9107    0.0000 </r>
       <r>    0.6725    0.0000 </r>
       <r>    1.4721    0.0000 </r>
       <r>    1.8671    0.0000 </r>
      </set>
      <set comment="kpoint 30">
       <r>  -21.9379    1.0000 </r>
       <r>  -17.9291    1.0000 </r>
       <r>  -14.9330    1.0000 </r>
       <r>  -10.0560    1.0000 </r>
       <r>   -8.9683    1.0000 </r>
       <r>   -6.5066    1.0000 </r>
       <r>   -6.1039    1.0000 </r>
       <r>   -5.7367    1.0000 </r>
       <r>   -0.5911    0.0000 </r>
       <r>    0.7385    0.0000 </r>
       <r>    1.5390    0.0000 </r>
       <r>    1.9349    0.0000 </r>
      </set>
      <set comment="kpoint 31">
[...]
       <r>   -9.3556    1.0000 </r>
       <r>   -5.5140    1.0000 </r>
       <r>   -5.5140    1.0000 </r>
       <r>   -0.4926    0.0000 </r>
       <r>   -0.4926    0.0000 </r>
       <r>    4.1417    0.0000 </r>
       <r>    4.1417    0.0000 </r>
      </set>
      <set comment="kpoint 209">
       <r>  -18.6233    1.0000 </r>
       <r>  -16.8069    1.0000 </r>
       <r>  -14.2149    1.0000 </r>
       <r>  -12.5482    1.0000 </r>
       <r>  -12.2991    1.0000 </r>
       <r>  -10.7864    1.0000 </r>
       <r>   -6.2763    1.0000 </r>
       <r>   -4.3994    1.0000 </r>
       <r>   -1.2034    0.0000 </r>
       <r>    0.9557    0.0000 </r>
       <r>    5.3145    0.0000 </r>
       <r>    6.0842    0.0000 </r>
      </set>
      <set comment="kpoint 210">
       <r>  -18.6141    1.0000 </r>
       <r>  -16.7997    1.0000 </r>
       <r>  -14.2819    1.0000 </r>
       <r>  -12.6112    1.0000 </r>
       <r>  -12.2245    1.0000 </r>
       <r>  -10.7259    1.0000 </r>
       <r>   -6.2680    1.0000 </r>
       <r>   -4.4034    1.0000 </r>
       <r>   -1.2098    0.0000 </r>
       <r>    0.9330    0.0000 </r>
       <r>    5.3274    0.0000 </r>
       <r>    6.0994    0.0000 </r>
      </set>
      <set comment="kpoint 211">
       <r>  -18.5864    1.0000 </r>
       <r>  -16.7787    1.0000 </r>
       <r>  -14.4564    1.0000 </r>
       <r>  -12.7776    1.0000 </r>
       <r>  -12.0270    1.0000 </r>
       <r>  -10.5677    1.0000 </r>
       <r>   -6.2432    1.0000 </r>
       <r>   -4.4158    1.0000 </r>
       <r>   -1.2274    0.0000 </r>
       <r>    0.8667    0.0000 </r>
       <r>    5.3660    0.0000 </r>
       <r>    6.1444    0.0000 </r>
      </set>
      <set comment="kpoint 212">
       <r>  -18.5405    1.0000 </r>
       <r>  -16.7451    1.0000 </r>
       <r>  -14.6902    1.0000 </r>
       <r>  -13.0063    1.0000 </r>
       <r>  -11.7547    1.0000 </r>
       <r>  -10.3548    1.0000 </r>
       <r>   -6.2021    1.0000 </r>
       <r>   -4.4380    1.0000 </r>
       <r>   -1.2520    0.0000 </r>
       <r>    0.7609    0.0000 </r>
       <r>    5.4293    0.0000 </r>
       <r>    6.2186    0.0000 </r>
      </set>
      <set comment="kpoint 213">
       <r>  -18.4763    1.0000 </r>
       <r>  -16.7018    1.0000 </r>
       <r>  -14.9464    1.0000 </r>
       <r>  -13.2661    1.0000 </r>
       <r>  -11.4438    1.0000 </r>
       <r>  -10.1215    1.0000 </r>
       <r>   -6.1453    1.0000 </r>
       <r>   -4.4719    1.0000 </r>
       <r>   -1.2775    0.0000 </r>
       <r>    0.6220    0.0000 </r>
       <r>    5.5108    0.0000 </r>
       <r>    5.8759    0.0000 </r>
      </set>
      <set comment="kpoint 214">
       <r>  -18.3941    1.0000 </r>
       <r>  -16.6550    1.0000 </r>
       <r>  -15.1999    1.0000 </r>
       <r>  -13.5389    1.0000 </r>
       <r>  -11.1165    1.0000 </r>
       <r>   -9.8903    1.0000 </r>
       <r>   -6.0733    1.0000 </r>
       <r>   -4.5194    1.0000 </r>
       <r>   -1.2965    0.0000 </r>
       <r>    0.4574    0.0000 </r>
       <r>    5.3555    0.0000 </r>
       <r>    5.6640    0.0000 </r>
      </set>
      <set comment="kpoint 215">
       <r>  -18.2942    1.0000 </r>
       <r>  -16.6167    1.0000 </r>
       <r>  -15.4280    1.0000 </r>
       <r>  -13.8141    1.0000 </r>
       <r>  -10.7874    1.0000 </r>
       <r>   -9.6772    1.0000 </r>
       <r>   -5.9870    1.0000 </r>
       <r>   -4.5826    1.0000 </r>
       <r>   -1.3020    0.0000 </r>
       <r>    0.2747    0.0000 </r>
       <r>    4.9391    0.0000 </r>
       <r>    5.7949    0.0000 </r>
      </set>
      <set comment="kpoint 216">
       <r>  -18.1770    1.0000 </r>
       <r>  -16.6105    1.0000 </r>
       <r>  -15.6013    1.0000 </r>
       <r>  -14.0855    1.0000 </r>
       <r>  -10.4676    1.0000 </r>
       <r>   -9.4944    1.0000 </r>
       <r>   -5.8877    1.0000 </r>
       <r>   -4.6621    1.0000 </r>
       <r>   -1.2877    0.0000 </r>
       <r>    0.0812    0.0000 </r>
       <r>    4.5781    0.0000 </r>
       <r>    5.5381    0.0000 </r>
      </set>
      <set comment="kpoint 217">
       <r>  -18.0429    1.0000 </r>
       <r>  -16.6671    1.0000 </r>
       <r>  -15.6854    1.0000 </r>
       <r>  -14.3486    1.0000 </r>
       <r>  -10.1666    1.0000 </r>
       <r>   -9.3524    1.0000 </r>
       <r>   -5.7766    1.0000 </r>
       <r>   -4.7579    1.0000 </r>
       <r>   -1.2494    0.0000 </r>
       <r>   -0.1163    0.0000 </r>
       <r>    4.2902    0.0000 </r>
       <r>    5.0978    0.0000 </r>
      </set>
      <set comment="kpoint 218">
       <r>  -17.8927    1.0000 </r>
       <r>  -16.7953    1.0000 </r>
       <r>  -15.6693    1.0000 </r>
       <r>  -14.6002    1.0000 </r>
       <r>   -9.8935    1.0000 </r>
       <r>   -9.2597    1.0000 </r>
       <r>   -5.6556    1.0000 </r>
       <r>   -4.8682    1.0000 </r>
       <r>   -1.1848    0.0000 </r>
       <r>   -0.3120    0.0000 </r>
       <r>    4.0842    0.0000 </r>
       <r>    4.7155    0.0000 </r>
      </set>
      <set comment="kpoint 219">
       <r>  -17.7275    1.0000 </r>
       <r>  -16.9701    1.0000 </r>
       <r>  -15.5766    1.0000 </r>
       <r>  -14.8377    1.0000 </r>
       <r>   -9.6573    1.0000 </r>
       <r>   -9.2226    1.0000 </r>
       <r>   -5.5267    1.0000 </r>
       <r>   -4.9904    1.0000 </r>
       <r>   -1.0934    0.0000 </r>
       <r>   -0.5003    0.0000 </r>
       <r>    3.9665    0.0000 </r>
       <r>    4.4005    0.0000 </r>
      </set>
      <set comment="kpoint 220">
       <r>  -17.5488    1.0000 </r>
       <r>  -17.1636    1.0000 </r>
       <r>  -15.4345    1.0000 </r>
       <r>  -15.0583    1.0000 </r>
       <r>   -9.4660    1.0000 </r>
       <r>   -9.2448    1.0000 </r>
       <r>   -5.3927    1.0000 </r>
       <r>   -5.1210    1.0000 </r>
       <r>   -0.9766    0.0000 </r>
       <r>   -0.6766    0.0000 </r>
       <r>    3.9404    0.0000 </r>
       <r>    4.1616    0.0000 </r>
      </set>
      <set comment="kpoint 221">
       <r>  -17.3593    1.0000 </r>
       <r>  -17.3593    1.0000 </r>
       <r>  -15.2589    1.0000 </r>
       <r>  -15.2589    1.0000 </r>
       <r>   -9.3268    1.0000 </r>
       <r>   -9.3268    1.0000 </r>
       <r>   -5.2563    1.0000 </r>
       <r>   -5.2563    1.0000 </r>
       <r>   -0.8366    0.0000 </r>
       <r>   -0.8366    0.0000 </r>
       <r>    4.0064    0.0000 </r>
       <r>    4.0064    0.0000 </r>
      </set>
      <set comment="kpoint 222">
       <r>  -18.1947    1.0000 </r>
       <r>  -17.2827    1.0000 </r>
       <r>  -13.8292    1.0000 </r>
       <r>  -12.9950    1.0000 </r>
       <r>  -11.9519    1.0000 </r>
       <r>  -11.1905    1.0000 </r>
       <r>   -5.8173    1.0000 </r>
       <r>   -4.8731    1.0000 </r>
       <r>   -0.6959    0.0000 </r>
       <r>    0.3859    0.0000 </r>
       <r>    5.9209    0.0000 </r>
       <r>    6.6455    0.0000 </r>
      </set>
      <set comment="kpoint 223">
       <r>  -18.1856    1.0000 </r>
       <r>  -17.2744    1.0000 </r>
       <r>  -13.8966    1.0000 </r>
       <r>  -13.0599    1.0000 </r>
       <r>  -11.8796    1.0000 </r>
       <r>  -11.1255    1.0000 </r>
       <r>   -5.8104    1.0000 </r>
       <r>   -4.8714    1.0000 </r>
       <r>   -0.7093    0.0000 </r>
       <r>    0.3653    0.0000 </r>
       <r>    5.9337    0.0000 </r>
       <r>    6.6616    0.0000 </r>
      </set>
      <set comment="kpoint 224">
       <r>  -18.1585    1.0000 </r>
       <r>  -17.2497    1.0000 </r>
       <r>  -14.0728    1.0000 </r>
       <r>  -13.2308    1.0000 </r>
       <r>  -11.6890    1.0000 </r>
       <r>  -10.9549    1.0000 </r>
       <r>   -5.7895    1.0000 </r>
       <r>   -4.8667    1.0000 </r>
       <r>   -0.7479    0.0000 </r>
       <r>    0.3049    0.0000 </r>
       <r>    5.9719    0.0000 </r>
       <r>    6.7092    0.0000 </r>
      </set>
      <set comment="kpoint 225">
       <r>  -18.1134    1.0000 </r>
       <r>  -17.2091    1.0000 </r>
       <r>  -14.3112    1.0000 </r>
       <r>  -13.4644    1.0000 </r>
       <r>  -11.4278    1.0000 </r>
       <r>  -10.7238    1.0000 </r>
       <r>   -5.7553    1.0000 </r>
       <r>   -4.8599    1.0000 </r>
       <r>   -0.8074    0.0000 </r>
       <r>    0.2092    0.0000 </r>
       <r>    6.0338    0.0000 </r>
       <r>    6.6945    0.0000 </r>
      </set>
      <set comment="kpoint 226">
       <r>  -18.0506    1.0000 </r>
       <r>  -17.1533    1.0000 </r>
       <r>  -14.5773    1.0000 </r>
       <r>  -13.7285    1.0000 </r>
       <r>  -11.1319    1.0000 </r>
       <r>  -10.4670    1.0000 </r>
       <r>   -5.7083    1.0000 </r>
       <r>   -4.8528    1.0000 </r>
       <r>   -0.8813    0.0000 </r>
       <r>    0.0843    0.0000 </r>
       <r>    6.0651    0.0000 </r>
       <r>    6.2033    0.0000 </r>
      </set>
      <set comment="kpoint 227">
       <r>  -17.9703    1.0000 </r>
       <r>  -17.0841    1.0000 </r>
       <r>  -14.8504    1.0000 </r>
       <r>  -14.0044    1.0000 </r>
       <r>  -10.8239    1.0000 </r>
       <r>  -10.2071    1.0000 </r>
       <r>   -5.6496    1.0000 </r>
       <r>   -4.8477    1.0000 </r>
       <r>   -0.9616    0.0000 </r>
       <r>   -0.0622    0.0000 </r>
       <r>    5.6169    0.0000 </r>
       <r>    6.2151    0.0000 </r>
      </set>
      <set comment="kpoint 228">
       <r>  -17.8730    1.0000 </r>
       <r>  -17.0045    1.0000 </r>
       <r>  -15.1173    1.0000 </r>
       <r>  -14.2815    1.0000 </r>
       <r>  -10.5186    1.0000 </r>
       <r>   -9.9598    1.0000 </r>
       <r>   -5.5806    1.0000 </r>
       <r>   -4.8474    1.0000 </r>
       <r>   -1.0395    0.0000 </r>
       <r>   -0.2225    0.0000 </r>
       <r>    5.1589    0.0000 </r>
       <r>    5.7052    0.0000 </r>
      </set>
      <set comment="kpoint 229">
       <r>  -17.7594    1.0000 </r>
       <r>  -16.9199    1.0000 </r>
       <r>  -15.3665    1.0000 </r>
       <r>  -14.5530    1.0000 </r>
       <r>  -10.2274    1.0000 </r>
       <r>   -9.7373    1.0000 </r>
       <r>   -5.5030    1.0000 </r>
       <r>   -4.8548    1.0000 </r>
       <r>   -1.1065    0.0000 </r>
       <r>   -0.3886    0.0000 </r>
       <r>    4.7578    0.0000 </r>
       <r>    5.2406    0.0000 </r>
      </set>
      <set comment="kpoint 230">
       <r>  -17.6305    1.0000 </r>
       <r>  -16.8416    1.0000 </r>
       <r>  -15.5831    1.0000 </r>
       <r>  -14.8143    1.0000 </r>
       <r>   -9.9603    1.0000 </r>
       <r>   -9.5500    1.0000 </r>
       <r>   -5.4190    1.0000 </r>
       <r>   -4.8729    1.0000 </r>
       <r>   -1.1550    0.0000 </r>
       <r>   -0.5532    0.0000 </r>
       <r>    4.4245    0.0000 </r>
       <r>    4.8312    0.0000 </r>
      </set>
      <set comment="kpoint 231">
       <r>  -17.4880    1.0000 </r>
       <r>  -16.7915    1.0000 </r>
       <r>  -15.7432    1.0000 </r>
       <r>  -15.0612    1.0000 </r>
       <r>   -9.7268    1.0000 </r>
       <r>   -9.4071    1.0000 </r>
       <r>   -5.3313    1.0000 </r>
       <r>   -4.9037    1.0000 </r>
       <r>   -1.1786    0.0000 </r>
       <r>   -0.7095    0.0000 </r>
       <r>    4.1683    0.0000 </r>
       <r>    4.4864    0.0000 </r>
      </set>
      <set comment="kpoint 232">
       <r>  -17.3345    1.0000 </r>
       <r>  -16.8009    1.0000 </r>
       <r>  -15.8138    1.0000 </r>
       <r>  -15.2896    1.0000 </r>
       <r>   -9.5355    1.0000 </r>
       <r>   -9.3161    1.0000 </r>
       <r>   -5.2428    1.0000 </r>
       <r>   -4.9485    1.0000 </r>
       <r>   -1.1730    0.0000 </r>
       <r>   -0.8511    0.0000 </r>
       <r>    3.9964    0.0000 </r>
       <r>    4.2152    0.0000 </r>
      </set>
      <set comment="kpoint 233">
       <r>  -17.1749    1.0000 </r>
       <r>  -16.8840    1.0000 </r>
       <r>  -15.7798    1.0000 </r>
       <r>  -15.4936    1.0000 </r>
       <r>   -9.3942    1.0000 </r>
       <r>   -9.2824    1.0000 </r>
       <r>   -5.1569    1.0000 </r>
       <r>   -5.0068    1.0000 </r>
       <r>   -1.1364    0.0000 </r>
       <r>   -0.9725    0.0000 </r>
       <r>    3.9142    0.0000 </r>
       <r>    4.0258    0.0000 </r>
      </set>
      <set comment="kpoint 234">
       <r>  -17.0186    1.0000 </r>
       <r>  -17.0186    1.0000 </r>
       <r>  -15.6632    1.0000 </r>
       <r>  -15.6632    1.0000 </r>
       <r>   -9.3086    1.0000 </r>
       <r>   -9.3086    1.0000 </r>
       <r>   -5.0772    1.0000 </r>
       <r>   -5.0772    1.0000 </r>
       <r>   -1.0688    0.0000 </r>
       <r>   -1.0688    0.0000 </r>
       <r>    3.9242    0.0000 </r>
       <r>    3.9242    0.0000 </r>
      </set>
      <set comment="kpoint 235">
       <r>  -17.7468    1.0000 </r>
       <r>  -17.7468    1.0000 </r>
       <r>  -13.4223    1.0000 </r>
       <r>  -13.4223    1.0000 </r>
       <r>  -11.5805    1.0000 </r>
       <r>  -11.5805    1.0000 </r>
       <r>   -5.3479    1.0000 </r>
       <r>   -5.3479    1.0000 </r>
       <r>   -0.1655    0.0000 </r>
       <r>   -0.1655    0.0000 </r>
       <r>    6.5594    0.0000 </r>
       <r>    6.5594    0.0000 </r>
      </set>
      <set comment="kpoint 236">
       <r>  -17.7381    1.0000 </r>
       <r>  -17.7381    1.0000 </r>
       <r>  -13.4888    1.0000 </r>
       <r>  -13.4888    1.0000 </r>
       <r>  -11.5115    1.0000 </r>
       <r>  -11.5115    1.0000 </r>
       <r>   -5.3429    1.0000 </r>
       <r>   -5.3429    1.0000 </r>
       <r>   -0.1832    0.0000 </r>
       <r>   -0.1832    0.0000 </r>
       <r>    6.5721    0.0000 </r>
       <r>    6.5721    0.0000 </r>
      </set>
      <set comment="kpoint 237">
       <r>  -17.7118    1.0000 </r>
       <r>  -17.7118    1.0000 </r>
       <r>  -13.6632    1.0000 </r>
       <r>  -13.6632    1.0000 </r>
       <r>  -11.3300    1.0000 </r>
       <r>  -11.3300    1.0000 </r>
       <r>   -5.3282    1.0000 </r>
       <r>   -5.3282    1.0000 </r>
       <r>   -0.2349    0.0000 </r>
       <r>   -0.2349    0.0000 </r>
       <r>    6.6098    0.0000 </r>
       <r>    6.6098    0.0000 </r>
      </set>
      <set comment="kpoint 238">
       <r>  -17.6682    1.0000 </r>
       <r>  -17.6682    1.0000 </r>
       <r>  -13.9004    1.0000 </r>
       <r>  -13.9004    1.0000 </r>
       <r>  -11.0827    1.0000 </r>
       <r>  -11.0827    1.0000 </r>
       <r>   -5.3044    1.0000 </r>
       <r>   -5.3044    1.0000 </r>
       <r>   -0.3162    0.0000 </r>
       <r>   -0.3162    0.0000 </r>
       <r>    6.6668    0.0000 </r>
       <r>    6.6669    0.0000 </r>
      </set>
      <set comment="kpoint 239">
       <r>  -17.6076    1.0000 </r>
       <r>  -17.6076    1.0000 </r>
       <r>  -14.1672    1.0000 </r>
       <r>  -14.1672    1.0000 </r>
       <r>  -10.8050    1.0000 </r>
       <r>  -10.8050    1.0000 </r>
       <r>   -5.2727    1.0000 </r>
       <r>   -5.2727    1.0000 </r>
       <r>   -0.4208    0.0000 </r>
       <r>   -0.4208    0.0000 </r>
       <r>    6.4262    0.0000 </r>
       <r>    6.4263    0.0000 </r>
      </set>
      <set comment="kpoint 240">
       <r>  -17.5308    1.0000 </r>
       <r>  -17.5308    1.0000 </r>
       <r>  -14.4442    1.0000 </r>
       <r>  -14.4442    1.0000 </r>
       <r>  -10.5195    1.0000 </r>
       <r>  -10.5195    1.0000 </r>
       <r>   -5.2347    1.0000 </r>
       <r>   -5.2347    1.0000 </r>
       <r>   -0.5409    0.0000 </r>
       <r>   -0.5409    0.0000 </r>
       <r>    5.9022    0.0000 </r>
       <r>    5.9022    0.0000 </r>
      </set>
      <set comment="kpoint 241">
       <r>  -17.4386    1.0000 </r>
       <r>  -17.4386    1.0000 </r>
       <r>  -14.7202    1.0000 </r>
       <r>  -14.7202    1.0000 </r>
       <r>  -10.2415    1.0000 </r>
       <r>  -10.2415    1.0000 </r>
       <r>   -5.1924    1.0000 </r>
       <r>   -5.1924    1.0000 </r>
       <r>   -0.6683    0.0000 </r>
       <r>   -0.6683    0.0000 </r>
       <r>    5.4150    0.0000 </r>
       <r>    5.4150    0.0000 </r>
      </set>
      <set comment="kpoint 242">
       <r>  -17.3327    1.0000 </r>
       <r>  -17.3327    1.0000 </r>
       <r>  -14.9875    1.0000 </r>
       <r>  -14.9875    1.0000 </r>
       <r>   -9.9827    1.0000 </r>
       <r>   -9.9827    1.0000 </r>
       <r>   -5.1485    1.0000 </r>
       <r>   -5.1485    1.0000 </r>
       <r>   -0.7943    0.0000 </r>
       <r>   -0.7943    0.0000 </r>
       <r>    4.9795    0.0000 </r>
       <r>    4.9795    0.0000 </r>
      </set>
      <set comment="kpoint 243">
       <r>  -17.2159    1.0000 </r>
       <r>  -17.2159    1.0000 </r>
       <r>  -15.2398    1.0000 </r>
       <r>  -15.2398    1.0000 </r>
       <r>   -9.7537    1.0000 </r>
       <r>   -9.7537    1.0000 </r>
       <r>   -5.1060    1.0000 </r>
       <r>   -5.1060    1.0000 </r>
       <r>   -0.9109    0.0000 </r>
       <r>   -0.9109    0.0000 </r>
       <r>    4.6057    0.0000 </r>
       <r>    4.6057    0.0000 </r>
      </set>
      <set comment="kpoint 244">
       <r>  -17.0936    1.0000 </r>
       <r>  -17.0936    1.0000 </r>
       <r>  -15.4695    1.0000 </r>
       <r>  -15.4695    1.0000 </r>
       <r>   -9.5637    1.0000 </r>
       <r>   -9.5637    1.0000 </r>
       <r>   -5.0681    1.0000 </r>
       <r>   -5.0681    1.0000 </r>
       <r>   -1.0108    0.0000 </r>
       <r>   -1.0108    0.0000 </r>
       <r>    4.3030    0.0000 </r>
       <r>    4.3030    0.0000 </r>
      </set>
      <set comment="kpoint 245">
       <r>  -16.9758    1.0000 </r>
       <r>  -16.9758    1.0000 </r>
       <r>  -15.6648    1.0000 </r>
       <r>  -15.6648    1.0000 </r>
       <r>   -9.4210    1.0000 </r>
       <r>   -9.4210    1.0000 </r>
       <r>   -5.0381    1.0000 </r>
       <r>   -5.0381    1.0000 </r>
       <r>   -1.0873    0.0000 </r>
       <r>   -1.0873    0.0000 </r>
       <r>    4.0798    0.0000 </r>
       <r>    4.0798    0.0000 </r>
      </set>
      <set comment="kpoint 246">
       <r>  -16.8828    1.0000 </r>
       <r>  -16.8828    1.0000 </r>
       <r>  -15.8047    1.0000 </r>
       <r>  -15.8047    1.0000 </r>
       <r>   -9.3325    1.0000 </r>
       <r>   -9.3325    1.0000 </r>
       <r>   -5.0188    1.0000 </r>
       <r>   -5.0188    1.0000 </r>
       <r>   -1.1353    0.0000 </r>
       <r>   -1.1353    0.0000 </r>
       <r>    3.9428    0.0000 </r>
       <r>    3.9428    0.0000 </r>
      </set>
      <set comment="kpoint 247">
       <r>  -16.8455    1.0000 </r>
       <r>  -16.8455    1.0000 </r>
       <r>  -15.8576    1.0000 </r>
       <r>  -15.8576    1.0000 </r>
       <r>   -9.3025    1.0000 </r>
       <r>   -9.3025    1.0000 </r>
       <r>   -5.0121    1.0000 </r>
       <r>   -5.0121    1.0000 </r>
       <r>   -1.1518    0.0000 </r>
       <r>   -1.1518    0.0000 </r>
       <r>    3.8967    0.0000 </r>
       <r>    3.8967    0.0000 </r>
      </set>
     </set>
    </set>
   </array>
  </eigenvalues>
  <separator name="orbital magnetization" >
   <v name="MAGDIPOLOUT">      0.00000000      0.00000000      0.00000000</v>
  </separator>
 </calculation>
 <structure name="finalpos" >
  <crystal>
   <varray name="basis" >
    <v>       4.37988328       0.00000000       0.00000000 </v>
    <v>       0.00000000       2.45719828       0.00000000 </v>
    <v>       0.00000000       0.00000000      19.59051912 </v>
   </varray>
   <i name="volume">    210.83790140 </i>
   <varray name="rec_basis" >
    <v>       0.22831659       0.00000000       0.00000000 </v>
    <v>       0.00000000       0.40696756       0.00000000 </v>
    <v>       0.00000000       0.00000000       0.05104510 </v>
   </varray>
  </crystal>
  <varray name="positions" >
   <v>       0.99946112      -0.00000000       0.00000000 </v>
   <v>       0.16720555       0.50000000       0.00000000 </v>
   <v>       0.49946112       0.50000000       0.00000000 </v>
   <v>       0.66720555       0.00000000       0.00000000 </v>
  </varray>
 </structure>
</modeling>
