gr                                      
           1
     4.379883    0.000000    0.000000
     0.000000    2.457198    0.000000
     0.000000    0.000000   19.590519
   C 
   4
Direct configuration=     1
   0.99945869  0.00000000  0.00000000
   0.16720798  0.50000000  0.00000000
   0.49945869  0.50000000  0.00000000
   0.66720798  0.00000000  0.00000000
Direct configuration=     2
   0.99947007  0.00000000  0.00000000
   0.16719659  0.50000000  0.00000000
   0.49947007  0.50000000  0.00000000
   0.66719659 -0.00000000  0.00000000
Direct configuration=     3
   0.99946112 -0.00000000  0.00000000
   0.16720555  0.50000000  0.00000000
   0.49946112  0.50000000  0.00000000
   0.66720555  0.00000000  0.00000000
Direct configuration=     4
   0.99946112 -0.00000000  0.00000000
   0.16720555  0.50000000  0.00000000
   0.49946112  0.50000000  0.00000000
   0.66720555  0.00000000  0.00000000
