 running on    8 total cores
 distrk:  each k-point on    8 cores,    1 groups
 distr:  one band on    2 cores,    4 groups
 using from now: INCAR     
 vasp.5.3.5 31Mar14 (build Mar 02 2015 18:14:16) complex                        
  
 POSCAR found type information on POSCAR  C 
 POSCAR found :  1 types and       4 ions
 LDA part: xc-table for Pade appr. of Perdew
 POSCAR, INCAR and KPOINTS ok, starting setup
 WARNING: small aliasing (wrap around) errors must be expected
 FFT: planning ...
 WAVECAR not read
 entering main loop
       N       E                     dE             d eps       ncg     rms          rms(c)
DAV:   1     0.188560306162E+03    0.18856E+03   -0.10592E+04  5928   0.274E+03
DAV:   2    -0.912345195813E+01   -0.19768E+03   -0.17615E+03 10476   0.262E+02
DAV:   3    -0.383107066618E+02   -0.29187E+02   -0.28714E+02  7256   0.120E+02    0.728E+00
RMM:   4    -0.376565169401E+02    0.65419E+00   -0.93710E+00  5929   0.265E+01    0.421E+00
RMM:   5    -0.369024541663E+02    0.75406E+00   -0.28054E+00  5936   0.114E+01    0.719E-01
RMM:   6    -0.369040315461E+02   -0.15774E-02   -0.81674E-02  6357   0.202E+00    0.514E-01
RMM:   7    -0.368944446462E+02    0.95869E-02   -0.31962E-02  5949   0.157E+00    0.337E-01
RMM:   8    -0.368890618690E+02    0.53828E-02   -0.71932E-03  5933   0.565E-01    0.133E-01
RMM:   9    -0.368887379393E+02    0.32393E-03   -0.20434E-02  5932   0.843E-01    0.158E-01
RMM:  10    -0.368886755906E+02    0.62349E-04   -0.29320E-03  5933   0.376E-01    0.320E-02
RMM:  11    -0.368912389662E+02   -0.25634E-02   -0.10095E-03  5934   0.169E-01    0.457E-02
RMM:  12    -0.368917482270E+02   -0.50926E-03   -0.68185E-04  5939   0.103E-01    0.496E-03
RMM:  13    -0.369186545496E+02   -0.26906E-01   -0.12506E-03  6015   0.431E-02    0.283E-02
RMM:  14    -0.369223199065E+02   -0.36654E-02   -0.34260E-02  6221   0.360E-02    0.296E-02
RMM:  15    -0.369224261427E+02   -0.10624E-03   -0.10051E-03  5930   0.409E-02    0.336E-02
RMM:  16    -0.369223970745E+02    0.29068E-04   -0.53524E-05  5930   0.312E-02    0.359E-02
RMM:  17    -0.369223844070E+02    0.12667E-04   -0.87995E-06  5931   0.130E-02    0.370E-02
RMM:  18    -0.369224038355E+02   -0.19429E-04   -0.98168E-05  5928   0.484E-02    0.433E-02
RMM:  19    -0.369224216703E+02   -0.17835E-04   -0.57110E-06  5928   0.135E-02    0.444E-02
RMM:  20    -0.369224081182E+02    0.13552E-04   -0.12461E-06  5928   0.666E-03    0.424E-02
RMM:  21    -0.369223891375E+02    0.18981E-04   -0.51726E-06  5928   0.116E-02    0.396E-02
RMM:  22    -0.369223666359E+02    0.22502E-04   -0.72470E-05  5928   0.434E-02    0.292E-02
RMM:  23    -0.369223814450E+02   -0.14809E-04   -0.25524E-05  5928   0.266E-02    0.235E-02
RMM:  24    -0.369224017613E+02   -0.20316E-04   -0.15309E-05  5928   0.208E-02    0.182E-02
RMM:  25    -0.369224338830E+02   -0.32122E-04   -0.21476E-05  5928   0.245E-02    0.110E-02
RMM:  26    -0.369224610434E+02   -0.27160E-04   -0.18313E-05  5928   0.228E-02    0.466E-03
RMM:  27    -0.369224736067E+02   -0.12563E-04   -0.72317E-06  5928   0.144E-02    0.117E-03
RMM:  28    -0.369224765691E+02   -0.29623E-05   -0.13430E-06  5928   0.645E-03    0.217E-04
RMM:  29    -0.369224767997E+02   -0.23063E-06   -0.90075E-08  6295   0.197E-03    0.241E-04
RMM:  30    -0.369224768133E+02   -0.13632E-07   -0.45797E-09  5930   0.563E-04    0.957E-05
RMM:  31    -0.369224768279E+02   -0.14577E-07   -0.27172E-09  5928   0.345E-04    0.428E-05
RMM:  32    -0.369224768327E+02   -0.48159E-08   -0.21365E-10  4325   0.103E-04    0.597E-06
WARNING in EDDRMM: call to ZHEGV failed, returncode =   6  3  1
RMM:  33    -0.369224768348E+02   -0.20949E-08   -0.48019E-11  3906   0.546E-05    0.107E-05
RMM:  34    -0.369224768352E+02   -0.40063E-09   -0.10857E-11  3535   0.369E-05    0.298E-06
RMM:  35    -0.369224768351E+02    0.16439E-09   -0.10346E-11  3178   0.319E-05    0.187E-06
RMM:  36    -0.369224768355E+02   -0.45702E-09   -0.56686E-12  3157   0.285E-05    0.206E-06
RMM:  37    -0.369224768353E+02    0.21043E-09   -0.52045E-12  2628   0.253E-05    0.126E-06
RMM:  38    -0.369224768354E+02   -0.89017E-10   -0.44510E-12  2318   0.213E-05
   1 F= -.36922477E+02 E0= -.36922434E+02  d E =-.369225E+02
 BRION: g(F)=  0.612E-06 g(S)=  0.000E+00
 bond charge predicted
       N       E                     dE             d eps       ncg     rms          rms(c)
DAV:   1    -0.369224759110E+02    0.92435E-06   -0.82469E-05  6504   0.855E-02    0.183E-03
RMM:   2    -0.369224759541E+02   -0.43140E-07   -0.13260E-06  5933   0.103E-02    0.130E-03
RMM:   3    -0.369224759081E+02    0.45971E-07   -0.23169E-07  5969   0.388E-03    0.320E-04
RMM:   4    -0.369224759045E+02    0.35893E-08   -0.13580E-08  6054   0.925E-04    0.937E-05
RMM:   5    -0.369224759046E+02   -0.68326E-10   -0.10263E-09  5353   0.235E-04    0.437E-05
RMM:   6    -0.369224759043E+02    0.28524E-09   -0.15049E-10  3850   0.102E-04    0.428E-06
WARNING in EDDRMM: call to ZHEGV failed, returncode =   6  3  1
RMM:   7    -0.369224759042E+02    0.16462E-09   -0.90835E-12  3726   0.519E-05    0.217E-06
RMM:   8    -0.369224759042E+02    0.20464E-11   -0.12435E-11  3357   0.413E-05
   2 F= -.36922476E+02 E0= -.36922432E+02  d E =0.931245E-06
 BRION: g(F)=  0.992E-05 g(S)=  0.000E+00 retain N=  1 mean eig= 0.20
 eig:   0.199
 bond charge predicted
       N       E                     dE             d eps       ncg     rms          rms(c)
DAV:   1    -0.369224768956E+02   -0.99143E-06   -0.52874E-05  6448   0.685E-02    0.147E-03
RMM:   2    -0.369224769208E+02   -0.25181E-07   -0.83316E-07  5930   0.822E-03    0.104E-03
RMM:   3    -0.369224768980E+02    0.22784E-07   -0.14773E-07  5963   0.310E-03    0.252E-04
RMM:   4    -0.369224768951E+02    0.28297E-08   -0.85138E-09  6058   0.738E-04    0.746E-05
RMM:   5    -0.369224768954E+02   -0.24011E-09   -0.66715E-10  4889   0.189E-04    0.355E-05
RMM:   6    -0.369224768954E+02   -0.12619E-10   -0.98110E-11  3795   0.864E-05
   3 F= -.36922477E+02 E0= -.36922434E+02  d E =-.991248E-06
 BRION: g(F)=  0.200E-10 g(S)=  0.000E+00 retain N=  1 mean eig= 0.20
 eig:   0.199
 bond charge predicted
       N       E                     dE             d eps       ncg     rms          rms(c)
DAV:   1    -0.369224768950E+02    0.35288E-09    0.56821E-09  4932   0.904E-05    0.273E-06
RMM:   2    -0.369224768952E+02   -0.19725E-09    0.81930E-14  3099   0.302E-05    0.169E-06
RMM:   3    -0.369224768953E+02   -0.10698E-09   -0.22482E-12  2908   0.307E-05    0.105E-07
RMM:   4    -0.369224768956E+02   -0.28717E-09   -0.25654E-12  2637   0.279E-05    0.157E-07
RMM:   5    -0.369224768955E+02    0.12255E-09   -0.30335E-12  2302   0.254E-05    0.259E-07
RMM:   6    -0.369224768953E+02    0.23545E-09   -0.50464E-13  2228   0.236E-05    0.204E-07
RMM:   7    -0.369224768955E+02   -0.22658E-09   -0.12861E-12  2095   0.218E-05    0.947E-08
RMM:   8    -0.369224768956E+02   -0.73783E-10    0.31849E-13  1888   0.201E-05
   4 F= -.36922477E+02 E0= -.36922434E+02  d E =-.168257E-09
 BRION: g(F)=  0.294E-10 g(S)=  0.000E+00 retain N=  1 mean eig= 0.09
 eig:   0.090
 bond charge predicted
       N       E                     dE             d eps       ncg     rms          rms(c)
DAV:   1    -0.369224768948E+02    0.71282E-09    0.57379E-09  4304   0.512E-05    0.605E-07
RMM:   2    -0.369224768957E+02   -0.96156E-09   -0.41378E-13  1512   0.144E-05    0.373E-07
RMM:   3    -0.369224768955E+02    0.20691E-09    0.72304E-13  1446   0.143E-05    0.107E-08
RMM:   4    -0.369224768957E+02   -0.18781E-09   -0.44103E-13  1404   0.143E-05    0.106E-08
RMM:   5    -0.369224768956E+02    0.10982E-09   -0.42744E-13  1229   0.140E-05    0.941E-09
RMM:   6    -0.369224768955E+02    0.14893E-09   -0.15991E-13  1265   0.141E-05    0.809E-09
RMM:   7    -0.369224768952E+02    0.22669E-09    0.74837E-14  1232   0.140E-05    0.877E-09
RMM:   8    -0.369224768956E+02   -0.40518E-09   -0.46136E-14  1351   0.138E-05    0.915E-09
RMM:   9    -0.369224768953E+02    0.37983E-09   -0.22402E-13  1134   0.138E-05    0.847E-09
RMM:  10    -0.369224768954E+02   -0.12551E-09    0.33290E-13  1059   0.138E-05    0.615E-09
RMM:  11    -0.369224768957E+02   -0.26034E-09    0.48973E-14  1217   0.137E-05    0.121E-08
RMM:  12    -0.369224768953E+02    0.37926E-09   -0.43093E-14   921   0.136E-05    0.117E-08
RMM:  13    -0.369224768955E+02   -0.25568E-09    0.80265E-14  1102   0.136E-05    0.137E-08
RMM:  14    -0.369224768953E+02    0.20066E-09    0.45725E-14   934   0.136E-05    0.128E-08
RMM:  15    -0.369224768957E+02   -0.40188E-09    0.33553E-14   542   0.136E-05    0.150E-08
RMM:  16    -0.369224768954E+02    0.35732E-09    0.10487E-13   980   0.136E-05    0.133E-08
RMM:  17    -0.369224768957E+02   -0.32117E-09   -0.60034E-15   994   0.135E-05    0.137E-08
RMM:  18    -0.369224768952E+02    0.47180E-09   -0.51852E-14  1008   0.135E-05    0.134E-08
RMM:  19    -0.369224768954E+02   -0.21930E-09   -0.10374E-13  1062   0.135E-05    0.136E-08
RMM:  20    -0.369224768957E+02   -0.24727E-09   -0.30469E-14   631   0.135E-05    0.134E-08
RMM:  21    -0.369224768953E+02    0.42905E-09   -0.44409E-14   605   0.135E-05    0.139E-08
RMM:  22    -0.369224768957E+02   -0.40666E-09   -0.76729E-14   847   0.135E-05    0.140E-08
RMM:  23    -0.369224768954E+02    0.23635E-09    0.60034E-15   851   0.135E-05    0.137E-08
RMM:  24    -0.369224768955E+02   -0.23988E-10   -0.17517E-14   644   0.135E-05
   5 F= -.36922477E+02 E0= -.36922434E+02  d E =0.116870E-09
 BRION: g(F)=  0.627E-12 g(S)=  0.000E+00 retain N=  1 mean eig= 0.11
 eig:   0.105
 bond charge predicted
       N       E                     dE             d eps       ncg     rms          rms(c)
DAV:   1    -0.369224768951E+02    0.30491E-09    0.57664E-09  3904   0.187E-05    0.457E-07
RMM:   2    -0.369224768956E+02   -0.47407E-09   -0.12295E-14   598   0.608E-06    0.281E-07
RMM:   3    -0.369224768954E+02    0.20054E-09    0.17106E-14   399   0.601E-06    0.508E-09
RMM:   4    -0.369224768956E+02   -0.21555E-09    0.22369E-14   495   0.601E-06    0.201E-09
RMM:   5    -0.369224768954E+02    0.17008E-09   -0.22287E-14   435   0.601E-06    0.389E-10
RMM:   6    -0.369224768953E+02    0.14165E-09   -0.11349E-14   435   0.601E-06    0.454E-10
RMM:   7    -0.369224768954E+02   -0.67757E-10    0.44409E-15   463   0.601E-06
   6 F= -.36922477E+02 E0= -.36922434E+02  d E =0.837872E-10
 BRION: g(F)=  0.294E-12 g(S)=  0.000E+00 retain N=  1 mean eig= 0.33
 eig:   0.334
 bond charge predicted
       N       E                     dE             d eps       ncg     rms          rms(c)
DAV:   1    -0.369224768950E+02    0.34947E-09    0.57614E-09  3300   0.225E-05    0.416E-07
RMM:   2    -0.369224768957E+02   -0.76716E-09    0.00000E+00   304   0.670E-06    0.257E-07
RMM:   3    -0.369224768955E+02    0.22783E-09    0.00000E+00   386   0.661E-06    0.495E-09
RMM:   4    -0.369224768956E+02   -0.15791E-09    0.00000E+00   442   0.661E-06    0.193E-09
RMM:   5    -0.369224768956E+02    0.76511E-10    0.00000E+00   252   0.661E-06
   7 F= -.36922477E+02 E0= -.36922434E+02  d E =-.203499E-09
 BRION: g(F)=  0.467E-13 g(S)=  0.000E+00 retain N=  1 mean eig= 0.24
 eig:   0.239
 reached required accuracy - stopping structural energy minimisation
