    4    4  400    1
  0.5270948E+02  0.4269210E-09  0.2480130E-09  0.1991254E-08  0.5000000E-15
  1.000000000000000E-004
  CAR 
 gr                                      
     16    247     12
 
  0.0000000E+00  0.0000000E+00  0.0000000E+00  0.1157407E-02
    1      -22.217468
    2      -16.953268
    3      -15.949594
    4      -10.330995
    5       -9.229620
    6       -5.833452
    7       -5.773637
    8       -5.066487
    9       -1.087429
   10        0.528161
   11        1.328654
   12        1.713726
 
  0.4166667E-01  0.0000000E+00  0.0000000E+00  0.2314815E-02
    1      -22.207191
    2      -17.124281
    3      -15.763366
    4      -10.318734
    5       -9.219383
    6       -5.856273
    7       -5.815853
    8       -5.133739
    9       -1.004428
   10        0.542098
   11        1.342765
   12        1.728009
 
  0.8333333E-01  0.0000000E+00  0.0000000E+00  0.2314815E-02
    1      -22.176365
    2      -17.467598
    3      -15.374488
    4      -10.281972
    5       -9.188725
    6       -5.940805
    7       -5.923463
    8       -5.320092
    9       -0.771002
   10        0.583911
   11        1.385093
   12        1.770857
 
  0.1250000E+00  0.0000000E+00  0.0000000E+00  0.2314815E-02
    1      -22.125011
    2      -17.847706
    3      -14.918739
    4      -10.220765
    5       -9.137797
    6       -6.143691
    7       -6.031414
    8       -5.591464
    9       -0.421753
   10        0.653601
   11        1.455627
   12        1.842273
 
  0.1666667E+00  0.0000000E+00  0.0000000E+00  0.2314815E-02
    1      -22.053162
    2      -18.229199
    3      -14.431975
    4      -10.135211
    5       -9.066861
    6       -6.417321
    7       -6.174767
    8       -5.914361
    9        0.008949
   10        0.751170
   11        1.554345
   12        1.942255
 
  0.2083333E+00  0.0000000E+00  0.0000000E+00  0.2314815E-02
    1      -21.960866
    2      -18.601381
    3      -13.925540
    4      -10.025450
    5       -8.976294
    6       -6.753073
    7       -6.347137
    8       -6.264059
    9        0.495125
   10        0.876613
   11        1.681214
   12        2.070805
 
  0.2500000E+00  0.0000000E+00  0.0000000E+00  0.2314815E-02
    1      -21.848188
    2      -18.959970
    3      -13.404575
    4       -9.891672
    5       -8.866600
    6       -7.141780
    7       -6.624191
    8       -6.541810
    9        1.018746
   10        1.029916
   11        1.836185
   12        2.227921
 
  0.2916667E+00  0.0000000E+00  0.0000000E+00  0.2314815E-02
    1      -21.715207
    2      -19.302840
    3      -12.872297
    4       -9.734120
    5       -8.738429
    6       -7.574424
    7       -6.984184
    8       -6.752270
    9        1.211052
   10        1.567091
   11        2.019184
   12        2.413601
 
  0.3333333E+00  0.0000000E+00  0.0000000E+00  0.2314815E-02
    1      -21.562020
    2      -19.628760
    3      -12.331300
    4       -9.553105
    5       -8.592598
    6       -8.042588
    7       -7.337122
    8       -6.972534
    9        1.419982
   10        2.130411
   11        2.230093
   12        2.627838
 
  0.3750000E+00  0.0000000E+00  0.0000000E+00  0.2314815E-02
    1      -21.388743
    2      -19.936928
    3      -11.784049
    4       -9.349013
    5       -8.538685
    6       -8.430114
    7       -7.678351
    8       -7.197314
    9        1.656653
   10        2.468706
   11        2.699727
   12        2.870623
 
  0.4166667E+00  0.0000000E+00  0.0000000E+00  0.2314815E-02
    1      -21.195509
    2      -20.226771
    3      -11.233126
    4       -9.122331
    5       -9.056031
    6       -8.252219
    7       -8.004646
    8       -7.422050
    9        1.920988
   10        2.734606
   11        3.141938
   12        3.251894
 
  0.4583333E+00  0.0000000E+00  0.0000000E+00  0.2314815E-02
    1      -20.982481
    2      -20.497859
    3      -10.681379
    4       -9.588819
    5       -8.873668
    6       -8.313693
    7       -8.060424
    8       -7.642880
    9        2.212885
   10        2.878676
   11        3.026704
   12        3.441751
 
  0.5000000E+00  0.0000000E+00  0.0000000E+00  0.1157407E-02
    1      -20.749855
    2      -20.749855
    3      -10.132038
    4      -10.132038
    5       -8.603794
    6       -8.603794
    7       -7.856568
    8       -7.856568
    9        2.532194
   10        2.532194
   11        3.340534
   12        3.340534
 
  0.0000000E+00  0.2777778E-01  0.0000000E+00  0.2314815E-02
    1      -22.203943
    2      -16.941650
    3      -15.938252
    4      -10.314860
    5       -9.290475
    6       -5.889527
    7       -5.804290
    8       -5.050046
    9       -1.091853
   10        0.546496
   11        1.347235
   12        1.732533
 
  0.4166667E-01  0.2777778E-01  0.0000000E+00  0.4629630E-02
    1      -22.193667
    2      -17.112503
    3      -15.752238
    4      -10.302604
    5       -9.280220
    6       -5.920168
    7       -5.837999
    8       -5.117450
    9       -1.008821
   10        0.560433
   11        1.361344
   12        1.746816
 
  0.8333333E-01  0.2777778E-01  0.0000000E+00  0.4629630E-02
    1      -22.162846
    2      -17.455572
    3      -15.363770
    4      -10.265854
    5       -9.249501
    6       -6.021102
    7       -5.927267
    8       -5.304149
    9       -0.775415
   10        0.602248
   11        1.403670
   12        1.789665
 
  0.1250000E+00  0.2777778E-01  0.0000000E+00  0.4629630E-02
    1      -22.111499
    2      -17.835457
    3      -14.908520
    4      -10.204669
    5       -9.198470
    6       -6.205818
    7       -6.050524
    8       -5.575875
    9       -0.426422
   10        0.671942
   11        1.474199
   12        1.861081
 
  0.1666667E+00  0.2777778E-01  0.0000000E+00  0.4629630E-02
    1      -22.039660
    2      -18.216758
    3      -14.422347
    4      -10.119144
    5       -9.127379
    6       -6.467343
    7       -6.202594
    8       -5.899029
    9        0.003680
   10        0.769518
   11        1.572911
   12        1.961065
 
  0.2083333E+00  0.2777778E-01  0.0000000E+00  0.4629630E-02
    1      -21.947379
    2      -18.588776
    3      -13.916614
    4      -10.009422
    5       -9.036596
    6       -6.793425
    7       -6.381092
    8       -6.248874
    9        0.488900
   10        0.894970
   11        1.699773
   12        2.089616
 
  0.2500000E+00  0.2777778E-01  0.0000000E+00  0.4629630E-02
    1      -21.834718
    2      -18.947224
    3      -13.396486
    4       -9.875691
    5       -8.926612
    6       -7.173788
    7       -6.609062
    8       -6.580690
    9        1.011234
   10        1.048284
   11        1.854735
   12        2.246735
 
  0.2916667E+00  0.2777778E-01  0.0000000E+00  0.4629630E-02
    1      -21.701759
    2      -19.289973
    3      -12.865210
    4       -9.718194
    5       -8.798058
    6       -7.599174
    7       -6.969049
    8       -6.795281
    9        1.229432
   10        1.558006
   11        2.037725
   12        2.432418
 
  0.3333333E+00  0.2777778E-01  0.0000000E+00  0.4629630E-02
    1      -21.548598
    2      -19.615789
    3      -12.325415
    4       -9.537243
    5       -8.651730
    6       -8.061093
    7       -7.321938
    8       -7.019027
    9        1.438376
   10        2.119543
   11        2.248627
   12        2.646659
 
  0.3750000E+00  0.2777778E-01  0.0000000E+00  0.4629630E-02
    1      -21.375351
    2      -19.923867
    3      -11.779610
    4       -9.333223
    5       -8.551888
    6       -8.488609
    7       -7.663094
    8       -7.246717
    9        1.675062
   10        2.487238
   11        2.687067
   12        2.889450
 
  0.4166667E+00  0.2777778E-01  0.0000000E+00  0.4629630E-02
    1      -21.182154
    2      -20.213633
    3      -11.230431
    4       -9.106621
    5       -9.064782
    6       -8.309903
    7       -7.989300
    8       -7.473861
    9        1.939416
   10        2.753148
   11        3.160773
   12        3.246859
 
  0.4583333E+00  0.2777778E-01  0.0000000E+00  0.4629630E-02
    1      -20.969169
    2      -20.484655
    3      -10.680792
    4       -9.593859
    5       -8.858044
    6       -8.298254
    7       -8.117085
    8       -7.696661
    9        2.231337
   10        2.897224
   11        3.045279
   12        3.460600
 
  0.5000000E+00  0.2777778E-01  0.0000000E+00  0.2314815E-02
    1      -20.736593
    2      -20.736593
    3      -10.133999
    4      -10.133999
    5       -8.588261
    6       -8.588261
    7       -7.911946
    8       -7.911946
    9        2.550681
   10        2.550681
   11        3.359097
   12        3.359097
 
  0.0000000E+00  0.5555556E-01  0.0000000E+00  0.2314815E-02
    1      -22.163378
    2      -16.906801
    3      -15.904391
    4      -10.266488
    5       -9.468146
    6       -6.053315
    7       -5.895449
    8       -5.000743
    9       -1.105949
   10        0.601504
   11        1.402969
   12        1.788954
 
  0.4166667E-01  0.5555556E-01  0.0000000E+00  0.4629630E-02
    1      -22.153106
    2      -17.077185
    3      -15.719009
    4      -10.254245
    5       -9.457826
    6       -6.091020
    7       -5.920085
    8       -5.068617
    9       -1.022819
   10        0.615443
   11        1.417076
   12        1.803238
 
  0.8333333E-01  0.5555556E-01  0.0000000E+00  0.4629630E-02
    1      -22.122298
    2      -17.419515
    3      -15.331779
    4      -10.217534
    5       -9.426913
    6       -6.201601
    7       -5.994029
    8       -5.256383
    9       -0.789459
   10        0.657262
   11        1.459393
   12        1.846087
 
  0.1250000E+00  0.5555556E-01  0.0000000E+00  0.4629630E-02
    1      -22.070973
    2      -17.798733
    3      -14.878047
    4      -10.156413
    5       -9.375541
    6       -6.380235
    7       -6.114926
    8       -5.529190
    9       -0.441245
   10        0.726966
   11        1.529908
   12        1.917505
 
  0.1666667E+00  0.5555556E-01  0.0000000E+00  0.4629630E-02
    1      -21.999166
    2      -18.179459
    3      -14.393684
    4      -10.070980
    5       -9.303942
    6       -6.622550
    7       -6.276171
    8       -5.853130
    9       -0.012970
   10        0.824557
   11        1.628600
   12        2.017493
 
  0.2083333E+00  0.5555556E-01  0.0000000E+00  0.4629630E-02
    1      -21.906927
    2      -18.550984
    3      -13.890112
    4       -9.961375
    5       -9.212452
    6       -6.924109
    7       -6.468658
    8       -6.203419
    9        0.469332
   10        0.950031
   11        1.755437
   12        2.146049
 
  0.2500000E+00  0.5555556E-01  0.0000000E+00  0.4629630E-02
    1      -21.794319
    2      -18.909008
    3      -13.372570
    4       -9.827786
    5       -9.101515
    6       -7.279336
    7       -6.683184
    8       -6.563777
    9        0.987736
   10        1.103371
   11        1.910372
   12        2.303174
 
  0.2916667E+00  0.5555556E-01  0.0000000E+00  0.4629630E-02
    1      -21.661427
    2      -19.251392
    3      -12.844402
    4       -9.670459
    5       -8.971707
    6       -7.681407
    7       -6.923737
    8       -6.911712
    9        1.284551
   10        1.529701
   11        2.093334
   12        2.488866
 
  0.3333333E+00  0.5555556E-01  0.0000000E+00  0.4629630E-02
    1      -21.508344
    2      -19.576894
    3      -12.308352
    4       -9.489702
    5       -8.823745
    6       -8.122849
    7       -7.276474
    8       -7.147622
    9        1.493530
   10        2.085767
   11        2.304212
   12        2.703118
 
  0.3750000E+00  0.5555556E-01  0.0000000E+00  0.4629630E-02
    1      -21.335190
    2      -19.884701
    3      -11.767078
    4       -9.285902
    5       -8.658520
    6       -8.596213
    7       -7.617402
    8       -7.385533
    9        1.730256
   10        2.542816
   11        2.647676
   12        2.945922
 
  0.4166667E+00  0.5555556E-01  0.0000000E+00  0.4629630E-02
    1      -21.142101
    2      -20.174233
    3      -11.223397
    4       -9.094539
    5       -9.059543
    6       -8.477121
    7       -7.943339
    8       -7.621072
    9        1.994655
   10        2.808756
   11        3.204407
   12        3.217266
 
  0.4583333E+00  0.5555556E-01  0.0000000E+00  0.4629630E-02
    1      -20.929245
    2      -20.445053
    3      -10.680442
    4       -9.611565
    5       -8.811229
    6       -8.280875
    7       -8.252006
    8       -7.850668
    9        2.286634
   10        2.952742
   11        3.100988
   12        3.517126
 
  0.5000000E+00  0.5555556E-01  0.0000000E+00  0.2314815E-02
    1      -20.696818
    2      -20.696818
    3      -10.141790
    4      -10.141790
    5       -8.541725
    6       -8.541725
    7       -8.071402
    8       -8.071402
    9        2.606060
   10        2.606060
   11        3.414764
   12        3.414764
 
  0.0000000E+00  0.8333333E-01  0.0000000E+00  0.2314815E-02
    1      -22.095808
    2      -16.848733
    3      -15.848529
    4      -10.185980
    5       -9.749291
    6       -6.312835
    7       -6.044780
    8       -4.918637
    9       -1.132186
   10        0.693201
   11        1.495837
   12        1.882993
 
  0.4166667E-01  0.8333333E-01  0.0000000E+00  0.4629630E-02
    1      -22.085544
    2      -17.018376
    3      -15.664178
    4      -10.173759
    5       -9.738846
    6       -6.354684
    7       -6.062084
    8       -4.987343
    9       -1.048861
   10        0.707140
   11        1.509938
   12        1.897277
 
  0.8333333E-01  0.8333333E-01  0.0000000E+00  0.4629630E-02
    1      -22.054757
    2      -17.359502
    3      -15.279031
    4      -10.137115
    5       -9.707548
    6       -6.472074
    7       -6.120170
    8       -5.176986
    9       -0.815539
   10        0.748961
   11        1.552239
   12        1.940127
 
  0.1250000E+00  0.8333333E-01  0.0000000E+00  0.4629630E-02
    1      -22.003470
    2      -17.737613
    3      -14.827914
    4      -10.076105
    5       -9.655508
    6       -6.651055
    7       -6.227177
    8       -5.451677
    9       -0.468640
   10        0.818671
   11        1.622728
   12        2.011547
 
  0.1666667E+00  0.8333333E-01  0.0000000E+00  0.4629630E-02
    1      -21.931718
    2      -18.117376
    3      -14.346709
    4       -9.990828
    5       -9.582912
    6       -6.881800
    7       -6.383729
    8       -5.776967
    9       -0.043502
   10        0.916275
   11        1.721383
   12        2.111537
 
  0.2083333E+00  0.8333333E-01  0.0000000E+00  0.4629630E-02
    1      -21.839549
    2      -18.488072
    3      -13.846939
    4       -9.881423
    5       -9.490027
    6       -7.159025
    7       -6.583306
    8       -6.128009
    9        0.433778
   10        1.041769
   11        1.848175
   12        2.240099
 
  0.2500000E+00  0.8333333E-01  0.0000000E+00  0.4629630E-02
    1      -21.727032
    2      -18.845382
    3      -13.333990
    4       -9.748081
    5       -9.377210
    6       -7.480325
    7       -6.814894
    8       -6.488640
    9        0.945420
   10        1.195139
   11        2.003057
   12        2.397233
 
  0.2916667E+00  0.8333333E-01  0.0000000E+00  0.4629630E-02
    1      -21.594248
    2      -19.187153
    3      -12.811389
    4       -9.591044
    5       -9.244909
    6       -7.844207
    7       -7.066005
    8       -6.848540
    9        1.376355
   10        1.479105
   11        2.185963
   12        2.582935
 
  0.3333333E+00  0.8333333E-01  0.0000000E+00  0.4629630E-02
    1      -21.441297
    2      -19.512126
    3      -12.282120
    4       -9.410622
    5       -9.093683
    6       -8.248192
    7       -7.325455
    8       -7.201001
    9        1.585376
   10        2.025689
   11        2.396792
   12        2.797201
 
  0.3750000E+00  0.8333333E-01  0.0000000E+00  0.4629630E-02
    1      -21.268297
    2      -19.819478
    3      -11.749143
    4       -9.207200
    5       -8.924208
    6       -8.687948
    7       -7.584861
    8       -7.541525
    9        1.822148
   10        2.577571
   11        2.635373
   12        3.040023
 
  0.4166667E+00  0.8333333E-01  0.0000000E+00  0.4629630E-02
    1      -21.075391
    2      -20.108619
    3      -11.215655
    4       -9.157698
    5       -8.981259
    6       -8.737303
    7       -7.866990
    8       -7.838585
    9        2.086597
   10        2.901358
   11        3.126523
   12        3.311391
 
  0.4583333E+00  0.8333333E-01  0.0000000E+00  0.4629630E-02
    1      -20.862750
    2      -20.379100
    3      -10.685273
    4       -9.651133
    5       -8.733399
    6       -8.533949
    7       -8.175158
    8       -8.082923
    9        2.378634
   10        3.044952
   11        3.193782
   12        3.611292
 
  0.5000000E+00  0.8333333E-01  0.0000000E+00  0.2314815E-02
    1      -20.630573
    2      -20.630573
    3      -10.162160
    4      -10.162160
    5       -8.464377
    6       -8.464377
    7       -8.315334
    8       -8.315334
    9        2.698141
   10        2.698141
   11        3.507450
   12        3.507450
 
  0.0000000E+00  0.1111111E+00  0.0000000E+00  0.2314815E-02
    1      -22.001297
    2      -16.767464
    3      -15.771652
    4      -10.115281
    5      -10.073507
    6       -6.651681
    7       -6.248567
    8       -4.803831
    9       -1.174626
   10        0.821604
   11        1.625799
   12        2.014654
 
  0.4166667E-01  0.1111111E+00  0.0000000E+00  0.4629630E-02
    1      -21.991043
    2      -16.936162
    3      -15.588690
    4      -10.104618
    5      -10.061318
    6       -6.696579
    7       -6.258680
    8       -4.873816
    9       -1.090954
   10        0.835540
   11        1.639892
   12        2.028937
 
  0.8333333E-01  0.1111111E+00  0.0000000E+00  0.4629630E-02
    1      -21.960288
    2      -17.275667
    3      -15.206522
    4      -10.072649
    5      -10.024772
    6       -6.819972
    7       -6.298931
    8       -5.066314
    9       -0.857574
   10        0.877355
   11        1.682167
   12        2.071787
 
  0.1250000E+00  0.1111111E+00  0.0000000E+00  0.4629630E-02
    1      -21.909054
    2      -17.652234
    3      -14.759277
    4      -10.019436
    5       -9.963924
    6       -7.002239
    7       -6.384743
    8       -5.343822
    9       -0.512525
   10        0.947057
   11        1.752612
   12        2.143206
 
  0.1666667E+00  0.1111111E+00  0.0000000E+00  0.4629630E-02
    1      -21.837376
    2      -18.030639
    3      -14.282843
    4       -9.945084
    5       -9.878874
    6       -7.229007
    7       -6.523480
    8       -5.671093
    9       -0.091946
   10        1.044656
   11        1.851207
   12        2.243197
 
  0.2083333E+00  0.1111111E+00  0.0000000E+00  0.4629630E-02
    1      -21.745308
    2      -18.400158
    3      -13.788909
    4       -9.849732
    5       -9.769763
    6       -7.491729
    7       -6.714118
    8       -6.023208
    9        0.378005
   10        1.170155
   11        1.977922
   12        2.371762
 
  0.2500000E+00  0.1111111E+00  0.0000000E+00  0.4629630E-02
    1      -21.632917
    2      -18.756455
    3      -13.283113
    4       -9.733553
    5       -9.636779
    6       -7.786106
    7       -6.949397
    8       -6.384200
    9        0.879788
   10        1.323539
   11        2.132713
   12        2.528902
 
  0.2916667E+00  0.1111111E+00  0.0000000E+00  0.4629630E-02
    1      -21.500286
    2      -19.097354
    3      -12.769326
    4       -9.596749
    5       -9.480168
    6       -8.111097
    7       -7.217653
    8       -6.743972
    9        1.401405
   10        1.504780
   11        2.315519
   12        2.714614
 
  0.3333333E+00  0.1111111E+00  0.0000000E+00  0.4629630E-02
    1      -21.347519
    2      -19.421578
    3      -12.250983
    4       -9.439533
    5       -9.300238
    6       -8.467803
    7       -7.504822
    8       -7.095996
    9        1.713831
   10        1.934103
   11        2.526252
   12        2.928893
 
  0.3750000E+00  0.1111111E+00  0.0000000E+00  0.4629630E-02
    1      -21.174739
    2      -19.728283
    3      -11.731634
    4       -9.262126
    5       -9.097371
    6       -8.857660
    7       -7.796997
    8       -7.435902
    9        1.950634
   10        2.470927
   11        2.764770
   12        3.171733
 
  0.4166667E+00  0.1111111E+00  0.0000000E+00  0.4629630E-02
    1      -20.982091
    2      -20.016868
    3      -11.215245
    4       -9.280394
    5       -9.064739
    6       -8.872046
    7       -8.082987
    8       -7.760654
    9        2.215115
   10        3.005569
   11        3.030797
   12        3.443123
 
  0.4583333E+00  0.1111111E+00  0.0000000E+00  0.4629630E-02
    1      -20.769753
    2      -20.286871
    3      -10.706390
    4       -9.733007
    5       -8.847589
    6       -8.624856
    7       -8.355568
    8       -8.068075
    9        2.507184
   10        3.173597
   11        3.323539
   12        3.527742
 
  0.5000000E+00  0.1111111E+00  0.0000000E+00  0.2314815E-02
    1      -20.537930
    2      -20.537930
    3      -10.210348
    4      -10.210348
    5       -8.610981
    6       -8.610981
    7       -8.356550
    8       -8.356550
    9        2.826727
   10        2.826727
   11        3.636775
   12        3.636775
 
  0.0000000E+00  0.1388889E+00  0.0000000E+00  0.2314815E-02
    1      -21.879932
    2      -16.663025
    3      -15.675430
    4      -10.545490
    5       -9.929315
    6       -7.052326
    7       -6.501971
    8       -4.656470
    9       -1.238796
   10        0.986723
   11        1.792801
   12        2.183940
 
  0.4166667E-01  0.1388889E+00  0.0000000E+00  0.4629630E-02
    1      -21.869692
    2      -16.830685
    3      -15.494166
    4      -10.534456
    5       -9.917170
    6       -7.099954
    7       -6.504519
    8       -4.728328
    9       -1.154508
   10        1.000652
   11        1.806880
   12        2.198222
 
  0.8333333E-01  0.1388889E+00  0.0000000E+00  0.4629630E-02
    1      -21.838977
    2      -17.168220
    3      -15.115981
    4      -10.501346
    5       -9.880755
    6       -7.229288
    7       -6.524922
    8       -4.924941
    9       -0.920785
   10        1.042445
   11        1.849114
   12        2.241068
 
  0.1250000E+00  0.1388889E+00  0.0000000E+00  0.4629630E-02
    1      -21.787811
    2      -17.542814
    3      -14.674189
    4      -10.446130
    5       -9.820129
    6       -7.416528
    7       -6.584443
    8       -5.206410
    9       -0.578058
   10        1.112117
   11        1.919489
   12        2.312483
 
  0.1666667E+00  0.1388889E+00  0.0000000E+00  0.4629630E-02
    1      -21.716233
    2      -17.919450
    3      -14.204671
    4      -10.368747
    5       -9.735388
    6       -7.643976
    7       -6.696130
    8       -5.536384
    9       -0.163557
   10        1.209685
   11        2.017986
   12        2.412470
 
  0.2083333E+00  0.1388889E+00  0.0000000E+00  0.4629630E-02
    1      -21.624294
    2      -18.287426
    3      -13.719399
    4      -10.269084
    5       -9.626676
    6       -7.900632
    7       -6.863955
    8       -5.889904
    9        0.296556
   10        1.335157
   11        2.144573
   12        2.541034
 
  0.2500000E+00  0.1388889E+00  0.0000000E+00  0.4629630E-02
    1      -21.512065
    2      -18.642392
    3      -13.224473
    4      -10.146940
    5       -9.494184
    6       -8.179969
    7       -7.085158
    8       -6.251309
    9        0.785127
   10        1.488525
   11        2.299207
   12        2.698175
 
  0.2916667E+00  0.1388889E+00  0.0000000E+00  0.4629630E-02
    1      -21.379634
    2      -18.982145
    3      -12.724417
    4      -10.001985
    5       -9.338155
    6       -8.478763
    7       -7.351946
    8       -6.610831
    9        1.290621
   10        1.669760
   11        2.481830
   12        2.883893
 
  0.3333333E+00  0.1388889E+00  0.0000000E+00  0.4629630E-02
    1      -21.227105
    2      -19.305383
    3      -12.223556
    4       -9.833693
    5       -9.158897
    6       -8.796672
    7       -7.652731
    8       -6.962191
    9        1.804782
   10        1.878813
   11        2.692365
   12        3.098182
 
  0.3750000E+00  0.1388889E+00  0.0000000E+00  0.4629630E-02
    1      -21.054609
    2      -19.611241
    3      -11.726614
    4       -9.641290
    5       -9.135909
    6       -8.956793
    7       -7.973285
    8       -7.301197
    9        2.115620
   10        2.321250
   11        2.930703
   12        3.341035
 
  0.4166667E+00  0.1388889E+00  0.0000000E+00  0.4629630E-02
    1      -20.862299
    2      -19.899096
    3      -11.239017
    4       -9.500345
    5       -9.423745
    6       -8.732316
    7       -8.298314
    8       -7.624935
    9        2.380099
   10        2.834776
   11        3.196674
   12        3.612443
 
  0.4583333E+00  0.1388889E+00  0.0000000E+00  0.4629630E-02
    1      -20.650356
    2      -20.168474
    3      -10.766904
    4       -9.893582
    5       -9.179968
    6       -8.613792
    7       -8.486053
    8       -7.931303
    9        2.672155
   10        3.338504
   11        3.340572
   12        3.489853
 
  0.5000000E+00  0.1388889E+00  0.0000000E+00  0.2314815E-02
    1      -20.418995
    2      -20.418995
    3      -10.316642
    4      -10.316642
    5       -8.909474
    6       -8.909474
    7       -8.218740
    8       -8.218740
    9        2.991672
   10        2.991672
   11        3.790967
   12        3.790967
 
  0.0000000E+00  0.1666667E+00  0.0000000E+00  0.2314815E-02
    1      -21.731833
    2      -16.535456
    3      -15.562681
    4      -11.019341
    5       -9.753732
    6       -7.498431
    7       -6.799324
    8       -4.476746
    9       -1.331364
   10        1.188554
   11        1.996761
   12        2.390854
 
  0.4166667E-01  0.1666667E+00  0.0000000E+00  0.4629630E-02
    1      -21.721609
    2      -16.702160
    3      -15.383360
    4      -11.007671
    5       -9.741645
    6       -7.548752
    7       -6.793922
    8       -4.551328
    9       -1.245963
   10        1.202470
   11        2.010818
   12        2.405134
 
  0.8333333E-01  0.1666667E+00  0.0000000E+00  0.4629630E-02
    1      -21.690945
    2      -17.037487
    3      -15.010416
    4      -10.972594
    5       -9.705404
    6       -7.684228
    7       -6.792954
    8       -4.753782
    9       -1.011226
   10        1.244227
   11        2.052986
   12        2.447974
 
  0.1250000E+00  0.1666667E+00  0.0000000E+00  0.4629630E-02
    1      -21.639865
    2      -17.409683
    3      -14.576317
    4      -10.913889
    5       -9.645067
    6       -7.877528
    7       -6.822747
    8       -5.040673
    9       -0.671093
   10        1.313842
   11        2.123249
   12        2.519380
 
  0.1666667E+00  0.1666667E+00  0.0000000E+00  0.4629630E-02
    1      -21.568407
    2      -17.784112
    3      -14.116956
    4      -10.831151
    5       -9.560733
    6       -8.108346
    7       -6.901245
    8       -5.374191
    9       -0.264200
   10        1.411341
   11        2.221582
   12        2.619356
 
  0.2083333E+00  0.1666667E+00  0.0000000E+00  0.4629630E-02
    1      -21.476627
    2      -18.150146
    3      -13.644844
    4      -10.723720
    5       -9.452548
    6       -8.364044
    7       -7.036703
    8       -5.729435
    9        0.183443
   10        1.536742
   11        2.347949
   12        2.747909
 
  0.2500000E+00  0.1666667E+00  0.0000000E+00  0.4629630E-02
    1      -21.364599
    2      -18.503430
    3      -13.166999
    4      -10.590581
    5       -9.320702
    6       -8.636742
    7       -7.230259
    8       -6.091234
    9        0.655321
   10        1.690046
   11        2.502297
   12        2.905043
 
  0.2916667E+00  0.1666667E+00  0.0000000E+00  0.4629630E-02
    1      -21.232412
    2      -18.841738
    3      -12.689261
    4      -10.430238
    5       -9.165441
    6       -8.921641
    7       -7.477769
    8       -6.450280
    9        1.140597
   10        1.871229
   11        2.684557
   12        3.090758
 
  0.3333333E+00  0.1666667E+00  0.0000000E+00  0.4629630E-02
    1      -21.080180
    2      -19.163734
    3      -12.217705
    4      -10.240607
    5       -9.216358
    6       -8.987075
    7       -7.771089
    8       -6.800644
    9        1.631678
   10        2.080243
   11        2.894637
   12        3.305051
 
  0.3750000E+00  0.1666667E+00  0.0000000E+00  0.4629630E-02
    1      -20.908037
    2      -19.468527
    3      -11.759106
    4      -10.019096
    5       -9.520781
    6       -8.785983
    7       -8.099058
    8       -7.138368
    9        2.122868
   10        2.317013
   11        3.132407
   12        3.547913
 
  0.4166667E+00  0.1666667E+00  0.0000000E+00  0.4629630E-02
    1      -20.716146
    2      -19.755468
    3      -11.320619
    4       -9.837169
    5       -9.763222
    6       -8.562637
    7       -8.448216
    8       -7.460692
    9        2.581449
   10        2.609626
   11        3.397660
   12        3.819334
 
  0.4583333E+00  0.1666667E+00  0.0000000E+00  0.4629630E-02
    1      -20.504695
    2      -20.024062
    3      -10.908406
    4      -10.170069
    5       -9.472198
    6       -8.803467
    7       -8.317617
    8       -7.765616
    9        2.873441
   10        3.088097
   11        3.539563
   12        3.689580
 
  0.5000000E+00  0.1666667E+00  0.0000000E+00  0.2314815E-02
    1      -20.273912
    2      -20.273912
    3      -10.525431
    4      -10.525431
    5       -9.149312
    6       -9.149312
    7       -8.051641
    8       -8.051641
    9        3.192864
   10        3.192864
   11        3.554542
   12        3.554542
 