<?xml version="1.0" encoding="ISO-8859-1"?>
<modeling>
 <generator>
  <i name="program" type="string">vasp </i>
  <i name="version" type="string">5.3.5  </i>
  <i name="subversion" type="string">31Mar14 (build Mar 02 2015 18:14:16) complex                          parallel </i>
  <i name="platform" type="string">LinuxIFC </i>
  <i name="date" type="string">2018 08 09 </i>
  <i name="time" type="string">18:55:56 </i>
 </generator>
 <incar>
  <i type="string" name="SYSTEM">  gr</i>
  <i type="string" name="PREC">accurate : accuracy</i>
  <i type="string" name="ALGO"> FAST.</i>
  <i type="int" name="NELM">   100</i>
  <i type="int" name="NELMDL">    -3</i>
  <i type="int" name="NELMIN">     5</i>
  <i type="int" name="IBRION">     1</i>
  <i name="EDIFF">      0.00000000</i>
  <i name="EDIFFG">     -0.00000100</i>
  <i type="int" name="NSW">   400</i>
  <i type="int" name="ISIF">     2</i>
  <i name="ENCUT">   2000.00000000</i>
  <i type="int" name="ISMEAR">     0</i>
  <i name="SIGMA">      0.05000000</i>
  <i type="int" name="NWRITE">     2</i>
  <i type="logical" name="LWAVE"> F  </i>
  <i type="logical" name="LCHARG"> F  </i>
  <i type="int" name="NELM">   100</i>
 </incar>
 <kpoints>
  <generation param="Gamma">
   <v type="int" name="divisions">      24       36        1 </v>
   <v name="usershift">      0.00000000       0.00000000       0.00000000 </v>
   <v name="genvec1">      0.04166667       0.00000000       0.00000000 </v>
   <v name="genvec2">      0.00000000       0.02777778       0.00000000 </v>
   <v name="genvec3">      0.00000000       0.00000000       1.00000000 </v>
   <v name="shift">      0.00000000       0.00000000       0.00000000 </v>
  </generation>
  <varray name="kpointlist" >
   <v>       0.00000000       0.00000000       0.00000000 </v>
   <v>       0.04166667       0.00000000       0.00000000 </v>
   <v>       0.08333333       0.00000000       0.00000000 </v>
   <v>       0.12500000       0.00000000       0.00000000 </v>
   <v>       0.16666667       0.00000000       0.00000000 </v>
   <v>       0.20833333       0.00000000       0.00000000 </v>
   <v>       0.25000000       0.00000000       0.00000000 </v>
   <v>       0.29166667       0.00000000       0.00000000 </v>
   <v>       0.33333333       0.00000000       0.00000000 </v>
   <v>       0.37500000       0.00000000       0.00000000 </v>
   <v>       0.41666667       0.00000000       0.00000000 </v>
   <v>       0.45833333       0.00000000       0.00000000 </v>
   <v>       0.50000000       0.00000000       0.00000000 </v>
   <v>       0.00000000       0.02777778       0.00000000 </v>
   <v>       0.04166667       0.02777778       0.00000000 </v>
   <v>       0.08333333       0.02777778       0.00000000 </v>
   <v>       0.12500000       0.02777778       0.00000000 </v>
   <v>       0.16666667       0.02777778       0.00000000 </v>
   <v>       0.20833333       0.02777778       0.00000000 </v>
   <v>       0.25000000       0.02777778       0.00000000 </v>
   <v>       0.29166667       0.02777778       0.00000000 </v>
   <v>       0.33333333       0.02777778       0.00000000 </v>
   <v>       0.37500000       0.02777778       0.00000000 </v>
   <v>       0.41666667       0.02777778       0.00000000 </v>
   <v>       0.45833333       0.02777778       0.00000000 </v>
   <v>       0.50000000       0.02777778       0.00000000 </v>
   <v>       0.00000000       0.05555556       0.00000000 </v>
   <v>       0.04166667       0.05555556       0.00000000 </v>
   <v>       0.08333333       0.05555556       0.00000000 </v>
   <v>       0.12500000       0.05555556       0.00000000 </v>
   <v>       0.16666667       0.05555556       0.00000000 </v>
   <v>       0.20833333       0.05555556       0.00000000 </v>
   <v>       0.25000000       0.05555556       0.00000000 </v>
   <v>       0.29166667       0.05555556       0.00000000 </v>
   <v>       0.33333333       0.05555556       0.00000000 </v>
   <v>       0.37500000       0.05555556       0.00000000 </v>
   <v>       0.41666667       0.05555556       0.00000000 </v>
   <v>       0.45833333       0.05555556       0.00000000 </v>
   <v>       0.50000000       0.05555556       0.00000000 </v>
   <v>       0.00000000       0.08333333       0.00000000 </v>
   <v>       0.04166667       0.08333333       0.00000000 </v>
   <v>       0.08333333       0.08333333       0.00000000 </v>
   <v>       0.12500000       0.08333333       0.00000000 </v>
   <v>       0.16666667       0.08333333       0.00000000 </v>
   <v>       0.20833333       0.08333333       0.00000000 </v>
   <v>       0.25000000       0.08333333       0.00000000 </v>
   <v>       0.29166667       0.08333333       0.00000000 </v>
   <v>       0.33333333       0.08333333       0.00000000 </v>
   <v>       0.37500000       0.08333333       0.00000000 </v>
   <v>       0.41666667       0.08333333       0.00000000 </v>
   <v>       0.45833333       0.08333333       0.00000000 </v>
   <v>       0.50000000       0.08333333       0.00000000 </v>
   <v>       0.00000000       0.11111111       0.00000000 </v>
   <v>       0.04166667       0.11111111       0.00000000 </v>
   <v>       0.08333333       0.11111111       0.00000000 </v>
   <v>       0.12500000       0.11111111       0.00000000 </v>
   <v>       0.16666667       0.11111111       0.00000000 </v>
   <v>       0.20833333       0.11111111       0.00000000 </v>
   <v>       0.25000000       0.11111111       0.00000000 </v>
   <v>       0.29166667       0.11111111       0.00000000 </v>
   <v>       0.33333333       0.11111111       0.00000000 </v>
   <v>       0.37500000       0.11111111       0.00000000 </v>
   <v>       0.41666667       0.11111111       0.00000000 </v>
   <v>       0.45833333       0.11111111       0.00000000 </v>
   <v>       0.50000000       0.11111111       0.00000000 </v>
   <v>       0.00000000       0.13888889       0.00000000 </v>
   <v>       0.04166667       0.13888889       0.00000000 </v>
   <v>       0.08333333       0.13888889       0.00000000 </v>
   <v>       0.12500000       0.13888889       0.00000000 </v>
   <v>       0.16666667       0.13888889       0.00000000 </v>
   <v>       0.20833333       0.13888889       0.00000000 </v>
   <v>       0.25000000       0.13888889       0.00000000 </v>
   <v>       0.29166667       0.13888889       0.00000000 </v>
   <v>       0.33333333       0.13888889       0.00000000 </v>
   <v>       0.37500000       0.13888889       0.00000000 </v>
   <v>       0.41666667       0.13888889       0.00000000 </v>
   <v>       0.45833333       0.13888889       0.00000000 </v>
   <v>       0.50000000       0.13888889       0.00000000 </v>
   <v>       0.00000000       0.16666667       0.00000000 </v>
   <v>       0.04166667       0.16666667       0.00000000 </v>
   <v>       0.08333333       0.16666667       0.00000000 </v>
   <v>       0.12500000       0.16666667       0.00000000 </v>
   <v>       0.16666667       0.16666667       0.00000000 </v>
   <v>       0.20833333       0.16666667       0.00000000 </v>
   <v>       0.25000000       0.16666667       0.00000000 </v>
   <v>       0.29166667       0.16666667       0.00000000 </v>
   <v>       0.33333333       0.16666667       0.00000000 </v>
   <v>       0.37500000       0.16666667       0.00000000 </v>
   <v>       0.41666667       0.16666667       0.00000000 </v>
   <v>       0.45833333       0.16666667       0.00000000 </v>
   <v>       0.50000000       0.16666667       0.00000000 </v>
   <v>       0.00000000       0.19444444       0.00000000 </v>
   <v>       0.04166667       0.19444444       0.00000000 </v>
   <v>       0.08333333       0.19444444       0.00000000 </v>
   <v>       0.12500000       0.19444444       0.00000000 </v>
   <v>       0.16666667       0.19444444       0.00000000 </v>
   <v>       0.20833333       0.19444444       0.00000000 </v>
   <v>       0.25000000       0.19444444       0.00000000 </v>
   <v>       0.29166667       0.19444444       0.00000000 </v>
   <v>       0.33333333       0.19444444       0.00000000 </v>
   <v>       0.37500000       0.19444444       0.00000000 </v>
   <v>       0.41666667       0.19444444       0.00000000 </v>
   <v>       0.45833333       0.19444444       0.00000000 </v>
   <v>       0.50000000       0.19444444       0.00000000 </v>
   <v>       0.00000000       0.22222222       0.00000000 </v>
   <v>       0.04166667       0.22222222       0.00000000 </v>
   <v>       0.08333333       0.22222222       0.00000000 </v>
   <v>       0.12500000       0.22222222       0.00000000 </v>
   <v>       0.16666667       0.22222222       0.00000000 </v>
   <v>       0.20833333       0.22222222       0.00000000 </v>
   <v>       0.25000000       0.22222222       0.00000000 </v>
   <v>       0.29166667       0.22222222       0.00000000 </v>
   <v>       0.33333333       0.22222222       0.00000000 </v>
   <v>       0.37500000       0.22222222       0.00000000 </v>
   <v>       0.41666667       0.22222222       0.00000000 </v>
   <v>       0.45833333       0.22222222       0.00000000 </v>
   <v>       0.50000000       0.22222222       0.00000000 </v>
   <v>       0.00000000       0.25000000       0.00000000 </v>
   <v>       0.04166667       0.25000000       0.00000000 </v>
   <v>       0.08333333       0.25000000       0.00000000 </v>
   <v>       0.12500000       0.25000000       0.00000000 </v>
   <v>       0.16666667       0.25000000       0.00000000 </v>
   <v>       0.20833333       0.25000000       0.00000000 </v>
   <v>       0.25000000       0.25000000       0.00000000 </v>
   <v>       0.29166667       0.25000000       0.00000000 </v>
   <v>       0.33333333       0.25000000       0.00000000 </v>
   <v>       0.37500000       0.25000000       0.00000000 </v>
   <v>       0.41666667       0.25000000       0.00000000 </v>
   <v>       0.45833333       0.25000000       0.00000000 </v>
   <v>       0.50000000       0.25000000       0.00000000 </v>
   <v>       0.00000000       0.27777778       0.00000000 </v>
   <v>       0.04166667       0.27777778       0.00000000 </v>
   <v>       0.08333333       0.27777778       0.00000000 </v>
   <v>       0.12500000       0.27777778       0.00000000 </v>
   <v>       0.16666667       0.27777778       0.00000000 </v>
   <v>       0.20833333       0.27777778       0.00000000 </v>
   <v>       0.25000000       0.27777778       0.00000000 </v>
   <v>       0.29166667       0.27777778       0.00000000 </v>
   <v>       0.33333333       0.27777778       0.00000000 </v>
   <v>       0.37500000       0.27777778       0.00000000 </v>
   <v>       0.41666667       0.27777778       0.00000000 </v>
   <v>       0.45833333       0.27777778       0.00000000 </v>
   <v>       0.50000000       0.27777778       0.00000000 </v>
   <v>       0.00000000       0.30555556       0.00000000 </v>
   <v>       0.04166667       0.30555556       0.00000000 </v>
   <v>       0.08333333       0.30555556       0.00000000 </v>
   <v>       0.12500000       0.30555556       0.00000000 </v>
   <v>       0.16666667       0.30555556       0.00000000 </v>
   <v>       0.20833333       0.30555556       0.00000000 </v>
   <v>       0.25000000       0.30555556       0.00000000 </v>
   <v>       0.29166667       0.30555556       0.00000000 </v>
   <v>       0.33333333       0.30555556       0.00000000 </v>
   <v>       0.37500000       0.30555556       0.00000000 </v>
   <v>       0.41666667       0.30555556       0.00000000 </v>
   <v>       0.45833333       0.30555556       0.00000000 </v>
   <v>       0.50000000       0.30555556       0.00000000 </v>
   <v>       0.00000000       0.33333333       0.00000000 </v>
   <v>       0.04166667       0.33333333       0.00000000 </v>
   <v>       0.08333333       0.33333333       0.00000000 </v>
   <v>       0.12500000       0.33333333       0.00000000 </v>
   <v>       0.16666667       0.33333333       0.00000000 </v>
   <v>       0.20833333       0.33333333       0.00000000 </v>
   <v>       0.25000000       0.33333333       0.00000000 </v>
   <v>       0.29166667       0.33333333       0.00000000 </v>
   <v>       0.33333333       0.33333333       0.00000000 </v>
   <v>       0.37500000       0.33333333       0.00000000 </v>
   <v>       0.41666667       0.33333333       0.00000000 </v>
   <v>       0.45833333       0.33333333       0.00000000 </v>
   <v>       0.50000000       0.33333333       0.00000000 </v>
   <v>       0.00000000       0.36111111       0.00000000 </v>
   <v>       0.04166667       0.36111111       0.00000000 </v>
   <v>       0.08333333       0.36111111       0.00000000 </v>
   <v>       0.12500000       0.36111111       0.00000000 </v>
   <v>       0.16666667       0.36111111       0.00000000 </v>
   <v>       0.20833333       0.36111111       0.00000000 </v>
   <v>       0.25000000       0.36111111       0.00000000 </v>
   <v>       0.29166667       0.36111111       0.00000000 </v>
   <v>       0.33333333       0.36111111       0.00000000 </v>
   <v>       0.37500000       0.36111111       0.00000000 </v>
   <v>       0.41666667       0.36111111       0.00000000 </v>
   <v>       0.45833333       0.36111111       0.00000000 </v>
   <v>       0.50000000       0.36111111       0.00000000 </v>
   <v>       0.00000000       0.38888889       0.00000000 </v>
   <v>       0.04166667       0.38888889       0.00000000 </v>
   <v>       0.08333333       0.38888889       0.00000000 </v>
   <v>       0.12500000       0.38888889       0.00000000 </v>
   <v>       0.16666667       0.38888889       0.00000000 </v>
   <v>       0.20833333       0.38888889       0.00000000 </v>
   <v>       0.25000000       0.38888889       0.00000000 </v>
   <v>       0.29166667       0.38888889       0.00000000 </v>
   <v>       0.33333333       0.38888889       0.00000000 </v>
   <v>       0.37500000       0.38888889       0.00000000 </v>
   <v>       0.41666667       0.38888889       0.00000000 </v>
   <v>       0.45833333       0.38888889       0.00000000 </v>
   <v>       0.50000000       0.38888889       0.00000000 </v>
   <v>       0.00000000       0.41666667       0.00000000 </v>
   <v>       0.04166667       0.41666667       0.00000000 </v>
   <v>       0.08333333       0.41666667       0.00000000 </v>
   <v>       0.12500000       0.41666667       0.00000000 </v>
   <v>       0.16666667       0.41666667       0.00000000 </v>
   <v>       0.20833333       0.41666667       0.00000000 </v>
   <v>       0.25000000       0.41666667       0.00000000 </v>
   <v>       0.29166667       0.41666667       0.00000000 </v>
   <v>       0.33333333       0.41666667       0.00000000 </v>
   <v>       0.37500000       0.41666667       0.00000000 </v>
   <v>       0.41666667       0.41666667       0.00000000 </v>
   <v>       0.45833333       0.41666667       0.00000000 </v>
   <v>       0.50000000       0.41666667       0.00000000 </v>
   <v>       0.00000000       0.44444444       0.00000000 </v>
   <v>       0.04166667       0.44444444       0.00000000 </v>
   <v>       0.08333333       0.44444444       0.00000000 </v>
   <v>       0.12500000       0.44444444       0.00000000 </v>
   <v>       0.16666667       0.44444444       0.00000000 </v>
   <v>       0.20833333       0.44444444       0.00000000 </v>
   <v>       0.25000000       0.44444444       0.00000000 </v>
   <v>       0.29166667       0.44444444       0.00000000 </v>
   <v>       0.33333333       0.44444444       0.00000000 </v>
   <v>       0.37500000       0.44444444       0.00000000 </v>
   <v>       0.41666667       0.44444444       0.00000000 </v>
   <v>       0.45833333       0.44444444       0.00000000 </v>
   <v>       0.50000000       0.44444444       0.00000000 </v>
   <v>       0.00000000       0.47222222       0.00000000 </v>
   <v>       0.04166667       0.47222222       0.00000000 </v>
   <v>       0.08333333       0.47222222       0.00000000 </v>
   <v>       0.12500000       0.47222222       0.00000000 </v>
   <v>       0.16666667       0.47222222       0.00000000 </v>
   <v>       0.20833333       0.47222222       0.00000000 </v>
   <v>       0.25000000       0.47222222       0.00000000 </v>
   <v>       0.29166667       0.47222222       0.00000000 </v>
   <v>       0.33333333       0.47222222       0.00000000 </v>
   <v>       0.37500000       0.47222222       0.00000000 </v>
   <v>       0.41666667       0.47222222       0.00000000 </v>
   <v>       0.45833333       0.47222222       0.00000000 </v>
   <v>       0.50000000       0.47222222       0.00000000 </v>
   <v>       0.00000000       0.50000000       0.00000000 </v>
   <v>       0.04166667       0.50000000       0.00000000 </v>
   <v>       0.08333333       0.50000000       0.00000000 </v>
   <v>       0.12500000       0.50000000       0.00000000 </v>
   <v>       0.16666667       0.50000000       0.00000000 </v>
   <v>       0.20833333       0.50000000       0.00000000 </v>
   <v>       0.25000000       0.50000000       0.00000000 </v>
   <v>       0.29166667       0.50000000       0.00000000 </v>
   <v>       0.33333333       0.50000000       0.00000000 </v>
   <v>       0.37500000       0.50000000       0.00000000 </v>
   <v>       0.41666667       0.50000000       0.00000000 </v>
   <v>       0.45833333       0.50000000       0.00000000 </v>
   <v>       0.50000000       0.50000000       0.00000000 </v>
  </varray>
  <varray name="weights" >
   <v>       0.00115741 </v>
   <v>       0.00231481 </v>
   <v>       0.00231481 </v>
   <v>       0.00231481 </v>
   <v>       0.00231481 </v>
   <v>       0.00231481 </v>
   <v>       0.00231481 </v>
   <v>       0.00231481 </v>
   <v>       0.00231481 </v>
   <v>       0.00231481 </v>
   <v>       0.00231481 </v>
   <v>       0.00231481 </v>
   <v>       0.00115741 </v>
   <v>       0.00231481 </v>
   <v>       0.00462963 </v>
   <v>       0.00462963 </v>
   <v>       0.00462963 </v>
   <v>       0.00462963 </v>
   <v>       0.00462963 </v>
   <v>       0.00462963 </v>
   <v>       0.00462963 </v>
   <v>       0.00462963 </v>
   <v>       0.00462963 </v>
   <v>       0.00462963 </v>
   <v>       0.00462963 </v>
   <v>       0.00231481 </v>
   <v>       0.00231481 </v>
   <v>       0.00462963 </v>
   <v>       0.00462963 </v>
   <v>       0.00462963 </v>
   <v>       0.00462963 </v>
   <v>       0.00462963 </v>
   <v>       0.00462963 </v>
   <v>       0.00462963 </v>
   <v>       0.00462963 </v>
   <v>       0.00462963 </v>
   <v>       0.00462963 </v>
   <v>       0.00462963 </v>
   <v>       0.00231481 </v>
   <v>       0.00231481 </v>
   <v>       0.00462963 </v>
   <v>       0.00462963 </v>
   <v>       0.00462963 </v>
   <v>       0.00462963 </v>
   <v>       0.00462963 </v>
   <v>       0.00462963 </v>
   <v>       0.00462963 </v>
   <v>       0.00462963 </v>
   <v>       0.00462963 </v>
   <v>       0.00462963 </v>
   <v>       0.00462963 </v>
   <v>       0.00231481 </v>
   <v>       0.00231481 </v>
   <v>       0.00462963 </v>
   <v>       0.00462963 </v>
   <v>       0.00462963 </v>
   <v>       0.00462963 </v>
   <v>       0.00462963 </v>
   <v>       0.00462963 </v>
   <v>       0.00462963 </v>
   <v>       0.00462963 </v>
   <v>       0.00462963 </v>
   <v>       0.00462963 </v>
   <v>       0.00462963 </v>
   <v>       0.00231481 </v>
   <v>       0.00231481 </v>
   <v>       0.00462963 </v>
   <v>       0.00462963 </v>
   <v>       0.00462963 </v>
   <v>       0.00462963 </v>
   <v>       0.00462963 </v>
   <v>       0.00462963 </v>
   <v>       0.00462963 </v>
   <v>       0.00462963 </v>
   <v>       0.00462963 </v>
   <v>       0.00462963 </v>
   <v>       0.00462963 </v>
   <v>       0.00231481 </v>
   <v>       0.00231481 </v>
   <v>       0.00462963 </v>
   <v>       0.00462963 </v>
   <v>       0.00462963 </v>
   <v>       0.00462963 </v>
   <v>       0.00462963 </v>
   <v>       0.00462963 </v>
   <v>       0.00462963 </v>
   <v>       0.00462963 </v>
   <v>       0.00462963 </v>
   <v>       0.00462963 </v>
   <v>       0.00462963 </v>
   <v>       0.00231481 </v>
   <v>       0.00231481 </v>
   <v>       0.00462963 </v>
   <v>       0.00462963 </v>
   <v>       0.00462963 </v>
   <v>       0.00462963 </v>
   <v>       0.00462963 </v>
   <v>       0.00462963 </v>
   <v>       0.00462963 </v>
   <v>       0.00462963 </v>
   <v>       0.00462963 </v>
   <v>       0.00462963 </v>
   <v>       0.00462963 </v>
   <v>       0.00231481 </v>
   <v>       0.00231481 </v>
   <v>       0.00462963 </v>
   <v>       0.00462963 </v>
   <v>       0.00462963 </v>
   <v>       0.00462963 </v>
   <v>       0.00462963 </v>
   <v>       0.00462963 </v>
   <v>       0.00462963 </v>
   <v>       0.00462963 </v>
   <v>       0.00462963 </v>
   <v>       0.00462963 </v>
   <v>       0.00462963 </v>
   <v>       0.00231481 </v>
   <v>       0.00231481 </v>
   <v>       0.00462963 </v>
   <v>       0.00462963 </v>
   <v>       0.00462963 </v>
   <v>       0.00462963 </v>
   <v>       0.00462963 </v>
   <v>       0.00462963 </v>
   <v>       0.00462963 </v>
   <v>       0.00462963 </v>
   <v>       0.00462963 </v>
   <v>       0.00462963 </v>
   <v>       0.00462963 </v>
   <v>       0.00231481 </v>
   <v>       0.00231481 </v>
   <v>       0.00462963 </v>
   <v>       0.00462963 </v>
   <v>       0.00462963 </v>
   <v>       0.00462963 </v>
   <v>       0.00462963 </v>
   <v>       0.00462963 </v>
   <v>       0.00462963 </v>
   <v>       0.00462963 </v>
   <v>       0.00462963 </v>
   <v>       0.00462963 </v>
   <v>       0.00462963 </v>
   <v>       0.00231481 </v>
   <v>       0.00231481 </v>
   <v>       0.00462963 </v>
   <v>       0.00462963 </v>
   <v>       0.00462963 </v>
   <v>       0.00462963 </v>
   <v>       0.00462963 </v>
   <v>       0.00462963 </v>
   <v>       0.00462963 </v>
   <v>       0.00462963 </v>
   <v>       0.00462963 </v>
   <v>       0.00462963 </v>
   <v>       0.00462963 </v>
   <v>       0.00231481 </v>
   <v>       0.00231481 </v>
   <v>       0.00462963 </v>
   <v>       0.00462963 </v>
   <v>       0.00462963 </v>
   <v>       0.00462963 </v>
   <v>       0.00462963 </v>
   <v>       0.00462963 </v>
   <v>       0.00462963 </v>
   <v>       0.00462963 </v>
   <v>       0.00462963 </v>
   <v>       0.00462963 </v>
   <v>       0.00462963 </v>
   <v>       0.00231481 </v>
   <v>       0.00231481 </v>
   <v>       0.00462963 </v>
   <v>       0.00462963 </v>
   <v>       0.00462963 </v>
   <v>       0.00462963 </v>
   <v>       0.00462963 </v>
   <v>       0.00462963 </v>
   <v>       0.00462963 </v>
   <v>       0.00462963 </v>
   <v>       0.00462963 </v>
   <v>       0.00462963 </v>
   <v>       0.00462963 </v>
   <v>       0.00231481 </v>
   <v>       0.00231481 </v>
   <v>       0.00462963 </v>
   <v>       0.00462963 </v>
   <v>       0.00462963 </v>
   <v>       0.00462963 </v>
   <v>       0.00462963 </v>
   <v>       0.00462963 </v>
   <v>       0.00462963 </v>
   <v>       0.00462963 </v>
   <v>       0.00462963 </v>
   <v>       0.00462963 </v>
   <v>       0.00462963 </v>
   <v>       0.00231481 </v>
   <v>       0.00231481 </v>
   <v>       0.00462963 </v>
   <v>       0.00462963 </v>
   <v>       0.00462963 </v>
   <v>       0.00462963 </v>
   <v>       0.00462963 </v>
   <v>       0.00462963 </v>
   <v>       0.00462963 </v>
   <v>       0.00462963 </v>
   <v>       0.00462963 </v>
   <v>       0.00462963 </v>
   <v>       0.00462963 </v>
   <v>       0.00231481 </v>
   <v>       0.00231481 </v>
   <v>       0.00462963 </v>
   <v>       0.00462963 </v>
   <v>       0.00462963 </v>
   <v>       0.00462963 </v>
   <v>       0.00462963 </v>
   <v>       0.00462963 </v>
   <v>       0.00462963 </v>
   <v>       0.00462963 </v>
   <v>       0.00462963 </v>
   <v>       0.00462963 </v>
   <v>       0.00462963 </v>
   <v>       0.00231481 </v>
   <v>       0.00231481 </v>
   <v>       0.00462963 </v>
   <v>       0.00462963 </v>
   <v>       0.00462963 </v>
   <v>       0.00462963 </v>
   <v>       0.00462963 </v>
   <v>       0.00462963 </v>
   <v>       0.00462963 </v>
   <v>       0.00462963 </v>
   <v>       0.00462963 </v>
   <v>       0.00462963 </v>
   <v>       0.00462963 </v>
   <v>       0.00231481 </v>
   <v>       0.00115741 </v>
   <v>       0.00231481 </v>
   <v>       0.00231481 </v>
   <v>       0.00231481 </v>
   <v>       0.00231481 </v>
   <v>       0.00231481 </v>
   <v>       0.00231481 </v>
   <v>       0.00231481 </v>
   <v>       0.00231481 </v>
   <v>       0.00231481 </v>
   <v>       0.00231481 </v>
   <v>       0.00231481 </v>
   <v>       0.00115741 </v>
  </varray>
 </kpoints>
 <parameters>
  <separator name="general" >
   <i type="string" name="SYSTEM">gr</i>
   <i type="logical" name="LCOMPAT"> F  </i>
  </separator>
  <separator name="electronic" >
   <i type="string" name="PREC">accura</i>
   <i name="ENMAX">   2000.00000000</i>
   <i name="ENAUG">    644.87300000</i>
   <i name="EDIFF">      0.00000000</i>
   <i type="int" name="IALGO">    68</i>
   <i type="int" name="IWAVPR">    11</i>
   <i type="int" name="NBANDS">    12</i>
   <i name="NELECT">     16.00000000</i>
   <i type="int" name="TURBO">     0</i>
   <i type="int" name="IRESTART">     0</i>
   <i type="int" name="NREBOOT">     0</i>
   <i type="int" name="NMIN">     0</i>
   <i name="EREF">      0.00000000</i>
   <separator name="electronic smearing" >
    <i type="int" name="ISMEAR">     0</i>
    <i name="SIGMA">      0.05000000</i>
    <i name="KSPACING">      0.50000000</i>
    <i type="logical" name="KGAMMA"> T  </i>
   </separator>
   <separator name="electronic projectors" >
    <i type="logical" name="LREAL"> F  </i>
    <v name="ROPT">      0.00000000</v>
    <i type="int" name="LMAXPAW">  -100</i>
    <i type="int" name="LMAXMIX">     2</i>
    <i type="logical" name="NLSPLINE"> F  </i>
   </separator>
   <separator name="electronic startup" >
    <i type="int" name="ISTART">     0</i>
    <i type="int" name="ICHARG">     2</i>
    <i type="int" name="INIWAV">     1</i>
   </separator>
   <separator name="electronic spin" >
    <i type="int" name="ISPIN">     1</i>
    <i type="logical" name="LNONCOLLINEAR"> F  </i>
    <v name="MAGMOM">      1.00000000      1.00000000      1.00000000      1.00000000</v>
    <i name="NUPDOWN">     -1.00000000</i>
    <i type="logical" name="LSORBIT"> F  </i>
    <v name="SAXIS">      0.00000000      0.00000000      1.00000000</v>
    <i type="logical" name="LSPIRAL"> F  </i>
    <v name="QSPIRAL">      0.00000000      0.00000000      0.00000000</v>
    <i type="logical" name="LZEROZ"> F  </i>
   </separator>
   <separator name="electronic exchange-correlation" >
    <i type="logical" name="LASPH"> F  </i>
    <i type="logical" name="LMETAGGA"> F  </i>
   </separator>
   <separator name="electronic convergence" >
    <i type="int" name="NELM">   100</i>
    <i type="int" name="NELMDL">    -3</i>
    <i type="int" name="NELMIN">     5</i>
    <i name="ENINI">   2000.00000000</i>
    <separator name="electronic convergence detail" >
     <i type="logical" name="LDIAG"> T  </i>
     <i type="logical" name="LSUBROT"> F  </i>
     <i name="WEIMIN">      0.00100000</i>
     <i name="EBREAK">      0.00000000</i>
     <i name="DEPER">      0.30000000</i>
     <i type="int" name="NRMM">     4</i>
     <i name="TIME">      0.40000000</i>
    </separator>
   </separator>
   <separator name="electronic mixer" >
    <i name="AMIX">      0.40000000</i>
    <i name="BMIX">      1.00000000</i>
    <i name="AMIN">      0.10000000</i>
    <i name="AMIX_MAG">      1.60000000</i>
    <i name="BMIX_MAG">      1.00000000</i>
    <separator name="electronic mixer details" >
     <i type="int" name="IMIX">     4</i>
     <i type="int" name="MAXMIX">   -45</i>
     <i name="WC">    100.00000000</i>
     <i type="int" name="INIMIX">     1</i>
     <i type="int" name="MIXPRE">     1</i>
     <i type="int" name="MREMOVE">     5</i>
    </separator>
   </separator>
   <separator name="electronic dipolcorrection" >
    <i type="logical" name="LDIPOL"> F  </i>
    <i type="logical" name="LMONO"> F  </i>
    <i type="int" name="IDIPOL">     0</i>
    <i name="EPSILON">      1.00000000</i>
    <v name="DIPOL">   -100.00000000   -100.00000000   -100.00000000</v>
    <i name="EFIELD">      0.00000000</i>
   </separator>
  </separator>
  <separator name="grids" >
   <i type="int" name="NGX">    64</i>
   <i type="int" name="NGY">    36</i>
   <i type="int" name="NGZ">   294</i>
   <i type="int" name="NGXF">   128</i>
   <i type="int" name="NGYF">    72</i>
   <i type="int" name="NGZF">   588</i>
   <i type="logical" name="ADDGRID"> F  </i>
  </separator>
  <separator name="ionic" >
   <i type="int" name="NSW">   400</i>
   <i type="int" name="IBRION">     1</i>
   <i type="int" name="ISIF">     2</i>
   <i name="PSTRESS">      0.00000000</i>
   <i name="EDIFFG">     -0.00000100</i>
   <i type="int" name="NFREE">     0</i>
   <i name="POTIM">      0.50000000</i>
   <i name="SMASS">     -3.00000000</i>
   <i name="SCALEE">      1.00000000</i>
  </separator>
  <separator name="ionic md" >
   <i name="TEBEG">      0.00010000</i>
   <i name="TEEND">      0.00010000</i>
   <i type="int" name="NBLOCK">     1</i>
   <i type="int" name="KBLOCK">   400</i>
   <i type="int" name="NPACO">   256</i>
   <i name="APACO">     16.00000000</i>
  </separator>
  <separator name="symmetry" >
   <i type="int" name="ISYM">     2</i>
   <i name="SYMPREC">      0.00001000</i>
  </separator>
  <separator name="dos" >
   <i type="logical" name="LORBIT"> F  </i>
   <v name="RWIGS">     -1.00000000</v>
   <i type="int" name="NEDOS">   301</i>
   <i name="EMIN">     10.00000000</i>
   <i name="EMAX">    -10.00000000</i>
   <i name="EFERMI">      0.00000000</i>
  </separator>
  <separator name="writing" >
   <i type="int" name="NWRITE">     2</i>
   <i type="logical" name="LWAVE"> F  </i>
   <i type="logical" name="LCHARG"> F  </i>
   <i type="logical" name="LPARD"> F  </i>
   <i type="logical" name="LVTOT"> F  </i>
   <i type="logical" name="LVHAR"> F  </i>
   <i type="logical" name="LELF"> F  </i>
   <i type="logical" name="LOPTICS"> F  </i>
   <v name="STM">      0.00000000      0.00000000      0.00000000      0.00000000      0.00000000      0.00000000      0.00000000</v>
  </separator>
  <separator name="performance" >
   <i type="int" name="NPAR">     4</i>
   <i type="int" name="NSIM">     4</i>
   <i type="int" name="NBLK">    -1</i>
   <i type="logical" name="LPLANE"> T  </i>
   <i type="logical" name="LSCALAPACK"> F  </i>
   <i type="logical" name="LSCAAWARE"> F  </i>
   <i type="logical" name="LSCALU"> F  </i>
   <i type="logical" name="LASYNC"> F  </i>
   <i type="logical" name="LORBITALREAL"> F  </i>
  </separator>
  <separator name="miscellaneous" >
   <i type="int" name="IDIOT">     3</i>
   <i type="logical" name="LMUSIC"> F  </i>
   <v name="POMASS">     12.01100000</v>
   <v name="DARWINR">      0.00000000</v>
   <v name="DARWINV">      1.00000000</v>
   <i type="logical" name="LCORR"> T  </i>
  </separator>
  <i type="logical" name="GGA_COMPAT"> T  </i>
  <i type="logical" name="LBERRY"> F  </i>
  <i type="int" name="ICORELEVEL">     0</i>
  <i type="logical" name="LDAU"> F  </i>
  <i type="int" name="I_CONSTRAINED_M">     0</i>
  <separator name="electronic exchange-correlation" >
   <i type="string" name="GGA">--</i>
   <i type="int" name="VOSKOWN">     0</i>
   <i type="logical" name="LHFCALC"> F  </i>
   <i type="string" name="PRECFOCK"></i>
   <i type="logical" name="LSYMGRAD"> F  </i>
   <i type="logical" name="LHFONE"> F  </i>
   <i type="logical" name="LRHFCALC"> F  </i>
   <i type="logical" name="LTHOMAS"> F  </i>
   <i type="logical" name="LMODELHF"> F  </i>
   <i name="ENCUT4O">     -1.00000000</i>
   <i type="int" name="EXXOEP">     0</i>
   <i type="int" name="FOURORBIT">     0</i>
   <i name="AEXX">      0.00000000</i>
   <i name="HFALPHA">      0.00000000</i>
   <i name="MCALPHA">      0.00000000</i>
   <i name="ALDAX">      1.00000000</i>
   <i name="AGGAX">      1.00000000</i>
   <i name="ALDAC">      1.00000000</i>
   <i name="AGGAC">      1.00000000</i>
   <i type="int" name="NKREDX">     1</i>
   <i type="int" name="NKREDY">     1</i>
   <i type="int" name="NKREDZ">     1</i>
   <i type="logical" name="SHIFTRED"> F  </i>
   <i type="logical" name="ODDONLY"> F  </i>
   <i type="logical" name="EVENONLY"> F  </i>
   <i type="int" name="LMAXFOCK">     0</i>
   <i type="int" name="NMAXFOCKAE">     0</i>
   <i type="logical" name="LFOCKAEDFT"> F  </i>
   <i name="HFSCREEN">      0.00000000</i>
   <i name="HFSCREENC">      0.00000000</i>
   <i type="int" name="NBANDSGWLOW">     0</i>
  </separator>
  <separator name="vdW DFT" >
   <i type="logical" name="LUSE_VDW"> F  </i>
   <i name="Zab_VDW">     -0.84910000</i>
   <i name="PARAM1">      0.12340000</i>
   <i name="PARAM2">      1.00000000</i>
   <i name="PARAM3">      0.00000000</i>
  </separator>
  <separator name="model GW" >
   <i type="int" name="MODEL_GW">     0</i>
   <i name="MODEL_EPS0">     31.62568521</i>
   <i name="MODEL_ALPHA">      1.00000000</i>
  </separator>
  <separator name="linear response parameters" >
   <i type="logical" name="LEPSILON"> F  </i>
   <i type="logical" name="LRPA"> F  </i>
   <i type="logical" name="LNABLA"> F  </i>
   <i type="logical" name="LVEL"> F  </i>
   <i type="int" name="KINTER">     0</i>
   <i name="CSHIFT">      0.10000000</i>
   <i name="OMEGAMAX">     -1.00000000</i>
   <i name="DEG_THRESHOLD">      0.00200000</i>
  </separator>
  <separator name="orbital magnetization" >
   <i type="logical" name="NUCIND"> F  </i>
   <v name="MAGPOS">      0.00000000      0.00000000      0.00000000</v>
   <i type="logical" name="LNICSALL"> T  </i>
   <i type="logical" name="ORBITALMAG"> F  </i>
   <i type="logical" name="LMAGBLOCH"> F  </i>
   <i type="logical" name="LCHIMAG"> F  </i>
   <i type="logical" name="LGAUGE"> T  </i>
   <i type="int" name="MAGATOM">     0</i>
   <v name="MAGDIPOL">      0.00000000      0.00000000      0.00000000</v>
   <v name="AVECCONST">      0.00000000      0.00000000      0.00000000</v>
  </separator>
  <separator name="response functions" >
   <i type="logical" name="LADDER"> F  </i>
   <i type="logical" name="LFXC"> F  </i>
   <i type="logical" name="LHARTREE"> T  </i>
   <i type="int" name="IBSE">     0</i>
   <i type="logical" name="LTCTE"> F  </i>
   <i type="logical" name="LTETE"> F  </i>
   <i type="logical" name="LTRIPLET"> F  </i>
   <i type="logical" name="LFXCEPS"> F  </i>
   <i type="logical" name="LFXHEG"> F  </i>
   <i type="logical" name="L2ORDER"> F  </i>
   <i type="logical" name="LUSEW"> F  </i>
   <i name="ENCUTGW">     -2.00000000</i>
   <i name="ENCUTGWSOFT">     -2.00000000</i>
   <i name="ENCUTLF">     -1.00000000</i>
   <i type="int" name="LMAXMP2">    -1</i>
   <i name="SCISSOR">      0.00000000</i>
   <i type="int" name="NOMEGA">     0</i>
   <i type="int" name="NOMEGAR">     0</i>
   <i type="int" name="NBANDSGW">    -1</i>
   <i type="int" name="NBANDSO">    -1</i>
   <i type="int" name="NBANDSV">    -1</i>
   <i type="int" name="NELM">   100</i>
   <i type="int" name="DIM">     3</i>
   <i type="int" name="ANTIRES">     0</i>
   <i name="OMEGAMAX">    -30.00000000</i>
   <i name="OMEGAMIN">    -30.00000000</i>
   <i name="OMEGATL">   -200.00000000</i>
   <i type="int" name="OMEGAGRID">     0</i>
   <i name="CSHIFT">     -0.10000000</i>
   <i type="logical" name="SELFENERGY"> F  </i>
   <i type="logical" name="LSPECTRAL"> F  </i>
   <i type="logical" name="ODDONLYGW"> F  </i>
   <i type="logical" name="EVENONLYGW"> F  </i>
   <i type="int" name="NKREDLFX">     1</i>
   <i type="int" name="NKREDLFY">     1</i>
   <i type="int" name="NKREDLFZ">     1</i>
   <i type="int" name="MAXMEM">  1800</i>
   <i type="int" name="TELESCOPE">     0</i>
   <i type="int" name="TAUPAR">     1</i>
  </separator>
  <separator name="External order field" >
   <i name="OFIELD_KAPPA">      0.00000000</i>
   <v name="OFIELD_K">      0.00000000      0.00000000      0.00000000</v>
   <i name="OFIELD_Q6_NEAR">      0.00000000</i>
   <i name="OFIELD_Q6_FAR">      0.00000000</i>
   <i name="OFIELD_A">      0.00000000</i>
  </separator>
 </parameters>
 <atominfo>
  <atoms>       4 </atoms>
  <types>       1 </types>
  <array name="atoms" >
   <dimension dim="1">ion</dimension>
   <field type="string">element</field>
   <field type="int">atomtype</field>
   <set>
    <rc><c>C </c><c>   1</c></rc>
    <rc><c>C </c><c>   1</c></rc>
    <rc><c>C </c><c>   1</c></rc>
    <rc><c>C </c><c>   1</c></rc>
   </set>
  </array>
  <array name="atomtypes" >
   <dimension dim="1">type</dimension>
   <field type="int">atomspertype</field>
   <field type="string">element</field>
   <field>mass</field>
   <field>valence</field>
   <field type="string">pseudopotential</field>
   <set>
    <rc><c>   4</c><c>C </c><c>     12.01100000</c><c>      4.00000000</c><c> PAW_PBE C 08Apr2002                    </c></rc>
   </set>
  </array>
 </atominfo>
 <structure name="initialpos" >
  <crystal>
   <varray name="basis" >
    <v>       4.26920980       0.00000000       0.00000000 </v>
    <v>       0.00000000       2.48012986       0.00000000 </v>
    <v>       0.00000000       0.00000000      19.91254478 </v>
   </varray>
   <i name="volume">    210.83790140 </i>
   <varray name="rec_basis" >
    <v>       0.23423538       0.00000000       0.00000000 </v>
    <v>       0.00000000       0.40320469       0.00000000 </v>
    <v>       0.00000000       0.00000000       0.05021960 </v>
   </varray>
  </crystal>
  <varray name="positions" >
   <v>       0.00013158       0.00000000       0.00000000 </v>
   <v>       0.16653509       0.50000000       0.00000000 </v>
   <v>       0.50013158       0.50000000       0.00000000 </v>
   <v>       0.66653509       0.00000000       0.00000000 </v>
  </varray>
 </structure>
 <calculation>
  <scstep>
   <time name="dav">  295.29  296.55</time>
   <time name="total">  297.85  299.13</time>
   <energy>
    <i name="alphaZ">      6.18334092 </i>
    <i name="ewald">   2557.26266852 </i>
    <i name="hartreedc">  -2983.52797646 </i>
    <i name="XCdc">     55.03796106 </i>
    <i name="pawpsdc">    151.32577238 </i>
    <i name="pawaedc">   -155.92769107 </i>
    <i name="eentropy">     -0.00193300 </i>
    <i name="bandstr">    -30.41536309 </i>
    <i name="atom">    588.62352690 </i>
    <i name="e_fr_energy">    188.56030616 </i>
    <i name="e_wo_entrp">    188.56223917 </i>
    <i name="e_0_energy">    188.56127266 </i>
   </energy>
  </scstep>
  <scstep>
   <time name="dav">  446.35  448.96</time>
   <time name="total">  446.36  448.99</time>
   <energy>
    <i name="e_fr_energy">     -9.12345196 </i>
    <i name="e_wo_entrp">     -9.12314137 </i>
    <i name="e_0_energy">     -9.12329666 </i>
   </energy>
  </scstep>
  <scstep>
   <time name="dav">  338.46  340.73</time>
   <time name="total">  368.51  370.95</time>
   <energy>
    <i name="e_fr_energy">    -38.31070666 </i>
    <i name="e_wo_entrp">    -38.31055808 </i>
    <i name="e_0_energy">    -38.31063237 </i>
   </energy>
  </scstep>
  <scstep>
   <time name="diag">   79.06   79.73</time>
   <time name="diis">  330.03  331.59</time>
   <time name="orth">    3.08    3.09</time>
   <time name="total">  444.41  446.75</time>
   <energy>
    <i name="e_fr_energy">    -37.65651694 </i>
    <i name="e_wo_entrp">    -37.65633817 </i>
    <i name="e_0_energy">    -37.65642756 </i>
   </energy>
  </scstep>
  <scstep>
   <time name="diag">   79.61   79.76</time>
   <time name="diis">  329.42  331.36</time>
   <time name="orth">    3.07    3.07</time>
   <time name="total">  443.69  446.05</time>
   <energy>
    <i name="e_fr_energy">    -36.90245417 </i>
    <i name="e_wo_entrp">    -36.90227545 </i>
    <i name="e_0_energy">    -36.90236481 </i>
   </energy>
  </scstep>
  <scstep>
   <time name="diag">   79.50   79.67</time>
   <time name="diis">  358.28  360.16</time>
   <time name="orth">    3.07    3.08</time>
   <time name="total">  472.23  474.55</time>
   <energy>
    <i name="e_fr_energy">    -36.90403155 </i>
    <i name="e_wo_entrp">    -36.90385274 </i>
    <i name="e_0_energy">    -36.90394214 </i>
   </energy>
  </scstep>
  <scstep>
   <time name="diag">   78.96   79.62</time>
   <time name="diis">  328.65  331.77</time>
   <time name="orth">    3.07    3.07</time>
   <time name="total">  442.07  446.18</time>
   <energy>
    <i name="e_fr_energy">    -36.89444465 </i>
    <i name="e_wo_entrp">    -36.89426578 </i>
    <i name="e_0_energy">    -36.89435522 </i>
   </energy>
  </scstep>
  <scstep>
   <time name="diag">   78.83   79.66</time>
   <time name="diis">  330.63  332.85</time>
   <time name="orth">    3.09    3.09</time>
   <time name="total">  444.08  447.20</time>
   <energy>
    <i name="e_fr_energy">    -36.88906187 </i>
    <i name="e_wo_entrp">    -36.88888301 </i>
    <i name="e_0_energy">    -36.88897244 </i>
   </energy>
  </scstep>
  <scstep>
   <time name="diag">   79.57   79.68</time>
   <time name="diis">  322.75  323.40</time>
   <time name="orth">    3.07    3.07</time>
   <time name="total">  437.08  438.09</time>
   <energy>
    <i name="e_fr_energy">    -36.88873794 </i>
    <i name="e_wo_entrp">    -36.88855910 </i>
    <i name="e_0_energy">    -36.88864852 </i>
   </energy>
  </scstep>
  <scstep>
   <time name="diag">   78.93   79.64</time>
   <time name="diis">  321.66  323.92</time>
   <time name="orth">    3.08    3.09</time>
   <time name="total">  435.17  438.44</time>
   <energy>
    <i name="e_fr_energy">    -36.88867559 </i>
    <i name="e_wo_entrp">    -36.88849674 </i>
    <i name="e_0_energy">    -36.88858617 </i>
   </energy>
  </scstep>
  <scstep>
   <time name="diag">   79.39   79.70</time>
   <time name="diis">  324.63  325.90</time>
   <time name="orth">    3.08    3.09</time>
   <time name="total">  438.40  440.30</time>
   <energy>
    <i name="e_fr_energy">    -36.89123897 </i>
    <i name="e_wo_entrp">    -36.89106011 </i>
    <i name="e_0_energy">    -36.89114954 </i>
   </energy>
  </scstep>
  <scstep>
   <time name="diag">   79.36   79.66</time>
   <time name="diis">  323.69  324.31</time>
   <time name="orth">    3.09    3.09</time>
   <time name="total">  437.73  438.72</time>
   <energy>
    <i name="e_fr_energy">    -36.89174823 </i>
    <i name="e_wo_entrp">    -36.89156378 </i>
    <i name="e_0_energy">    -36.89165600 </i>
   </energy>
  </scstep>
  <scstep>
   <time name="diag">   79.57   79.68</time>
   <time name="diis">  328.77  330.10</time>
   <time name="orth">    3.09    3.09</time>
   <time name="total">  442.99  444.56</time>
   <energy>
    <i name="e_fr_energy">    -36.91865455 </i>
    <i name="e_wo_entrp">    -36.91856926 </i>
    <i name="e_0_energy">    -36.91861190 </i>
   </energy>
  </scstep>
  <scstep>
   <time name="diag">   79.15   79.69</time>
   <time name="diis">  337.93  340.77</time>
   <time name="orth">    3.07    3.09</time>
   <time name="total">  451.53  455.32</time>
   <energy>
    <i name="e_fr_energy">    -36.92231991 </i>
    <i name="e_wo_entrp">    -36.92223461 </i>
    <i name="e_0_energy">    -36.92227726 </i>
   </energy>
  </scstep>
  <scstep>
   <time name="diag">   79.09   79.71</time>
   <time name="diis">  321.45  324.64</time>
   <time name="orth">    3.08    3.09</time>
   <time name="total">  434.90  439.11</time>
   <energy>
    <i name="e_fr_energy">    -36.92242614 </i>
    <i name="e_wo_entrp">    -36.92234087 </i>
    <i name="e_0_energy">    -36.92238351 </i>
   </energy>
  </scstep>
  <scstep>
   <time name="diag">   79.13   79.71</time>
   <time name="diis">  322.36  324.84</time>
   <time name="orth">    3.08    3.09</time>
   <time name="total">  435.83  439.08</time>
   <energy>
    <i name="e_fr_energy">    -36.92239707 </i>
    <i name="e_wo_entrp">    -36.92231180 </i>
    <i name="e_0_energy">    -36.92235444 </i>
   </energy>
  </scstep>
  <scstep>
   <time name="diag">   79.55   79.74</time>
   <time name="diis">  321.79  324.91</time>
   <time name="orth">    3.07    3.07</time>
   <time name="total">  435.71  439.30</time>
   <energy>
    <i name="e_fr_energy">    -36.92238441 </i>
    <i name="e_wo_entrp">    -36.92229913 </i>
    <i name="e_0_energy">    -36.92234177 </i>
   </energy>
  </scstep>
  <scstep>
   <time name="diag">   79.50   79.73</time>
   <time name="diis">  324.26  324.49</time>
   <time name="orth">    3.07    3.07</time>
   <time name="total">  438.82  439.38</time>
   <energy>
    <i name="e_fr_energy">    -36.92240384 </i>
    <i name="e_wo_entrp">    -36.92231858 </i>
    <i name="e_0_energy">    -36.92236121 </i>
   </energy>
  </scstep>
  <scstep>
   <time name="diag">   79.63   79.72</time>
   <time name="diis">  325.01  325.55</time>
   <time name="orth">    3.07    3.07</time>
   <time name="total">  439.47  440.27</time>
   <energy>
    <i name="e_fr_energy">    -36.92242167 </i>
    <i name="e_wo_entrp">    -36.92233640 </i>
    <i name="e_0_energy">    -36.92237904 </i>
   </energy>
  </scstep>
  <scstep>
   <time name="diag">   79.19   79.71</time>
   <time name="diis">  323.84  324.51</time>
   <time name="orth">    3.07    3.07</time>
   <time name="total">  438.20  439.48</time>
   <energy>
    <i name="e_fr_energy">    -36.92240812 </i>
    <i name="e_wo_entrp">    -36.92232283 </i>
    <i name="e_0_energy">    -36.92236547 </i>
   </energy>
  </scstep>
  <scstep>
   <time name="diag">   79.66   79.76</time>
   <time name="diis">  323.87  325.34</time>
   <time name="orth">    3.07    3.07</time>
   <time name="total">  438.32  440.07</time>
   <energy>
    <i name="e_fr_energy">    -36.92238914 </i>
    <i name="e_wo_entrp">    -36.92230384 </i>
    <i name="e_0_energy">    -36.92234649 </i>
   </energy>
  </scstep>
  <scstep>
   <time name="diag">   79.26   79.70</time>
   <time name="diis">  320.95  323.93</time>
   <time name="orth">    3.07    3.09</time>
   <time name="total">  434.78  438.61</time>
   <energy>
    <i name="e_fr_energy">    -36.92236664 </i>
    <i name="e_wo_entrp">    -36.92228132 </i>
    <i name="e_0_energy">    -36.92232398 </i>
   </energy>
  </scstep>
  <scstep>
   <time name="diag">   78.96   79.71</time>
   <time name="diis">  322.99  325.58</time>
   <time name="orth">    3.07    3.09</time>
   <time name="total">  436.30  439.97</time>
   <energy>
    <i name="e_fr_energy">    -36.92238145 </i>
    <i name="e_wo_entrp">    -36.92229611 </i>
    <i name="e_0_energy">    -36.92233878 </i>
   </energy>
  </scstep>
  <scstep>
   <time name="diag">   79.06   79.74</time>
   <time name="diis">  322.53  324.52</time>
   <time name="orth">    3.09    3.10</time>
   <time name="total">  436.57  439.28</time>
   <energy>
    <i name="e_fr_energy">    -36.92240176 </i>
    <i name="e_wo_entrp">    -36.92231641 </i>
    <i name="e_0_energy">    -36.92235908 </i>
   </energy>
  </scstep>
  <scstep>
   <time name="diag">   79.71   79.77</time>
   <time name="diis">  322.68  324.60</time>
   <time name="orth">    3.08    3.09</time>
   <time name="total">  437.62  439.71</time>
   <energy>
    <i name="e_fr_energy">    -36.92243388 </i>
    <i name="e_wo_entrp">    -36.92234849 </i>
    <i name="e_0_energy">    -36.92239119 </i>
   </energy>
  </scstep>
  <scstep>
   <time name="diag">   79.58   79.74</time>
   <time name="diis">  324.06  324.42</time>
   <time name="orth">    3.08    3.09</time>
   <time name="total">  438.53  439.09</time>
   <energy>
    <i name="e_fr_energy">    -36.92246104 </i>
    <i name="e_wo_entrp">    -36.92237563 </i>
    <i name="e_0_energy">    -36.92241833 </i>
   </energy>
  </scstep>
  <scstep>
   <time name="diag">   79.61   79.70</time>
   <time name="diis">  323.77  324.56</time>
   <time name="orth">    3.06    3.12</time>
   <time name="total">  438.56  439.62</time>
   <energy>
    <i name="e_fr_energy">    -36.92247361 </i>
    <i name="e_wo_entrp">    -36.92238818 </i>
    <i name="e_0_energy">    -36.92243089 </i>
   </energy>
  </scstep>
  <scstep>
   <time name="diag">   79.27   79.66</time>
   <time name="diis">  322.38  323.61</time>
   <time name="orth">    3.08    3.09</time>
   <time name="total">  436.73  438.64</time>
   <energy>
    <i name="e_fr_energy">    -36.92247657 </i>
    <i name="e_wo_entrp">    -36.92239114 </i>
    <i name="e_0_energy">    -36.92243385 </i>
   </energy>
  </scstep>
  <scstep>
   <time name="diag">   79.26   79.76</time>
   <time name="diis">  345.35  345.79</time>
   <time name="orth">    3.11    3.13</time>
   <time name="total">  459.69  461.00</time>
   <energy>
    <i name="e_fr_energy">    -36.92247680 </i>
    <i name="e_wo_entrp">    -36.92239137 </i>
    <i name="e_0_energy">    -36.92243408 </i>
   </energy>
  </scstep>
  <scstep>
   <time name="diag">   79.56   79.73</time>
   <time name="diis">  321.49  324.46</time>
   <time name="orth">    3.07    3.07</time>
   <time name="total">  435.75  439.28</time>
   <energy>
    <i name="e_fr_energy">    -36.92247681 </i>
    <i name="e_wo_entrp">    -36.92239138 </i>
    <i name="e_0_energy">    -36.92243410 </i>
   </energy>
  </scstep>
  <scstep>
   <time name="diag">   79.06   79.70</time>
   <time name="diis">  320.17  322.65</time>
   <time name="orth">    3.09    3.10</time>
   <time name="total">  434.79  438.11</time>
   <energy>
    <i name="e_fr_energy">    -36.92247683 </i>
    <i name="e_wo_entrp">    -36.92239140 </i>
    <i name="e_0_energy">    -36.92243411 </i>
   </energy>
  </scstep>
  <scstep>
   <time name="diag">   79.57   79.72</time>
   <time name="diis">  244.99  245.38</time>
   <time name="orth">    3.10    3.10</time>
   <time name="total">  359.93  360.50</time>
   <energy>
    <i name="e_fr_energy">    -36.92247683 </i>
    <i name="e_wo_entrp">    -36.92239140 </i>
    <i name="e_0_energy">    -36.92243412 </i>
   </energy>
  </scstep>
  <scstep>
   <time name="diag">   79.46   79.70</time>
   <time name="diis">  220.47  221.98</time>
   <time name="orth">    3.07    3.07</time>
   <time name="total">  335.10  337.05</time>
   <energy>
    <i name="e_fr_energy">    -36.92247683 </i>
    <i name="e_wo_entrp">    -36.92239140 </i>
    <i name="e_0_energy">    -36.92243412 </i>
   </energy>
  </scstep>
  <scstep>
   <time name="diag">   79.33   79.79</time>
   <time name="diis">  208.28  210.35</time>
   <time name="orth">    3.07    3.07</time>
   <time name="total">  322.39  325.37</time>
   <energy>
    <i name="e_fr_energy">    -36.92247684 </i>
    <i name="e_wo_entrp">    -36.92239140 </i>
    <i name="e_0_energy">    -36.92243412 </i>
   </energy>
  </scstep>
  <scstep>
   <time name="diag">   79.69   79.71</time>
   <time name="diis">  199.64  199.71</time>
   <time name="orth">    3.07    3.07</time>
   <time name="total">  314.40  314.50</time>
   <energy>
    <i name="e_fr_energy">    -36.92247684 </i>
    <i name="e_wo_entrp">    -36.92239140 </i>
    <i name="e_0_energy">    -36.92243412 </i>
   </energy>
  </scstep>
  <scstep>
   <time name="diag">   79.73   79.76</time>
   <time name="diis">  198.89  199.06</time>
   <time name="orth">    3.09    3.09</time>
   <time name="total">  314.10  314.34</time>
   <energy>
    <i name="e_fr_energy">    -36.92247684 </i>
    <i name="e_wo_entrp">    -36.92239140 </i>
    <i name="e_0_energy">    -36.92243412 </i>
   </energy>
  </scstep>
  <scstep>
   <time name="diag">   79.68   79.72</time>
   <time name="diis">  183.25  183.39</time>
   <time name="orth">    3.08    3.09</time>
   <time name="total">  298.30  298.51</time>
   <energy>
    <i name="e_fr_energy">    -36.92247684 </i>
    <i name="e_wo_entrp">    -36.92239140 </i>
    <i name="e_0_energy">    -36.92243412 </i>
   </energy>
  </scstep>
  <scstep>
   <time name="diag">   79.62   79.72</time>
   <time name="diis">  174.39  174.54</time>
   <time name="orth">    3.08    3.09</time>
   <time name="total">  259.58  259.85</time>
   <energy>
    <i name="alphaZ">      6.18334092 </i>
    <i name="ewald">   2557.26266852 </i>
    <i name="hartreedc">  -3051.28148615 </i>
    <i name="XCdc">     57.44161211 </i>
    <i name="pawpsdc">    275.30042326 </i>
    <i name="pawaedc">   -280.44118687 </i>
    <i name="eentropy">     -0.00008543 </i>
    <i name="bandstr">   -190.01129010 </i>
    <i name="atom">    588.62352690 </i>
    <i name="e_fr_energy">    -36.92247684 </i>
    <i name="e_wo_entrp">    -36.92239140 </i>
    <i name="e_0_energy">    -36.92243412 </i>
   </energy>
  </scstep>
  <structure>
   <crystal>
    <varray name="basis" >
     <v>       4.26920980       0.00000000       0.00000000 </v>
     <v>       0.00000000       2.48012986       0.00000000 </v>
     <v>       0.00000000       0.00000000      19.91254478 </v>
    </varray>
    <i name="volume">    210.83790140 </i>
    <varray name="rec_basis" >
     <v>       0.23423538       0.00000000       0.00000000 </v>
     <v>       0.00000000       0.40320469       0.00000000 </v>
     <v>       0.00000000       0.00000000       0.05021960 </v>
    </varray>
   </crystal>
   <varray name="positions" >
    <v>       0.00013158       0.00000000       0.00000000 </v>
    <v>       0.16653509       0.50000000       0.00000000 </v>
    <v>       0.50013158       0.50000000       0.00000000 </v>
    <v>       0.66653509       0.00000000       0.00000000 </v>
   </varray>
  </structure>
  <varray name="forces" >
   <v>       0.00178111       0.00000000      -0.00000000 </v>
   <v>      -0.00178111       0.00000000       0.00000000 </v>
   <v>       0.00178111       0.00000000      -0.00000000 </v>
   <v>      -0.00178111      -0.00000000       0.00000000 </v>
  </varray>
  <varray name="stress" >
   <v>       0.01168665       0.00000000       0.00000000 </v>
   <v>       0.00000000      -8.76023122       0.00000000 </v>
   <v>       0.00000000       0.00000000      -0.01003547 </v>
  </varray>
  <energy>
   <i name="e_fr_energy">    -36.92247684 </i>
   <i name="e_wo_entrp">    -36.92243412 </i>
   <i name="e_0_energy">     -0.00008543 </i>
  </energy>
  <time name="totalsc">15755.2115834.17</time>
 </calculation>
 <calculation>
  <scstep>
   <time name="dav">  318.07  318.36</time>
   <time name="total">  349.79  350.09</time>
   <energy>
    <i name="alphaZ">      6.18334092 </i>
    <i name="ewald">   2557.26227754 </i>
    <i name="hartreedc">  -3051.28131960 </i>
    <i name="XCdc">     57.44160103 </i>
    <i name="pawpsdc">    275.30042519 </i>
    <i name="pawaedc">   -280.44118881 </i>
    <i name="eentropy">     -0.00008818 </i>
    <i name="bandstr">   -190.01105091 </i>
    <i name="atom">    588.62352690 </i>
    <i name="e_fr_energy">    -36.92247591 </i>
    <i name="e_wo_entrp">    -36.92238773 </i>
    <i name="e_0_energy">    -36.92243182 </i>
   </energy>
  </scstep>
  <scstep>
   <time name="diag">   79.87   79.89</time>
   <time name="diis">  320.78  321.57</time>
   <time name="orth">    3.09    3.09</time>
   <time name="total">  436.01  436.84</time>
   <energy>
    <i name="e_fr_energy">    -36.92247595 </i>
    <i name="e_wo_entrp">    -36.92238786 </i>
    <i name="e_0_energy">    -36.92243191 </i>
   </energy>
  </scstep>
  <scstep>
   <time name="diag">   79.87   79.88</time>
   <time name="diis">  324.49  324.55</time>
   <time name="orth">    3.09    3.09</time>
   <time name="total">  439.81  439.94</time>
   <energy>
    <i name="e_fr_energy">    -36.92247591 </i>
    <i name="e_wo_entrp">    -36.92238798 </i>
    <i name="e_0_energy">    -36.92243194 </i>
   </energy>
  </scstep>
  <scstep>
   <time name="diag">   79.88   79.90</time>
   <time name="diis">  330.33  330.54</time>
   <time name="orth">    3.07    3.09</time>
   <time name="total">  445.26  445.68</time>
   <energy>
    <i name="e_fr_energy">    -36.92247590 </i>
    <i name="e_wo_entrp">    -36.92238794 </i>
    <i name="e_0_energy">    -36.92243192 </i>
   </energy>
  </scstep>
  <scstep>
   <time name="diag">   79.70   79.85</time>
   <time name="diis">  297.54  298.26</time>
   <time name="orth">    3.09    3.09</time>
   <time name="total">  412.93  413.83</time>
   <energy>
    <i name="e_fr_energy">    -36.92247590 </i>
    <i name="e_wo_entrp">    -36.92238793 </i>
    <i name="e_0_energy">    -36.92243192 </i>
   </energy>
  </scstep>
  <scstep>
   <time name="diag">   79.69   79.86</time>
   <time name="diis">  217.86  217.90</time>
   <time name="orth">    3.07    3.07</time>
   <time name="total">  332.83  333.05</time>
   <energy>
    <i name="e_fr_energy">    -36.92247590 </i>
    <i name="e_wo_entrp">    -36.92238794 </i>
    <i name="e_0_energy">    -36.92243192 </i>
   </energy>
  </scstep>
  <scstep>
   <time name="diag">   79.94   79.95</time>
   <time name="diis">  216.18  216.22</time>
   <time name="orth">    3.09    3.09</time>
   <time name="total">  331.58  331.66</time>
   <energy>
    <i name="e_fr_energy">    -36.92247590 </i>
    <i name="e_wo_entrp">    -36.92238794 </i>
    <i name="e_0_energy">    -36.92243192 </i>
   </energy>
  </scstep>
  <scstep>
   <time name="diag">   79.94   79.95</time>
   <time name="diis">  205.26  205.30</time>
   <time name="orth">    3.09    3.09</time>
   <time name="total">  290.78  290.84</time>
   <energy>
    <i name="alphaZ">      6.18334092 </i>
    <i name="ewald">   2557.26227754 </i>
    <i name="hartreedc">  -3051.28117077 </i>
    <i name="XCdc">     57.44159471 </i>
    <i name="pawpsdc">    275.29974430 </i>
    <i name="pawaedc">   -280.44050502 </i>
    <i name="eentropy">     -0.00008797 </i>
    <i name="bandstr">   -190.01119653 </i>
    <i name="atom">    588.62352690 </i>
    <i name="e_fr_energy">    -36.92247590 </i>
    <i name="e_wo_entrp">    -36.92238794 </i>
    <i name="e_0_energy">    -36.92243192 </i>
   </energy>
  </scstep>
  <structure>
   <crystal>
    <varray name="basis" >
     <v>       4.26920980       0.00000000       0.00000000 </v>
     <v>       0.00000000       2.48012986       0.00000000 </v>
     <v>       0.00000000       0.00000000      19.91254478 </v>
    </varray>
    <i name="volume">    210.83790140 </i>
    <varray name="rec_basis" >
     <v>       0.23423538       0.00000000       0.00000000 </v>
     <v>       0.00000000       0.40320469       0.00000000 </v>
     <v>       0.00000000       0.00000000       0.05021960 </v>
    </varray>
   </crystal>
   <varray name="positions" >
    <v>       0.00015171       0.00000000      -0.00000000 </v>
    <v>       0.16651496       0.50000000       0.00000000 </v>
    <v>       0.50015171       0.50000000      -0.00000000 </v>
    <v>       0.66651496      -0.00000000       0.00000000 </v>
   </varray>
  </structure>
  <varray name="forces" >
   <v>      -0.00716806      -0.00000000      -0.00000000 </v>
   <v>       0.00716806       0.00000000       0.00000000 </v>
   <v>      -0.00716806       0.00000000      -0.00000000 </v>
   <v>       0.00716806      -0.00000000       0.00000000 </v>
  </varray>
  <varray name="stress" >
   <v>      -0.01646622       0.00000000       0.00000000 </v>
   <v>       0.00000000      -8.73506451       0.00000000 </v>
   <v>       0.00000000       0.00000000      -0.01001281 </v>
  </varray>
  <energy>
   <i name="e_fr_energy">    -36.92247590 </i>
   <i name="e_wo_entrp">    -36.92243192 </i>
   <i name="e_0_energy">     -0.00008797 </i>
  </energy>
  <time name="totalsc"> 3139.07 3142.06</time>
 </calculation>
 <calculation>
  <scstep>
   <time name="dav">  312.48  312.55</time>
   <time name="total">  345.31  345.38</time>
   <energy>
    <i name="alphaZ">      6.18334092 </i>
    <i name="ewald">   2557.26258987 </i>
    <i name="hartreedc">  -3051.28130523 </i>
    <i name="XCdc">     57.44160358 </i>
    <i name="pawpsdc">    275.29974490 </i>
    <i name="pawaedc">   -280.44050563 </i>
    <i name="eentropy">     -0.00008576 </i>
    <i name="bandstr">   -190.01138646 </i>
    <i name="atom">    588.62352690 </i>
    <i name="e_fr_energy">    -36.92247690 </i>
    <i name="e_wo_entrp">    -36.92239113 </i>
    <i name="e_0_energy">    -36.92243401 </i>
   </energy>
  </scstep>
  <scstep>
   <time name="diag">   79.65   79.70</time>
   <time name="diis">  324.44  324.53</time>
   <time name="orth">    3.09    3.09</time>
   <time name="total">  438.98  439.13</time>
   <energy>
    <i name="e_fr_energy">    -36.92247692 </i>
    <i name="e_wo_entrp">    -36.92239108 </i>
    <i name="e_0_energy">    -36.92243400 </i>
   </energy>
  </scstep>
  <scstep>
   <time name="diag">   79.73   79.78</time>
   <time name="diis">  326.05  326.92</time>
   <time name="orth">    3.07    3.07</time>
   <time name="total">  440.63  441.97</time>
   <energy>
    <i name="e_fr_energy">    -36.92247690 </i>
    <i name="e_wo_entrp">    -36.92239093 </i>
    <i name="e_0_energy">    -36.92243391 </i>
   </energy>
  </scstep>
  <scstep>
   <time name="diag">   79.73   79.76</time>
   <time name="diis">  332.58  333.32</time>
   <time name="orth">    3.09    3.09</time>
   <time name="total">  447.38  448.19</time>
   <energy>
    <i name="e_fr_energy">    -36.92247690 </i>
    <i name="e_wo_entrp">    -36.92239096 </i>
    <i name="e_0_energy">    -36.92243393 </i>
   </energy>
  </scstep>
  <scstep>
   <time name="diag">   79.74   79.78</time>
   <time name="diis">  274.31  274.46</time>
   <time name="orth">    3.09    3.09</time>
   <time name="total">  389.06  389.27</time>
   <energy>
    <i name="e_fr_energy">    -36.92247690 </i>
    <i name="e_wo_entrp">    -36.92239096 </i>
    <i name="e_0_energy">    -36.92243393 </i>
   </energy>
  </scstep>
  <scstep>
   <time name="diag">   79.71   79.74</time>
   <time name="diis">  217.38  217.46</time>
   <time name="orth">    3.07    3.07</time>
   <time name="total">  302.61  302.74</time>
   <energy>
    <i name="alphaZ">      6.18334092 </i>
    <i name="ewald">   2557.26258987 </i>
    <i name="hartreedc">  -3051.28143102 </i>
    <i name="XCdc">     57.44160889 </i>
    <i name="pawpsdc">    275.30030071 </i>
    <i name="pawaedc">   -280.44106375 </i>
    <i name="eentropy">     -0.00008594 </i>
    <i name="bandstr">   -190.01126349 </i>
    <i name="atom">    588.62352690 </i>
    <i name="e_fr_energy">    -36.92247690 </i>
    <i name="e_wo_entrp">    -36.92239096 </i>
    <i name="e_0_energy">    -36.92243393 </i>
   </energy>
  </scstep>
  <structure>
   <crystal>
    <varray name="basis" >
     <v>       4.26920980       0.00000000       0.00000000 </v>
     <v>       0.00000000       2.48012986       0.00000000 </v>
     <v>       0.00000000       0.00000000      19.91254478 </v>
    </varray>
    <i name="volume">    210.83790140 </i>
    <varray name="rec_basis" >
     <v>       0.23423538       0.00000000       0.00000000 </v>
     <v>       0.00000000       0.40320469       0.00000000 </v>
     <v>       0.00000000       0.00000000       0.05021960 </v>
    </varray>
   </crystal>
   <varray name="positions" >
    <v>       0.00013558      -0.00000000      -0.00000000 </v>
    <v>       0.16653108       0.50000000       0.00000000 </v>
    <v>       0.50013558       0.50000000      -0.00000000 </v>
    <v>       0.66653108      -0.00000000       0.00000000 </v>
   </varray>
  </structure>
  <varray name="forces" >
   <v>      -0.00001017      -0.00000000       0.00000000 </v>
   <v>       0.00001017       0.00000000       0.00000000 </v>
   <v>      -0.00001017       0.00000000       0.00000000 </v>
   <v>       0.00001017      -0.00000000       0.00000000 </v>
  </varray>
  <varray name="stress" >
   <v>       0.00595056       0.00000000       0.00000000 </v>
   <v>       0.00000000      -8.75507798       0.00000000 </v>
   <v>       0.00000000       0.00000000      -0.01000475 </v>
  </varray>
  <energy>
   <i name="e_fr_energy">    -36.92247690 </i>
   <i name="e_wo_entrp">    -36.92243393 </i>
   <i name="e_0_energy">     -0.00008594 </i>
  </energy>
  <time name="totalsc"> 2464.56 2467.32</time>
 </calculation>
 <calculation>
  <scstep>
   <time name="dav">  262.72  262.82</time>
   <time name="total">  294.67  294.79</time>
   <energy>
    <i name="alphaZ">      6.18334092 </i>
    <i name="ewald">   2557.26259032 </i>
    <i name="hartreedc">  -3051.28143329 </i>
    <i name="XCdc">     57.44160898 </i>
    <i name="pawpsdc">    275.30030003 </i>
    <i name="pawaedc">   -280.44106312 </i>
    <i name="eentropy">     -0.00008593 </i>
    <i name="bandstr">   -190.01126171 </i>
    <i name="atom">    588.62352690 </i>
    <i name="e_fr_energy">    -36.92247690 </i>
    <i name="e_wo_entrp">    -36.92239096 </i>
    <i name="e_0_energy">    -36.92243393 </i>
   </energy>
  </scstep>
  <scstep>
   <time name="diag">   79.65   79.70</time>
   <time name="diis">  195.04  195.24</time>
   <time name="orth">    3.07    3.07</time>
   <time name="total">  309.35  309.62</time>
   <energy>
    <i name="e_fr_energy">    -36.92247690 </i>
    <i name="e_wo_entrp">    -36.92239096 </i>
    <i name="e_0_energy">    -36.92243393 </i>
   </energy>
  </scstep>
  <scstep>
   <time name="diag">   79.60   79.68</time>
   <time name="diis">  188.07  188.69</time>
   <time name="orth">    3.08    3.09</time>
   <time name="total">  302.79  303.60</time>
   <energy>
    <i name="e_fr_energy">    -36.92247690 </i>
    <i name="e_wo_entrp">    -36.92239096 </i>
    <i name="e_0_energy">    -36.92243393 </i>
   </energy>
  </scstep>
  <scstep>
   <time name="diag">   79.30   79.71</time>
   <time name="diis">  178.47  179.91</time>
   <time name="orth">    3.08    3.10</time>
   <time name="total">  292.49  294.48</time>
   <energy>
    <i name="e_fr_energy">    -36.92247690 </i>
    <i name="e_wo_entrp">    -36.92239096 </i>
    <i name="e_0_energy">    -36.92243393 </i>
   </energy>
  </scstep>
  <scstep>
   <time name="diag">   79.08   79.64</time>
   <time name="diis">  168.01  169.26</time>
   <time name="orth">    3.08    3.09</time>
   <time name="total">  281.93  284.00</time>
   <energy>
    <i name="e_fr_energy">    -36.92247690 </i>
    <i name="e_wo_entrp">    -36.92239096 </i>
    <i name="e_0_energy">    -36.92243393 </i>
   </energy>
  </scstep>
  <scstep>
   <time name="diag">   79.13   79.70</time>
   <time name="diis">  167.69  168.81</time>
   <time name="orth">    3.08    3.09</time>
   <time name="total">  281.41  283.30</time>
   <energy>
    <i name="e_fr_energy">    -36.92247690 </i>
    <i name="e_wo_entrp">    -36.92239096 </i>
    <i name="e_0_energy">    -36.92243393 </i>
   </energy>
  </scstep>
  <scstep>
   <time name="diag">   79.75   79.87</time>
   <time name="diis">  166.33  166.71</time>
   <time name="orth">    3.08    3.09</time>
   <time name="total">  281.18  281.80</time>
   <energy>
    <i name="e_fr_energy">    -36.92247690 </i>
    <i name="e_wo_entrp">    -36.92239096 </i>
    <i name="e_0_energy">    -36.92243393 </i>
   </energy>
  </scstep>
  <scstep>
   <time name="diag">   79.63   79.88</time>
   <time name="diis">  158.42  159.11</time>
   <time name="orth">    3.07    3.09</time>
   <time name="total">  243.59  244.57</time>
   <energy>
    <i name="alphaZ">      6.18334092 </i>
    <i name="ewald">   2557.26259032 </i>
    <i name="hartreedc">  -3051.28143674 </i>
    <i name="XCdc">     57.44160901 </i>
    <i name="pawpsdc">    275.30029357 </i>
    <i name="pawaedc">   -280.44105666 </i>
    <i name="eentropy">     -0.00008593 </i>
    <i name="bandstr">   -190.01125828 </i>
    <i name="atom">    588.62352690 </i>
    <i name="e_fr_energy">    -36.92247690 </i>
    <i name="e_wo_entrp">    -36.92239096 </i>
    <i name="e_0_energy">    -36.92243393 </i>
   </energy>
  </scstep>
  <structure>
   <crystal>
    <varray name="basis" >
     <v>       4.26920980       0.00000000       0.00000000 </v>
     <v>       0.00000000       2.48012986       0.00000000 </v>
     <v>       0.00000000       0.00000000      19.91254478 </v>
    </varray>
    <i name="volume">    210.83790140 </i>
    <varray name="rec_basis" >
     <v>       0.23423538       0.00000000       0.00000000 </v>
     <v>       0.00000000       0.40320469       0.00000000 </v>
     <v>       0.00000000       0.00000000       0.05021960 </v>
    </varray>
   </crystal>
   <varray name="positions" >
    <v>       0.00013556      -0.00000000      -0.00000000 </v>
    <v>       0.16653110       0.50000000       0.00000000 </v>
    <v>       0.50013556       0.50000000      -0.00000000 </v>
    <v>       0.66653110      -0.00000000       0.00000000 </v>
   </varray>
  </structure>
  <varray name="forces" >
   <v>       0.00001234      -0.00000000       0.00000000 </v>
   <v>      -0.00001234       0.00000000      -0.00000000 </v>
   <v>       0.00001234       0.00000000       0.00000000 </v>
   <v>      -0.00001234      -0.00000000      -0.00000000 </v>
  </varray>
  <varray name="stress" >
   <v>       0.00611745       0.00000000       0.00000000 </v>
   <v>       0.00000000      -8.75524820       0.00000000 </v>
   <v>       0.00000000       0.00000000      -0.01000518 </v>
  </varray>
  <energy>
   <i name="e_fr_energy">    -36.92247690 </i>
   <i name="e_wo_entrp">    -36.92243393 </i>
   <i name="e_0_energy">     -0.00008593 </i>
  </energy>
  <time name="totalsc"> 2387.12 2396.41</time>
 </calculation>
 <calculation>
  <scstep>
   <time name="dav">  241.13  242.06</time>
   <time name="total">  272.87  273.94</time>
   <energy>
    <i name="alphaZ">      6.18334092 </i>
    <i name="ewald">   2557.26259008 </i>
    <i name="hartreedc">  -3051.28143666 </i>
    <i name="XCdc">     57.44160900 </i>
    <i name="pawpsdc">    275.30029357 </i>
    <i name="pawaedc">   -280.44105667 </i>
    <i name="eentropy">     -0.00008594 </i>
    <i name="bandstr">   -190.01125811 </i>
    <i name="atom">    588.62352690 </i>
    <i name="e_fr_energy">    -36.92247689 </i>
    <i name="e_wo_entrp">    -36.92239096 </i>
    <i name="e_0_energy">    -36.92243393 </i>
   </energy>
  </scstep>
  <scstep>
   <time name="diag">   79.34   79.77</time>
   <time name="diis">  150.43  151.05</time>
   <time name="orth">    3.08    3.09</time>
   <time name="total">  264.75  265.96</time>
   <energy>
    <i name="e_fr_energy">    -36.92247690 </i>
    <i name="e_wo_entrp">    -36.92239096 </i>
    <i name="e_0_energy">    -36.92243393 </i>
   </energy>
  </scstep>
  <scstep>
   <time name="diag">   79.37   79.72</time>
   <time name="diis">  148.26  149.31</time>
   <time name="orth">    3.07    3.08</time>
   <time name="total">  262.14  263.81</time>
   <energy>
    <i name="e_fr_energy">    -36.92247690 </i>
    <i name="e_wo_entrp">    -36.92239096 </i>
    <i name="e_0_energy">    -36.92243393 </i>
   </energy>
  </scstep>
  <scstep>
   <time name="diag">   79.17   79.76</time>
   <time name="diis">  146.64  147.62</time>
   <time name="orth">    3.07    3.09</time>
   <time name="total">  260.43  262.26</time>
   <energy>
    <i name="e_fr_energy">    -36.92247690 </i>
    <i name="e_wo_entrp">    -36.92239096 </i>
    <i name="e_0_energy">    -36.92243393 </i>
   </energy>
  </scstep>
  <scstep>
   <time name="diag">   79.15   79.75</time>
   <time name="diis">  138.85  140.05</time>
   <time name="orth">    3.06    3.09</time>
   <time name="total">  252.26  254.39</time>
   <energy>
    <i name="e_fr_energy">    -36.92247690 </i>
    <i name="e_wo_entrp">    -36.92239096 </i>
    <i name="e_0_energy">    -36.92243393 </i>
   </energy>
  </scstep>
  <scstep>
   <time name="diag">   79.28   79.73</time>
   <time name="diis">  142.64  143.55</time>
   <time name="orth">    3.07    3.09</time>
   <time name="total">  256.62  258.16</time>
   <energy>
    <i name="e_fr_energy">    -36.92247690 </i>
    <i name="e_wo_entrp">    -36.92239096 </i>
    <i name="e_0_energy">    -36.92243393 </i>
   </energy>
  </scstep>
  <scstep>
   <time name="diag">   79.82   79.85</time>
   <time name="diis">  141.28  141.33</time>
   <time name="orth">    3.09    3.09</time>
   <time name="total">  256.20  256.34</time>
   <energy>
    <i name="e_fr_energy">    -36.92247690 </i>
    <i name="e_wo_entrp">    -36.92239096 </i>
    <i name="e_0_energy">    -36.92243393 </i>
   </energy>
  </scstep>
  <scstep>
   <time name="diag">   79.86   79.89</time>
   <time name="diis">  145.45  145.66</time>
   <time name="orth">    3.07    3.09</time>
   <time name="total">  260.27  260.65</time>
   <energy>
    <i name="e_fr_energy">    -36.92247690 </i>
    <i name="e_wo_entrp">    -36.92239096 </i>
    <i name="e_0_energy">    -36.92243393 </i>
   </energy>
  </scstep>
  <scstep>
   <time name="diag">   79.53   79.87</time>
   <time name="diis">  136.37  136.41</time>
   <time name="orth">    3.07    3.07</time>
   <time name="total">  251.05  251.46</time>
   <energy>
    <i name="e_fr_energy">    -36.92247690 </i>
    <i name="e_wo_entrp">    -36.92239096 </i>
    <i name="e_0_energy">    -36.92243393 </i>
   </energy>
  </scstep>
  <scstep>
   <time name="diag">   79.78   79.81</time>
   <time name="diis">  134.42  134.75</time>
   <time name="orth">    3.07    3.07</time>
   <time name="total">  249.01  249.44</time>
   <energy>
    <i name="e_fr_energy">    -36.92247690 </i>
    <i name="e_wo_entrp">    -36.92239096 </i>
    <i name="e_0_energy">    -36.92243393 </i>
   </energy>
  </scstep>
  <scstep>
   <time name="diag">   79.82   79.84</time>
   <time name="diis">  140.64  140.66</time>
   <time name="orth">    3.07    3.07</time>
   <time name="total">  255.82  255.88</time>
   <energy>
    <i name="e_fr_energy">    -36.92247690 </i>
    <i name="e_wo_entrp">    -36.92239096 </i>
    <i name="e_0_energy">    -36.92243393 </i>
   </energy>
  </scstep>
  <scstep>
   <time name="diag">   79.73   79.76</time>
   <time name="diis">  127.36  127.43</time>
   <time name="orth">    3.09    3.10</time>
   <time name="total">  241.61  241.75</time>
   <energy>
    <i name="e_fr_energy">    -36.92247690 </i>
    <i name="e_wo_entrp">    -36.92239096 </i>
    <i name="e_0_energy">    -36.92243393 </i>
   </energy>
  </scstep>
  <scstep>
   <time name="diag">   79.68   79.73</time>
   <time name="diis">  135.29  135.50</time>
   <time name="orth">    3.10    3.10</time>
   <time name="total">  250.00  250.31</time>
   <energy>
    <i name="e_fr_energy">    -36.92247690 </i>
    <i name="e_wo_entrp">    -36.92239096 </i>
    <i name="e_0_energy">    -36.92243393 </i>
   </energy>
  </scstep>
  <scstep>
   <time name="diag">   79.39   79.75</time>
   <time name="diis">  126.38  127.47</time>
   <time name="orth">    3.08    3.08</time>
   <time name="total">  240.67  242.50</time>
   <energy>
    <i name="e_fr_energy">    -36.92247690 </i>
    <i name="e_wo_entrp">    -36.92239096 </i>
    <i name="e_0_energy">    -36.92243393 </i>
   </energy>
  </scstep>
  <scstep>
   <time name="diag">   79.82   79.83</time>
   <time name="diis">  113.09  113.44</time>
   <time name="orth">    3.08    3.10</time>
   <time name="total">  227.44  227.98</time>
   <energy>
    <i name="e_fr_energy">    -36.92247690 </i>
    <i name="e_wo_entrp">    -36.92239096 </i>
    <i name="e_0_energy">    -36.92243393 </i>
   </energy>
  </scstep>
  <scstep>
   <time name="diag">   79.64   79.82</time>
   <time name="diis">  130.28  130.31</time>
   <time name="orth">    3.09    3.09</time>
   <time name="total">  244.88  245.10</time>
   <energy>
    <i name="e_fr_energy">    -36.92247690 </i>
    <i name="e_wo_entrp">    -36.92239096 </i>
    <i name="e_0_energy">    -36.92243393 </i>
   </energy>
  </scstep>
  <scstep>
   <time name="diag">   79.78   79.81</time>
   <time name="diis">  138.54  138.56</time>
   <time name="orth">    3.07    3.07</time>
   <time name="total">  253.27  253.34</time>
   <energy>
    <i name="e_fr_energy">    -36.92247690 </i>
    <i name="e_wo_entrp">    -36.92239096 </i>
    <i name="e_0_energy">    -36.92243393 </i>
   </energy>
  </scstep>
  <scstep>
   <time name="diag">   79.70   79.72</time>
   <time name="diis">  138.26  138.58</time>
   <time name="orth">    3.07    3.07</time>
   <time name="total">  252.92  253.39</time>
   <energy>
    <i name="e_fr_energy">    -36.92247690 </i>
    <i name="e_wo_entrp">    -36.92239096 </i>
    <i name="e_0_energy">    -36.92243393 </i>
   </energy>
  </scstep>
  <scstep>
   <time name="diag">   79.29   79.67</time>
   <time name="diis">  140.70  141.35</time>
   <time name="orth">    3.07    3.07</time>
   <time name="total">  255.10  256.31</time>
   <energy>
    <i name="e_fr_energy">    -36.92247690 </i>
    <i name="e_wo_entrp">    -36.92239096 </i>
    <i name="e_0_energy">    -36.92243393 </i>
   </energy>
  </scstep>
  <scstep>
   <time name="diag">   79.71   79.73</time>
   <time name="diis">  123.82  123.84</time>
   <time name="orth">    3.07    3.07</time>
   <time name="total">  238.83  238.88</time>
   <energy>
    <i name="e_fr_energy">    -36.92247690 </i>
    <i name="e_wo_entrp">    -36.92239096 </i>
    <i name="e_0_energy">    -36.92243393 </i>
   </energy>
  </scstep>
  <scstep>
   <time name="diag">   79.76   79.78</time>
   <time name="diis">  123.77  123.80</time>
   <time name="orth">    3.09    3.09</time>
   <time name="total">  238.63  238.69</time>
   <energy>
    <i name="e_fr_energy">    -36.92247690 </i>
    <i name="e_wo_entrp">    -36.92239096 </i>
    <i name="e_0_energy">    -36.92243393 </i>
   </energy>
  </scstep>
  <scstep>
   <time name="diag">   79.12   79.75</time>
   <time name="diis">  124.12  125.05</time>
   <time name="orth">    3.09    3.09</time>
   <time name="total">  238.13  239.81</time>
   <energy>
    <i name="e_fr_energy">    -36.92247690 </i>
    <i name="e_wo_entrp">    -36.92239096 </i>
    <i name="e_0_energy">    -36.92243393 </i>
   </energy>
  </scstep>
  <scstep>
   <time name="diag">   79.53   79.80</time>
   <time name="diis">  123.95  124.56</time>
   <time name="orth">    3.07    3.09</time>
   <time name="total">  238.58  239.64</time>
   <energy>
    <i name="e_fr_energy">    -36.92247690 </i>
    <i name="e_wo_entrp">    -36.92239096 </i>
    <i name="e_0_energy">    -36.92243393 </i>
   </energy>
  </scstep>
  <scstep>
   <time name="diag">   79.36   79.76</time>
   <time name="diis">  115.11  115.74</time>
   <time name="orth">    3.08    3.09</time>
   <time name="total">  200.06  201.11</time>
   <energy>
    <i name="alphaZ">      6.18334092 </i>
    <i name="ewald">   2557.26259008 </i>
    <i name="hartreedc">  -3051.28143748 </i>
    <i name="XCdc">     57.44160901 </i>
    <i name="pawpsdc">    275.30029275 </i>
    <i name="pawaedc">   -280.44105584 </i>
    <i name="eentropy">     -0.00008594 </i>
    <i name="bandstr">   -190.01125730 </i>
    <i name="atom">    588.62352690 </i>
    <i name="e_fr_energy">    -36.92247690 </i>
    <i name="e_wo_entrp">    -36.92239096 </i>
    <i name="e_0_energy">    -36.92243393 </i>
   </energy>
  </scstep>
  <structure>
   <crystal>
    <varray name="basis" >
     <v>       4.26920980       0.00000000       0.00000000 </v>
     <v>       0.00000000       2.48012986       0.00000000 </v>
     <v>       0.00000000       0.00000000      19.91254478 </v>
    </varray>
    <i name="volume">    210.83790140 </i>
    <varray name="rec_basis" >
     <v>       0.23423538       0.00000000       0.00000000 </v>
     <v>       0.00000000       0.40320469       0.00000000 </v>
     <v>       0.00000000       0.00000000       0.05021960 </v>
    </varray>
   </crystal>
   <varray name="positions" >
    <v>       0.00013557      -0.00000000       0.00000000 </v>
    <v>       0.16653109       0.50000000      -0.00000000 </v>
    <v>       0.50013557       0.50000000       0.00000000 </v>
    <v>       0.66653109      -0.00000000      -0.00000000 </v>
   </varray>
  </structure>
  <varray name="forces" >
   <v>       0.00000180      -0.00000000       0.00000000 </v>
   <v>      -0.00000180       0.00000000       0.00000000 </v>
   <v>       0.00000180      -0.00000000       0.00000000 </v>
   <v>      -0.00000180       0.00000000       0.00000000 </v>
  </varray>
  <varray name="stress" >
   <v>       0.00607806       0.00000000       0.00000000 </v>
[...]
       <r>   -9.1629    1.0000 </r>
       <r>   -5.6104    1.0000 </r>
       <r>   -5.6104    1.0000 </r>
       <r>   -0.4544    0.0000 </r>
       <r>   -0.4544    0.0000 </r>
       <r>    4.8346    0.0000 </r>
       <r>    4.8346    0.0000 </r>
      </set>
      <set comment="kpoint 209">
       <r>  -18.8401    1.0000 </r>
       <r>  -17.0714    1.0000 </r>
       <r>  -14.0093    1.0000 </r>
       <r>  -12.3971    1.0000 </r>
       <r>  -12.3970    1.0000 </r>
       <r>  -10.8789    1.0000 </r>
       <r>   -6.4371    1.0000 </r>
       <r>   -4.5655    1.0000 </r>
       <r>   -0.9870    0.0000 </r>
       <r>    1.1565    0.0000 </r>
       <r>    5.2022    0.0000 </r>
       <r>    5.9909    0.0000 </r>
      </set>
      <set comment="kpoint 210">
       <r>  -18.8304    1.0000 </r>
       <r>  -17.0637    1.0000 </r>
       <r>  -14.0970    1.0000 </r>
       <r>  -12.4782    1.0000 </r>
       <r>  -12.3015    1.0000 </r>
       <r>  -10.7999    1.0000 </r>
       <r>   -6.4283    1.0000 </r>
       <r>   -4.5682    1.0000 </r>
       <r>   -0.9969    0.0000 </r>
       <r>    1.1308    0.0000 </r>
       <r>    5.2158    0.0000 </r>
       <r>    6.0070    0.0000 </r>
      </set>
      <set comment="kpoint 211">
       <r>  -18.8012    1.0000 </r>
       <r>  -17.0409    1.0000 </r>
       <r>  -14.3140    1.0000 </r>
       <r>  -12.6829    1.0000 </r>
       <r>  -12.0609    1.0000 </r>
       <r>  -10.6022    1.0000 </r>
       <r>   -6.4019    1.0000 </r>
       <r>   -4.5769    1.0000 </r>
       <r>   -1.0251    0.0000 </r>
       <r>    1.0557    0.0000 </r>
       <r>    5.2566    0.0000 </r>
       <r>    6.0549    0.0000 </r>
      </set>
      <set comment="kpoint 212">
       <r>  -18.7527    1.0000 </r>
       <r>  -17.0043    1.0000 </r>
       <r>  -14.5902    1.0000 </r>
       <r>  -12.9508    1.0000 </r>
       <r>  -11.7454    1.0000 </r>
       <r>  -10.3484    1.0000 </r>
       <r>   -6.3583    1.0000 </r>
       <r>   -4.5931    1.0000 </r>
       <r>   -1.0662    0.0000 </r>
       <r>    0.9365    0.0000 </r>
       <r>    5.3243    0.0000 </r>
       <r>    6.1335    0.0000 </r>
      </set>
      <set comment="kpoint 213">
       <r>  -18.6850    1.0000 </r>
       <r>  -16.9565    1.0000 </r>
       <r>  -14.8835    1.0000 </r>
       <r>  -13.2452    1.0000 </r>
       <r>  -11.3970    1.0000 </r>
       <r>  -10.0783    1.0000 </r>
       <r>   -6.2979    1.0000 </r>
       <r>   -4.6191    1.0000 </r>
       <r>   -1.1125    0.0000 </r>
       <r>    0.7808    0.0000 </r>
       <r>    5.4177    0.0000 </r>
       <r>    6.2415    0.0000 </r>
      </set>
      <set comment="kpoint 214">
       <r>  -18.5983    1.0000 </r>
       <r>  -16.9026    1.0000 </r>
       <r>  -15.1700    1.0000 </r>
       <r>  -13.5480    1.0000 </r>
       <r>  -11.0377    1.0000 </r>
       <r>   -9.8149    1.0000 </r>
       <r>   -6.2215    1.0000 </r>
       <r>   -4.6577    1.0000 </r>
       <r>   -1.1550    0.0000 </r>
       <r>    0.5976    0.0000 </r>
       <r>    5.5323    0.0000 </r>
       <r>    6.1751    0.0000 </r>
      </set>
      <set comment="kpoint 215">
       <r>  -18.4930    1.0000 </r>
       <r>  -16.8529    1.0000 </r>
       <r>  -15.4302    1.0000 </r>
       <r>  -13.8495    1.0000 </r>
       <r>  -10.6810    1.0000 </r>
       <r>   -9.5734    1.0000 </r>
       <r>   -6.1301    1.0000 </r>
       <r>   -4.7115    1.0000 </r>
       <r>   -1.1844    0.0000 </r>
       <r>    0.3958    0.0000 </r>
       <r>    5.5964    0.0000 </r>
       <r>    5.8175    0.0000 </r>
      </set>
      <set comment="kpoint 216">
       <r>  -18.3694    1.0000 </r>
       <r>  -16.8271    1.0000 </r>
       <r>  -15.6394    1.0000 </r>
       <r>  -14.1440    1.0000 </r>
       <r>  -10.3375    1.0000 </r>
       <r>   -9.3660    1.0000 </r>
       <r>   -6.0250    1.0000 </r>
       <r>   -4.7824    1.0000 </r>
       <r>   -1.1928    0.0000 </r>
       <r>    0.1837    0.0000 </r>
       <r>    5.3088    0.0000 </r>
       <r>    5.9038    0.0000 </r>
      </set>
      <set comment="kpoint 217">
       <r>  -18.2282    1.0000 </r>
       <r>  -16.8555    1.0000 </r>
       <r>  -15.7644    1.0000 </r>
       <r>  -14.4275    1.0000 </r>
       <r>  -10.0166    1.0000 </r>
       <r>   -9.2032    1.0000 </r>
       <r>   -5.9078    1.0000 </r>
       <r>   -4.8712    1.0000 </r>
       <r>   -1.1740    0.0000 </r>
       <r>   -0.0310    0.0000 </r>
       <r>    5.0143    0.0000 </r>
       <r>    5.8415    0.0000 </r>
      </set>
      <set comment="kpoint 218">
       <r>  -18.0703    1.0000 </r>
       <r>  -16.9584    1.0000 </r>
       <r>  -15.7831    1.0000 </r>
       <r>  -14.6971    1.0000 </r>
       <r>   -9.7275    1.0000 </r>
       <r>   -9.0938    1.0000 </r>
       <r>   -5.7805    1.0000 </r>
       <r>   -4.9768    1.0000 </r>
       <r>   -1.1245    0.0000 </r>
       <r>   -0.2416    0.0000 </r>
       <r>    4.7983    0.0000 </r>
       <r>    5.4435    0.0000 </r>
      </set>
      <set comment="kpoint 219">
       <r>  -17.8969    1.0000 </r>
       <r>  -17.1212    1.0000 </r>
       <r>  -15.7089    1.0000 </r>
       <r>  -14.9500    1.0000 </r>
       <r>   -9.4793    1.0000 </r>
       <r>   -9.0445    1.0000 </r>
       <r>   -5.6457    1.0000 </r>
       <r>   -5.0969    1.0000 </r>
       <r>   -1.0433    0.0000 </r>
       <r>   -0.4420    0.0000 </r>
       <r>    4.6726    0.0000 </r>
       <r>    5.1159    0.0000 </r>
      </set>
      <set comment="kpoint 220">
       <r>  -17.7103    1.0000 </r>
       <r>  -17.3135    1.0000 </r>
       <r>  -15.5717    1.0000 </r>
       <r>  -15.1831    1.0000 </r>
       <r>   -9.2806    1.0000 </r>
       <r>   -9.0592    1.0000 </r>
       <r>   -5.5063    1.0000 </r>
       <r>   -5.2279    1.0000 </r>
       <r>   -0.9315    0.0000 </r>
       <r>   -0.6269    0.0000 </r>
       <r>    4.6422    0.0000 </r>
       <r>    4.8681    0.0000 </r>
      </set>
      <set comment="kpoint 221">
       <r>  -17.5137    1.0000 </r>
       <r>  -17.5137    1.0000 </r>
       <r>  -15.3925    1.0000 </r>
       <r>  -15.3925    1.0000 </r>
       <r>   -9.1388    1.0000 </r>
       <r>   -9.1388    1.0000 </r>
       <r>   -5.3657    1.0000 </r>
       <r>   -5.3657    1.0000 </r>
       <r>   -0.7915    0.0000 </r>
       <r>   -0.7915    0.0000 </r>
       <r>    4.7083    0.0000 </r>
       <r>    4.7083    0.0000 </r>
      </set>
      <set comment="kpoint 222">
       <r>  -18.4223    1.0000 </r>
       <r>  -17.5343    1.0000 </r>
       <r>  -13.6360    1.0000 </r>
       <r>  -12.8291    1.0000 </r>
       <r>  -12.0507    1.0000 </r>
       <r>  -11.2869    1.0000 </r>
       <r>   -5.9817    1.0000 </r>
       <r>   -5.0407    1.0000 </r>
       <r>   -0.4841    0.0000 </r>
       <r>    0.5897    0.0000 </r>
       <r>    5.7956    0.0000 </r>
       <r>    6.5487    0.0000 </r>
      </set>
      <set comment="kpoint 223">
       <r>  -18.4128    1.0000 </r>
       <r>  -17.5255    1.0000 </r>
       <r>  -13.7238    1.0000 </r>
       <r>  -12.9131    1.0000 </r>
       <r>  -11.9578    1.0000 </r>
       <r>  -11.2026    1.0000 </r>
       <r>   -5.9742    1.0000 </r>
       <r>   -5.0382    1.0000 </r>
       <r>   -0.5006    0.0000 </r>
       <r>    0.5661    0.0000 </r>
       <r>    5.8092    0.0000 </r>
       <r>    6.5656    0.0000 </r>
      </set>
      <set comment="kpoint 224">
       <r>  -18.3842    1.0000 </r>
       <r>  -17.4993    1.0000 </r>
       <r>  -13.9418    1.0000 </r>
       <r>  -13.1236    1.0000 </r>
       <r>  -11.7246    1.0000 </r>
       <r>  -10.9914    1.0000 </r>
       <r>   -5.9518    1.0000 </r>
       <r>   -5.0312    1.0000 </r>
       <r>   -0.5484    0.0000 </r>
       <r>    0.4971    0.0000 </r>
       <r>    5.8498    0.0000 </r>
       <r>    6.6160    0.0000 </r>
      </set>
      <set comment="kpoint 225">
       <r>  -18.3366    1.0000 </r>
       <r>  -17.4563    1.0000 </r>
       <r>  -14.2215    1.0000 </r>
       <r>  -13.3972    1.0000 </r>
       <r>  -11.4206    1.0000 </r>
       <r>  -10.7186    1.0000 </r>
       <r>   -5.9150    1.0000 </r>
       <r>   -5.0208    1.0000 </r>
       <r>   -0.6221    0.0000 </r>
       <r>    0.3879    0.0000 </r>
       <r>    5.9170    0.0000 </r>
       <r>    6.6983    0.0000 </r>
      </set>
      <set comment="kpoint 226">
       <r>  -18.2703    1.0000 </r>
       <r>  -17.3972    1.0000 </r>
       <r>  -14.5231    1.0000 </r>
       <r>  -13.6963    1.0000 </r>
       <r>  -11.0876    1.0000 </r>
       <r>  -10.4249    1.0000 </r>
       <r>   -5.8645    1.0000 </r>
       <r>   -5.0088    1.0000 </r>
       <r>   -0.7140    0.0000 </r>
       <r>    0.2463    0.0000 </r>
       <r>    6.0087    0.0000 </r>
       <r>    6.8107    0.0000 </r>
      </set>
      <set comment="kpoint 227">
       <r>  -18.1856    1.0000 </r>
       <r>  -17.3237    1.0000 </r>
       <r>  -14.8263    1.0000 </r>
       <r>  -14.0022    1.0000 </r>
       <r>  -10.7476    1.0000 </r>
       <r>  -10.1330    1.0000 </r>
       <r>   -5.8015    1.0000 </r>
       <r>   -4.9979    1.0000 </r>
       <r>   -0.8145    0.0000 </r>
       <r>    0.0812    0.0000 </r>
       <r>    6.1083    0.0000 </r>
       <r>    6.4524    0.0000 </r>
      </set>
      <set comment="kpoint 228">
       <r>  -18.0831    1.0000 </r>
       <r>  -17.2389    1.0000 </r>
       <r>  -15.1190    1.0000 </r>
       <r>  -14.3053    1.0000 </r>
       <r>  -10.4147    1.0000 </r>
       <r>   -9.8577    1.0000 </r>
       <r>   -5.7275    1.0000 </r>
       <r>   -4.9910    1.0000 </r>
       <r>   -0.9135    0.0000 </r>
       <r>   -0.0982    0.0000 </r>
       <r>    5.9082    0.0000 </r>
       <r>    6.3250    0.0000 </r>
      </set>
      <set comment="kpoint 229">
       <r>  -17.9635    1.0000 </r>
       <r>  -17.1481    1.0000 </r>
       <r>  -15.3909    1.0000 </r>
       <r>  -14.5994    1.0000 </r>
       <r>  -10.0999    1.0000 </r>
       <r>   -9.6110    1.0000 </r>
       <r>   -5.6445    1.0000 </r>
       <r>   -4.9917    1.0000 </r>
       <r>   -1.0010    0.0000 </r>
       <r>   -0.2829    0.0000 </r>
       <r>    5.5057    0.0000 </r>
       <r>    6.0011    0.0000 </r>
      </set>
      <set comment="kpoint 230">
       <r>  -17.8281    1.0000 </r>
       <r>  -17.0620    1.0000 </r>
       <r>  -15.6282    1.0000 </r>
       <r>  -14.8804    1.0000 </r>
       <r>   -9.8129    1.0000 </r>
       <r>   -9.4033    1.0000 </r>
       <r>   -5.5550    1.0000 </r>
       <r>   -5.0034    1.0000 </r>
       <r>   -1.0680    0.0000 </r>
       <r>   -0.4645    0.0000 </r>
       <r>    5.1600    0.0000 </r>
       <r>    5.5754    0.0000 </r>
      </set>
      <set comment="kpoint 231">
       <r>  -17.6788    1.0000 </r>
       <r>  -17.0011    1.0000 </r>
       <r>  -15.8086    1.0000 </r>
       <r>  -15.1441    1.0000 </r>
       <r>   -9.5634    1.0000 </r>
       <r>   -9.2440    1.0000 </r>
       <r>   -5.4618    1.0000 </r>
       <r>   -5.0289    1.0000 </r>
       <r>   -1.1069    0.0000 </r>
       <r>   -0.6354    0.0000 </r>
       <r>    4.8916    0.0000 </r>
       <r>    5.2162    0.0000 </r>
      </set>
      <set comment="kpoint 232">
       <r>  -17.5189    1.0000 </r>
       <r>  -16.9962    1.0000 </r>
       <r>  -15.9002    1.0000 </r>
       <r>  -15.3860    1.0000 </r>
       <r>   -9.3603    1.0000 </r>
       <r>   -9.1410    1.0000 </r>
       <r>   -5.3686    1.0000 </r>
       <r>   -5.0699    1.0000 </r>
       <r>   -1.1126    0.0000 </r>
       <r>   -0.7884    0.0000 </r>
       <r>    4.7103    0.0000 </r>
       <r>    4.9335    0.0000 </r>
      </set>
      <set comment="kpoint 233">
       <r>  -17.3544    1.0000 </r>
       <r>  -17.0669    1.0000 </r>
       <r>  -15.8826    1.0000 </r>
       <r>  -15.5993    1.0000 </r>
       <r>   -9.2117    1.0000 </r>
       <r>   -9.1000    1.0000 </r>
       <r>   -5.2790    1.0000 </r>
       <r>   -5.1265    1.0000 </r>
       <r>   -1.0826    0.0000 </r>
       <r>   -0.9172    0.0000 </r>
       <r>    4.6226    0.0000 </r>
       <r>    4.7364    0.0000 </r>
      </set>
      <set comment="kpoint 234">
       <r>  -17.1966    1.0000 </r>
       <r>  -17.1966    1.0000 </r>
       <r>  -15.7720    1.0000 </r>
       <r>  -15.7720    1.0000 </r>
       <r>   -9.1237    1.0000 </r>
       <r>   -9.1237    1.0000 </r>
       <r>   -5.1971    1.0000 </r>
       <r>   -5.1971    1.0000 </r>
       <r>   -1.0167    0.0000 </r>
       <r>   -1.0167    0.0000 </r>
       <r>    4.6314    0.0000 </r>
       <r>    4.6314    0.0000 </r>
      </set>
      <set comment="kpoint 235">
       <r>  -17.9861    1.0000 </r>
       <r>  -17.9861    1.0000 </r>
       <r>  -13.2424    1.0000 </r>
       <r>  -13.2424    1.0000 </r>
       <r>  -11.6789    1.0000 </r>
       <r>  -11.6789    1.0000 </r>
       <r>   -5.5147    1.0000 </r>
       <r>   -5.5147    1.0000 </r>
       <r>    0.0421    0.0000 </r>
       <r>    0.0421    0.0000 </r>
       <r>    6.4200    0.0000 </r>
       <r>    6.4200    0.0000 </r>
      </set>
      <set comment="kpoint 236">
       <r>  -17.9768    1.0000 </r>
       <r>  -17.9768    1.0000 </r>
       <r>  -13.3287    1.0000 </r>
       <r>  -13.3287    1.0000 </r>
       <r>  -11.5899    1.0000 </r>
       <r>  -11.5899    1.0000 </r>
       <r>   -5.5091    1.0000 </r>
       <r>   -5.5091    1.0000 </r>
       <r>    0.0213    0.0000 </r>
       <r>    0.0213    0.0000 </r>
       <r>    6.4335    0.0000 </r>
       <r>    6.4335    0.0000 </r>
      </set>
      <set comment="kpoint 237">
       <r>  -17.9490    1.0000 </r>
       <r>  -17.9490    1.0000 </r>
       <r>  -13.5439    1.0000 </r>
       <r>  -13.5439    1.0000 </r>
       <r>  -11.3667    1.0000 </r>
       <r>  -11.3667    1.0000 </r>
       <r>   -5.4927    1.0000 </r>
       <r>   -5.4927    1.0000 </r>
       <r>   -0.0391    0.0000 </r>
       <r>   -0.0391    0.0000 </r>
       <r>    6.4739    0.0000 </r>
       <r>    6.4739    0.0000 </r>
      </set>
      <set comment="kpoint 238">
       <r>  -17.9030    1.0000 </r>
       <r>  -17.9030    1.0000 </r>
       <r>  -13.8219    1.0000 </r>
       <r>  -13.8219    1.0000 </r>
       <r>  -11.0771    1.0000 </r>
       <r>  -11.0771    1.0000 </r>
       <r>   -5.4661    1.0000 </r>
       <r>   -5.4661    1.0000 </r>
       <r>   -0.1339    0.0000 </r>
       <r>   -0.1339    0.0000 </r>
       <r>    6.5402    0.0000 </r>
       <r>    6.5402    0.0000 </r>
      </set>
      <set comment="kpoint 239">
       <r>  -17.8391    1.0000 </r>
       <r>  -17.8391    1.0000 </r>
       <r>  -14.1238    1.0000 </r>
       <r>  -14.1238    1.0000 </r>
       <r>  -10.7624    1.0000 </r>
       <r>  -10.7624    1.0000 </r>
       <r>   -5.4306    1.0000 </r>
       <r>   -5.4306    1.0000 </r>
       <r>   -0.2555    0.0000 </r>
       <r>   -0.2555    0.0000 </r>
       <r>    6.6280    0.0000 </r>
       <r>    6.6280    0.0000 </r>
      </set>
      <set comment="kpoint 240">
       <r>  -17.7581    1.0000 </r>
       <r>  -17.7581    1.0000 </r>
       <r>  -14.4308    1.0000 </r>
       <r>  -14.4308    1.0000 </r>
       <r>  -10.4449    1.0000 </r>
       <r>  -10.4449    1.0000 </r>
       <r>   -5.3880    1.0000 </r>
       <r>   -5.3880    1.0000 </r>
       <r>   -0.3946    0.0000 </r>
       <r>   -0.3946    0.0000 </r>
       <r>    6.6298    0.0000 </r>
       <r>    6.6298    0.0000 </r>
      </set>
      <set comment="kpoint 241">
       <r>  -17.6610    1.0000 </r>
       <r>  -17.6610    1.0000 </r>
       <r>  -14.7324    1.0000 </r>
       <r>  -14.7324    1.0000 </r>
       <r>  -10.1392    1.0000 </r>
       <r>  -10.1392    1.0000 </r>
       <r>   -5.3405    1.0000 </r>
       <r>   -5.3405    1.0000 </r>
       <r>   -0.5415    0.0000 </r>
       <r>   -0.5415    0.0000 </r>
       <r>    6.1838    0.0000 </r>
       <r>    6.1838    0.0000 </r>
      </set>
      <set comment="kpoint 242">
       <r>  -17.5496    1.0000 </r>
       <r>  -17.5496    1.0000 </r>
       <r>  -15.0218    1.0000 </r>
       <r>  -15.0218    1.0000 </r>
       <r>   -9.8567    1.0000 </r>
       <r>   -9.8567    1.0000 </r>
       <r>   -5.2910    1.0000 </r>
       <r>   -5.2910    1.0000 </r>
       <r>   -0.6866    0.0000 </r>
       <r>   -0.6866    0.0000 </r>
       <r>    5.7360    0.0000 </r>
       <r>    5.7360    0.0000 </r>
      </set>
      <set comment="kpoint 243">
       <r>  -17.4271    1.0000 </r>
       <r>  -17.4271    1.0000 </r>
       <r>  -15.2929    1.0000 </r>
       <r>  -15.2929    1.0000 </r>
       <r>   -9.6075    1.0000 </r>
       <r>   -9.6075    1.0000 </r>
       <r>   -5.2429    1.0000 </r>
       <r>   -5.2429    1.0000 </r>
       <r>   -0.8206    0.0000 </r>
       <r>   -0.8206    0.0000 </r>
       <r>    5.3475    0.0000 </r>
       <r>    5.3475    0.0000 </r>
      </set>
      <set comment="kpoint 244">
       <r>  -17.2991    1.0000 </r>
       <r>  -17.2991    1.0000 </r>
       <r>  -15.5379    1.0000 </r>
       <r>  -15.5379    1.0000 </r>
       <r>   -9.4014    1.0000 </r>
       <r>   -9.4014    1.0000 </r>
       <r>   -5.1999    1.0000 </r>
       <r>   -5.1999    1.0000 </r>
       <r>   -0.9350    0.0000 </r>
       <r>   -0.9350    0.0000 </r>
       <r>    5.0314    0.0000 </r>
       <r>    5.0314    0.0000 </r>
      </set>
      <set comment="kpoint 245">
       <r>  -17.1768    1.0000 </r>
       <r>  -17.1768    1.0000 </r>
       <r>  -15.7447    1.0000 </r>
       <r>  -15.7447    1.0000 </r>
       <r>   -9.2469    1.0000 </r>
       <r>   -9.2469    1.0000 </r>
       <r>   -5.1658    1.0000 </r>
       <r>   -5.1658    1.0000 </r>
       <r>   -1.0227    0.0000 </r>
       <r>   -1.0227    0.0000 </r>
       <r>    4.7977    0.0000 </r>
       <r>    4.7977    0.0000 </r>
      </set>
      <set comment="kpoint 246">
       <r>  -17.0811    1.0000 </r>
       <r>  -17.0811    1.0000 </r>
       <r>  -15.8913    1.0000 </r>
       <r>  -15.8913    1.0000 </r>
       <r>   -9.1510    1.0000 </r>
       <r>   -9.1510    1.0000 </r>
       <r>   -5.1438    1.0000 </r>
       <r>   -5.1438    1.0000 </r>
       <r>   -1.0778    0.0000 </r>
       <r>   -1.0778    0.0000 </r>
       <r>    4.6541    0.0000 </r>
       <r>    4.6541    0.0000 </r>
      </set>
      <set comment="kpoint 247">
       <r>  -17.0432    1.0000 </r>
       <r>  -17.0432    1.0000 </r>
       <r>  -15.9463    1.0000 </r>
       <r>  -15.9463    1.0000 </r>
       <r>   -9.1185    1.0000 </r>
       <r>   -9.1185    1.0000 </r>
       <r>   -5.1362    1.0000 </r>
       <r>   -5.1362    1.0000 </r>
       <r>   -1.0966    0.0000 </r>
       <r>   -1.0966    0.0000 </r>
       <r>    4.6057    0.0000 </r>
       <r>    4.6057    0.0000 </r>
      </set>
     </set>
    </set>
   </array>
  </eigenvalues>
  <separator name="orbital magnetization" >
   <v name="MAGDIPOLOUT">      0.00000000      0.00000000      0.00000000</v>
  </separator>
 </calculation>
 <structure name="finalpos" >
  <crystal>
   <varray name="basis" >
    <v>       4.26920980       0.00000000       0.00000000 </v>
    <v>       0.00000000       2.48012986       0.00000000 </v>
    <v>       0.00000000       0.00000000      19.91254478 </v>
   </varray>
   <i name="volume">    210.83790140 </i>
   <varray name="rec_basis" >
    <v>       0.23423538       0.00000000       0.00000000 </v>
    <v>       0.00000000       0.40320469       0.00000000 </v>
    <v>       0.00000000       0.00000000       0.05021960 </v>
   </varray>
  </crystal>
  <varray name="positions" >
   <v>       0.00013558      -0.00000000      -0.00000000 </v>
   <v>       0.16653109       0.50000000       0.00000000 </v>
   <v>       0.50013558       0.50000000      -0.00000000 </v>
   <v>       0.66653109      -0.00000000       0.00000000 </v>
  </varray>
 </structure>
</modeling>
