gr                                      
           1
     4.269210    0.000000    0.000000
     0.000000    2.480130    0.000000
     0.000000    0.000000   19.912545
   C 
   4
Direct configuration=     1
   0.00013158  0.00000000  0.00000000
   0.16653509  0.50000000  0.00000000
   0.50013158  0.50000000  0.00000000
   0.66653509  0.00000000  0.00000000
Direct configuration=     2
   0.00015171  0.00000000 -0.00000000
   0.16651496  0.50000000  0.00000000
   0.50015171  0.50000000 -0.00000000
   0.66651496 -0.00000000  0.00000000
Direct configuration=     3
   0.00013558 -0.00000000 -0.00000000
   0.16653108  0.50000000  0.00000000
   0.50013558  0.50000000 -0.00000000
   0.66653108 -0.00000000  0.00000000
Direct configuration=     4
   0.00013556 -0.00000000 -0.00000000
   0.16653110  0.50000000  0.00000000
   0.50013556  0.50000000 -0.00000000
   0.66653110 -0.00000000  0.00000000
Direct configuration=     5
   0.00013557 -0.00000000  0.00000000
   0.16653109  0.50000000 -0.00000000
   0.50013557  0.50000000  0.00000000
   0.66653109 -0.00000000 -0.00000000
Direct configuration=     6
   0.00013558 -0.00000000  0.00000000
   0.16653109  0.50000000 -0.00000000
   0.50013558  0.50000000  0.00000000
   0.66653109 -0.00000000 -0.00000000
Direct configuration=     7
   0.00013558 -0.00000000 -0.00000000
   0.16653109  0.50000000  0.00000000
   0.50013558  0.50000000 -0.00000000
   0.66653109 -0.00000000  0.00000000
