    4    4  400    1
  0.5270948E+02  0.4274751E-09  0.2467297E-09  0.1999017E-08  0.5000000E-15
  1.000000000000000E-004
  CAR 
 gr                                      
     16    247     12
 
  0.0000000E+00  0.0000000E+00  0.0000000E+00  0.1157407E-02
    1      -22.250252
    2      -17.022577
    3      -15.970507
    4      -10.356315
    5       -9.154655
    6       -5.788893
    7       -5.786131
    8       -5.112974
    9       -1.077160
   10        0.524273
   11        1.325298
   12        1.708446
 
  0.4166667E-01  0.0000000E+00  0.0000000E+00  0.2314815E-02
    1      -22.240010
    2      -17.186888
    3      -15.790937
    4      -10.344080
    5       -9.144478
    6       -5.831659
    7       -5.808675
    8       -5.179376
    9       -0.994782
   10        0.538165
   11        1.339374
   12        1.722691
 
  0.8333333E-01  0.0000000E+00  0.0000000E+00  0.2314815E-02
    1      -22.209288
    2      -17.523081
    3      -15.409051
    4      -10.307394
    5       -9.113998
    6       -5.958192
    7       -5.875061
    8       -5.363648
    9       -0.762751
   10        0.579843
   11        1.381596
   12        1.765428
 
  0.1250000E+00  0.0000000E+00  0.0000000E+00  0.2314815E-02
    1      -22.158106
    2      -17.898925
    3      -14.957339
    4      -10.246315
    5       -9.063368
    6       -6.163496
    7       -5.981759
    8       -5.632557
    9       -0.414817
   10        0.649313
   11        1.451952
   12        1.836657
 
  0.1666667E+00  0.0000000E+00  0.0000000E+00  0.2314815E-02
    1      -22.086498
    2      -18.277586
    3      -14.473079
    4      -10.160939
    5       -8.992849
    6       -6.440117
    7       -6.123510
    8       -5.953139
    9        0.015186
   10        0.746580
   11        1.550421
   12        1.936379
 
  0.2083333E+00  0.0000000E+00  0.0000000E+00  0.2314815E-02
    1      -21.994513
    2      -18.647652
    3      -13.968318
    4      -10.051408
    5       -8.902822
    6       -6.779155
    7       -6.300845
    8       -6.294045
    9        0.501460
   10        0.871644
   11        1.676969
   12        2.064597
 
  0.2500000E+00  0.0000000E+00  0.0000000E+00  0.2314815E-02
    1      -21.882214
    2      -19.004525
    3      -13.448497
    4       -9.917911
    5       -8.793792
    6       -7.171196
    7       -6.659306
    8       -6.486752
    9        1.024493
   10        1.025968
   11        1.831544
   12        2.221308
 
  0.2916667E+00  0.0000000E+00  0.0000000E+00  0.2314815E-02
    1      -21.749680
    2      -19.345932
    3      -12.916964
    4       -9.760693
    5       -8.666411
    6       -7.607030
    7       -7.017897
    8       -6.695201
    9        1.205104
   10        1.575910
   11        2.014067
   12        2.406511
 
  0.3333333E+00  0.0000000E+00  0.0000000E+00  0.2314815E-02
    1      -21.597010
    2      -19.670564
    3      -12.376367
    4       -9.580065
    5       -8.521497
    6       -8.078107
    7       -7.369642
    8       -6.913475
    9        1.413439
   10        2.141391
   11        2.224415
   12        2.620200
 
  0.3750000E+00  0.0000000E+00  0.0000000E+00  0.2314815E-02
    1      -21.424318
    2      -19.977573
    3      -11.829190
    4       -9.376416
    5       -8.576759
    6       -8.360062
    7       -7.709844
    8       -7.136331
    9        1.649446
   10        2.462368
   11        2.713081
   12        2.862367
 
  0.4166667E+00  0.0000000E+00  0.0000000E+00  0.2314815E-02
    1      -21.231741
    2      -20.266366
    3      -11.278013
    4       -9.150235
    5       -9.096263
    6       -8.183348
    7       -8.035240
    8       -7.359240
    9        1.913053
   10        2.727476
   11        3.132999
   12        3.240701
 
  0.4583333E+00  0.0000000E+00  0.0000000E+00  0.2314815E-02
    1      -21.019440
    2      -20.536495
    3      -10.725668
    4       -9.630799
    5       -8.902135
    6       -8.343494
    7       -7.992869
    8       -7.578359
    9        2.204164
   10        2.868272
   11        3.018568
   12        3.432068
 
  0.5000000E+00  0.0000000E+00  0.0000000E+00  0.1157407E-02
    1      -20.787614
    2      -20.787614
    3      -10.175365
    4      -10.175365
    5       -8.632890
    6       -8.632890
    7       -7.790464
    8       -7.790464
    9        2.522640
   10        2.522640
   11        3.330925
   12        3.330925
 
  0.0000000E+00  0.2777778E-01  0.0000000E+00  0.2314815E-02
    1      -22.236588
    2      -17.010850
    3      -15.958920
    4      -10.339992
    5       -9.216252
    6       -5.842961
    7       -5.819026
    8       -5.096347
    9       -1.081089
   10        0.542808
   11        1.344076
   12        1.727451
 
  0.4166667E-01  0.2777778E-01  0.0000000E+00  0.4629630E-02
    1      -22.226346
    2      -17.174993
    3      -15.779570
    4      -10.327761
    5       -9.206058
    6       -5.886461
    7       -5.840162
    8       -5.162894
    9       -0.998684
   10        0.556700
   11        1.358151
   12        1.741696
 
  0.8333333E-01  0.2777778E-01  0.0000000E+00  0.4629630E-02
    1      -22.195629
    2      -17.510926
    3      -15.398099
    4      -10.291088
    5       -9.175526
    6       -6.010841
    7       -5.906800
    8       -5.347500
    9       -0.766676
   10        0.598380
   11        1.400370
   12        1.784433
 
  0.1250000E+00  0.2777778E-01  0.0000000E+00  0.4629630E-02
    1      -22.144454
    2      -17.886542
    3      -14.946881
    4      -10.230029
    5       -9.124806
    6       -6.211262
    7       -6.015567
    8       -5.616751
    9       -0.418995
   10        0.667853
   11        1.470723
   12        1.855663
 
  0.1666667E+00  0.2777778E-01  0.0000000E+00  0.4629630E-02
    1      -22.072856
    2      -18.265010
    3      -14.463198
    4      -10.144683
    5       -9.054154
    6       -6.481589
    7       -6.160284
    8       -5.937586
    9        0.010426
   10        0.765127
   11        1.569186
   12        1.955387
 
  0.2083333E+00  0.2777778E-01  0.0000000E+00  0.4629630E-02
    1      -21.980886
    2      -18.634911
    3      -13.959119
    4      -10.035190
    5       -8.963939
    6       -6.813831
    7       -6.334130
    8       -6.285438
    9        0.495771
   10        0.890199
   11        1.695726
   12        2.083606
 
  0.2500000E+00  0.2777778E-01  0.0000000E+00  0.4629630E-02
    1      -21.868604
    2      -18.991643
    3      -13.440106
    4       -9.901739
    5       -8.854655
    6       -7.199192
    7       -6.643958
    8       -6.530149
    9        1.019027
   10        1.043058
   11        1.850293
   12        2.240320
 
  0.2916667E+00  0.2777778E-01  0.0000000E+00  0.4629630E-02
    1      -21.736093
    2      -19.332928
    3      -12.909536
    4       -9.744576
    5       -8.726939
    6       -7.628837
    7       -7.002545
    8       -6.741700
    9        1.223680
   10        1.567440
   11        2.032809
   12        2.425526
 
  0.3333333E+00  0.2777778E-01  0.0000000E+00  0.4629630E-02
    1      -21.583449
    2      -19.657455
    3      -12.370089
    4       -9.564010
    5       -8.581589
    6       -8.094402
    7       -7.354245
    8       -6.962752
    9        1.432029
   10        2.131194
   11        2.243151
   12        2.639219
 
  0.3750000E+00  0.2777778E-01  0.0000000E+00  0.4629630E-02
    1      -21.410788
    2      -19.964375
    3      -11.824291
    4       -9.360432
    5       -8.588273
    6       -8.419594
    7       -7.694377
    8       -7.188015
    9        1.668051
   10        2.481103
   11        2.701179
   12        2.881391
 
  0.4166667E+00  0.2777778E-01  0.0000000E+00  0.4629630E-02
    1      -21.218247
    2      -20.253090
    3      -11.274768
    4       -9.134329
    5       -9.103703
    6       -8.242168
    7       -8.019688
    8       -7.412962
    9        1.931676
   10        2.746222
   11        3.152029
   12        3.259601
 
  0.4583333E+00  0.2777778E-01  0.0000000E+00  0.4629630E-02
    1      -21.005989
    2      -20.523152
    3      -10.724413
    4       -9.634807
    5       -8.886312
    6       -8.327852
    7       -8.050791
    8       -7.633774
    9        2.222808
   10        2.886997
   11        3.037345
   12        3.451141
 
  0.5000000E+00  0.2777778E-01  0.0000000E+00  0.2314815E-02
    1      -20.774213
    2      -20.774213
    3      -10.176502
    4      -10.176502
    5       -8.617156
    6       -8.617156
    7       -7.847265
    8       -7.847265
    9        2.541315
   10        2.541315
   11        3.349676
   12        3.349676
 
  0.0000000E+00  0.5555556E-01  0.0000000E+00  0.2314815E-02
    1      -22.195603
    2      -16.975675
    3      -15.924312
    4      -10.291057
    5       -9.396111
    6       -6.008923
    7       -5.908697
    8       -5.046486
    9       -1.093709
   10        0.598416
   11        1.400404
   12        1.784467
 
  0.4166667E-01  0.5555556E-01  0.0000000E+00  0.4629630E-02
    1      -22.185366
    2      -17.139322
    3      -15.745616
    4      -10.278839
    5       -9.385862
    6       -6.052100
    7       -5.928184
    8       -5.113483
    9       -1.011216
   10        0.612309
   11        1.414476
   12        1.798713
 
  0.8333333E-01  0.5555556E-01  0.0000000E+00  0.4629630E-02
    1      -22.154661
    2      -17.474483
    3      -15.365396
    4      -10.242204
    5       -9.355160
    6       -6.173382
    7       -5.992339
    8       -5.299114
    9       -0.779269
   10        0.653992
   11        1.456687
   12        1.841451
 
  0.1250000E+00  0.5555556E-01  0.0000000E+00  0.4629630E-02
    1      -22.103509
    2      -17.849417
    3      -14.915677
    4      -10.181209
    5       -9.304143
    6       -6.363256
    7       -6.103357
    8       -5.569415
    9       -0.432353
   10        0.723474
   11        1.527026
   12        1.912682
 
  0.1666667E+00  0.5555556E-01  0.0000000E+00  0.4629630E-02
    1      -22.031945
    2      -18.227303
    3      -14.433761
    4      -10.095952
    5       -9.233048
    6       -6.616392
    7       -6.255395
    8       -5.891021
    9       -0.004712
   10        0.820761
   11        1.625471
   12        2.012409
 
  0.2083333E+00  0.5555556E-01  0.0000000E+00  0.4629630E-02
    1      -21.940016
    2      -18.596707
    3      -13.931775
    4       -9.986574
    5       -9.142213
    6       -6.927888
    7       -6.439617
    8       -6.239316
    9        0.477793
   10        0.945852
   11        1.751989
   12        2.140633
 
  0.2500000E+00  0.5555556E-01  0.0000000E+00  0.4629630E-02
    1      -21.827788
    2      -18.953014
    3      -13.415254
    4       -9.853264
    5       -9.032094
    6       -7.291808
    7       -6.647015
    8       -6.598011
    9        0.997224
   10        1.098736
   11        1.906530
   12        2.297352
 
  0.2916667E+00  0.5555556E-01  0.0000000E+00  0.4629630E-02
    1      -21.695343
    2      -19.293934
    3      -12.887663
    4       -9.696266
    5       -8.903274
    6       -7.701202
    7       -6.956582
    8       -6.869557
    9        1.279389
   10        1.540958
   11        2.089020
   12        2.482566
 
  0.3333333E+00  0.5555556E-01  0.0000000E+00  0.4629630E-02
    1      -21.542778
    2      -19.618146
    3      -12.351791
    4       -9.515892
    5       -8.756487
    6       -8.148659
    7       -7.308140
    8       -7.100488
    9        1.487771
   10        2.099403
   11        2.299342
   12        2.696269
 
  0.3750000E+00  0.5555556E-01  0.0000000E+00  0.4629630E-02
    1      -21.370210
    2      -19.924795
    3      -11.810298
    4       -9.312528
    5       -8.626879
    6       -8.592640
    7       -7.648055
    8       -7.334249
    9        1.723831
   10        2.537291
   11        2.664019
   12        2.938455
 
  0.4166667E+00  0.5555556E-01  0.0000000E+00  0.4629630E-02
    1      -21.177779
    2      -20.213276
    3      -11.265971
    4       -9.129061
    5       -9.086662
    6       -8.412846
    7       -7.973107
    8       -7.566302
    9        1.987499
   10        2.802443
   11        3.209111
   12        3.222586
 
  0.4583333E+00  0.5555556E-01  0.0000000E+00  0.4629630E-02
    1      -20.965649
    2      -20.483136
    3      -10.721900
    4       -9.649090
    5       -8.838902
    6       -8.280994
    7       -8.218465
    8       -7.792945
    9        2.278683
   10        2.943058
   11        3.093663
   12        3.508219
 
  0.5000000E+00  0.5555556E-01  0.0000000E+00  0.2314815E-02
    1      -20.734023
    2      -20.734023
    3      -10.181593
    4      -10.181593
    5       -8.570018
    6       -8.570018
    7       -8.011157
    8       -8.011157
    9        2.597262
   10        2.597262
   11        3.405905
   12        3.405905
 
  0.0000000E+00  0.8333333E-01  0.0000000E+00  0.2314815E-02
    1      -22.127334
    2      -16.917064
    3      -15.867166
    4      -10.209612
    5       -9.680806
    6       -6.271810
    7       -6.055765
    8       -4.963452
    9       -1.117516
   10        0.691109
   11        1.494260
   12        1.879498
 
  0.4166667E-01  0.8333333E-01  0.0000000E+00  0.4629630E-02
    1      -22.117104
    2      -17.079918
    3      -15.689540
    4      -10.197416
    5       -9.670447
    6       -6.315895
    7       -6.071201
    8       -5.031244
    9       -1.034850
   10        0.705002
   11        1.508327
   12        1.893744
 
  0.8333333E-01  0.8333333E-01  0.0000000E+00  0.4629630E-02
    1      -22.086422
    2      -17.413820
    3      -15.311422
    4      -10.160846
    5       -9.639406
    6       -6.437617
    7       -6.126001
    8       -5.218680
    9       -0.802969
   10        0.746686
   11        1.550523
   12        1.936482
 
  0.1250000E+00  0.8333333E-01  0.0000000E+00  0.4629630E-02
    1      -22.035308
    2      -17.787621
    3      -14.864280
    4      -10.099961
    5       -9.587801
    6       -6.621404
    7       -6.229761
    8       -5.490809
    9       -0.457351
   10        0.816172
   11        1.620837
   12        2.007714
 
  0.1666667E+00  0.8333333E-01  0.0000000E+00  0.4629630E-02
    1      -21.963797
    2      -18.164533
    3      -14.385434
    4      -10.014857
    5       -9.515826
    6       -6.857954
    7       -6.382362
    8       -5.813741
    9       -0.032771
   10        0.913468
   11        1.719247
   12        2.107444
 
  0.2083333E+00  0.8333333E-01  0.0000000E+00  0.4629630E-02
    1      -21.871940
    2      -18.533104
    3      -13.887116
    4       -9.905676
    5       -9.423761
    6       -7.142565
    7       -6.576469
    8       -6.162787
    9        0.444838
   10        1.038577
   11        1.845723
   12        2.235672
 
  0.2500000E+00  0.8333333E-01  0.0000000E+00  0.4629630E-02
    1      -21.759802
    2      -18.888697
    3      -13.374999
    4       -9.772607
    5       -9.311980
    6       -7.472730
    7       -6.800982
    8       -6.521767
    9        0.957672
   10        1.191488
   11        2.000215
   12        2.392400
 
  0.2916667E+00  0.8333333E-01  0.0000000E+00  0.4629630E-02
    1      -21.627468
    2      -19.229003
    3      -12.852720
    4       -9.615894
    5       -9.180958
    6       -7.846139
    7       -7.044090
    8       -6.880294
    9        1.372174
   10        1.493325
   11        2.182656
   12        2.577623
 
  0.3333333E+00  0.8333333E-01  0.0000000E+00  0.4629630E-02
    1      -21.475034
    2      -19.552687
    3      -12.323284
    4       -9.435848
    5       -9.031287
    6       -8.259249
    7       -7.295593
    8       -7.231596
    9        1.580595
   10        2.042530
   11        2.392936
   12        2.791339
 
  0.3750000E+00  0.8333333E-01  0.0000000E+00  0.4629630E-02
    1      -21.302622
    2      -19.858880
    3      -11.789620
    4       -9.232854
    5       -8.863692
    6       -8.706961
    7       -7.571125
    8       -7.547846
    9        1.816698
   10        2.597475
   11        2.630870
   12        3.033541
 
  0.4166667E+00  0.8333333E-01  0.0000000E+00  0.4629630E-02
    1      -21.110374
    2      -20.146969
    3      -11.254858
    4       -9.183204
    5       -9.007397
    6       -8.679056
    7       -7.895724
    8       -7.795503
    9        2.080412
   10        2.896076
   11        3.149209
   12        3.304219
 
  0.4583333E+00  0.8333333E-01  0.0000000E+00  0.4629630E-02
    1      -20.898461
    2      -20.416491
    3      -10.722504
    4       -9.681712
    5       -8.760080
    6       -8.478447
    7       -8.203127
    8       -8.034843
    9        2.371649
   10        3.036197
   11        3.187481
   12        3.603567
 
  0.5000000E+00  0.8333333E-01  0.0000000E+00  0.2314815E-02
    1      -20.667085
    2      -20.667085
    3      -10.196578
    4      -10.196578
    5       -8.491666
    6       -8.491666
    7       -8.263172
    8       -8.263172
    9        2.690295
   10        2.690295
   11        3.499512
   12        3.499512
 
  0.0000000E+00  0.1111111E+00  0.0000000E+00  0.2314815E-02
    1      -22.031842
    2      -16.835036
    3      -15.788397
    4      -10.095830
    5      -10.051613
    6       -6.614921
    7       -6.256790
    8       -4.847348
    9       -1.156631
   10        0.820903
   11        1.625606
   12        2.012546
 
  0.4166667E-01  0.1111111E+00  0.0000000E+00  0.4629630E-02
    1      -22.021623
    2      -16.996861
    3      -15.612225
    4      -10.083665
    5      -10.041059
    6       -6.660497
    7       -6.266641
    8       -4.916360
    9       -1.073657
   10        0.834793
   11        1.639664
   12        2.026791
 
  0.8333333E-01  0.1111111E+00  0.0000000E+00  0.4629630E-02
    1      -21.990972
    2      -17.329057
    3      -15.237106
    4      -10.047191
    5      -10.009422
    6       -6.785003
    7       -6.306960
    8       -5.106539
    9       -0.841772
   10        0.876468
   11        1.681836
   12        2.069528
 
  0.1250000E+00  0.1111111E+00  0.0000000E+00  0.4629630E-02
    1      -21.939912
    2      -17.701281
    3      -14.793757
    4       -9.986465
    5       -9.956774
    6       -6.968313
    7       -6.393499
    8       -5.381403
    9       -0.497991
   10        0.945943
   11        1.752109
   12        2.140760
 
  0.1666667E+00  0.1111111E+00  0.0000000E+00  0.4629630E-02
    1      -21.868477
    2      -18.076822
    3      -14.319524
    4       -9.901585
    5       -9.883237
    6       -7.196601
    7       -6.532833
    8       -5.706282
    9       -0.077873
   10        1.043232
   11        1.850463
   12        2.240490
 
  0.2083333E+00  0.1111111E+00  0.0000000E+00  0.4629630E-02
    1      -21.776720
    2      -18.444214
    3      -13.826800
    4       -9.792692
    5       -9.788979
    6       -7.462050
    7       -6.722945
    8       -6.056402
    9        0.392570
   10        1.168342
   11        1.976867
   12        2.368721
 
  0.2500000E+00  0.1111111E+00  0.0000000E+00  0.4629630E-02
    1      -21.664710
    2      -18.798793
    3      -13.321495
    4       -9.674212
    5       -9.659975
    6       -7.760993
    7       -6.955722
    8       -6.415762
    9        0.895754
   10        1.321263
   11        2.131276
   12        2.525454
 
  0.2916667E+00  0.1111111E+00  0.0000000E+00  0.4629630E-02
    1      -21.532529
    2      -19.138229
    3      -12.807557
    4       -9.539195
    5       -9.503681
    6       -8.092735
    7       -7.218989
    8       -6.774189
    9        1.419583
   10        1.501968
   11        2.313627
   12        2.710686
 
  0.3333333E+00  0.1111111E+00  0.0000000E+00  0.4629630E-02
    1      -21.380281
    2      -19.461164
    3      -12.288397
    4       -9.384223
    5       -9.324116
    6       -8.458160
    7       -7.498807
    8       -7.125084
    9        1.710416
   10        1.955188
   11        2.523824
   12        2.924415
 
  0.3750000E+00  0.1111111E+00  0.0000000E+00  0.4629630E-02
    1      -21.208089
    2      -19.766712
    3      -11.767469
    4       -9.209626
    5       -9.121666
    6       -8.857784
    7       -7.782156
    8       -7.464023
    9        1.946547
   10        2.495453
   11        2.761713
   12        3.166632
 
  0.4166667E+00  0.1111111E+00  0.0000000E+00  0.4629630E-02
    1      -21.016100
    2      -20.054245
    3      -11.248577
    4       -9.290059
    5       -9.015768
    6       -8.896812
    7       -8.059121
    8       -7.787936
    9        2.210288
   10        3.026980
   11        3.033714
   12        3.437330
 
  0.4583333E+00  0.1111111E+00  0.0000000E+00  0.4629630E-02
    1      -20.804491
    2      -20.323288
    3      -10.736079
    4       -9.750988
    5       -8.803060
    6       -8.650150
    7       -8.323510
    8       -8.094616
    9        2.501550
   10        3.166163
   11        3.318701
   12        3.557022
 
  0.5000000E+00  0.1111111E+00  0.0000000E+00  0.2314815E-02
    1      -20.573470
    2      -20.573470
    3      -10.234994
    4      -10.234994
    5       -8.572028
    6       -8.572028
    7       -8.382433
    8       -8.382433
    9        2.820223
   10        2.820223
   11        3.630078
   12        3.630078
 
  0.0000000E+00  0.1388889E+00  0.0000000E+00  0.2314815E-02
    1      -21.909216
    2      -16.729620
    3      -15.689560
    4      -10.487839
    5       -9.949959
    6       -7.020452
    7       -6.507243
    8       -4.698320
    9       -1.216691
   10        0.987804
   11        1.794385
   12        2.183614
 
  0.4166667E-01  0.1388889E+00  0.0000000E+00  0.4629630E-02
    1      -21.899010
    2      -16.890272
    3      -15.515183
    4      -10.476954
    5       -9.937838
    6       -7.067912
    7       -6.510410
    8       -4.769118
    9       -1.133167
   10        1.001686
   11        1.808431
   12        2.197858
 
  0.8333333E-01  0.1388889E+00  0.0000000E+00  0.4629630E-02
    1      -21.868400
    2      -17.220385
    3      -15.144053
    4      -10.444296
    5       -9.901494
    6       -7.196583
    7       -6.532766
    8       -4.963247
    9       -0.901037
   10        1.043339
   11        1.850564
   12        2.240592
 
  0.1250000E+00  0.1388889E+00  0.0000000E+00  0.4629630E-02
    1      -21.817408
    2      -17.590595
    3      -14.706005
    4      -10.389857
    5       -9.840984
    6       -7.382814
    7       -6.595249
    8       -5.241957
    9       -0.559584
   10        1.112781
   11        1.920772
   12        2.311819
 
  0.1666667E+00  0.1388889E+00  0.0000000E+00  0.4629630E-02
    1      -21.746073
    2      -17.964357
    3      -14.238399
    4      -10.313612
    5       -9.756409
    6       -7.609389
    7       -6.710164
    8       -5.569498
    9       -0.145441
   10        1.210035
   11        2.019034
   12        2.411545
 
  0.2083333E+00  0.1388889E+00  0.0000000E+00  0.4629630E-02
    1      -21.654447
    2      -18.330207
    3      -13.753903
    4      -10.215507
    5       -9.647908
    6       -7.865790
    7       -6.880723
    8       -5.921030
    9        0.315346
   10        1.335113
   11        2.145319
   12        2.539774
 
  0.2500000E+00  0.1388889E+00  0.0000000E+00  0.4629630E-02
    1      -21.542600
    2      -18.683459
    3      -13.258846
    4      -10.095429
    5       -9.515674
    6       -8.145939
    7       -7.103461
    8       -6.280835
    9        0.805544
   10        1.488012
   11        2.299583
   12        2.696507
 
  0.2916667E+00  0.1388889E+00  0.0000000E+00  0.4629630E-02
    1      -21.410619
    2      -19.021753
    3      -12.757763
    4       -9.953171
    5       -9.359951
    6       -8.447091
    7       -7.369919
    8       -6.639052
    9        1.313502
   10        1.668706
   11        2.481769
   12        2.881744
 
  0.3333333E+00  0.1388889E+00  0.0000000E+00  0.4629630E-02
    1      -21.258610
    2      -19.343706
    3      -12.254859
    4       -9.788384
    5       -9.181046
    6       -8.769388
    7       -7.667910
    8       -6.989326
    9        1.830835
   10        1.877151
   11        2.691796
   12        3.095481
 
  0.3750000E+00  0.1388889E+00  0.0000000E+00  0.4629630E-02
    1      -21.086703
    2      -19.648410
    3      -11.754637
    4       -9.600523
    5       -9.115356
    6       -8.979343
    7       -7.982845
    8       -7.327408
    9        2.113280
   10        2.351049
   11        2.929545
   12        3.337711
 
  0.4166667E+00  0.1388889E+00  0.0000000E+00  0.4629630E-02
    1      -20.895051
    2      -19.935217
    3      -11.262236
    4       -9.488661
    5       -9.388834
    6       -8.755318
    7       -8.299639
    8       -7.650343
    9        2.377014
   10        2.868722
   11        3.194814
   12        3.608425
 
  0.4583333E+00  0.1388889E+00  0.0000000E+00  0.4629630E-02
    1      -20.683838
    2      -20.203636
    3      -10.783526
    4       -9.891947
    5       -9.152465
    6       -8.605267
    7       -8.509561
    8       -7.956004
    9        2.668257
   10        3.332784
   11        3.378629
   12        3.487024
 
  0.5000000E+00  0.1388889E+00  0.0000000E+00  0.2314815E-02
    1      -20.453279
    2      -20.453279
    3      -10.324821
    4      -10.324821
    5       -8.890942
    6       -8.890942
    7       -8.242811
    8       -8.242811
    9        2.986894
   10        2.986894
   11        3.790303
   12        3.790303
 
  0.0000000E+00  0.1666667E+00  0.0000000E+00  0.2314815E-02
    1      -21.759572
    2      -16.600855
    3      -15.573266
    4      -10.968941
    5       -9.772332
    6       -7.471832
    7       -6.801755
    8       -4.516564
    9       -1.304553
   10        1.191804
   11        2.000518
   12        2.392706
 
  0.4166667E-01  0.1666667E+00  0.0000000E+00  0.4629630E-02
    1      -21.749383
    2      -16.760341
    3      -15.400982
    4      -10.957485
    5       -9.760268
    6       -7.521477
    7       -6.797499
    8       -4.589951
    9       -1.220028
   10        1.205674
   11        2.014543
   12        2.406948
 
  0.8333333E-01  0.1666667E+00  0.0000000E+00  0.4629630E-02
    1      -21.718824
    2      -17.088093
    3      -15.035055
    4      -10.923061
    5       -9.724094
    6       -7.655224
    7       -6.799612
    8       -4.789681
    9       -0.987056
   10        1.247289
   11        2.056614
   12        2.449676
 
  0.1250000E+00  0.1666667E+00  0.0000000E+00  0.4629630E-02
    1      -21.667918
    2      -17.455863
    3      -14.604400
    4      -10.865494
    5       -9.663870
    6       -7.846338
    7       -6.833658
    8       -5.073660
    9       -0.648244
   10        1.316673
   11        2.126716
   12        2.520894
 
  0.1666667E+00  0.1666667E+00  0.0000000E+00  0.4629630E-02
    1      -21.596704
    2      -17.827415
    3      -14.146417
    4      -10.784455
    5       -9.579695
    6       -8.075003
    7       -6.916838
    8       -5.404699
    9       -0.241617
   10        1.413854
   11        2.224825
   12        2.620608
 
  0.2083333E+00  0.1666667E+00  0.0000000E+00  0.4629630E-02
    1      -21.505238
    2      -18.191332
    3      -13.674275
    4      -10.679410
    5       -9.471712
    6       -8.328901
    7       -7.056803
    8       -5.757977
    9        0.206875
   10        1.538856
   11        2.350905
   12        2.748825
 
  0.2500000E+00  0.1666667E+00  0.0000000E+00  0.4629630E-02
    1      -21.393592
    2      -18.542915
    3      -13.195130
    4      -10.549527
    5       -9.340114
    6       -8.600388
    7       -7.254176
    8       -6.118226
    9        0.680590
   10        1.691685
   11        2.504908
   12        2.905550
 
  0.2916667E+00  0.1666667E+00  0.0000000E+00  0.4629630E-02
    1      -21.261857
    2      -18.879775
    3      -12.714707
    4      -10.393564
    5       -9.185145
    6       -8.884909
    7       -7.504352
    8       -6.476029
    9        1.168534
   10        1.872321
   11        2.686768
   12        3.090784
 
  0.3333333E+00  0.1666667E+00  0.0000000E+00  0.4629630E-02
    1      -21.110145
    2      -19.200496
    3      -12.238814
    4      -10.209757
    5       -9.180389
    6       -9.007115
    7       -7.798738
    8       -6.825369
    9        1.662965
   10        2.080717
   11        2.896399
   12        3.304524
 
  0.3750000E+00  0.1666667E+00  0.0000000E+00  0.4629630E-02
    1      -20.938591
    2      -19.504142
    3      -11.773930
    4       -9.995817
    5       -9.487129
    6       -8.806405
    7       -8.125698
    8       -7.162226
    9        2.158048
   10        2.316803
   11        3.133688
   12        3.546761
 
  0.4166667E+00  0.1666667E+00  0.0000000E+00  0.4629630E-02
    1      -20.747358
    2      -19.790039
    3      -11.327119
    4       -9.807866
    5       -9.749334
    6       -8.583486
    7       -8.471287
    8       -7.483799
    9        2.580487
   10        2.649108
   11        3.398479
   12        3.817486
 
  0.4583333E+00  0.1666667E+00  0.0000000E+00  0.4629630E-02
    1      -20.536636
    2      -20.057678
    3      -10.905023
    4      -10.147509
    5       -9.469004
    6       -8.820088
    7       -8.338942
    8       -7.788061
    9        2.871660
   10        3.132195
   11        3.535940
   12        3.690460
 
  0.5000000E+00  0.1666667E+00  0.0000000E+00  0.2314815E-02
    1      -20.306652
    2      -20.306652
    3      -10.511848
    4      -10.511848
    5       -9.156821
    6       -9.156821
    7       -8.073497
    8       -8.073497
    9        3.190195
   10        3.190195
   11        3.603693
   12        3.603693
 