       N       E                     dE             d eps       ncg     rms          rms(c)
DAV:   1     0.189198085356E+03    0.18920E+03   -0.10638E+04  5928   0.275E+03
DAV:   2    -0.925897073324E+01   -0.19846E+03   -0.17602E+03 10412   0.259E+02
DAV:   3    -0.383514157579E+02   -0.29092E+02   -0.28539E+02  7320   0.120E+02    0.736E+00
RMM:   4    -0.377032010180E+02    0.64821E+00   -0.97844E+00  5928   0.266E+01    0.426E+00
RMM:   5    -0.369364196335E+02    0.76678E+00   -0.29129E+00  5933   0.116E+01    0.736E-01
RMM:   6    -0.369380846565E+02   -0.16650E-02   -0.86280E-02  6367   0.204E+00    0.525E-01
RMM:   7    -0.369284419455E+02    0.96427E-02   -0.34132E-02  5940   0.161E+00    0.350E-01
RMM:   8    -0.369225187091E+02    0.59232E-02   -0.79648E-03  5931   0.590E-01    0.136E-01
RMM:   9    -0.369221669409E+02    0.35177E-03   -0.21324E-02  5928   0.865E-01    0.164E-01
RMM:  10    -0.369219787519E+02    0.18819E-03   -0.27500E-03  5928   0.378E-01    0.303E-02
RMM:  11    -0.369246006035E+02   -0.26219E-02   -0.80117E-04  5934   0.184E-01    0.480E-02
RMM:  12    -0.369250357045E+02   -0.43510E-03   -0.23729E-04  5934   0.102E-01    0.626E-03
RMM:  13    -0.369253084681E+02   -0.27276E-03   -0.62498E-05  5999   0.455E-02    0.495E-03
RMM:  14    -0.369253953616E+02   -0.86894E-04   -0.12571E-05  5943   0.210E-02    0.251E-03
RMM:  15    -0.369254034716E+02   -0.81100E-05   -0.16354E-06  6019   0.762E-03    0.723E-04
RMM:  16    -0.369254146797E+02   -0.11208E-04   -0.36215E-07  6051   0.337E-03    0.376E-04
RMM:  17    -0.369254179664E+02   -0.32867E-05   -0.29219E-08  6092   0.141E-03    0.695E-04
RMM:  18    -0.369254201817E+02   -0.22153E-05   -0.99592E-08  5928   0.212E-03    0.124E-04
RMM:  19    -0.369254204405E+02   -0.25879E-06   -0.40524E-09  5997   0.424E-04    0.183E-05
RMM:  20    -0.369254205019E+02   -0.61398E-07   -0.58170E-10  4478   0.114E-04    0.898E-06
RMM:  21    -0.369254205079E+02   -0.60706E-08   -0.53558E-11  3773   0.530E-05    0.580E-06
RMM:  22    -0.369254205083E+02   -0.34777E-09   -0.16482E-11  3877   0.429E-05    0.812E-07
RMM:  23    -0.369254205086E+02   -0.35720E-09   -0.12067E-11  3614   0.368E-05    0.135E-06
RMM:  24    -0.369254205085E+02    0.99703E-10   -0.72085E-12  3109   0.289E-05
   1 F= -.36925421E+02 E0= -.36925356E+02  d E =-.369254E+02
       N       E                     dE             d eps       ncg     rms          rms(c)
DAV:   1    -0.369246034792E+02    0.81703E-03   -0.74012E-02  6680   0.256E+00    0.552E-02
RMM:   2    -0.369246413440E+02   -0.37865E-04   -0.12040E-03  5930   0.308E-01    0.393E-02
RMM:   3    -0.369246028978E+02    0.38446E-04   -0.21276E-04  5973   0.117E-01    0.980E-03
RMM:   4    -0.369245992315E+02    0.36663E-05   -0.12551E-05  6094   0.280E-02    0.278E-03
RMM:   5    -0.369245993579E+02   -0.12646E-06   -0.94935E-07  6208   0.704E-03    0.135E-03
RMM:   6    -0.369245992888E+02    0.69192E-07   -0.15342E-07  6102   0.302E-03    0.105E-04
RMM:   7    -0.369245992901E+02   -0.13882E-08   -0.92117E-09  6090   0.693E-04    0.768E-05
RMM:   8    -0.369245992904E+02   -0.20827E-09   -0.65899E-10  5205   0.201E-04    0.121E-05
RMM:   9    -0.369245992901E+02    0.22499E-09   -0.40369E-11  3832   0.677E-05    0.295E-06
RMM:  10    -0.369245992904E+02   -0.26955E-09   -0.26008E-11  3825   0.551E-05    0.360E-06
RMM:  11    -0.369245992904E+02   -0.42746E-10   -0.19724E-11  3567   0.426E-05
   2 F= -.36924599E+02 E0= -.36924553E+02  d E =0.821218E-03
       N       E                     dE             d eps       ncg     rms          rms(c)
DAV:   1    -0.369254814002E+02   -0.88211E-03   -0.47270E-02  6392   0.205E+00    0.444E-02
RMM:   2    -0.369255018851E+02   -0.20485E-04   -0.73987E-04  5929   0.245E-01    0.313E-02
RMM:   3    -0.369254775846E+02    0.24301E-04   -0.13442E-04  5952   0.934E-02    0.764E-03
RMM:   4    -0.369254753527E+02    0.22319E-05   -0.78579E-06  6097   0.224E-02    0.225E-03
RMM:   5    -0.369254754261E+02   -0.73368E-07   -0.60676E-07  6175   0.560E-03    0.109E-03
RMM:   6    -0.369254753828E+02    0.43298E-07   -0.10560E-07  6096   0.251E-03    0.796E-05
RMM:   7    -0.369254753815E+02    0.12910E-08   -0.57397E-09  6092   0.542E-04    0.607E-05
RMM:   8    -0.369254753804E+02    0.10725E-08   -0.40248E-10  4573   0.160E-04    0.103E-05
RMM:   9    -0.369254753806E+02   -0.21009E-09   -0.20157E-11  3813   0.634E-05    0.216E-06
RMM:  10    -0.369254753810E+02   -0.38415E-09   -0.30475E-11  3804   0.542E-05    0.349E-06
RMM:  11    -0.369254753821E+02   -0.11247E-08   -0.15517E-11  3553   0.407E-05    0.447E-07
RMM:  12    -0.369254753823E+02   -0.19770E-09   -0.12697E-11  3283   0.339E-05    0.520E-07
RMM:  13    -0.369254753825E+02   -0.19816E-09   -0.47839E-12  3155   0.300E-05    0.393E-07
RMM:  14    -0.369254753826E+02   -0.10812E-09   -0.54507E-12  2847   0.269E-05    0.307E-07
RMM:  15    -0.369254753826E+02    0.21487E-10   -0.35422E-12  2646   0.248E-05
   3 F= -.36925475E+02 E0= -.36925410E+02  d E =-.876092E-03
       N       E                     dE             d eps       ncg     rms          rms(c)
DAV:   1    -0.369254753818E+02    0.82287E-09    0.21397E-09  6700   0.570E-04    0.125E-05
RMM:   2    -0.369254753827E+02   -0.92120E-09   -0.28591E-11  3622   0.706E-05    0.870E-06
RMM:   3    -0.369254753826E+02    0.11676E-09   -0.21757E-11  3658   0.596E-05    0.221E-06
RMM:   4    -0.369254753824E+02    0.24522E-09   -0.12363E-11  3164   0.401E-05    0.847E-07
RMM:   5    -0.369254753827E+02   -0.34299E-09   -0.67345E-12  2930   0.319E-05    0.178E-06
RMM:   6    -0.369254753826E+02    0.80604E-10   -0.51775E-12  2632   0.272E-05
   4 F= -.36925475E+02 E0= -.36925410E+02  d E =-.202363E-10
       N       E                     dE             d eps       ncg     rms          rms(c)
DAV:   1    -0.369254753819E+02    0.82866E-09    0.57983E-09  4852   0.300E-05    0.565E-07
RMM:   2    -0.369254753828E+02   -0.97032E-09    0.35607E-13  1301   0.114E-05    0.343E-07
RMM:   3    -0.369254753826E+02    0.25966E-09   -0.37875E-13  1260   0.114E-05    0.838E-09
RMM:   4    -0.369254753827E+02   -0.97657E-10   -0.38130E-13  1018   0.113E-05    0.686E-09
RMM:   5    -0.369254753826E+02    0.11323E-09    0.21012E-13   865   0.112E-05    0.643E-09
RMM:   6    -0.369254753827E+02   -0.10732E-09   -0.94575E-15   911   0.111E-05    0.560E-09
RMM:   7    -0.369254753827E+02   -0.25011E-11   -0.15144E-13   869   0.109E-05
   5 F= -.36925475E+02 E0= -.36925410E+02  d E =-.568434E-10
       N       E                     dE             d eps       ncg     rms          rms(c)
DAV:   1    -0.369254753820E+02    0.65711E-09    0.58033E-09  4468   0.125E-05    0.178E-07
RMM:   2    -0.369254753826E+02   -0.60720E-09    0.60363E-14   608   0.487E-06    0.110E-07
RMM:   3    -0.369254753824E+02    0.22635E-09    0.11826E-13   859   0.485E-06    0.302E-09
RMM:   4    -0.369254753824E+02    0.39677E-10    0.17722E-14   867   0.484E-06    0.183E-09
RMM:   5    -0.369254753827E+02   -0.32253E-09    0.31415E-14   686   0.486E-06    0.758E-10
RMM:   6    -0.369254753827E+02   -0.36266E-10   -0.50166E-14   616   0.483E-06
   6 F= -.36925475E+02 E0= -.36925410E+02  d E =-.403588E-10
