<?xml version="1.0" encoding="ISO-8859-1"?>
<modeling>
 <generator>
  <i name="program" type="string">vasp </i>
  <i name="version" type="string">5.3.5  </i>
  <i name="subversion" type="string">31Mar14 (build Mar 02 2015 18:14:16) complex                          parallel </i>
  <i name="platform" type="string">LinuxIFC </i>
  <i name="date" type="string">2018 08 10 </i>
  <i name="time" type="string">14:45:15 </i>
 </generator>
 <incar>
  <i type="string" name="SYSTEM">  gr</i>
  <i type="string" name="PREC">accurate : accuracy</i>
  <i type="string" name="ALGO"> FAST.</i>
  <i type="int" name="NELM">   100</i>
  <i type="int" name="NELMDL">    -3</i>
  <i type="int" name="NELMIN">     5</i>
  <i type="int" name="IBRION">     1</i>
  <i name="EDIFF">      0.00000000</i>
  <i name="EDIFFG">     -0.00000100</i>
  <i type="int" name="NSW">   400</i>
  <i type="int" name="ISIF">     2</i>
  <i name="ENCUT">   2000.00000000</i>
  <i type="int" name="ISMEAR">     0</i>
  <i name="SIGMA">      0.05000000</i>
  <i type="int" name="NWRITE">     2</i>
  <i type="logical" name="LWAVE"> F  </i>
  <i type="logical" name="LCHARG"> F  </i>
  <i type="int" name="NELM">   100</i>
 </incar>
 <kpoints>
  <generation param="Gamma">
   <v type="int" name="divisions">      24       36        1 </v>
   <v name="usershift">      0.00000000       0.00000000       0.00000000 </v>
   <v name="genvec1">      0.04166667       0.00000000       0.00000000 </v>
   <v name="genvec2">      0.00000000       0.02777778       0.00000000 </v>
   <v name="genvec3">      0.00000000       0.00000000       1.00000000 </v>
   <v name="shift">      0.00000000       0.00000000       0.00000000 </v>
  </generation>
  <varray name="kpointlist" >
   <v>       0.00000000       0.00000000       0.00000000 </v>
   <v>       0.04166667       0.00000000       0.00000000 </v>
   <v>       0.08333333       0.00000000       0.00000000 </v>
   <v>       0.12500000       0.00000000       0.00000000 </v>
   <v>       0.16666667       0.00000000       0.00000000 </v>
   <v>       0.20833333       0.00000000       0.00000000 </v>
   <v>       0.25000000       0.00000000       0.00000000 </v>
   <v>       0.29166667       0.00000000       0.00000000 </v>
   <v>       0.33333333       0.00000000       0.00000000 </v>
   <v>       0.37500000       0.00000000       0.00000000 </v>
   <v>       0.41666667       0.00000000       0.00000000 </v>
   <v>       0.45833333       0.00000000       0.00000000 </v>
   <v>       0.50000000       0.00000000       0.00000000 </v>
   <v>       0.00000000       0.02777778       0.00000000 </v>
   <v>       0.04166667       0.02777778       0.00000000 </v>
   <v>       0.08333333       0.02777778       0.00000000 </v>
   <v>       0.12500000       0.02777778       0.00000000 </v>
   <v>       0.16666667       0.02777778       0.00000000 </v>
   <v>       0.20833333       0.02777778       0.00000000 </v>
   <v>       0.25000000       0.02777778       0.00000000 </v>
   <v>       0.29166667       0.02777778       0.00000000 </v>
   <v>       0.33333333       0.02777778       0.00000000 </v>
   <v>       0.37500000       0.02777778       0.00000000 </v>
   <v>       0.41666667       0.02777778       0.00000000 </v>
   <v>       0.45833333       0.02777778       0.00000000 </v>
   <v>       0.50000000       0.02777778       0.00000000 </v>
   <v>       0.00000000       0.05555556       0.00000000 </v>
   <v>       0.04166667       0.05555556       0.00000000 </v>
   <v>       0.08333333       0.05555556       0.00000000 </v>
   <v>       0.12500000       0.05555556       0.00000000 </v>
   <v>       0.16666667       0.05555556       0.00000000 </v>
   <v>       0.20833333       0.05555556       0.00000000 </v>
   <v>       0.25000000       0.05555556       0.00000000 </v>
   <v>       0.29166667       0.05555556       0.00000000 </v>
   <v>       0.33333333       0.05555556       0.00000000 </v>
   <v>       0.37500000       0.05555556       0.00000000 </v>
   <v>       0.41666667       0.05555556       0.00000000 </v>
   <v>       0.45833333       0.05555556       0.00000000 </v>
   <v>       0.50000000       0.05555556       0.00000000 </v>
   <v>       0.00000000       0.08333333       0.00000000 </v>
   <v>       0.04166667       0.08333333       0.00000000 </v>
   <v>       0.08333333       0.08333333       0.00000000 </v>
   <v>       0.12500000       0.08333333       0.00000000 </v>
   <v>       0.16666667       0.08333333       0.00000000 </v>
   <v>       0.20833333       0.08333333       0.00000000 </v>
   <v>       0.25000000       0.08333333       0.00000000 </v>
   <v>       0.29166667       0.08333333       0.00000000 </v>
   <v>       0.33333333       0.08333333       0.00000000 </v>
   <v>       0.37500000       0.08333333       0.00000000 </v>
   <v>       0.41666667       0.08333333       0.00000000 </v>
   <v>       0.45833333       0.08333333       0.00000000 </v>
   <v>       0.50000000       0.08333333       0.00000000 </v>
   <v>       0.00000000       0.11111111       0.00000000 </v>
   <v>       0.04166667       0.11111111       0.00000000 </v>
   <v>       0.08333333       0.11111111       0.00000000 </v>
   <v>       0.12500000       0.11111111       0.00000000 </v>
   <v>       0.16666667       0.11111111       0.00000000 </v>
   <v>       0.20833333       0.11111111       0.00000000 </v>
   <v>       0.25000000       0.11111111       0.00000000 </v>
   <v>       0.29166667       0.11111111       0.00000000 </v>
   <v>       0.33333333       0.11111111       0.00000000 </v>
   <v>       0.37500000       0.11111111       0.00000000 </v>
   <v>       0.41666667       0.11111111       0.00000000 </v>
   <v>       0.45833333       0.11111111       0.00000000 </v>
   <v>       0.50000000       0.11111111       0.00000000 </v>
   <v>       0.00000000       0.13888889       0.00000000 </v>
   <v>       0.04166667       0.13888889       0.00000000 </v>
   <v>       0.08333333       0.13888889       0.00000000 </v>
   <v>       0.12500000       0.13888889       0.00000000 </v>
   <v>       0.16666667       0.13888889       0.00000000 </v>
   <v>       0.20833333       0.13888889       0.00000000 </v>
   <v>       0.25000000       0.13888889       0.00000000 </v>
   <v>       0.29166667       0.13888889       0.00000000 </v>
   <v>       0.33333333       0.13888889       0.00000000 </v>
   <v>       0.37500000       0.13888889       0.00000000 </v>
   <v>       0.41666667       0.13888889       0.00000000 </v>
   <v>       0.45833333       0.13888889       0.00000000 </v>
   <v>       0.50000000       0.13888889       0.00000000 </v>
   <v>       0.00000000       0.16666667       0.00000000 </v>
   <v>       0.04166667       0.16666667       0.00000000 </v>
   <v>       0.08333333       0.16666667       0.00000000 </v>
   <v>       0.12500000       0.16666667       0.00000000 </v>
   <v>       0.16666667       0.16666667       0.00000000 </v>
   <v>       0.20833333       0.16666667       0.00000000 </v>
   <v>       0.25000000       0.16666667       0.00000000 </v>
   <v>       0.29166667       0.16666667       0.00000000 </v>
   <v>       0.33333333       0.16666667       0.00000000 </v>
   <v>       0.37500000       0.16666667       0.00000000 </v>
   <v>       0.41666667       0.16666667       0.00000000 </v>
   <v>       0.45833333       0.16666667       0.00000000 </v>
   <v>       0.50000000       0.16666667       0.00000000 </v>
   <v>       0.00000000       0.19444444       0.00000000 </v>
   <v>       0.04166667       0.19444444       0.00000000 </v>
   <v>       0.08333333       0.19444444       0.00000000 </v>
   <v>       0.12500000       0.19444444       0.00000000 </v>
   <v>       0.16666667       0.19444444       0.00000000 </v>
   <v>       0.20833333       0.19444444       0.00000000 </v>
   <v>       0.25000000       0.19444444       0.00000000 </v>
   <v>       0.29166667       0.19444444       0.00000000 </v>
   <v>       0.33333333       0.19444444       0.00000000 </v>
   <v>       0.37500000       0.19444444       0.00000000 </v>
   <v>       0.41666667       0.19444444       0.00000000 </v>
   <v>       0.45833333       0.19444444       0.00000000 </v>
   <v>       0.50000000       0.19444444       0.00000000 </v>
   <v>       0.00000000       0.22222222       0.00000000 </v>
   <v>       0.04166667       0.22222222       0.00000000 </v>
   <v>       0.08333333       0.22222222       0.00000000 </v>
   <v>       0.12500000       0.22222222       0.00000000 </v>
   <v>       0.16666667       0.22222222       0.00000000 </v>
   <v>       0.20833333       0.22222222       0.00000000 </v>
   <v>       0.25000000       0.22222222       0.00000000 </v>
   <v>       0.29166667       0.22222222       0.00000000 </v>
   <v>       0.33333333       0.22222222       0.00000000 </v>
   <v>       0.37500000       0.22222222       0.00000000 </v>
   <v>       0.41666667       0.22222222       0.00000000 </v>
   <v>       0.45833333       0.22222222       0.00000000 </v>
   <v>       0.50000000       0.22222222       0.00000000 </v>
   <v>       0.00000000       0.25000000       0.00000000 </v>
   <v>       0.04166667       0.25000000       0.00000000 </v>
   <v>       0.08333333       0.25000000       0.00000000 </v>
   <v>       0.12500000       0.25000000       0.00000000 </v>
   <v>       0.16666667       0.25000000       0.00000000 </v>
   <v>       0.20833333       0.25000000       0.00000000 </v>
   <v>       0.25000000       0.25000000       0.00000000 </v>
   <v>       0.29166667       0.25000000       0.00000000 </v>
   <v>       0.33333333       0.25000000       0.00000000 </v>
   <v>       0.37500000       0.25000000       0.00000000 </v>
   <v>       0.41666667       0.25000000       0.00000000 </v>
   <v>       0.45833333       0.25000000       0.00000000 </v>
   <v>       0.50000000       0.25000000       0.00000000 </v>
   <v>       0.00000000       0.27777778       0.00000000 </v>
   <v>       0.04166667       0.27777778       0.00000000 </v>
   <v>       0.08333333       0.27777778       0.00000000 </v>
   <v>       0.12500000       0.27777778       0.00000000 </v>
   <v>       0.16666667       0.27777778       0.00000000 </v>
   <v>       0.20833333       0.27777778       0.00000000 </v>
   <v>       0.25000000       0.27777778       0.00000000 </v>
   <v>       0.29166667       0.27777778       0.00000000 </v>
   <v>       0.33333333       0.27777778       0.00000000 </v>
   <v>       0.37500000       0.27777778       0.00000000 </v>
   <v>       0.41666667       0.27777778       0.00000000 </v>
   <v>       0.45833333       0.27777778       0.00000000 </v>
   <v>       0.50000000       0.27777778       0.00000000 </v>
   <v>       0.00000000       0.30555556       0.00000000 </v>
   <v>       0.04166667       0.30555556       0.00000000 </v>
   <v>       0.08333333       0.30555556       0.00000000 </v>
   <v>       0.12500000       0.30555556       0.00000000 </v>
   <v>       0.16666667       0.30555556       0.00000000 </v>
   <v>       0.20833333       0.30555556       0.00000000 </v>
   <v>       0.25000000       0.30555556       0.00000000 </v>
   <v>       0.29166667       0.30555556       0.00000000 </v>
   <v>       0.33333333       0.30555556       0.00000000 </v>
   <v>       0.37500000       0.30555556       0.00000000 </v>
   <v>       0.41666667       0.30555556       0.00000000 </v>
   <v>       0.45833333       0.30555556       0.00000000 </v>
   <v>       0.50000000       0.30555556       0.00000000 </v>
   <v>       0.00000000       0.33333333       0.00000000 </v>
   <v>       0.04166667       0.33333333       0.00000000 </v>
   <v>       0.08333333       0.33333333       0.00000000 </v>
   <v>       0.12500000       0.33333333       0.00000000 </v>
   <v>       0.16666667       0.33333333       0.00000000 </v>
   <v>       0.20833333       0.33333333       0.00000000 </v>
   <v>       0.25000000       0.33333333       0.00000000 </v>
   <v>       0.29166667       0.33333333       0.00000000 </v>
   <v>       0.33333333       0.33333333       0.00000000 </v>
   <v>       0.37500000       0.33333333       0.00000000 </v>
   <v>       0.41666667       0.33333333       0.00000000 </v>
   <v>       0.45833333       0.33333333       0.00000000 </v>
   <v>       0.50000000       0.33333333       0.00000000 </v>
   <v>       0.00000000       0.36111111       0.00000000 </v>
   <v>       0.04166667       0.36111111       0.00000000 </v>
   <v>       0.08333333       0.36111111       0.00000000 </v>
   <v>       0.12500000       0.36111111       0.00000000 </v>
   <v>       0.16666667       0.36111111       0.00000000 </v>
   <v>       0.20833333       0.36111111       0.00000000 </v>
   <v>       0.25000000       0.36111111       0.00000000 </v>
   <v>       0.29166667       0.36111111       0.00000000 </v>
   <v>       0.33333333       0.36111111       0.00000000 </v>
   <v>       0.37500000       0.36111111       0.00000000 </v>
   <v>       0.41666667       0.36111111       0.00000000 </v>
   <v>       0.45833333       0.36111111       0.00000000 </v>
   <v>       0.50000000       0.36111111       0.00000000 </v>
   <v>       0.00000000       0.38888889       0.00000000 </v>
   <v>       0.04166667       0.38888889       0.00000000 </v>
   <v>       0.08333333       0.38888889       0.00000000 </v>
   <v>       0.12500000       0.38888889       0.00000000 </v>
   <v>       0.16666667       0.38888889       0.00000000 </v>
   <v>       0.20833333       0.38888889       0.00000000 </v>
   <v>       0.25000000       0.38888889       0.00000000 </v>
   <v>       0.29166667       0.38888889       0.00000000 </v>
   <v>       0.33333333       0.38888889       0.00000000 </v>
   <v>       0.37500000       0.38888889       0.00000000 </v>
   <v>       0.41666667       0.38888889       0.00000000 </v>
   <v>       0.45833333       0.38888889       0.00000000 </v>
   <v>       0.50000000       0.38888889       0.00000000 </v>
   <v>       0.00000000       0.41666667       0.00000000 </v>
   <v>       0.04166667       0.41666667       0.00000000 </v>
   <v>       0.08333333       0.41666667       0.00000000 </v>
   <v>       0.12500000       0.41666667       0.00000000 </v>
   <v>       0.16666667       0.41666667       0.00000000 </v>
   <v>       0.20833333       0.41666667       0.00000000 </v>
   <v>       0.25000000       0.41666667       0.00000000 </v>
   <v>       0.29166667       0.41666667       0.00000000 </v>
   <v>       0.33333333       0.41666667       0.00000000 </v>
   <v>       0.37500000       0.41666667       0.00000000 </v>
   <v>       0.41666667       0.41666667       0.00000000 </v>
   <v>       0.45833333       0.41666667       0.00000000 </v>
   <v>       0.50000000       0.41666667       0.00000000 </v>
   <v>       0.00000000       0.44444444       0.00000000 </v>
   <v>       0.04166667       0.44444444       0.00000000 </v>
   <v>       0.08333333       0.44444444       0.00000000 </v>
   <v>       0.12500000       0.44444444       0.00000000 </v>
   <v>       0.16666667       0.44444444       0.00000000 </v>
   <v>       0.20833333       0.44444444       0.00000000 </v>
   <v>       0.25000000       0.44444444       0.00000000 </v>
   <v>       0.29166667       0.44444444       0.00000000 </v>
   <v>       0.33333333       0.44444444       0.00000000 </v>
   <v>       0.37500000       0.44444444       0.00000000 </v>
   <v>       0.41666667       0.44444444       0.00000000 </v>
   <v>       0.45833333       0.44444444       0.00000000 </v>
   <v>       0.50000000       0.44444444       0.00000000 </v>
   <v>       0.00000000       0.47222222       0.00000000 </v>
   <v>       0.04166667       0.47222222       0.00000000 </v>
   <v>       0.08333333       0.47222222       0.00000000 </v>
   <v>       0.12500000       0.47222222       0.00000000 </v>
   <v>       0.16666667       0.47222222       0.00000000 </v>
   <v>       0.20833333       0.47222222       0.00000000 </v>
   <v>       0.25000000       0.47222222       0.00000000 </v>
   <v>       0.29166667       0.47222222       0.00000000 </v>
   <v>       0.33333333       0.47222222       0.00000000 </v>
   <v>       0.37500000       0.47222222       0.00000000 </v>
   <v>       0.41666667       0.47222222       0.00000000 </v>
   <v>       0.45833333       0.47222222       0.00000000 </v>
   <v>       0.50000000       0.47222222       0.00000000 </v>
   <v>       0.00000000       0.50000000       0.00000000 </v>
   <v>       0.04166667       0.50000000       0.00000000 </v>
   <v>       0.08333333       0.50000000       0.00000000 </v>
   <v>       0.12500000       0.50000000       0.00000000 </v>
   <v>       0.16666667       0.50000000       0.00000000 </v>
   <v>       0.20833333       0.50000000       0.00000000 </v>
   <v>       0.25000000       0.50000000       0.00000000 </v>
   <v>       0.29166667       0.50000000       0.00000000 </v>
   <v>       0.33333333       0.50000000       0.00000000 </v>
   <v>       0.37500000       0.50000000       0.00000000 </v>
   <v>       0.41666667       0.50000000       0.00000000 </v>
   <v>       0.45833333       0.50000000       0.00000000 </v>
   <v>       0.50000000       0.50000000       0.00000000 </v>
  </varray>
  <varray name="weights" >
   <v>       0.00115741 </v>
   <v>       0.00231481 </v>
   <v>       0.00231481 </v>
   <v>       0.00231481 </v>
   <v>       0.00231481 </v>
   <v>       0.00231481 </v>
   <v>       0.00231481 </v>
   <v>       0.00231481 </v>
   <v>       0.00231481 </v>
   <v>       0.00231481 </v>
   <v>       0.00231481 </v>
   <v>       0.00231481 </v>
   <v>       0.00115741 </v>
   <v>       0.00231481 </v>
   <v>       0.00462963 </v>
   <v>       0.00462963 </v>
   <v>       0.00462963 </v>
   <v>       0.00462963 </v>
   <v>       0.00462963 </v>
   <v>       0.00462963 </v>
   <v>       0.00462963 </v>
   <v>       0.00462963 </v>
   <v>       0.00462963 </v>
   <v>       0.00462963 </v>
   <v>       0.00462963 </v>
   <v>       0.00231481 </v>
   <v>       0.00231481 </v>
   <v>       0.00462963 </v>
   <v>       0.00462963 </v>
   <v>       0.00462963 </v>
   <v>       0.00462963 </v>
   <v>       0.00462963 </v>
   <v>       0.00462963 </v>
   <v>       0.00462963 </v>
   <v>       0.00462963 </v>
   <v>       0.00462963 </v>
   <v>       0.00462963 </v>
   <v>       0.00462963 </v>
   <v>       0.00231481 </v>
   <v>       0.00231481 </v>
   <v>       0.00462963 </v>
   <v>       0.00462963 </v>
   <v>       0.00462963 </v>
   <v>       0.00462963 </v>
   <v>       0.00462963 </v>
   <v>       0.00462963 </v>
   <v>       0.00462963 </v>
   <v>       0.00462963 </v>
   <v>       0.00462963 </v>
   <v>       0.00462963 </v>
   <v>       0.00462963 </v>
   <v>       0.00231481 </v>
   <v>       0.00231481 </v>
   <v>       0.00462963 </v>
   <v>       0.00462963 </v>
   <v>       0.00462963 </v>
   <v>       0.00462963 </v>
   <v>       0.00462963 </v>
   <v>       0.00462963 </v>
   <v>       0.00462963 </v>
   <v>       0.00462963 </v>
   <v>       0.00462963 </v>
   <v>       0.00462963 </v>
   <v>       0.00462963 </v>
   <v>       0.00231481 </v>
   <v>       0.00231481 </v>
   <v>       0.00462963 </v>
   <v>       0.00462963 </v>
   <v>       0.00462963 </v>
   <v>       0.00462963 </v>
   <v>       0.00462963 </v>
   <v>       0.00462963 </v>
   <v>       0.00462963 </v>
   <v>       0.00462963 </v>
   <v>       0.00462963 </v>
   <v>       0.00462963 </v>
   <v>       0.00462963 </v>
   <v>       0.00231481 </v>
   <v>       0.00231481 </v>
   <v>       0.00462963 </v>
   <v>       0.00462963 </v>
   <v>       0.00462963 </v>
   <v>       0.00462963 </v>
   <v>       0.00462963 </v>
   <v>       0.00462963 </v>
   <v>       0.00462963 </v>
   <v>       0.00462963 </v>
   <v>       0.00462963 </v>
   <v>       0.00462963 </v>
   <v>       0.00462963 </v>
   <v>       0.00231481 </v>
   <v>       0.00231481 </v>
   <v>       0.00462963 </v>
   <v>       0.00462963 </v>
   <v>       0.00462963 </v>
   <v>       0.00462963 </v>
   <v>       0.00462963 </v>
   <v>       0.00462963 </v>
   <v>       0.00462963 </v>
   <v>       0.00462963 </v>
   <v>       0.00462963 </v>
   <v>       0.00462963 </v>
   <v>       0.00462963 </v>
   <v>       0.00231481 </v>
   <v>       0.00231481 </v>
   <v>       0.00462963 </v>
   <v>       0.00462963 </v>
   <v>       0.00462963 </v>
   <v>       0.00462963 </v>
   <v>       0.00462963 </v>
   <v>       0.00462963 </v>
   <v>       0.00462963 </v>
   <v>       0.00462963 </v>
   <v>       0.00462963 </v>
   <v>       0.00462963 </v>
   <v>       0.00462963 </v>
   <v>       0.00231481 </v>
   <v>       0.00231481 </v>
   <v>       0.00462963 </v>
   <v>       0.00462963 </v>
   <v>       0.00462963 </v>
   <v>       0.00462963 </v>
   <v>       0.00462963 </v>
   <v>       0.00462963 </v>
   <v>       0.00462963 </v>
   <v>       0.00462963 </v>
   <v>       0.00462963 </v>
   <v>       0.00462963 </v>
   <v>       0.00462963 </v>
   <v>       0.00231481 </v>
   <v>       0.00231481 </v>
   <v>       0.00462963 </v>
   <v>       0.00462963 </v>
   <v>       0.00462963 </v>
   <v>       0.00462963 </v>
   <v>       0.00462963 </v>
   <v>       0.00462963 </v>
   <v>       0.00462963 </v>
   <v>       0.00462963 </v>
   <v>       0.00462963 </v>
   <v>       0.00462963 </v>
   <v>       0.00462963 </v>
   <v>       0.00231481 </v>
   <v>       0.00231481 </v>
   <v>       0.00462963 </v>
   <v>       0.00462963 </v>
   <v>       0.00462963 </v>
   <v>       0.00462963 </v>
   <v>       0.00462963 </v>
   <v>       0.00462963 </v>
   <v>       0.00462963 </v>
   <v>       0.00462963 </v>
   <v>       0.00462963 </v>
   <v>       0.00462963 </v>
   <v>       0.00462963 </v>
   <v>       0.00231481 </v>
   <v>       0.00231481 </v>
   <v>       0.00462963 </v>
   <v>       0.00462963 </v>
   <v>       0.00462963 </v>
   <v>       0.00462963 </v>
   <v>       0.00462963 </v>
   <v>       0.00462963 </v>
   <v>       0.00462963 </v>
   <v>       0.00462963 </v>
   <v>       0.00462963 </v>
   <v>       0.00462963 </v>
   <v>       0.00462963 </v>
   <v>       0.00231481 </v>
   <v>       0.00231481 </v>
   <v>       0.00462963 </v>
   <v>       0.00462963 </v>
   <v>       0.00462963 </v>
   <v>       0.00462963 </v>
   <v>       0.00462963 </v>
   <v>       0.00462963 </v>
   <v>       0.00462963 </v>
   <v>       0.00462963 </v>
   <v>       0.00462963 </v>
   <v>       0.00462963 </v>
   <v>       0.00462963 </v>
   <v>       0.00231481 </v>
   <v>       0.00231481 </v>
   <v>       0.00462963 </v>
   <v>       0.00462963 </v>
   <v>       0.00462963 </v>
   <v>       0.00462963 </v>
   <v>       0.00462963 </v>
   <v>       0.00462963 </v>
   <v>       0.00462963 </v>
   <v>       0.00462963 </v>
   <v>       0.00462963 </v>
   <v>       0.00462963 </v>
   <v>       0.00462963 </v>
   <v>       0.00231481 </v>
   <v>       0.00231481 </v>
   <v>       0.00462963 </v>
   <v>       0.00462963 </v>
   <v>       0.00462963 </v>
   <v>       0.00462963 </v>
   <v>       0.00462963 </v>
   <v>       0.00462963 </v>
   <v>       0.00462963 </v>
   <v>       0.00462963 </v>
   <v>       0.00462963 </v>
   <v>       0.00462963 </v>
   <v>       0.00462963 </v>
   <v>       0.00231481 </v>
   <v>       0.00231481 </v>
   <v>       0.00462963 </v>
   <v>       0.00462963 </v>
   <v>       0.00462963 </v>
   <v>       0.00462963 </v>
   <v>       0.00462963 </v>
   <v>       0.00462963 </v>
   <v>       0.00462963 </v>
   <v>       0.00462963 </v>
   <v>       0.00462963 </v>
   <v>       0.00462963 </v>
   <v>       0.00462963 </v>
   <v>       0.00231481 </v>
   <v>       0.00231481 </v>
   <v>       0.00462963 </v>
   <v>       0.00462963 </v>
   <v>       0.00462963 </v>
   <v>       0.00462963 </v>
   <v>       0.00462963 </v>
   <v>       0.00462963 </v>
   <v>       0.00462963 </v>
   <v>       0.00462963 </v>
   <v>       0.00462963 </v>
   <v>       0.00462963 </v>
   <v>       0.00462963 </v>
   <v>       0.00231481 </v>
   <v>       0.00115741 </v>
   <v>       0.00231481 </v>
   <v>       0.00231481 </v>
   <v>       0.00231481 </v>
   <v>       0.00231481 </v>
   <v>       0.00231481 </v>
   <v>       0.00231481 </v>
   <v>       0.00231481 </v>
   <v>       0.00231481 </v>
   <v>       0.00231481 </v>
   <v>       0.00231481 </v>
   <v>       0.00231481 </v>
   <v>       0.00115741 </v>
  </varray>
 </kpoints>
 <parameters>
  <separator name="general" >
   <i type="string" name="SYSTEM">gr</i>
   <i type="logical" name="LCOMPAT"> F  </i>
  </separator>
  <separator name="electronic" >
   <i type="string" name="PREC">accura</i>
   <i name="ENMAX">   2000.00000000</i>
   <i name="ENAUG">    644.87300000</i>
   <i name="EDIFF">      0.00000000</i>
   <i type="int" name="IALGO">    68</i>
   <i type="int" name="IWAVPR">    11</i>
   <i type="int" name="NBANDS">    12</i>
   <i name="NELECT">     16.00000000</i>
   <i type="int" name="TURBO">     0</i>
   <i type="int" name="IRESTART">     0</i>
   <i type="int" name="NREBOOT">     0</i>
   <i type="int" name="NMIN">     0</i>
   <i name="EREF">      0.00000000</i>
   <separator name="electronic smearing" >
    <i type="int" name="ISMEAR">     0</i>
    <i name="SIGMA">      0.05000000</i>
    <i name="KSPACING">      0.50000000</i>
    <i type="logical" name="KGAMMA"> T  </i>
   </separator>
   <separator name="electronic projectors" >
    <i type="logical" name="LREAL"> F  </i>
    <v name="ROPT">      0.00000000</v>
    <i type="int" name="LMAXPAW">  -100</i>
    <i type="int" name="LMAXMIX">     2</i>
    <i type="logical" name="NLSPLINE"> F  </i>
   </separator>
   <separator name="electronic startup" >
    <i type="int" name="ISTART">     0</i>
    <i type="int" name="ICHARG">     2</i>
    <i type="int" name="INIWAV">     1</i>
   </separator>
   <separator name="electronic spin" >
    <i type="int" name="ISPIN">     1</i>
    <i type="logical" name="LNONCOLLINEAR"> F  </i>
    <v name="MAGMOM">      1.00000000      1.00000000      1.00000000      1.00000000</v>
    <i name="NUPDOWN">     -1.00000000</i>
    <i type="logical" name="LSORBIT"> F  </i>
    <v name="SAXIS">      0.00000000      0.00000000      1.00000000</v>
    <i type="logical" name="LSPIRAL"> F  </i>
    <v name="QSPIRAL">      0.00000000      0.00000000      0.00000000</v>
    <i type="logical" name="LZEROZ"> F  </i>
   </separator>
   <separator name="electronic exchange-correlation" >
    <i type="logical" name="LASPH"> F  </i>
    <i type="logical" name="LMETAGGA"> F  </i>
   </separator>
   <separator name="electronic convergence" >
    <i type="int" name="NELM">   100</i>
    <i type="int" name="NELMDL">    -3</i>
    <i type="int" name="NELMIN">     5</i>
    <i name="ENINI">   2000.00000000</i>
    <separator name="electronic convergence detail" >
     <i type="logical" name="LDIAG"> T  </i>
     <i type="logical" name="LSUBROT"> F  </i>
     <i name="WEIMIN">      0.00100000</i>
     <i name="EBREAK">      0.00000000</i>
     <i name="DEPER">      0.30000000</i>
     <i type="int" name="NRMM">     4</i>
     <i name="TIME">      0.40000000</i>
    </separator>
   </separator>
   <separator name="electronic mixer" >
    <i name="AMIX">      0.40000000</i>
    <i name="BMIX">      1.00000000</i>
    <i name="AMIN">      0.10000000</i>
    <i name="AMIX_MAG">      1.60000000</i>
    <i name="BMIX_MAG">      1.00000000</i>
    <separator name="electronic mixer details" >
     <i type="int" name="IMIX">     4</i>
     <i type="int" name="MAXMIX">   -45</i>
     <i name="WC">    100.00000000</i>
     <i type="int" name="INIMIX">     1</i>
     <i type="int" name="MIXPRE">     1</i>
     <i type="int" name="MREMOVE">     5</i>
    </separator>
   </separator>
   <separator name="electronic dipolcorrection" >
    <i type="logical" name="LDIPOL"> F  </i>
    <i type="logical" name="LMONO"> F  </i>
    <i type="int" name="IDIPOL">     0</i>
    <i name="EPSILON">      1.00000000</i>
    <v name="DIPOL">   -100.00000000   -100.00000000   -100.00000000</v>
    <i name="EFIELD">      0.00000000</i>
   </separator>
  </separator>
  <separator name="grids" >
   <i type="int" name="NGX">    64</i>
   <i type="int" name="NGY">    36</i>
   <i type="int" name="NGZ">   294</i>
   <i type="int" name="NGXF">   128</i>
   <i type="int" name="NGYF">    72</i>
   <i type="int" name="NGZF">   588</i>
   <i type="logical" name="ADDGRID"> F  </i>
  </separator>
  <separator name="ionic" >
   <i type="int" name="NSW">   400</i>
   <i type="int" name="IBRION">     1</i>
   <i type="int" name="ISIF">     2</i>
   <i name="PSTRESS">      0.00000000</i>
   <i name="EDIFFG">     -0.00000100</i>
   <i type="int" name="NFREE">     0</i>
   <i name="POTIM">      0.50000000</i>
   <i name="SMASS">     -3.00000000</i>
   <i name="SCALEE">      1.00000000</i>
  </separator>
  <separator name="ionic md" >
   <i name="TEBEG">      0.00010000</i>
   <i name="TEEND">      0.00010000</i>
   <i type="int" name="NBLOCK">     1</i>
   <i type="int" name="KBLOCK">   400</i>
   <i type="int" name="NPACO">   256</i>
   <i name="APACO">     16.00000000</i>
  </separator>
  <separator name="symmetry" >
   <i type="int" name="ISYM">     2</i>
   <i name="SYMPREC">      0.00001000</i>
  </separator>
  <separator name="dos" >
   <i type="logical" name="LORBIT"> F  </i>
   <v name="RWIGS">     -1.00000000</v>
   <i type="int" name="NEDOS">   301</i>
   <i name="EMIN">     10.00000000</i>
   <i name="EMAX">    -10.00000000</i>
   <i name="EFERMI">      0.00000000</i>
  </separator>
  <separator name="writing" >
   <i type="int" name="NWRITE">     2</i>
   <i type="logical" name="LWAVE"> F  </i>
   <i type="logical" name="LCHARG"> F  </i>
   <i type="logical" name="LPARD"> F  </i>
   <i type="logical" name="LVTOT"> F  </i>
   <i type="logical" name="LVHAR"> F  </i>
   <i type="logical" name="LELF"> F  </i>
   <i type="logical" name="LOPTICS"> F  </i>
   <v name="STM">      0.00000000      0.00000000      0.00000000      0.00000000      0.00000000      0.00000000      0.00000000</v>
  </separator>
  <separator name="performance" >
   <i type="int" name="NPAR">     4</i>
   <i type="int" name="NSIM">     4</i>
   <i type="int" name="NBLK">    -1</i>
   <i type="logical" name="LPLANE"> T  </i>
   <i type="logical" name="LSCALAPACK"> F  </i>
   <i type="logical" name="LSCAAWARE"> F  </i>
   <i type="logical" name="LSCALU"> F  </i>
   <i type="logical" name="LASYNC"> F  </i>
   <i type="logical" name="LORBITALREAL"> F  </i>
  </separator>
  <separator name="miscellaneous" >
   <i type="int" name="IDIOT">     3</i>
   <i type="logical" name="LMUSIC"> F  </i>
   <v name="POMASS">     12.01100000</v>
   <v name="DARWINR">      0.00000000</v>
   <v name="DARWINV">      1.00000000</v>
   <i type="logical" name="LCORR"> T  </i>
  </separator>
  <i type="logical" name="GGA_COMPAT"> T  </i>
  <i type="logical" name="LBERRY"> F  </i>
  <i type="int" name="ICORELEVEL">     0</i>
  <i type="logical" name="LDAU"> F  </i>
  <i type="int" name="I_CONSTRAINED_M">     0</i>
  <separator name="electronic exchange-correlation" >
   <i type="string" name="GGA">--</i>
   <i type="int" name="VOSKOWN">     0</i>
   <i type="logical" name="LHFCALC"> F  </i>
   <i type="string" name="PRECFOCK"></i>
   <i type="logical" name="LSYMGRAD"> F  </i>
   <i type="logical" name="LHFONE"> F  </i>
   <i type="logical" name="LRHFCALC"> F  </i>
   <i type="logical" name="LTHOMAS"> F  </i>
   <i type="logical" name="LMODELHF"> F  </i>
   <i name="ENCUT4O">     -1.00000000</i>
   <i type="int" name="EXXOEP">     0</i>
   <i type="int" name="FOURORBIT">     0</i>
   <i name="AEXX">      0.00000000</i>
   <i name="HFALPHA">      0.00000000</i>
   <i name="MCALPHA">      0.00000000</i>
   <i name="ALDAX">      1.00000000</i>
   <i name="AGGAX">      1.00000000</i>
   <i name="ALDAC">      1.00000000</i>
   <i name="AGGAC">      1.00000000</i>
   <i type="int" name="NKREDX">     1</i>
   <i type="int" name="NKREDY">     1</i>
   <i type="int" name="NKREDZ">     1</i>
   <i type="logical" name="SHIFTRED"> F  </i>
   <i type="logical" name="ODDONLY"> F  </i>
   <i type="logical" name="EVENONLY"> F  </i>
   <i type="int" name="LMAXFOCK">     0</i>
   <i type="int" name="NMAXFOCKAE">     0</i>
   <i type="logical" name="LFOCKAEDFT"> F  </i>
   <i name="HFSCREEN">      0.00000000</i>
   <i name="HFSCREENC">      0.00000000</i>
   <i type="int" name="NBANDSGWLOW">     0</i>
  </separator>
  <separator name="vdW DFT" >
   <i type="logical" name="LUSE_VDW"> F  </i>
   <i name="Zab_VDW">     -0.84910000</i>
   <i name="PARAM1">      0.12340000</i>
   <i name="PARAM2">      1.00000000</i>
   <i name="PARAM3">      0.00000000</i>
  </separator>
  <separator name="model GW" >
   <i type="int" name="MODEL_GW">     0</i>
   <i name="MODEL_EPS0">     31.62568521</i>
   <i name="MODEL_ALPHA">      1.00000000</i>
  </separator>
  <separator name="linear response parameters" >
   <i type="logical" name="LEPSILON"> F  </i>
   <i type="logical" name="LRPA"> F  </i>
   <i type="logical" name="LNABLA"> F  </i>
   <i type="logical" name="LVEL"> F  </i>
   <i type="int" name="KINTER">     0</i>
   <i name="CSHIFT">      0.10000000</i>
   <i name="OMEGAMAX">     -1.00000000</i>
   <i name="DEG_THRESHOLD">      0.00200000</i>
  </separator>
  <separator name="orbital magnetization" >
   <i type="logical" name="NUCIND"> F  </i>
   <v name="MAGPOS">      0.00000000      0.00000000      0.00000000</v>
   <i type="logical" name="LNICSALL"> T  </i>
   <i type="logical" name="ORBITALMAG"> F  </i>
   <i type="logical" name="LMAGBLOCH"> F  </i>
   <i type="logical" name="LCHIMAG"> F  </i>
   <i type="logical" name="LGAUGE"> T  </i>
   <i type="int" name="MAGATOM">     0</i>
   <v name="MAGDIPOL">      0.00000000      0.00000000      0.00000000</v>
   <v name="AVECCONST">      0.00000000      0.00000000      0.00000000</v>
  </separator>
  <separator name="response functions" >
   <i type="logical" name="LADDER"> F  </i>
   <i type="logical" name="LFXC"> F  </i>
   <i type="logical" name="LHARTREE"> T  </i>
   <i type="int" name="IBSE">     0</i>
   <i type="logical" name="LTCTE"> F  </i>
   <i type="logical" name="LTETE"> F  </i>
   <i type="logical" name="LTRIPLET"> F  </i>
   <i type="logical" name="LFXCEPS"> F  </i>
   <i type="logical" name="LFXHEG"> F  </i>
   <i type="logical" name="L2ORDER"> F  </i>
   <i type="logical" name="LUSEW"> F  </i>
   <i name="ENCUTGW">     -2.00000000</i>
   <i name="ENCUTGWSOFT">     -2.00000000</i>
   <i name="ENCUTLF">     -1.00000000</i>
   <i type="int" name="LMAXMP2">    -1</i>
   <i name="SCISSOR">      0.00000000</i>
   <i type="int" name="NOMEGA">     0</i>
   <i type="int" name="NOMEGAR">     0</i>
   <i type="int" name="NBANDSGW">    -1</i>
   <i type="int" name="NBANDSO">    -1</i>
   <i type="int" name="NBANDSV">    -1</i>
   <i type="int" name="NELM">   100</i>
   <i type="int" name="DIM">     3</i>
   <i type="int" name="ANTIRES">     0</i>
   <i name="OMEGAMAX">    -30.00000000</i>
   <i name="OMEGAMIN">    -30.00000000</i>
   <i name="OMEGATL">   -200.00000000</i>
   <i type="int" name="OMEGAGRID">     0</i>
   <i name="CSHIFT">     -0.10000000</i>
   <i type="logical" name="SELFENERGY"> F  </i>
   <i type="logical" name="LSPECTRAL"> F  </i>
   <i type="logical" name="ODDONLYGW"> F  </i>
   <i type="logical" name="EVENONLYGW"> F  </i>
   <i type="int" name="NKREDLFX">     1</i>
   <i type="int" name="NKREDLFY">     1</i>
   <i type="int" name="NKREDLFZ">     1</i>
   <i type="int" name="MAXMEM">  1800</i>
   <i type="int" name="TELESCOPE">     0</i>
   <i type="int" name="TAUPAR">     1</i>
  </separator>
  <separator name="External order field" >
   <i name="OFIELD_KAPPA">      0.00000000</i>
   <v name="OFIELD_K">      0.00000000      0.00000000      0.00000000</v>
   <i name="OFIELD_Q6_NEAR">      0.00000000</i>
   <i name="OFIELD_Q6_FAR">      0.00000000</i>
   <i name="OFIELD_A">      0.00000000</i>
  </separator>
 </parameters>
 <atominfo>
  <atoms>       4 </atoms>
  <types>       1 </types>
  <array name="atoms" >
   <dimension dim="1">ion</dimension>
   <field type="string">element</field>
   <field type="int">atomtype</field>
   <set>
    <rc><c>C </c><c>   1</c></rc>
    <rc><c>C </c><c>   1</c></rc>
    <rc><c>C </c><c>   1</c></rc>
    <rc><c>C </c><c>   1</c></rc>
   </set>
  </array>
  <array name="atomtypes" >
   <dimension dim="1">type</dimension>
   <field type="int">atomspertype</field>
   <field type="string">element</field>
   <field>mass</field>
   <field>valence</field>
   <field type="string">pseudopotential</field>
   <set>
    <rc><c>   4</c><c>C </c><c>     12.01100000</c><c>      4.00000000</c><c> PAW_PBE C 08Apr2002                    </c></rc>
   </set>
  </array>
 </atominfo>
 <structure name="initialpos" >
  <crystal>
   <varray name="basis" >
    <v>       4.27475070       0.00000000       0.00000000 </v>
    <v>       0.00000000       2.46729728       0.00000000 </v>
    <v>       0.00000000       0.00000000      19.99016654 </v>
   </varray>
   <i name="volume">    210.83790140 </i>
   <varray name="rec_basis" >
    <v>       0.23393177       0.00000000       0.00000000 </v>
    <v>       0.00000000       0.40530179       0.00000000 </v>
    <v>       0.00000000       0.00000000       0.05002460 </v>
   </varray>
  </crystal>
  <varray name="positions" >
   <v>       0.99987391       0.00000000       0.00000000 </v>
   <v>       0.16679275       0.50000000       0.00000000 </v>
   <v>       0.49987391       0.50000000       0.00000000 </v>
   <v>       0.66679275       0.00000000       0.00000000 </v>
  </varray>
 </structure>
 <calculation>
  <scstep>
   <time name="dav">  296.19  298.78</time>
   <time name="total">  298.65  301.29</time>
   <energy>
    <i name="alphaZ">      6.18334092 </i>
    <i name="ewald">   2583.52943827 </i>
    <i name="hartreedc">  -3009.00961617 </i>
    <i name="XCdc">     55.09094481 </i>
    <i name="pawpsdc">    151.32577238 </i>
    <i name="pawaedc">   -155.92769107 </i>
    <i name="eentropy">     -0.00197599 </i>
    <i name="bandstr">    -30.61565470 </i>
    <i name="atom">    588.62352690 </i>
    <i name="e_fr_energy">    189.19808536 </i>
    <i name="e_wo_entrp">    189.20006135 </i>
    <i name="e_0_energy">    189.19907335 </i>
   </energy>
  </scstep>
  <scstep>
   <time name="dav">  451.64  452.02</time>
   <time name="total">  451.65  452.03</time>
   <energy>
    <i name="e_fr_energy">     -9.25897073 </i>
    <i name="e_wo_entrp">     -9.25871301 </i>
    <i name="e_0_energy">     -9.25884187 </i>
   </energy>
  </scstep>
  <scstep>
   <time name="dav">  343.80  344.53</time>
   <time name="total">  372.70  373.64</time>
   <energy>
    <i name="e_fr_energy">    -38.35141576 </i>
    <i name="e_wo_entrp">    -38.35136365 </i>
    <i name="e_0_energy">    -38.35138970 </i>
   </energy>
  </scstep>
  <scstep>
   <time name="diag">   79.23   79.77</time>
   <time name="diis">  339.71  342.59</time>
   <time name="orth">    3.07    3.09</time>
   <time name="total">  454.16  457.91</time>
   <energy>
    <i name="e_fr_energy">    -37.70320102 </i>
    <i name="e_wo_entrp">    -37.70307312 </i>
    <i name="e_0_energy">    -37.70313707 </i>
   </energy>
  </scstep>
  <scstep>
   <time name="diag">   79.05   79.75</time>
   <time name="diis">  338.31  340.45</time>
   <time name="orth">    3.13    3.15</time>
   <time name="total">  452.90  455.83</time>
   <energy>
    <i name="e_fr_energy">    -36.93641963 </i>
    <i name="e_wo_entrp">    -36.93628904 </i>
    <i name="e_0_energy">    -36.93635433 </i>
   </energy>
  </scstep>
  <scstep>
   <time name="diag">   79.63   79.76</time>
   <time name="diis">  363.46  365.11</time>
   <time name="orth">    3.08    3.08</time>
   <time name="total">  478.47  480.50</time>
   <energy>
    <i name="e_fr_energy">    -36.93808466 </i>
    <i name="e_wo_entrp">    -36.93795524 </i>
    <i name="e_0_energy">    -36.93801995 </i>
   </energy>
  </scstep>
  <scstep>
   <time name="diag">   79.21   79.86</time>
   <time name="diis">  335.99  337.62</time>
   <time name="orth">    3.07    3.10</time>
   <time name="total">  450.33  453.04</time>
   <energy>
    <i name="e_fr_energy">    -36.92844195 </i>
    <i name="e_wo_entrp">    -36.92831282 </i>
    <i name="e_0_energy">    -36.92837738 </i>
   </energy>
  </scstep>
  <scstep>
   <time name="diag">   78.98   79.75</time>
   <time name="diis">  337.61  339.01</time>
   <time name="orth">    3.07    3.10</time>
   <time name="total">  452.06  454.45</time>
   <energy>
    <i name="e_fr_energy">    -36.92251871 </i>
    <i name="e_wo_entrp">    -36.92238958 </i>
    <i name="e_0_energy">    -36.92245414 </i>
   </energy>
  </scstep>
  <scstep>
   <time name="diag">   79.50   79.77</time>
   <time name="diis">  324.27  326.19</time>
   <time name="orth">    3.07    3.10</time>
   <time name="total">  439.18  441.85</time>
   <energy>
    <i name="e_fr_energy">    -36.92216694 </i>
    <i name="e_wo_entrp">    -36.92203778 </i>
    <i name="e_0_energy">    -36.92210236 </i>
   </energy>
  </scstep>
  <scstep>
   <time name="diag">   79.20   79.70</time>
   <time name="diis">  324.52  326.39</time>
   <time name="orth">    3.08    3.08</time>
   <time name="total">  439.44  441.90</time>
   <energy>
    <i name="e_fr_energy">    -36.92197875 </i>
    <i name="e_wo_entrp">    -36.92184960 </i>
    <i name="e_0_energy">    -36.92191418 </i>
   </energy>
  </scstep>
  <scstep>
   <time name="diag">   79.47   79.85</time>
   <time name="diis">  327.63  328.61</time>
   <time name="orth">    3.08    3.08</time>
   <time name="total">  442.83  444.47</time>
   <energy>
    <i name="e_fr_energy">    -36.92460060 </i>
    <i name="e_wo_entrp">    -36.92447146 </i>
    <i name="e_0_energy">    -36.92453603 </i>
   </energy>
  </scstep>
  <scstep>
   <time name="diag">   79.61   79.79</time>
   <time name="diis">  327.12  327.28</time>
   <time name="orth">    3.09    3.10</time>
   <time name="total">  442.24  442.65</time>
   <energy>
    <i name="e_fr_energy">    -36.92503570 </i>
    <i name="e_wo_entrp">    -36.92490656 </i>
    <i name="e_0_energy">    -36.92497113 </i>
   </energy>
  </scstep>
  <scstep>
   <time name="diag">   79.56   79.83</time>
   <time name="diis">  334.48  335.27</time>
   <time name="orth">    3.08    3.09</time>
   <time name="total">  449.51  450.83</time>
   <energy>
    <i name="e_fr_energy">    -36.92530847 </i>
    <i name="e_wo_entrp">    -36.92517932 </i>
    <i name="e_0_energy">    -36.92524389 </i>
   </energy>
  </scstep>
  <scstep>
   <time name="diag">   79.35   79.73</time>
   <time name="diis">  327.78  327.95</time>
   <time name="orth">    3.08    3.09</time>
   <time name="total">  442.87  443.53</time>
   <energy>
    <i name="e_fr_energy">    -36.92539536 </i>
    <i name="e_wo_entrp">    -36.92526622 </i>
    <i name="e_0_energy">    -36.92533079 </i>
   </energy>
  </scstep>
  <scstep>
   <time name="diag">   79.19   79.77</time>
   <time name="diis">  333.07  335.24</time>
   <time name="orth">    3.08    3.11</time>
   <time name="total">  448.13  450.95</time>
   <energy>
    <i name="e_fr_energy">    -36.92540347 </i>
    <i name="e_wo_entrp">    -36.92527433 </i>
    <i name="e_0_energy">    -36.92533890 </i>
   </energy>
  </scstep>
  <scstep>
   <time name="diag">   79.29   79.71</time>
   <time name="diis">  336.32  339.38</time>
   <time name="orth">    3.07    3.10</time>
   <time name="total">  450.95  455.05</time>
   <energy>
    <i name="e_fr_energy">    -36.92541468 </i>
    <i name="e_wo_entrp">    -36.92528553 </i>
    <i name="e_0_energy">    -36.92535011 </i>
   </energy>
  </scstep>
  <scstep>
   <time name="diag">   78.96   79.76</time>
   <time name="diis">  337.95  341.44</time>
   <time name="orth">    3.08    3.08</time>
   <time name="total">  452.25  456.96</time>
   <energy>
    <i name="e_fr_energy">    -36.92541797 </i>
    <i name="e_wo_entrp">    -36.92528882 </i>
    <i name="e_0_energy">    -36.92535339 </i>
   </energy>
  </scstep>
  <scstep>
   <time name="diag">   79.64   79.73</time>
   <time name="diis">  325.95  326.21</time>
   <time name="orth">    3.09    3.10</time>
   <time name="total">  441.26  441.64</time>
   <energy>
    <i name="e_fr_energy">    -36.92542018 </i>
    <i name="e_wo_entrp">    -36.92529103 </i>
    <i name="e_0_energy">    -36.92535561 </i>
   </energy>
  </scstep>
  <scstep>
   <time name="diag">   79.47   79.75</time>
   <time name="diis">  327.43  330.01</time>
   <time name="orth">    3.07    3.10</time>
   <time name="total">  442.29  445.65</time>
   <energy>
    <i name="e_fr_energy">    -36.92542044 </i>
    <i name="e_wo_entrp">    -36.92529129 </i>
    <i name="e_0_energy">    -36.92535587 </i>
   </energy>
  </scstep>
  <scstep>
   <time name="diag">   78.98   79.71</time>
   <time name="diis">  255.67  256.38</time>
   <time name="orth">    3.09    3.10</time>
   <time name="total">  370.22  371.75</time>
   <energy>
    <i name="e_fr_energy">    -36.92542050 </i>
    <i name="e_wo_entrp">    -36.92529135 </i>
    <i name="e_0_energy">    -36.92535593 </i>
   </energy>
  </scstep>
  <scstep>
   <time name="diag">   79.57   79.70</time>
   <time name="diis">  223.79  224.30</time>
   <time name="orth">    3.09    3.10</time>
   <time name="total">  338.89  339.70</time>
   <energy>
    <i name="e_fr_energy">    -36.92542051 </i>
    <i name="e_wo_entrp">    -36.92529136 </i>
    <i name="e_0_energy">    -36.92535593 </i>
   </energy>
  </scstep>
  <scstep>
   <time name="diag">   79.49   79.74</time>
   <time name="diis">  225.59  226.01</time>
   <time name="orth">    3.07    3.08</time>
   <time name="total">  340.64  341.55</time>
   <energy>
    <i name="e_fr_energy">    -36.92542051 </i>
    <i name="e_wo_entrp">    -36.92529136 </i>
    <i name="e_0_energy">    -36.92535593 </i>
   </energy>
  </scstep>
  <scstep>
   <time name="diag">   79.63   79.77</time>
   <time name="diis">  216.04  216.58</time>
   <time name="orth">    3.08    3.10</time>
   <time name="total">  331.00  332.04</time>
   <energy>
    <i name="e_fr_energy">    -36.92542051 </i>
    <i name="e_wo_entrp">    -36.92529136 </i>
    <i name="e_0_energy">    -36.92535594 </i>
   </energy>
  </scstep>
  <scstep>
   <time name="diag">   78.75   79.65</time>
   <time name="diis">  201.94  203.88</time>
   <time name="orth">    3.06    3.09</time>
   <time name="total">  286.17  289.04</time>
   <energy>
    <i name="alphaZ">      6.18334092 </i>
    <i name="ewald">   2583.52943827 </i>
    <i name="hartreedc">  -3077.48289062 </i>
    <i name="XCdc">     57.51353232 </i>
    <i name="pawpsdc">    276.88052123 </i>
    <i name="pawaedc">   -282.02847825 </i>
    <i name="eentropy">     -0.00012915 </i>
    <i name="bandstr">   -190.14428213 </i>
    <i name="atom">    588.62352690 </i>
    <i name="e_fr_energy">    -36.92542051 </i>
    <i name="e_wo_entrp">    -36.92529136 </i>
    <i name="e_0_energy">    -36.92535594 </i>
   </energy>
  </scstep>
  <structure>
   <crystal>
    <varray name="basis" >
     <v>       4.27475070       0.00000000       0.00000000 </v>
     <v>       0.00000000       2.46729728       0.00000000 </v>
     <v>       0.00000000       0.00000000      19.99016654 </v>
    </varray>
    <i name="volume">    210.83790140 </i>
    <varray name="rec_basis" >
     <v>       0.23393177       0.00000000       0.00000000 </v>
     <v>       0.00000000       0.40530179       0.00000000 </v>
     <v>       0.00000000       0.00000000       0.05002460 </v>
    </varray>
   </crystal>
   <varray name="positions" >
    <v>       0.99987391       0.00000000       0.00000000 </v>
    <v>       0.16679275       0.50000000       0.00000000 </v>
    <v>       0.49987391       0.50000000       0.00000000 </v>
    <v>       0.66679275       0.00000000       0.00000000 </v>
   </varray>
  </structure>
  <varray name="forces" >
   <v>       0.05333253      -0.00000000      -0.00000000 </v>
   <v>      -0.05333253       0.00000000       0.00000000 </v>
   <v>       0.05333253      -0.00000000      -0.00000000 </v>
   <v>      -0.05333253       0.00000000       0.00000000 </v>
  </varray>
  <varray name="stress" >
   <v>      -0.42470636       0.00000000       0.00000000 </v>
   <v>       0.00000000      -0.31564214       0.00000000 </v>
   <v>       0.00000000       0.00000000      -0.01001798 </v>
  </varray>
  <energy>
   <i name="e_fr_energy">    -36.92542051 </i>
   <i name="e_wo_entrp">    -36.92535594 </i>
   <i name="e_0_energy">     -0.00012915 </i>
  </energy>
  <time name="totalsc">10069.6110119.17</time>
 </calculation>
 <calculation>
  <scstep>
   <time name="dav">  321.64  322.35</time>
   <time name="total">  354.30  355.09</time>
   <energy>
    <i name="alphaZ">      6.18334092 </i>
    <i name="ewald">   2583.53282253 </i>
    <i name="hartreedc">  -3077.48347359 </i>
    <i name="XCdc">     57.51357173 </i>
    <i name="pawpsdc">    276.88051928 </i>
    <i name="pawaedc">   -282.02847627 </i>
    <i name="eentropy">     -0.00008672 </i>
    <i name="bandstr">   -190.14634825 </i>
    <i name="atom">    588.62352690 </i>
    <i name="e_fr_energy">    -36.92460348 </i>
    <i name="e_wo_entrp">    -36.92451676 </i>
    <i name="e_0_energy">    -36.92456012 </i>
   </energy>
  </scstep>
  <scstep>
   <time name="diag">   79.34   79.59</time>
   <time name="diis">  322.29  324.35</time>
   <time name="orth">    3.09    3.10</time>
   <time name="total">  437.02  439.57</time>
   <energy>
    <i name="e_fr_energy">    -36.92464134 </i>
    <i name="e_wo_entrp">    -36.92455183 </i>
    <i name="e_0_energy">    -36.92459658 </i>
   </energy>
  </scstep>
  <scstep>
   <time name="diag">   79.43   79.66</time>
   <time name="diis">  329.82  330.39</time>
   <time name="orth">    3.08    3.10</time>
   <time name="total">  444.77  445.72</time>
   <energy>
    <i name="e_fr_energy">    -36.92460290 </i>
    <i name="e_wo_entrp">    -36.92450847 </i>
    <i name="e_0_energy">    -36.92455569 </i>
   </energy>
  </scstep>
  <scstep>
   <time name="diag">   79.13   79.58</time>
   <time name="diis">  340.56  342.67</time>
   <time name="orth">    3.07    3.07</time>
   <time name="total">  455.05  458.04</time>
   <energy>
    <i name="e_fr_energy">    -36.92459923 </i>
    <i name="e_wo_entrp">    -36.92450599 </i>
    <i name="e_0_energy">    -36.92455261 </i>
   </energy>
  </scstep>
  <scstep>
   <time name="diag">   79.02   79.70</time>
   <time name="diis">  338.35  341.97</time>
   <time name="orth">    3.06    3.09</time>
   <time name="total">  452.48  457.13</time>
   <energy>
    <i name="e_fr_energy">    -36.92459936 </i>
    <i name="e_wo_entrp">    -36.92450625 </i>
    <i name="e_0_energy">    -36.92455280 </i>
   </energy>
  </scstep>
  <scstep>
   <time name="diag">   78.96   79.68</time>
   <time name="diis">  339.70  342.68</time>
   <time name="orth">    3.07    3.07</time>
   <time name="total">  453.48  457.82</time>
   <energy>
    <i name="e_fr_energy">    -36.92459929 </i>
    <i name="e_wo_entrp">    -36.92450603 </i>
    <i name="e_0_energy">    -36.92455266 </i>
   </energy>
  </scstep>
  <scstep>
   <time name="diag">   78.92   79.72</time>
   <time name="diis">  331.26  334.45</time>
   <time name="orth">    3.08    3.08</time>
   <time name="total">  445.16  449.68</time>
   <energy>
    <i name="e_fr_energy">    -36.92459929 </i>
    <i name="e_wo_entrp">    -36.92450602 </i>
    <i name="e_0_energy">    -36.92455266 </i>
   </energy>
  </scstep>
  <scstep>
   <time name="diag">   79.20   79.66</time>
   <time name="diis">  287.63  288.37</time>
   <time name="orth">    3.10    3.10</time>
   <time name="total">  402.42  403.78</time>
   <energy>
    <i name="e_fr_energy">    -36.92459929 </i>
    <i name="e_wo_entrp">    -36.92450603 </i>
    <i name="e_0_energy">    -36.92455266 </i>
   </energy>
  </scstep>
  <scstep>
   <time name="diag">   79.30   79.72</time>
   <time name="diis">  221.15  223.24</time>
   <time name="orth">    3.07    3.10</time>
   <time name="total">  335.62  338.48</time>
   <energy>
    <i name="e_fr_energy">    -36.92459929 </i>
    <i name="e_wo_entrp">    -36.92450603 </i>
    <i name="e_0_energy">    -36.92455266 </i>
   </energy>
  </scstep>
  <scstep>
   <time name="diag">   79.26   79.61</time>
   <time name="diis">  223.01  223.60</time>
   <time name="orth">    3.08    3.08</time>
   <time name="total">  337.25  376.55</time>
   <energy>
    <i name="e_fr_energy">    -36.92459929 </i>
    <i name="e_wo_entrp">    -36.92450603 </i>
    <i name="e_0_energy">    -36.92455266 </i>
   </energy>
  </scstep>
  <scstep>
   <time name="diag">   79.21   79.59</time>
   <time name="diis">  215.38  216.86</time>
   <time name="orth">    3.08    3.10</time>
   <time name="total">  300.08  301.99</time>
   <energy>
    <i name="alphaZ">      6.18334092 </i>
    <i name="ewald">   2583.53282253 </i>
    <i name="hartreedc">  -3077.48552143 </i>
    <i name="XCdc">     57.51366904 </i>
    <i name="pawpsdc">    276.88694332 </i>
    <i name="pawaedc">   -282.03493462 </i>
    <i name="eentropy">     -0.00009326 </i>
    <i name="bandstr">   -190.14435269 </i>
    <i name="atom">    588.62352690 </i>
    <i name="e_fr_energy">    -36.92459929 </i>
    <i name="e_wo_entrp">    -36.92450603 </i>
    <i name="e_0_energy">    -36.92455266 </i>
   </energy>
  </scstep>
  <structure>
   <crystal>
    <varray name="basis" >
     <v>       4.27475070       0.00000000       0.00000000 </v>
     <v>       0.00000000       2.46729728       0.00000000 </v>
     <v>       0.00000000       0.00000000      19.99016654 </v>
    </varray>
    <i name="volume">    210.83790140 </i>
    <varray name="rec_basis" >
     <v>       0.23393177       0.00000000       0.00000000 </v>
     <v>       0.00000000       0.40530179       0.00000000 </v>
     <v>       0.00000000       0.00000000       0.05002460 </v>
    </varray>
   </crystal>
   <varray name="positions" >
    <v>       1.00047580      -0.00000000      -0.00000000 </v>
    <v>       0.16619087       0.50000000       0.00000000 </v>
    <v>       0.50047580       0.50000000      -0.00000000 </v>
    <v>       0.66619087       0.00000000       0.00000000 </v>
   </varray>
  </structure>
  <varray name="forces" >
   <v>      -0.21296122       0.00000000       0.00000000 </v>
   <v>       0.21296122      -0.00000000      -0.00000000 </v>
   <v>      -0.21296122      -0.00000000       0.00000000 </v>
   <v>       0.21296122       0.00000000      -0.00000000 </v>
  </varray>
  <varray name="stress" >
   <v>      -1.16953306       0.00000000       0.00000000 </v>
   <v>       0.00000000       0.46862257       0.00000000 </v>
   <v>       0.00000000       0.00000000      -0.00992350 </v>
  </varray>
  <energy>
   <i name="e_fr_energy">    -36.92459929 </i>
   <i name="e_wo_entrp">    -36.92455266 </i>
   <i name="e_0_energy">     -0.00009326 </i>
  </energy>
  <time name="totalsc"> 4517.51 4584.77</time>
 </calculation>
 <calculation>
  <scstep>
   <time name="dav">  303.03  305.13</time>
   <time name="total">  335.28  337.70</time>
   <energy>
    <i name="alphaZ">      6.18334092 </i>
    <i name="ewald">   2583.52936601 </i>
    <i name="hartreedc">  -3077.48424665 </i>
    <i name="XCdc">     57.51357712 </i>
    <i name="pawpsdc">    276.88694238 </i>
    <i name="pawaedc">   -282.03493369 </i>
    <i name="eentropy">     -0.00013057 </i>
    <i name="bandstr">   -190.14292383 </i>
    <i name="atom">    588.62352690 </i>
    <i name="e_fr_energy">    -36.92548140 </i>
    <i name="e_wo_entrp">    -36.92535083 </i>
    <i name="e_0_energy">    -36.92541612 </i>
   </energy>
  </scstep>
  <scstep>
   <time name="diag">   79.41   79.61</time>
   <time name="diis">  322.21  322.84</time>
   <time name="orth">    3.09    3.09</time>
   <time name="total">  437.08  438.04</time>
   <energy>
    <i name="e_fr_energy">    -36.92550189 </i>
    <i name="e_wo_entrp">    -36.92537129 </i>
    <i name="e_0_energy">    -36.92543659 </i>
   </energy>
  </scstep>
  <scstep>
   <time name="diag">   79.25   79.64</time>
   <time name="diis">  323.75  325.78</time>
   <time name="orth">    3.10    3.10</time>
   <time name="total">  438.49  441.00</time>
   <energy>
    <i name="e_fr_energy">    -36.92547758 </i>
    <i name="e_wo_entrp">    -36.92534720 </i>
    <i name="e_0_energy">    -36.92541239 </i>
   </energy>
  </scstep>
  <scstep>
   <time name="diag">   79.13   79.57</time>
   <time name="diis">  334.41  337.71</time>
   <time name="orth">    3.08    3.09</time>
   <time name="total">  448.84  453.01</time>
   <energy>
    <i name="e_fr_energy">    -36.92547535 </i>
    <i name="e_wo_entrp">    -36.92534489 </i>
    <i name="e_0_energy">    -36.92541012 </i>
   </energy>
  </scstep>
  <scstep>
   <time name="diag">   78.82   79.63</time>
   <time name="diis">  336.17  339.30</time>
   <time name="orth">    3.08    3.10</time>
   <time name="total">  450.25  455.56</time>
   <energy>
    <i name="e_fr_energy">    -36.92547543 </i>
    <i name="e_wo_entrp">    -36.92534495 </i>
    <i name="e_0_energy">    -36.92541019 </i>
   </energy>
  </scstep>
  <scstep>
   <time name="diag">   79.05   79.62</time>
   <time name="diis">  336.89  338.17</time>
   <time name="orth">    3.07    3.07</time>
   <time name="total">  451.48  453.35</time>
   <energy>
    <i name="e_fr_energy">    -36.92547538 </i>
    <i name="e_wo_entrp">    -36.92534492 </i>
    <i name="e_0_energy">    -36.92541015 </i>
   </energy>
  </scstep>
  <scstep>
   <time name="diag">   79.49   79.60</time>
   <time name="diis">  333.60  336.08</time>
   <time name="orth">    3.08    3.10</time>
   <time name="total">  448.44  451.27</time>
   <energy>
    <i name="e_fr_energy">    -36.92547538 </i>
    <i name="e_wo_entrp">    -36.92534492 </i>
    <i name="e_0_energy">    -36.92541015 </i>
   </energy>
  </scstep>
  <scstep>
   <time name="diag">   78.89   79.58</time>
   <time name="diis">  257.18  259.10</time>
   <time name="orth">    3.09    3.10</time>
   <time name="total">  371.44  374.31</time>
   <energy>
    <i name="e_fr_energy">    -36.92547538 </i>
    <i name="e_wo_entrp">    -36.92534491 </i>
    <i name="e_0_energy">    -36.92541015 </i>
   </energy>
  </scstep>
  <scstep>
   <time name="diag">   79.07   79.64</time>
   <time name="diis">  221.88  223.30</time>
   <time name="orth">    3.08    3.08</time>
   <time name="total">  336.17  338.57</time>
   <energy>
    <i name="e_fr_energy">    -36.92547538 </i>
    <i name="e_wo_entrp">    -36.92534491 </i>
    <i name="e_0_energy">    -36.92541015 </i>
   </energy>
  </scstep>
  <scstep>
   <time name="diag">   78.94   79.62</time>
   <time name="diis">  221.98  224.07</time>
   <time name="orth">    3.08    3.09</time>
   <time name="total">  336.16  339.32</time>
   <energy>
    <i name="e_fr_energy">    -36.92547538 </i>
    <i name="e_wo_entrp">    -36.92534492 </i>
    <i name="e_0_energy">    -36.92541015 </i>
   </energy>
  </scstep>
  <scstep>
   <time name="diag">   79.01   79.58</time>
   <time name="diis">  215.03  216.64</time>
   <time name="orth">    3.08    3.08</time>
   <time name="total">  329.34  331.82</time>
   <energy>
    <i name="e_fr_energy">    -36.92547538 </i>
    <i name="e_wo_entrp">    -36.92534492 </i>
    <i name="e_0_energy">    -36.92541015 </i>
   </energy>
  </scstep>
  <scstep>
   <time name="diag">   79.04   79.62</time>
   <time name="diis">  206.30  207.84</time>
   <time name="orth">    3.08    3.10</time>
   <time name="total">  320.43  322.83</time>
   <energy>
    <i name="e_fr_energy">    -36.92547538 </i>
    <i name="e_wo_entrp">    -36.92534492 </i>
    <i name="e_0_energy">    -36.92541015 </i>
   </energy>
  </scstep>
  <scstep>
   <time name="diag">   79.08   79.58</time>
   <time name="diis">  204.42  204.58</time>
   <time name="orth">    3.09    3.10</time>
   <time name="total">  319.33  320.06</time>
   <energy>
    <i name="e_fr_energy">    -36.92547538 </i>
    <i name="e_wo_entrp">    -36.92534492 </i>
    <i name="e_0_energy">    -36.92541015 </i>
   </energy>
  </scstep>
  <scstep>
   <time name="diag">   79.42   79.58</time>
   <time name="diis">  194.80  195.06</time>
   <time name="orth">    3.09    3.10</time>
   <time name="total">  309.53  310.19</time>
   <energy>
    <i name="e_fr_energy">    -36.92547538 </i>
    <i name="e_wo_entrp">    -36.92534492 </i>
    <i name="e_0_energy">    -36.92541015 </i>
   </energy>
  </scstep>
  <scstep>
   <time name="diag">   79.00   79.59</time>
   <time name="diis">  187.08  188.81</time>
   <time name="orth">    3.07    3.10</time>
   <time name="total">  271.52  273.92</time>
   <energy>
    <i name="alphaZ">      6.18334092 </i>
    <i name="ewald">   2583.52936601 </i>
    <i name="hartreedc">  -3077.48285319 </i>
    <i name="XCdc">     57.51353052 </i>
    <i name="pawpsdc">    276.88037487 </i>
    <i name="pawaedc">   -282.02833095 </i>
    <i name="eentropy">     -0.00013047 </i>
    <i name="bandstr">   -190.14430000 </i>
    <i name="atom">    588.62352690 </i>
    <i name="e_fr_energy">    -36.92547538 </i>
    <i name="e_wo_entrp">    -36.92534492 </i>
    <i name="e_0_energy">    -36.92541015 </i>
   </energy>
  </scstep>
  <structure>
   <crystal>
    <varray name="basis" >
     <v>       4.27475070       0.00000000       0.00000000 </v>
     <v>       0.00000000       2.46729728       0.00000000 </v>
     <v>       0.00000000       0.00000000      19.99016654 </v>
    </varray>
    <i name="volume">    210.83790140 </i>
    <varray name="rec_basis" >
     <v>       0.23393177       0.00000000       0.00000000 </v>
     <v>       0.00000000       0.40530179       0.00000000 </v>
     <v>       0.00000000       0.00000000       0.05002460 </v>
    </varray>
   </crystal>
   <varray name="positions" >
    <v>       0.99999446      -0.00000000       0.00000000 </v>
    <v>       0.16667221       0.50000000      -0.00000000 </v>
    <v>       0.49999446       0.50000000       0.00000000 </v>
    <v>       0.66667221       0.00000000      -0.00000000 </v>
   </varray>
  </structure>
  <varray name="forces" >
   <v>      -0.00005892       0.00000000       0.00000000 </v>
   <v>       0.00005892      -0.00000000      -0.00000000 </v>
   <v>      -0.00005892       0.00000000       0.00000000 </v>
   <v>       0.00005892      -0.00000000      -0.00000000 </v>
  </varray>
  <varray name="stress" >
   <v>      -0.57637270       0.00000000       0.00000000 </v>
   <v>       0.00000000      -0.16542391       0.00000000 </v>
   <v>       0.00000000       0.00000000      -0.00999613 </v>
  </varray>
  <energy>
   <i name="e_fr_energy">    -36.92547538 </i>
   <i name="e_wo_entrp">    -36.92541015 </i>
   <i name="e_0_energy">     -0.00013047 </i>
  </energy>
  <time name="totalsc"> 5703.33 5741.56</time>
 </calculation>
 <calculation>
  <scstep>
   <time name="dav">  313.27  314.88</time>
   <time name="total">  345.80  347.49</time>
   <energy>
    <i name="alphaZ">      6.18334092 </i>
    <i name="ewald">   2583.52936588 </i>
    <i name="hartreedc">  -3077.48285324 </i>
    <i name="XCdc">     57.51353054 </i>
    <i name="pawpsdc">    276.88037560 </i>
    <i name="pawaedc">   -282.02833169 </i>
    <i name="eentropy">     -0.00013047 </i>
    <i name="bandstr">   -190.14429984 </i>
    <i name="atom">    588.62352690 </i>
    <i name="e_fr_energy">    -36.92547538 </i>
    <i name="e_wo_entrp">    -36.92534491 </i>
    <i name="e_0_energy">    -36.92541015 </i>
   </energy>
  </scstep>
  <scstep>
   <time name="diag">   79.33   79.61</time>
   <time name="diis">  214.89  216.58</time>
   <time name="orth">    3.07    3.10</time>
   <time name="total">  329.42  331.74</time>
   <energy>
    <i name="e_fr_energy">    -36.92547538 </i>
    <i name="e_wo_entrp">    -36.92534492 </i>
    <i name="e_0_energy">    -36.92541015 </i>
   </energy>
  </scstep>
  <scstep>
   <time name="diag">   79.09   79.74</time>
   <time name="diis">  216.30  217.22</time>
   <time name="orth">    3.08    3.08</time>
   <time name="total">  330.82  332.64</time>
   <energy>
    <i name="e_fr_energy">    -36.92547538 </i>
    <i name="e_wo_entrp">    -36.92534492 </i>
    <i name="e_0_energy">    -36.92541015 </i>
   </energy>
  </scstep>
  <scstep>
   <time name="diag">   79.41   79.58</time>
   <time name="diis">  200.39  201.72</time>
   <time name="orth">    3.09    3.10</time>
   <time name="total">  315.25  317.02</time>
   <energy>
    <i name="e_fr_energy">    -36.92547538 </i>
    <i name="e_wo_entrp">    -36.92534492 </i>
    <i name="e_0_energy">    -36.92541015 </i>
   </energy>
  </scstep>
  <scstep>
   <time name="diag">   78.99   79.67</time>
   <time name="diis">  193.59  195.41</time>
   <time name="orth">    3.07    3.10</time>
   <time name="total">  307.89  310.76</time>
   <energy>
    <i name="e_fr_energy">    -36.92547538 </i>
    <i name="e_wo_entrp">    -36.92534492 </i>
    <i name="e_0_energy">    -36.92541015 </i>
   </energy>
  </scstep>
  <scstep>
   <time name="diag">   79.06   79.65</time>
   <time name="diis">  186.87  188.37</time>
   <time name="orth">    3.08    3.10</time>
   <time name="total">  271.42  273.54</time>
   <energy>
    <i name="alphaZ">      6.18334092 </i>
    <i name="ewald">   2583.52936588 </i>
    <i name="hartreedc">  -3077.48285562 </i>
    <i name="XCdc">     57.51353063 </i>
    <i name="pawpsdc">    276.88037961 </i>
    <i name="pawaedc">   -282.02833573 </i>
    <i name="eentropy">     -0.00013047 </i>
    <i name="bandstr">   -190.14429751 </i>
    <i name="atom">    588.62352690 </i>
    <i name="e_fr_energy">    -36.92547538 </i>
    <i name="e_wo_entrp">    -36.92534492 </i>
    <i name="e_0_energy">    -36.92541015 </i>
   </energy>
  </scstep>
  <structure>
   <crystal>
    <varray name="basis" >
     <v>       4.27475070       0.00000000       0.00000000 </v>
     <v>       0.00000000       2.46729728       0.00000000 </v>
     <v>       0.00000000       0.00000000      19.99016654 </v>
    </varray>
    <i name="volume">    210.83790140 </i>
    <varray name="rec_basis" >
     <v>       0.23393177       0.00000000       0.00000000 </v>
     <v>       0.00000000       0.40530179       0.00000000 </v>
     <v>       0.00000000       0.00000000       0.05002460 </v>
    </varray>
   </crystal>
   <varray name="positions" >
    <v>       0.99999432       0.00000000       0.00000000 </v>
    <v>       0.16667234       0.50000000      -0.00000000 </v>
    <v>       0.49999432       0.50000000       0.00000000 </v>
    <v>       0.66667234      -0.00000000      -0.00000000 </v>
   </varray>
  </structure>
  <varray name="forces" >
   <v>      -0.00000179      -0.00000000      -0.00000000 </v>
   <v>       0.00000179       0.00000000       0.00000000 </v>
   <v>      -0.00000179       0.00000000      -0.00000000 </v>
   <v>       0.00000179       0.00000000      -0.00000000 </v>
  </varray>
  <varray name="stress" >
   <v>      -0.57620311       0.00000000       0.00000000 </v>
   <v>       0.00000000      -0.16559454       0.00000000 </v>
   <v>       0.00000000       0.00000000      -0.00998457 </v>
  </varray>
  <energy>
   <i name="e_fr_energy">    -36.92547538 </i>
   <i name="e_wo_entrp">    -36.92541015 </i>
   <i name="e_0_energy">     -0.00013047 </i>
  </energy>
  <time name="totalsc"> 2000.30 2013.83</time>
 </calculation>
 <calculation>
  <scstep>
   <time name="dav">  254.75  254.93</time>
   <time name="total">  287.51  287.69</time>
   <energy>
    <i name="alphaZ">      6.18334092 </i>
    <i name="ewald">   2583.52936588 </i>
    <i name="hartreedc">  -3077.48285553 </i>
    <i name="XCdc">     57.51353062 </i>
    <i name="pawpsdc">    276.88037884 </i>
    <i name="pawaedc">   -282.02833496 </i>
    <i name="eentropy">     -0.00013047 </i>
    <i name="bandstr">   -190.14429760 </i>
    <i name="atom">    588.62352690 </i>
    <i name="e_fr_energy">    -36.92547538 </i>
    <i name="e_wo_entrp">    -36.92534491 </i>
    <i name="e_0_energy">    -36.92541015 </i>
   </energy>
  </scstep>
  <scstep>
   <time name="diag">   79.76   79.78</time>
   <time name="diis">  143.22  143.26</time>
   <time name="orth">    3.10    3.10</time>
   <time name="total">  258.87  258.93</time>
   <energy>
    <i name="e_fr_energy">    -36.92547538 </i>
    <i name="e_wo_entrp">    -36.92534492 </i>
    <i name="e_0_energy">    -36.92541015 </i>
   </energy>
  </scstep>
  <scstep>
   <time name="diag">   79.68   79.75</time>
   <time name="diis">  142.51  142.83</time>
   <time name="orth">    3.09    3.09</time>
   <time name="total">  258.14  258.55</time>
   <energy>
    <i name="e_fr_energy">    -36.92547538 </i>
    <i name="e_wo_entrp">    -36.92534492 </i>
    <i name="e_0_energy">    -36.92541015 </i>
   </energy>
  </scstep>
  <scstep>
   <time name="diag">   79.66   79.70</time>
   <time name="diis">  131.45  131.57</time>
   <time name="orth">    3.07    3.07</time>
   <time name="total">  247.02  247.40</time>
   <energy>
    <i name="e_fr_energy">    -36.92547538 </i>
    <i name="e_wo_entrp">    -36.92534492 </i>
    <i name="e_0_energy">    -36.92541015 </i>
   </energy>
  </scstep>
  <scstep>
   <time name="diag">   79.74   79.78</time>
   <time name="diis">  127.23  127.27</time>
   <time name="orth">    3.09    3.09</time>
   <time name="total">  242.93  243.02</time>
   <energy>
    <i name="e_fr_energy">    -36.92547538 </i>
    <i name="e_wo_entrp">    -36.92534492 </i>
    <i name="e_0_energy">    -36.92541015 </i>
   </energy>
  </scstep>
  <scstep>
   <time name="diag">   79.67   79.72</time>
   <time name="diis">  127.49  127.52</time>
   <time name="orth">    3.08    3.08</time>
   <time name="total">  243.03  243.12</time>
   <energy>
    <i name="e_fr_energy">    -36.92547538 </i>
    <i name="e_wo_entrp">    -36.92534492 </i>
    <i name="e_0_energy">    -36.92541015 </i>
   </energy>
  </scstep>
  <scstep>
   <time name="diag">   79.69   79.71</time>
   <time name="diis">  126.75  126.80</time>
   <time name="orth">    3.12    3.12</time>
   <time name="total">  211.98  212.05</time>
   <energy>
    <i name="alphaZ">      6.18334092 </i>
    <i name="ewald">   2583.52936588 </i>
    <i name="hartreedc">  -3077.48285557 </i>
    <i name="XCdc">     57.51353063 </i>
    <i name="pawpsdc">    276.88037725 </i>
    <i name="pawaedc">   -282.02833335 </i>
    <i name="eentropy">     -0.00013047 </i>
    <i name="bandstr">   -190.14429757 </i>
    <i name="atom">    588.62352690 </i>
    <i name="e_fr_energy">    -36.92547538 </i>
    <i name="e_wo_entrp">    -36.92534492 </i>
    <i name="e_0_energy">    -36.92541015 </i>
   </energy>
  </scstep>
  <structure>
   <crystal>
    <varray name="basis" >
     <v>       4.27475070       0.00000000       0.00000000 </v>
     <v>       0.00000000       2.46729728       0.00000000 </v>
     <v>       0.00000000       0.00000000      19.99016654 </v>
    </varray>
    <i name="volume">    210.83790140 </i>
    <varray name="rec_basis" >
     <v>       0.23393177       0.00000000       0.00000000 </v>
     <v>       0.00000000       0.40530179       0.00000000 </v>
     <v>       0.00000000       0.00000000       0.05002460 </v>
    </varray>
   </crystal>
   <varray name="positions" >
    <v>       0.99999432       0.00000000       0.00000000 </v>
    <v>       0.16667235       0.50000000      -0.00000000 </v>
    <v>       0.49999432       0.50000000       0.00000000 </v>
    <v>       0.66667235      -0.00000000      -0.00000000 </v>
   </varray>
  </structure>
  <varray name="forces" >
   <v>       0.00000137      -0.00000000       0.00000000 </v>
   <v>      -0.00000137      -0.00000000      -0.00000000 </v>
   <v>       0.00000137       0.00000000       0.00000000 </v>
   <v>      -0.00000137      -0.00000000      -0.00000000 </v>
  </varray>
  <varray name="stress" >
   <v>      -0.57619607       0.00000000       0.00000000 </v>
   <v>       0.00000000      -0.16560440       0.00000000 </v>
   <v>       0.00000000       0.00000000      -0.00998311 </v>
  </varray>
  <energy>
   <i name="e_fr_energy">    -36.92547538 </i>
   <i name="e_wo_entrp">    -36.92541015 </i>
   <i name="e_0_energy">     -0.00013047 </i>
  </energy>
  <time name="totalsc"> 1850.32 1851.65</time>
 </calculation>
 <calculation>
  <scstep>
   <time name="dav">  242.27  242.32</time>
   <time name="total">  275.12  275.18</time>
   <energy>
    <i name="alphaZ">      6.18334092 </i>
    <i name="ewald">   2583.52936588 </i>
    <i name="hartreedc">  -3077.48285558 </i>
    <i name="XCdc">     57.51353063 </i>
    <i name="pawpsdc">    276.88037723 </i>
    <i name="pawaedc">   -282.02833334 </i>
    <i name="eentropy">     -0.00013047 </i>
    <i name="bandstr">   -190.14429757 </i>
    <i name="atom">    588.62352690 </i>
    <i name="e_fr_energy">    -36.92547538 </i>
    <i name="e_wo_entrp">    -36.92534491 </i>
    <i name="e_0_energy">    -36.92541015 </i>
   </energy>
  </scstep>
  <scstep>
   <time name="diag">   79.67   79.69</time>
   <time name="diis">  115.06  115.12</time>
   <time name="orth">    3.07    3.07</time>
   <time name="total">  230.74  230.85</time>
   <energy>
    <i name="e_fr_energy">    -36.92547538 </i>
    <i name="e_wo_entrp">    -36.92534492 </i>
    <i name="e_0_energy">    -36.92541015 </i>
   </energy>
  </scstep>
  <scstep>
   <time name="diag">   79.67   79.71</time>
   <time name="diis">  122.68  122.70</time>
   <time name="orth">    3.09    3.09</time>
   <time name="total">  238.22  238.34</time>
   <energy>
    <i name="e_fr_energy">    -36.92547538 </i>
    <i name="e_wo_entrp">    -36.92534492 </i>
    <i name="e_0_energy">    -36.92541015 </i>
   </energy>
  </scstep>
  <scstep>
   <time name="diag">   79.66   79.68</time>
   <time name="diis">  127.97  128.08</time>
   <time name="orth">    3.09    3.09</time>
   <time name="total">  243.56  243.72</time>
   <energy>
    <i name="e_fr_energy">    -36.92547538 </i>
    <i name="e_wo_entrp">    -36.92534492 </i>
    <i name="e_0_energy">    -36.92541015 </i>
   </energy>
  </scstep>
  <scstep>
   <time name="diag">   79.76   79.82</time>
   <time name="diis">  115.87  115.89</time>
   <time name="orth">    3.09    3.09</time>
   <time name="total">  231.55  231.95</time>
   <energy>
    <i name="e_fr_energy">    -36.92547538 </i>
    <i name="e_wo_entrp">    -36.92534492 </i>
    <i name="e_0_energy">    -36.92541015 </i>
   </energy>
  </scstep>
  <scstep>
   <time name="diag">   79.66   79.68</time>
   <time name="diis">  116.07  116.10</time>
   <time name="orth">    3.07    3.07</time>
   <time name="total">  201.23  201.29</time>
   <energy>
    <i name="alphaZ">      6.18334092 </i>
    <i name="ewald">   2583.52936588 </i>
    <i name="hartreedc">  -3077.48285544 </i>
    <i name="XCdc">     57.51353063 </i>
    <i name="pawpsdc">    276.88037681 </i>
    <i name="pawaedc">   -282.02833292 </i>
    <i name="eentropy">     -0.00013047 </i>
    <i name="bandstr">   -190.14429770 </i>
    <i name="atom">    588.62352690 </i>
    <i name="e_fr_energy">    -36.92547538 </i>
    <i name="e_wo_entrp">    -36.92534492 </i>
    <i name="e_0_energy">    -36.92541015 </i>
   </energy>
  </scstep>
  <structure>
   <crystal>
    <varray name="basis" >
     <v>       4.27475070       0.00000000       0.00000000 </v>
     <v>       0.00000000       2.46729728       0.00000000 </v>
     <v>       0.00000000       0.00000000      19.99016654 </v>
    </varray>
    <i name="volume">    210.83790140 </i>
    <varray name="rec_basis" >
     <v>       0.23393177       0.00000000       0.00000000 </v>
     <v>       0.00000000       0.40530179       0.00000000 </v>
     <v>       0.00000000       0.00000000       0.05002460 </v>
    </varray>
   </crystal>
   <varray name="positions" >
    <v>       0.99999432       0.00000000       0.00000000 </v>
    <v>       0.16667235       0.50000000      -0.00000000 </v>
    <v>       0.49999432       0.50000000       0.00000000 </v>
    <v>       0.66667235      -0.00000000      -0.00000000 </v>
   </varray>
  </structure>
  <varray name="forces" >
   <v>      -0.00000031       0.00000000       0.00000000 </v>
   <v>       0.00000031      -0.00000000       0.00000000 </v>
   <v>      -0.00000031       0.00000000       0.00000000 </v>
   <v>       0.00000031      -0.00000000       0.00000000 </v>
  </varray>
  <varray name="stress" >
   <v>      -0.57620366       0.00000000       0.00000000 </v>
   <v>       0.00000000      -0.16559517       0.00000000 </v>
   <v>       0.00000000       0.00000000      -0.00998374 </v>
  </varray>
  <energy>
   <i name="e_fr_energy">    -36.92547538 </i>
   <i name="e_wo_entrp">    -36.92541015 </i>
   <i name="e_0_energy">     -0.00013047 </i>
  </energy>
  <time name="totalsc"> 1516.27 1517.28</time>
  <eigenvalues>
   <array>
    <dimension dim="1">band</dimension>
    <dimension dim="2">kpoint</dimension>
    <dimension dim="3">spin</dimension>
    <field>eigene</field>
    <field>occ</field>
    <set>
     <set comment="spin 1">
      <set comment="kpoint 1">
       <r>  -22.2503    1.0000 </r>
       <r>  -17.0226    1.0000 </r>
       <r>  -15.9705    1.0000 </r>
       <r>  -10.3563    1.0000 </r>
       <r>   -9.1547    1.0000 </r>
       <r>   -5.7889    1.0000 </r>
       <r>   -5.7861    1.0000 </r>
       <r>   -5.1130    1.0000 </r>
       <r>   -1.0772    0.0000 </r>
       <r>    0.5243    0.0000 </r>
       <r>    1.3253    0.0000 </r>
       <r>    1.7084    0.0000 </r>
      </set>
      <set comment="kpoint 2">
       <r>  -22.2400    1.0000 </r>
       <r>  -17.1869    1.0000 </r>
       <r>  -15.7909    1.0000 </r>
       <r>  -10.3441    1.0000 </r>
       <r>   -9.1445    1.0000 </r>
       <r>   -5.8317    1.0000 </r>
       <r>   -5.8087    1.0000 </r>
       <r>   -5.1794    1.0000 </r>
       <r>   -0.9948    0.0000 </r>
       <r>    0.5382    0.0000 </r>
       <r>    1.3394    0.0000 </r>
       <r>    1.7227    0.0000 </r>
      </set>
      <set comment="kpoint 3">
       <r>  -22.2093    1.0000 </r>
       <r>  -17.5231    1.0000 </r>
       <r>  -15.4091    1.0000 </r>
       <r>  -10.3074    1.0000 </r>
       <r>   -9.1140    1.0000 </r>
       <r>   -5.9582    1.0000 </r>
       <r>   -5.8751    1.0000 </r>
       <r>   -5.3636    1.0000 </r>
       <r>   -0.7628    0.0000 </r>
       <r>    0.5798    0.0000 </r>
       <r>    1.3816    0.0000 </r>
       <r>    1.7654    0.0000 </r>
      </set>
      <set comment="kpoint 4">
       <r>  -22.1581    1.0000 </r>
       <r>  -17.8989    1.0000 </r>
       <r>  -14.9573    1.0000 </r>
       <r>  -10.2463    1.0000 </r>
       <r>   -9.0634    1.0000 </r>
       <r>   -6.1635    1.0000 </r>
       <r>   -5.9818    1.0000 </r>
       <r>   -5.6326    1.0000 </r>
       <r>   -0.4148    0.0000 </r>
       <r>    0.6493    0.0000 </r>
       <r>    1.4520    0.0000 </r>
       <r>    1.8367    0.0000 </r>
      </set>
      <set comment="kpoint 5">
       <r>  -22.0865    1.0000 </r>
       <r>  -18.2776    1.0000 </r>
       <r>  -14.4731    1.0000 </r>
       <r>  -10.1609    1.0000 </r>
       <r>   -8.9928    1.0000 </r>
       <r>   -6.4401    1.0000 </r>
       <r>   -6.1235    1.0000 </r>
       <r>   -5.9531    1.0000 </r>
       <r>    0.0152    0.0000 </r>
       <r>    0.7466    0.0000 </r>
       <r>    1.5504    0.0000 </r>
       <r>    1.9364    0.0000 </r>
      </set>
      <set comment="kpoint 6">
       <r>  -21.9945    1.0000 </r>
       <r>  -18.6477    1.0000 </r>
       <r>  -13.9683    1.0000 </r>
       <r>  -10.0514    1.0000 </r>
       <r>   -8.9028    1.0000 </r>
       <r>   -6.7792    1.0000 </r>
       <r>   -6.3008    1.0000 </r>
[...]
       <r>   -9.2057    1.0000 </r>
       <r>   -5.5944    1.0000 </r>
       <r>   -5.5944    1.0000 </r>
       <r>   -0.4234    0.0000 </r>
       <r>   -0.4234    0.0000 </r>
       <r>    4.8290    0.0000 </r>
       <r>    4.8290    0.0000 </r>
      </set>
      <set comment="kpoint 209">
       <r>  -18.8362    1.0000 </r>
       <r>  -17.0453    1.0000 </r>
       <r>  -14.0505    1.0000 </r>
       <r>  -12.4225    1.0000 </r>
       <r>  -12.4165    1.0000 </r>
       <r>  -10.8840    1.0000 </r>
       <r>   -6.4177    1.0000 </r>
       <r>   -4.5272    1.0000 </r>
       <r>   -0.9875    0.0000 </r>
       <r>    1.1796    0.0000 </r>
       <r>    5.2488    0.0000 </r>
       <r>    6.0371    0.0000 </r>
      </set>
      <set comment="kpoint 210">
       <r>  -18.8265    1.0000 </r>
       <r>  -17.0375    1.0000 </r>
       <r>  -14.1366    1.0000 </r>
       <r>  -12.5016    1.0000 </r>
       <r>  -12.3227    1.0000 </r>
       <r>  -10.8071    1.0000 </r>
       <r>   -6.4089    1.0000 </r>
       <r>   -4.5301    1.0000 </r>
       <r>   -0.9971    0.0000 </r>
       <r>    1.1541    0.0000 </r>
       <r>    5.2623    0.0000 </r>
       <r>    6.0532    0.0000 </r>
      </set>
      <set comment="kpoint 211">
       <r>  -18.7974    1.0000 </r>
       <r>  -17.0145    1.0000 </r>
       <r>  -14.3506    1.0000 </r>
       <r>  -12.7025    1.0000 </r>
       <r>  -12.0855    1.0000 </r>
       <r>  -10.6138    1.0000 </r>
       <r>   -6.3825    1.0000 </r>
       <r>   -4.5395    1.0000 </r>
       <r>   -1.0241    0.0000 </r>
       <r>    1.0793    0.0000 </r>
       <r>    5.3030    0.0000 </r>
       <r>    6.1009    0.0000 </r>
      </set>
      <set comment="kpoint 212">
       <r>  -18.7490    1.0000 </r>
       <r>  -16.9775    1.0000 </r>
       <r>  -14.6243    1.0000 </r>
       <r>  -12.9666    1.0000 </r>
       <r>  -11.7735    1.0000 </r>
       <r>  -10.3645    1.0000 </r>
       <r>   -6.3389    1.0000 </r>
       <r>   -4.5567    1.0000 </r>
       <r>   -1.0634    0.0000 </r>
       <r>    0.9607    0.0000 </r>
       <r>    5.3704    0.0000 </r>
       <r>    6.1793    0.0000 </r>
      </set>
      <set comment="kpoint 213">
       <r>  -18.6814    1.0000 </r>
       <r>  -16.9291    1.0000 </r>
       <r>  -14.9158    1.0000 </r>
       <r>  -13.2579    1.0000 </r>
       <r>  -11.4281    1.0000 </r>
       <r>  -10.0987    1.0000 </r>
       <r>   -6.2786    1.0000 </r>
       <r>   -4.5841    1.0000 </r>
       <r>   -1.1074    0.0000 </r>
       <r>    0.8057    0.0000 </r>
       <r>    5.4635    0.0000 </r>
       <r>    6.2870    0.0000 </r>
      </set>
      <set comment="kpoint 214">
       <r>  -18.5948    1.0000 </r>
       <r>  -16.8745    1.0000 </r>
       <r>  -15.2011    1.0000 </r>
       <r>  -13.5580    1.0000 </r>
       <r>  -11.0713    1.0000 </r>
       <r>   -9.8392    1.0000 </r>
       <r>   -6.2022    1.0000 </r>
       <r>   -4.6244    1.0000 </r>
       <r>   -1.1470    0.0000 </r>
       <r>    0.6232    0.0000 </r>
       <r>    5.5767    0.0000 </r>
       <r>    6.1592    0.0000 </r>
      </set>
      <set comment="kpoint 215">
       <r>  -18.4896    1.0000 </r>
       <r>  -16.8242    1.0000 </r>
       <r>  -15.4606    1.0000 </r>
       <r>  -13.8574    1.0000 </r>
       <r>  -10.7170    1.0000 </r>
       <r>   -9.6014    1.0000 </r>
       <r>   -6.1108    1.0000 </r>
       <r>   -4.6802    1.0000 </r>
       <r>   -1.1734    0.0000 </r>
       <r>    0.4220    0.0000 </r>
       <r>    5.6104    0.0000 </r>
       <r>    5.8327    0.0000 </r>
      </set>
      <set comment="kpoint 216">
       <r>  -18.3661    1.0000 </r>
       <r>  -16.7988    1.0000 </r>
       <r>  -15.6682    1.0000 </r>
       <r>  -14.1500    1.0000 </r>
       <r>  -10.3755    1.0000 </r>
       <r>   -9.3975    1.0000 </r>
       <r>   -6.0056    1.0000 </r>
       <r>   -4.7532    1.0000 </r>
       <r>   -1.1786    0.0000 </r>
       <r>    0.2105    0.0000 </r>
       <r>    5.2975    0.0000 </r>
       <r>    5.9454    0.0000 </r>
      </set>
      <set comment="kpoint 217">
       <r>  -18.2250    1.0000 </r>
       <r>  -16.8308    1.0000 </r>
       <r>  -15.7888    1.0000 </r>
       <r>  -14.4322    1.0000 </r>
       <r>  -10.0563    1.0000 </r>
       <r>   -9.2378    1.0000 </r>
       <r>   -5.8884    1.0000 </r>
       <r>   -4.8440    1.0000 </r>
       <r>   -1.1567    0.0000 </r>
       <r>   -0.0039    0.0000 </r>
       <r>    5.0031    0.0000 </r>
       <r>    5.8322    0.0000 </r>
      </set>
      <set comment="kpoint 218">
       <r>  -18.0670    1.0000 </r>
       <r>  -16.9403    1.0000 </r>
       <r>  -15.8002    1.0000 </r>
       <r>  -14.7008    1.0000 </r>
       <r>   -9.7686    1.0000 </r>
       <r>   -9.1311    1.0000 </r>
       <r>   -5.7609    1.0000 </r>
       <r>   -4.9516    1.0000 </r>
       <r>   -1.1045    0.0000 </r>
       <r>   -0.2144    0.0000 </r>
       <r>    4.7884    0.0000 </r>
       <r>    5.4352    0.0000 </r>
      </set>
      <set comment="kpoint 219">
       <r>  -17.8933    1.0000 </r>
       <r>  -17.1092    1.0000 </r>
       <r>  -15.7196    1.0000 </r>
       <r>  -14.9531    1.0000 </r>
       <r>   -9.5213    1.0000 </r>
       <r>   -9.0840    1.0000 </r>
       <r>   -5.6258    1.0000 </r>
       <r>   -5.0733    1.0000 </r>
       <r>   -1.0211    0.0000 </r>
       <r>   -0.4150    0.0000 </r>
       <r>    4.6639    0.0000 </r>
       <r>    5.1083    0.0000 </r>
      </set>
      <set comment="kpoint 220">
       <r>  -17.7060    1.0000 </r>
       <r>  -17.3055    1.0000 </r>
       <r>  -15.5782    1.0000 </r>
       <r>  -15.1864    1.0000 </r>
       <r>   -9.3229    1.0000 </r>
       <r>   -9.1003    1.0000 </r>
       <r>   -5.4858    1.0000 </r>
       <r>   -5.2056    1.0000 </r>
       <r>   -0.9074    0.0000 </r>
       <r>   -0.6004    0.0000 </r>
       <r>    4.6345    0.0000 </r>
       <r>    4.8609    0.0000 </r>
      </set>
      <set comment="kpoint 221">
       <r>  -17.5081    1.0000 </r>
       <r>  -17.5081    1.0000 </r>
       <r>  -15.3967    1.0000 </r>
       <r>  -15.3967    1.0000 </r>
       <r>   -9.1808    1.0000 </r>
       <r>   -9.1808    1.0000 </r>
       <r>   -5.3445    1.0000 </r>
       <r>   -5.3445    1.0000 </r>
       <r>   -0.7660    0.0000 </r>
       <r>   -0.7660    0.0000 </r>
       <r>    4.7010    0.0000 </r>
       <r>    4.7010    0.0000 </r>
      </set>
      <set comment="kpoint 222">
       <r>  -18.4135    1.0000 </r>
       <r>  -17.5143    1.0000 </r>
       <r>  -13.6737    1.0000 </r>
       <r>  -12.8589    1.0000 </r>
       <r>  -12.0661    1.0000 </r>
       <r>  -11.2951    1.0000 </r>
       <r>   -5.9574    1.0000 </r>
       <r>   -5.0067    1.0000 </r>
       <r>   -0.4790    0.0000 </r>
       <r>    0.6066    0.0000 </r>
       <r>    5.8489    0.0000 </r>
       <r>    6.6002    0.0000 </r>
      </set>
      <set comment="kpoint 223">
       <r>  -18.4040    1.0000 </r>
       <r>  -17.5055    1.0000 </r>
       <r>  -13.7597    1.0000 </r>
       <r>  -12.9409    1.0000 </r>
       <r>  -11.9751    1.0000 </r>
       <r>  -11.2128    1.0000 </r>
       <r>   -5.9499    1.0000 </r>
       <r>   -5.0044    1.0000 </r>
       <r>   -0.4953    0.0000 </r>
       <r>    0.5831    0.0000 </r>
       <r>    5.8624    0.0000 </r>
       <r>    6.6172    0.0000 </r>
      </set>
      <set comment="kpoint 224">
       <r>  -18.3754    1.0000 </r>
       <r>  -17.4793    1.0000 </r>
       <r>  -13.9743    1.0000 </r>
       <r>  -13.1476    1.0000 </r>
       <r>  -11.7456    1.0000 </r>
       <r>  -11.0059    1.0000 </r>
       <r>   -5.9275    1.0000 </r>
       <r>   -4.9976    1.0000 </r>
       <r>   -0.5424    0.0000 </r>
       <r>    0.5146    0.0000 </r>
       <r>    5.9029    0.0000 </r>
       <r>    6.6674    0.0000 </r>
      </set>
      <set comment="kpoint 225">
       <r>  -18.3278    1.0000 </r>
       <r>  -17.4360    1.0000 </r>
       <r>  -14.2510    1.0000 </r>
       <r>  -13.4176    1.0000 </r>
       <r>  -11.4454    1.0000 </r>
       <r>  -10.7374    1.0000 </r>
       <r>   -5.8907    1.0000 </r>
       <r>   -4.9876    1.0000 </r>
       <r>   -0.6150    0.0000 </r>
       <r>    0.4061    0.0000 </r>
       <r>    5.9698    0.0000 </r>
       <r>    6.7495    0.0000 </r>
      </set>
      <set comment="kpoint 226">
       <r>  -18.2615    1.0000 </r>
       <r>  -17.3766    1.0000 </r>
       <r>  -14.5503    1.0000 </r>
       <r>  -13.7137    1.0000 </r>
       <r>  -11.1157    1.0000 </r>
       <r>  -10.4476    1.0000 </r>
       <r>   -5.8403    1.0000 </r>
       <r>   -4.9763    1.0000 </r>
       <r>   -0.7054    0.0000 </r>
       <r>    0.2653    0.0000 </r>
       <r>    6.0610    0.0000 </r>
       <r>    6.8620    0.0000 </r>
      </set>
      <set comment="kpoint 227">
       <r>  -18.1769    1.0000 </r>
       <r>  -17.3026    1.0000 </r>
       <r>  -14.8520    1.0000 </r>
       <r>  -14.0173    1.0000 </r>
       <r>  -10.7787    1.0000 </r>
       <r>  -10.1593    1.0000 </r>
       <r>   -5.7774    1.0000 </r>
       <r>   -4.9660    1.0000 </r>
       <r>   -0.8043    0.0000 </r>
       <r>    0.1010    0.0000 </r>
       <r>    6.1541    0.0000 </r>
       <r>    6.4418    0.0000 </r>
      </set>
      <set comment="kpoint 228">
       <r>  -18.0743    1.0000 </r>
       <r>  -17.2170    1.0000 </r>
       <r>  -15.1439    1.0000 </r>
       <r>  -14.3185    1.0000 </r>
       <r>  -10.4484    1.0000 </r>
       <r>   -9.8874    1.0000 </r>
       <r>   -5.7035    1.0000 </r>
       <r>   -4.9600    1.0000 </r>
       <r>   -0.9015    0.0000 </r>
       <r>   -0.0776    0.0000 </r>
       <r>    5.8981    0.0000 </r>
       <r>    6.3709    0.0000 </r>
      </set>
      <set comment="kpoint 229">
       <r>  -17.9546    1.0000 </r>
       <r>  -17.1250    1.0000 </r>
       <r>  -15.4157    1.0000 </r>
       <r>  -14.6112    1.0000 </r>
       <r>  -10.1359    1.0000 </r>
       <r>   -9.6438    1.0000 </r>
       <r>   -5.6206    1.0000 </r>
       <r>   -4.9617    1.0000 </r>
       <r>   -0.9870    0.0000 </r>
       <r>   -0.2616    0.0000 </r>
       <r>    5.4929    0.0000 </r>
       <r>    5.9894    0.0000 </r>
      </set>
      <set comment="kpoint 230">
       <r>  -17.8189    1.0000 </r>
       <r>  -17.0374    1.0000 </r>
       <r>  -15.6535    1.0000 </r>
       <r>  -14.8913    1.0000 </r>
       <r>   -9.8510    1.0000 </r>
       <r>   -9.4388    1.0000 </r>
       <r>   -5.5310    1.0000 </r>
       <r>   -4.9745    1.0000 </r>
       <r>   -1.0521    0.0000 </r>
       <r>   -0.4427    0.0000 </r>
       <r>    5.1482    0.0000 </r>
       <r>    5.5647    0.0000 </r>
      </set>
      <set comment="kpoint 231">
       <r>  -17.6689    1.0000 </r>
       <r>  -16.9752    1.0000 </r>
       <r>  -15.8345    1.0000 </r>
       <r>  -15.1547    1.0000 </r>
       <r>   -9.6032    1.0000 </r>
       <r>   -9.2819    1.0000 </r>
       <r>   -5.4378    1.0000 </r>
       <r>   -5.0011    1.0000 </r>
       <r>   -1.0893    0.0000 </r>
       <r>   -0.6132    0.0000 </r>
       <r>    4.8810    0.0000 </r>
       <r>    5.2065    0.0000 </r>
      </set>
      <set comment="kpoint 232">
       <r>  -17.5079    1.0000 </r>
       <r>  -16.9714    1.0000 </r>
       <r>  -15.9246    1.0000 </r>
       <r>  -15.3971    1.0000 </r>
       <r>   -9.4012    1.0000 </r>
       <r>   -9.1807    1.0000 </r>
       <r>   -5.3443    1.0000 </r>
       <r>   -5.0431    1.0000 </r>
       <r>   -1.0935    0.0000 </r>
       <r>   -0.7661    0.0000 </r>
       <r>    4.7009    0.0000 </r>
       <r>    4.9247    0.0000 </r>
      </set>
      <set comment="kpoint 233">
       <r>  -17.3413    1.0000 </r>
       <r>  -17.0461    1.0000 </r>
       <r>  -15.9027    1.0000 </r>
       <r>  -15.6119    1.0000 </r>
       <r>   -9.2532    1.0000 </r>
       <r>   -9.1409    1.0000 </r>
       <r>   -5.2544    1.0000 </r>
       <r>   -5.1006    1.0000 </r>
       <r>   -1.0621    0.0000 </r>
       <r>   -0.8953    0.0000 </r>
       <r>    4.6140    0.0000 </r>
       <r>    4.7280    0.0000 </r>
      </set>
      <set comment="kpoint 234">
       <r>  -17.1803    1.0000 </r>
       <r>  -17.1803    1.0000 </r>
       <r>  -15.7876    1.0000 </r>
       <r>  -15.7876    1.0000 </r>
       <r>   -9.1652    1.0000 </r>
       <r>   -9.1652    1.0000 </r>
       <r>   -5.1719    1.0000 </r>
       <r>   -5.1719    1.0000 </r>
       <r>   -0.9953    0.0000 </r>
       <r>   -0.9953    0.0000 </r>
       <r>    4.6232    0.0000 </r>
       <r>    4.6232    0.0000 </r>
      </set>
      <set comment="kpoint 235">
       <r>  -17.9719    1.0000 </r>
       <r>  -17.9719    1.0000 </r>
       <r>  -13.2762    1.0000 </r>
       <r>  -13.2762    1.0000 </r>
       <r>  -11.6905    1.0000 </r>
       <r>  -11.6905    1.0000 </r>
       <r>   -5.4854    1.0000 </r>
       <r>   -5.4854    1.0000 </r>
       <r>    0.0530    0.0000 </r>
       <r>    0.0530    0.0000 </r>
       <r>    6.4806    0.0000 </r>
       <r>    6.4806    0.0000 </r>
      </set>
      <set comment="kpoint 236">
       <r>  -17.9626    1.0000 </r>
       <r>  -17.9626    1.0000 </r>
       <r>  -13.3606    1.0000 </r>
       <r>  -13.3606    1.0000 </r>
       <r>  -11.6035    1.0000 </r>
       <r>  -11.6035    1.0000 </r>
       <r>   -5.4799    1.0000 </r>
       <r>   -5.4799    1.0000 </r>
       <r>    0.0324    0.0000 </r>
       <r>    0.0324    0.0000 </r>
       <r>    6.4940    0.0000 </r>
       <r>    6.4940    0.0000 </r>
      </set>
      <set comment="kpoint 237">
       <r>  -17.9348    1.0000 </r>
       <r>  -17.9348    1.0000 </r>
       <r>  -13.5722    1.0000 </r>
       <r>  -13.5722    1.0000 </r>
       <r>  -11.3843    1.0000 </r>
       <r>  -11.3843    1.0000 </r>
       <r>   -5.4636    1.0000 </r>
       <r>   -5.4636    1.0000 </r>
       <r>   -0.0275    0.0000 </r>
       <r>   -0.0275    0.0000 </r>
       <r>    6.5342    0.0000 </r>
       <r>    6.5342    0.0000 </r>
      </set>
      <set comment="kpoint 238">
       <r>  -17.8888    1.0000 </r>
       <r>  -17.8888    1.0000 </r>
       <r>  -13.8468    1.0000 </r>
       <r>  -13.8468    1.0000 </r>
       <r>  -11.0988    1.0000 </r>
       <r>  -11.0988    1.0000 </r>
       <r>   -5.4372    1.0000 </r>
       <r>   -5.4372    1.0000 </r>
       <r>   -0.1215    0.0000 </r>
       <r>   -0.1215    0.0000 </r>
       <r>    6.6003    0.0000 </r>
       <r>    6.6003    0.0000 </r>
      </set>
      <set comment="kpoint 239">
       <r>  -17.8248    1.0000 </r>
       <r>  -17.8248    1.0000 </r>
       <r>  -14.1461    1.0000 </r>
       <r>  -14.1461    1.0000 </r>
       <r>  -10.7877    1.0000 </r>
       <r>  -10.7877    1.0000 </r>
       <r>   -5.4019    1.0000 </r>
       <r>   -5.4019    1.0000 </r>
       <r>   -0.2421    0.0000 </r>
       <r>   -0.2421    0.0000 </r>
       <r>    6.6869    0.0000 </r>
       <r>    6.6869    0.0000 </r>
      </set>
      <set comment="kpoint 240">
       <r>  -17.7435    1.0000 </r>
       <r>  -17.7435    1.0000 </r>
       <r>  -14.4510    1.0000 </r>
       <r>  -14.4510    1.0000 </r>
       <r>  -10.4735    1.0000 </r>
       <r>  -10.4735    1.0000 </r>
       <r>   -5.3596    1.0000 </r>
       <r>   -5.3596    1.0000 </r>
       <r>   -0.3801    0.0000 </r>
       <r>   -0.3801    0.0000 </r>
       <r>    6.6386    0.0000 </r>
       <r>    6.6386    0.0000 </r>
      </set>
      <set comment="kpoint 241">
       <r>  -17.6461    1.0000 </r>
       <r>  -17.6461    1.0000 </r>
       <r>  -14.7512    1.0000 </r>
       <r>  -14.7512    1.0000 </r>
       <r>  -10.1708    1.0000 </r>
       <r>  -10.1708    1.0000 </r>
       <r>   -5.3124    1.0000 </r>
       <r>   -5.3124    1.0000 </r>
       <r>   -0.5259    0.0000 </r>
       <r>   -0.5259    0.0000 </r>
       <r>    6.1712    0.0000 </r>
       <r>    6.1712    0.0000 </r>
      </set>
      <set comment="kpoint 242">
       <r>  -17.5341    1.0000 </r>
       <r>  -17.5341    1.0000 </r>
       <r>  -15.0398    1.0000 </r>
       <r>  -15.0398    1.0000 </r>
       <r>   -9.8909    1.0000 </r>
       <r>   -9.8909    1.0000 </r>
       <r>   -5.2632    1.0000 </r>
       <r>   -5.2632    1.0000 </r>
       <r>   -0.6698    0.0000 </r>
       <r>   -0.6698    0.0000 </r>
       <r>    5.7234    0.0000 </r>
       <r>    5.7234    0.0000 </r>
      </set>
      <set comment="kpoint 243">
       <r>  -17.4106    1.0000 </r>
       <r>  -17.4106    1.0000 </r>
       <r>  -15.3108    1.0000 </r>
       <r>  -15.3108    1.0000 </r>
       <r>   -9.6442    1.0000 </r>
       <r>   -9.6442    1.0000 </r>
       <r>   -5.2155    1.0000 </r>
       <r>   -5.2155    1.0000 </r>
       <r>   -0.8028    0.0000 </r>
       <r>   -0.8028    0.0000 </r>
       <r>    5.3359    0.0000 </r>
       <r>    5.3359    0.0000 </r>
      </set>
      <set comment="kpoint 244">
       <r>  -17.2810    1.0000 </r>
       <r>  -17.2810    1.0000 </r>
       <r>  -15.5566    1.0000 </r>
       <r>  -15.5566    1.0000 </r>
       <r>   -9.4400    1.0000 </r>
       <r>   -9.4400    1.0000 </r>
       <r>   -5.1728    1.0000 </r>
       <r>   -5.1728    1.0000 </r>
       <r>   -0.9164    0.0000 </r>
       <r>   -0.9164    0.0000 </r>
       <r>    5.0209    0.0000 </r>
       <r>    5.0209    0.0000 </r>
      </set>
      <set comment="kpoint 245">
       <r>  -17.1563    1.0000 </r>
       <r>  -17.1563    1.0000 </r>
       <r>  -15.7651    1.0000 </r>
       <r>  -15.7651    1.0000 </r>
       <r>   -9.2870    1.0000 </r>
       <r>   -9.2870    1.0000 </r>
       <r>   -5.1389    1.0000 </r>
       <r>   -5.1389    1.0000 </r>
       <r>   -1.0034    0.0000 </r>
       <r>   -1.0034    0.0000 </r>
       <r>    4.7882    0.0000 </r>
       <r>    4.7882    0.0000 </r>
      </set>
      <set comment="kpoint 246">
       <r>  -17.0577    1.0000 </r>
       <r>  -17.0577    1.0000 </r>
       <r>  -15.9143    1.0000 </r>
       <r>  -15.9143    1.0000 </r>
       <r>   -9.1921    1.0000 </r>
       <r>   -9.1921    1.0000 </r>
       <r>   -5.1171    1.0000 </r>
       <r>   -5.1171    1.0000 </r>
       <r>   -1.0581    0.0000 </r>
       <r>   -1.0581    0.0000 </r>
       <r>    4.6453    0.0000 </r>
       <r>    4.6453    0.0000 </r>
      </set>
      <set comment="kpoint 247">
       <r>  -17.0182    1.0000 </r>
       <r>  -17.0182    1.0000 </r>
       <r>  -15.9707    1.0000 </r>
       <r>  -15.9707    1.0000 </r>
       <r>   -9.1599    1.0000 </r>
       <r>   -9.1599    1.0000 </r>
       <r>   -5.1096    1.0000 </r>
       <r>   -5.1096    1.0000 </r>
       <r>   -1.0768    0.0000 </r>
       <r>   -1.0768    0.0000 </r>
       <r>    4.5971    0.0000 </r>
       <r>    4.5971    0.0000 </r>
      </set>
     </set>
    </set>
   </array>
  </eigenvalues>
  <separator name="orbital magnetization" >
   <v name="MAGDIPOLOUT">      0.00000000      0.00000000      0.00000000</v>
  </separator>
 </calculation>
 <structure name="finalpos" >
  <crystal>
   <varray name="basis" >
    <v>       4.27475070       0.00000000       0.00000000 </v>
    <v>       0.00000000       2.46729728       0.00000000 </v>
    <v>       0.00000000       0.00000000      19.99016654 </v>
   </varray>
   <i name="volume">    210.83790140 </i>
   <varray name="rec_basis" >
    <v>       0.23393177       0.00000000       0.00000000 </v>
    <v>       0.00000000       0.40530179       0.00000000 </v>
    <v>       0.00000000       0.00000000       0.05002460 </v>
   </varray>
  </crystal>
  <varray name="positions" >
   <v>       0.99999432       0.00000000       0.00000000 </v>
   <v>       0.16667235       0.50000000      -0.00000000 </v>
   <v>       0.49999432       0.50000000       0.00000000 </v>
   <v>       0.66667235      -0.00000000      -0.00000000 </v>
  </varray>
 </structure>
</modeling>
