gr                                      
           1
     4.274751    0.000000    0.000000
     0.000000    2.467297    0.000000
     0.000000    0.000000   19.990167
   C 
   4
Direct configuration=     1
   0.99987391  0.00000000  0.00000000
   0.16679275  0.50000000  0.00000000
   0.49987391  0.50000000  0.00000000
   0.66679275  0.00000000  0.00000000
Direct configuration=     2
   1.00047580 -0.00000000 -0.00000000
   0.16619087  0.50000000  0.00000000
   0.50047580  0.50000000 -0.00000000
   0.66619087  0.00000000  0.00000000
Direct configuration=     3
   0.99999446 -0.00000000  0.00000000
   0.16667221  0.50000000 -0.00000000
   0.49999446  0.50000000  0.00000000
   0.66667221  0.00000000 -0.00000000
Direct configuration=     4
   0.99999432  0.00000000  0.00000000
   0.16667234  0.50000000 -0.00000000
   0.49999432  0.50000000  0.00000000
   0.66667234 -0.00000000 -0.00000000
Direct configuration=     5
   0.99999432  0.00000000  0.00000000
   0.16667235  0.50000000 -0.00000000
   0.49999432  0.50000000  0.00000000
   0.66667235 -0.00000000 -0.00000000
Direct configuration=     6
   0.99999432  0.00000000  0.00000000
   0.16667235  0.50000000 -0.00000000
   0.49999432  0.50000000  0.00000000
   0.66667235 -0.00000000 -0.00000000
