    4    4  400    1
  0.5270948E+02  0.4265391E-09  0.2492714E-09  0.1982976E-08  0.5000000E-15
  1.000000000000000E-004
  CAR 
 gr                                      
     16    247     12
 
  0.0000000E+00  0.0000000E+00  0.0000000E+00  0.1157407E-02
    1      -22.182444
    2      -16.888647
    3      -15.927043
    4      -10.303946
    5       -9.296350
    6       -5.877684
    7       -5.762940
    8       -5.024415
    9       -1.099975
   10        0.532342
   11        1.332184
   12        1.719128
 
  0.4166667E-01  0.0000000E+00  0.0000000E+00  0.2314815E-02
    1      -22.172141
    2      -17.065694
    3      -15.734829
    4      -10.291671
    5       -9.286067
    6       -5.900739
    7       -5.804635
    8       -5.092391
    9       -1.016487
   10        0.546312
   11        1.346319
   12        1.733437
 
  0.8333333E-01  0.0000000E+00  0.0000000E+00  0.2314815E-02
    1      -22.141237
    2      -17.415041
    3      -15.340070
    4      -10.254867
    5       -9.255269
    6       -5.968605
    7       -5.928090
    8       -5.280487
    9       -0.782026
   10        0.588221
   11        1.388718
   12        1.776362
 
  0.1250000E+00  0.0000000E+00  0.0000000E+00  0.2314815E-02
    1      -22.089752
    2      -17.798603
    3      -14.881119
    4      -10.193589
    5       -9.204108
    6       -6.128676
    7       -6.077609
    8       -5.553871
    9       -0.431949
   10        0.658070
   11        1.459371
   12        1.847905
 
  0.1666667E+00  0.0000000E+00  0.0000000E+00  0.2314815E-02
    1      -22.017719
    2      -18.182329
    3      -14.392484
    4      -10.107935
    5       -9.132844
    6       -6.399443
    7       -6.222302
    8       -5.878592
    9       -0.001089
   10        0.755857
   11        1.558257
   12        1.948066
 
  0.2083333E+00  0.0000000E+00  0.0000000E+00  0.2314815E-02
    1      -21.925189
    2      -18.556152
    3      -13.884894
    4       -9.998046
    5       -9.041853
    6       -6.732021
    7       -6.396201
    8       -6.229797
    9        0.484445
   10        0.881573
   11        1.685343
   12        2.076845
 
  0.2500000E+00  0.0000000E+00  0.0000000E+00  0.2314815E-02
    1      -21.812224
    2      -18.916054
    3      -13.363237
    4       -9.864111
    5       -8.931637
    6       -7.117470
    7       -6.592505
    8       -6.591138
    9        1.006648
   10        1.035200
   11        1.840582
   12        2.234239
 
  0.2916667E+00  0.0000000E+00  0.0000000E+00  0.2314815E-02
    1      -21.678904
    2      -19.260037
    3      -12.830622
    4       -9.706372
    5       -8.802844
    6       -7.546954
    7       -6.952103
    8       -6.804623
    9        1.216711
   10        1.552886
   11        2.023903
   12        2.420245
 
  0.3333333E+00  0.0000000E+00  0.0000000E+00  0.2314815E-02
    1      -21.525328
    2      -19.586932
    3      -12.289595
    4       -9.525139
    5       -8.656286
    6       -8.012185
    7       -7.305833
    8       -7.026522
    9        1.426064
   10        2.113550
   11        2.235193
   12        2.634857
 
  0.3750000E+00  0.0000000E+00  0.0000000E+00  0.2314815E-02
    1      -21.351608
    2      -19.895972
    3      -11.742610
    4       -9.320798
    5       -8.505653
    6       -8.492971
    7       -7.647719
    8       -7.252874
    9        1.663203
   10        2.474261
   11        2.679985
   12        2.878063
 
  0.4166667E+00  0.0000000E+00  0.0000000E+00  0.2314815E-02
    1      -21.157879
    2      -20.186608
    3      -11.192253
    4       -9.093832
    5       -9.020719
    6       -8.314137
    7       -7.974568
    8       -7.479096
    9        1.928051
   10        2.740716
   11        3.149842
   12        3.238948
 
  0.4583333E+00  0.0000000E+00  0.0000000E+00  0.2314815E-02
    1      -20.944303
    2      -20.458418
    3      -10.641384
    4       -9.551589
    5       -8.844848
    6       -8.284093
    7       -8.121291
    8       -7.701309
    9        2.220496
   10        2.887413
   11        3.033541
   12        3.450156
 
  0.5000000E+00  0.0000000E+00  0.0000000E+00  0.1157407E-02
    1      -20.711074
    2      -20.711074
    3      -10.093252
    4      -10.093252
    5       -8.574609
    6       -8.574609
    7       -7.916272
    8       -7.916272
    9        2.540376
   10        2.540376
   11        3.348465
   12        3.348465
 
  0.0000000E+00  0.2777778E-01  0.0000000E+00  0.2314815E-02
    1      -22.169053
    2      -16.877130
    3      -15.915944
    4      -10.287993
    5       -9.356504
    6       -5.933074
    7       -5.794022
    8       -5.008155
    9       -1.104860
   10        0.550484
   11        1.350574
   12        1.737743
 
  0.4166667E-01  0.2777778E-01  0.0000000E+00  0.4629630E-02
    1      -22.158751
    2      -17.054030
    3      -15.723934
    4      -10.275723
    5       -9.346199
    6       -5.961115
    7       -5.830032
    8       -5.076289
    9       -1.021337
   10        0.564454
   11        1.364707
   12        1.752052
 
  0.8333333E-01  0.2777778E-01  0.0000000E+00  0.4629630E-02
    1      -22.127851
    2      -17.403139
    3      -15.329580
    4      -10.238931
    5       -9.315333
    6       -6.049343
    7       -5.931154
    8       -5.264744
    9       -0.786890
   10        0.606366
   11        1.407104
   12        1.794978
 
  0.1250000E+00  0.2777778E-01  0.0000000E+00  0.4629630E-02
    1      -22.076373
    2      -17.786484
    3      -14.871133
    4      -10.177675
    5       -9.264054
    6       -6.213321
    7       -6.073854
    8       -5.538490
    9       -0.437075
   10        0.676220
   11        1.477752
   12        1.866522
 
  0.1666667E+00  0.2777778E-01  0.0000000E+00  0.4629630E-02
    1      -22.004352
    2      -18.170021
    3      -14.383103
    4      -10.092052
    5       -9.192615
    6       -6.461200
    7       -6.237993
    8       -5.863473
    9       -0.006828
   10        0.774013
   11        1.576631
   12        1.966685
 
  0.2083333E+00  0.2777778E-01  0.0000000E+00  0.4629630E-02
    1      -21.911835
    2      -18.543681
    3      -13.876236
    4       -9.982202
    5       -9.101379
    6       -6.779365
    7       -6.422711
    8       -6.214825
    9        0.477726
   10        0.899739
   11        1.703709
   12        2.095465
 
  0.2500000E+00  0.2777778E-01  0.0000000E+00  0.4629630E-02
    1      -21.798888
    2      -18.903442
    3      -13.355445
    4       -9.848314
    5       -8.990835
    6       -7.154095
    7       -6.626270
    8       -6.576222
    9        0.998610
   10        1.053377
   11        1.858939
   12        2.252862
 
  0.2916667E+00  0.2777778E-01  0.0000000E+00  0.4629630E-02
    1      -21.665591
    2      -19.247304
    3      -12.823871
    4       -9.690632
    5       -8.861611
    6       -7.574946
    7       -6.937177
    8       -6.843862
    9        1.234901
   10        1.543237
   11        2.042250
   12        2.438872
 
  0.3333333E+00  0.2777778E-01  0.0000000E+00  0.4629630E-02
    1      -21.512039
    2      -19.574095
    3      -12.284099
    4       -9.509464
    5       -8.714495
    6       -8.033055
    7       -7.290854
    8       -7.070095
    9        1.444268
   10        2.102068
   11        2.253532
   12        2.653488
 
  0.3750000E+00  0.2777778E-01  0.0000000E+00  0.4629630E-02
    1      -21.338350
    2      -19.883046
    3      -11.738629
    4       -9.305196
    5       -8.550464
    6       -8.520628
    7       -7.632664
    8       -7.299937
    9        1.681424
   10        2.492597
   11        2.666632
   12        2.896700
 
  0.4166667E+00  0.2777778E-01  0.0000000E+00  0.4629630E-02
    1      -21.144658
    2      -20.173603
    3      -11.190108
    4       -9.078312
    5       -9.030824
    6       -8.370717
    7       -7.959422
    8       -7.528976
    9        1.946291
   10        2.759061
   11        3.168488
   12        3.224845
 
  0.4583333E+00  0.2777778E-01  0.0000000E+00  0.4629630E-02
    1      -20.931124
    2      -20.445347
    3      -10.641468
    4       -9.557682
    5       -8.829416
    6       -8.268851
    7       -8.176716
    8       -7.753460
    9        2.238763
   10        2.905793
   11        3.051919
   12        3.469076
 
  0.5000000E+00  0.2777778E-01  0.0000000E+00  0.2314815E-02
    1      -20.697945
    2      -20.697945
    3      -10.096047
    4      -10.096047
    5       -8.559270
    6       -8.559270
    7       -7.970244
    8       -7.970244
    9        2.558683
   10        2.558683
   11        3.366843
   12        3.366843
 
  0.0000000E+00  0.5555556E-01  0.0000000E+00  0.2314815E-02
    1      -22.128892
    2      -16.842587
    3      -15.882825
    4      -10.240167
    5       -9.532100
    6       -6.094883
    7       -5.886409
    8       -4.959394
    9       -1.120327
   10        0.604914
   11        1.405736
   12        1.793589
 
  0.4166667E-01  0.5555556E-01  0.0000000E+00  0.4629630E-02
    1      -22.118594
    2      -17.019054
    3      -15.691417
    4      -10.227910
    5       -9.521723
    6       -6.130159
    7       -5.913144
    8       -5.028017
    9       -1.036694
   10        0.618886
   11        1.419866
   12        1.807898
 
  0.8333333E-01  0.5555556E-01  0.0000000E+00  0.4629630E-02
    1      -22.087707
    2      -17.367461
    3      -15.298283
    4      -10.191158
    5       -9.490636
    6       -6.234372
    7       -5.992513
    8       -5.217577
    9       -0.802279
   10        0.660804
   11        1.462254
   12        1.850826
 
  0.1250000E+00  0.5555556E-01  0.0000000E+00  0.4629630E-02
    1      -22.036251
    2      -17.750153
    3      -14.841373
    4      -10.129968
    5       -9.438972
    6       -6.404141
    7       -6.120853
    8       -5.492435
    9       -0.453253
   10        0.730669
   11        1.532887
   12        1.922372
 
  0.1666667E+00  0.5555556E-01  0.0000000E+00  0.4629630E-02
    1      -21.964262
    2      -18.133122
    3      -14.355199
    4      -10.044437
    5       -9.366960
    6       -6.636273
    7       -6.290554
    8       -5.818216
    9       -0.024876
   10        0.828480
   11        1.631745
   12        2.022538
 
  0.2083333E+00  0.5555556E-01  0.0000000E+00  0.4629630E-02
    1      -21.871787
    2      -18.506290
    3      -13.850562
    4       -9.934706
    5       -9.274927
    6       -6.927584
    7       -6.491446
    8       -6.170014
    9        0.456690
   10        0.954228
   11        1.758796
   12        2.151324
 
  0.2500000E+00  0.5555556E-01  0.0000000E+00  0.4629630E-02
    1      -21.758893
    2      -18.865628
    3      -13.332453
    4       -9.800963
    5       -9.163312
    6       -7.273525
    7       -6.713458
    8       -6.531573
    9        0.973553
   10        1.107895
   11        1.913996
   12        2.308728
 
  0.2916667E+00  0.5555556E-01  0.0000000E+00  0.4629630E-02
    1      -21.625661
    2      -19.209124
    3      -12.804116
    4       -9.643453
    5       -9.032679
    6       -7.667732
    7       -6.948215
    8       -6.892494
    9        1.289451
   10        1.513261
   11        2.097276
   12        2.494746
 
  0.3333333E+00  0.5555556E-01  0.0000000E+00  0.4629630E-02
    1      -21.472188
    2      -19.535601
    3      -12.268262
    4       -9.462484
    5       -8.883730
    6       -8.102740
    7       -7.246009
    8       -7.189161
    9        1.498856
   10        2.066481
   11        2.308531
   12        2.709374
 
  0.3750000E+00  0.5555556E-01  0.0000000E+00  0.4629630E-02
    1      -21.298591
    2      -19.844280
    3      -11.727555
    4       -9.258440
    5       -8.717335
    6       -8.570927
    7       -7.587580
    8       -7.431134
    9        1.736053
   10        2.547584
   11        2.625211
   12        2.952602
 
  0.4166667E+00  0.5555556E-01  0.0000000E+00  0.4629630E-02
    1      -21.105007
    2      -20.134605
    3      -11.184838
    4       -9.065125
    5       -9.031803
    6       -8.534558
    7       -7.914059
    8       -7.669978
    9        2.000968
   10        2.814075
   11        3.179482
   12        3.224413
 
  0.4583333E+00  0.5555556E-01  0.0000000E+00  0.4629630E-02
    1      -20.891602
    2      -20.406147
    3      -10.643299
    4       -9.578891
    5       -8.783176
    6       -8.336692
    7       -8.223193
    8       -7.902299
    9        2.293503
   10        2.960794
   11        3.107038
   12        3.524815
 
  0.5000000E+00  0.5555556E-01  0.0000000E+00  0.2314815E-02
    1      -20.658572
    2      -20.658572
    3      -10.106578
    4      -10.106578
    5       -8.513316
    6       -8.513316
    7       -8.125305
    8       -8.125305
    9        2.613517
   10        2.613517
   11        3.421961
   12        3.421961
 
  0.0000000E+00  0.8333333E-01  0.0000000E+00  0.2314815E-02
    1      -22.061996
    2      -16.785028
    3      -15.828238
    4      -10.160568
    5       -9.809868
    6       -6.351331
    7       -6.037593
    8       -4.878192
    9       -1.148814
   10        0.695649
   11        1.497648
   12        1.886670
 
  0.4166667E-01  0.8333333E-01  0.0000000E+00  0.4629630E-02
    1      -22.051705
    2      -16.960821
    3      -15.637807
    4      -10.148334
    5       -9.799350
    6       -6.391897
    7       -6.055808
    8       -4.947682
    9       -1.064964
   10        0.709623
   11        1.511773
   12        1.900979
 
  0.8333333E-01  0.8333333E-01  0.0000000E+00  0.4629630E-02
    1      -22.020840
    2      -17.308086
    3      -15.246733
    4      -10.111649
    5       -9.767832
    6       -6.506531
    7       -6.115589
    8       -5.139188
    9       -0.830559
   10        0.751544
   11        1.554144
   12        1.943908
 
  0.1250000E+00  0.8333333E-01  0.0000000E+00  0.4629630E-02
    1      -21.969422
    2      -17.689695
    3      -14.792478
    4      -10.050571
    5       -9.715419
    6       -6.682111
    7       -6.224395
    8       -5.415979
    9       -0.482860
   10        0.821418
   11        1.624749
   12        2.015456
 
  0.1666667E+00  0.8333333E-01  0.0000000E+00  0.4629630E-02
    1      -21.897486
    2      -18.071709
    3      -14.309550
    4       -9.965199
    5       -9.642290
    6       -6.908411
    7       -6.383456
    8       -5.743132
    9       -0.057686
   10        0.919244
   11        1.723568
   12        2.115626
 
  0.2083333E+00  0.8333333E-01  0.0000000E+00  0.4629630E-02
    1      -21.805082
    2      -18.444051
    3      -13.808852
    4       -9.855671
    5       -9.548698
    6       -7.179563
    7       -6.587046
    8       -6.095683
    9        0.418748
   10        1.045016
   11        1.850571
   12        2.244418
 
  0.2500000E+00  0.8333333E-01  0.0000000E+00  0.4629630E-02
    1      -21.692277
    2      -18.802675
    3      -13.295527
    4       -9.722179
    5       -9.434980
    6       -7.493050
    7       -6.824452
    8       -6.457504
    9        0.928707
   10        1.198715
   11        2.005713
   12        2.401830
 
  0.2916667E+00  0.8333333E-01  0.0000000E+00  0.4629630E-02
    1      -21.559154
    2      -19.145557
    3      -12.773017
    4       -9.564964
    5       -9.301558
    6       -7.847981
    7       -7.082717
    8       -6.818348
    9        1.380310
   10        1.459964
   11        2.188932
   12        2.587861
 
  0.3333333E+00  0.8333333E-01  0.0000000E+00  0.4629630E-02
    1      -21.405811
    2      -19.471504
    3      -12.244297
    4       -9.384335
    5       -9.148953
    6       -8.242945
    7       -7.349672
    8       -7.171569
    9        1.589759
   10        2.003493
   11        2.400131
   12        2.802503
 
  0.3750000E+00  0.8333333E-01  0.0000000E+00  0.4629630E-02
    1      -21.232369
    2      -19.779728
    3      -11.712363
    4       -9.180677
    5       -8.977792
    6       -8.674561
    7       -7.616026
    8       -7.512718
    9        1.827004
   10        2.551891
   11        2.639152
   12        3.045750
 
  0.4166667E+00  0.8333333E-01  0.0000000E+00  0.4629630E-02
    1      -21.038967
    2      -20.069660
    3      -11.180489
    4       -9.137518
    5       -8.954468
    6       -8.788823
    7       -7.875678
    8       -7.838709
    9        2.091973
   10        2.905680
   11        3.097537
   12        3.317589
 
  0.4583333E+00  0.8333333E-01  0.0000000E+00  0.4629630E-02
    1      -20.825777
    2      -20.340864
    3      -10.652403
    4       -9.625556
    5       -8.706304
    6       -8.582932
    7       -8.147328
    8       -8.124864
    9        2.384572
   10        3.052116
   11        3.198839
   12        3.612487
 
  0.5000000E+00  0.8333333E-01  0.0000000E+00  0.2314815E-02
    1      -20.592997
    2      -20.592997
    3      -10.132423
    4      -10.132423
    5       -8.436939
    6       -8.436939
    7       -8.361179
    8       -8.361179
    9        2.704679
   10        2.704679
   11        3.513741
   12        3.513741
 
  0.0000000E+00  0.1111111E+00  0.0000000E+00  0.2314815E-02
    1      -21.968428
    2      -16.704474
    3      -15.753240
    4      -10.171259
    5      -10.049365
    6       -6.686268
    7       -6.243612
    8       -4.764650
    9       -1.194321
   10        0.822712
   11        1.626274
   12        2.016990
 
  0.4166667E-01  0.1111111E+00  0.0000000E+00  0.4629630E-02
    1      -21.958148
    2      -16.879429
    3      -15.564112
    4      -10.160499
    5      -10.037163
    6       -6.730781
    7       -6.253698
    8       -4.835474
    9       -1.110085
   10        0.836682
   11        1.640390
   12        2.031299
 
  0.8333333E-01  0.1111111E+00  0.0000000E+00  0.4629630E-02
    1      -21.927314
    2      -17.225160
    3      -15.175992
    4      -10.128234
    5      -10.000577
    6       -6.853559
    7       -6.293384
    8       -5.029939
    9       -0.875567
   10        0.878598
   11        1.682733
   12        2.074227
 
  0.1250000E+00  0.1111111E+00  0.0000000E+00  0.4629630E-02
    1      -21.875948
    2      -17.605259
    3      -14.725691
    4      -10.074517
    5       -9.939664
    6       -7.035253
    7       -6.377982
    8       -5.309623
    9       -0.529724
   10        0.948467
   11        1.753292
   12        2.145775
 
  0.1666667E+00  0.1111111E+00  0.0000000E+00  0.4629630E-02
    1      -21.804087
    2      -17.985924
    3      -14.247697
    4       -9.999433
    5       -9.854522
    6       -7.261053
    7       -6.515521
    8       -5.638787
    9       -0.109191
   10        1.046293
   11        1.852047
   12        2.245946
 
  0.2083333E+00  0.1111111E+00  0.0000000E+00  0.4629630E-02
    1      -21.711783
    2      -18.357090
    3      -13.753080
    4       -9.903094
    5       -9.745293
    6       -7.521812
    7       -6.705817
    8       -5.992409
    9        0.359777
   10        1.172073
   11        1.978968
   12        2.374742
 
  0.2500000E+00  0.1111111E+00  0.0000000E+00  0.4629630E-02
    1      -21.599104
    2      -18.714699
    3      -13.247256
    4       -9.785631
    5       -9.612166
    6       -7.812661
    7       -6.942390
    8       -6.354572
    9        0.859700
   10        1.325791
   11        2.134012
   12        2.532162
 
  0.2916667E+00  0.1111111E+00  0.0000000E+00  0.4629630E-02
    1      -21.466133
    2      -19.056706
    3      -12.734041
    4       -9.647184
    5       -9.455384
    6       -8.132139
    7       -7.214158
    8       -6.715262
    9        1.378684
   10        1.507414
   11        2.317120
   12        2.718203
 
  0.3333333E+00  0.1111111E+00  0.0000000E+00  0.4629630E-02
    1      -21.312975
    2      -19.381901
    3      -12.216910
    4       -9.487886
    5       -9.275256
    6       -8.481315
    7       -7.507183
    8       -7.068017
    9        1.716896
   10        1.908094
   11        2.528209
   12        2.932860
 
  0.3750000E+00  0.1111111E+00  0.0000000E+00  0.4629630E-02
    1      -21.139750
    2      -19.689476
    3      -11.699517
    4       -9.307837
    5       -9.072163
    6       -8.862243
    7       -7.806985
    8       -7.408521
    9        1.954177
   10        2.441122
   11        2.767149
   12        3.176126
 
  0.4166667E+00  0.1111111E+00  0.0000000E+00  0.4629630E-02
    1      -20.946607
    2      -19.978851
    3      -11.185995
    4       -9.275783
    5       -9.107093
    6       -8.846582
    7       -8.101238
    8       -7.733774
    9        2.219181
   10        2.971756
   11        3.033696
   12        3.447990
 
  0.4583333E+00  0.1111111E+00  0.0000000E+00  0.4629630E-02
    1      -20.733720
    2      -20.249575
    3      -10.681138
    4       -9.720041
    5       -8.885673
    6       -8.599104
    7       -8.381598
    8       -8.041623
    9        2.511818
   10        3.179488
   11        3.327170
   12        3.491667
 
  0.5000000E+00  0.1111111E+00  0.0000000E+00  0.2314815E-02
    1      -20.501295
    2      -20.501295
    3      -10.190467
    4      -10.190467
    5       -8.643668
    6       -8.643668
    7       -8.330471
    8       -8.330471
    9        2.831971
   10        2.831971
   11        3.641820
   12        3.641820
 
  0.0000000E+00  0.1388889E+00  0.0000000E+00  0.2314815E-02
    1      -21.848277
    2      -16.600954
    3      -15.659622
    4      -10.595693
    5       -9.906800
    6       -7.082421
    7       -6.499353
    8       -4.618911
    9       -1.262256
   10        0.986113
   11        1.791557
   12        2.184553
 
  0.4166667E-01  0.1388889E+00  0.0000000E+00  0.4629630E-02
    1      -21.838010
    2      -16.775035
    3      -15.472062
    4      -10.584522
    5       -9.894643
    6       -7.130263
    7       -6.501243
    8       -4.691692
    9       -1.177340
   10        1.000077
   11        1.805658
   12        2.198861
 
  0.8333333E-01  0.1388889E+00  0.0000000E+00  0.4629630E-02
    1      -21.807217
    2      -17.118918
    3      -15.087913
    4      -10.550994
    5       -9.858191
    6       -7.260307
    7       -6.519665
    8       -4.890427
    9       -0.942381
   10        1.041973
   11        1.847958
   12        2.241786
 
  0.1250000E+00  0.1388889E+00  0.0000000E+00  0.4629630E-02
    1      -21.755919
    2      -17.497081
    3      -14.643223
    4      -10.495059
    5       -9.797502
    6       -7.448561
    7       -6.576233
    8       -5.174177
    9       -0.598845
   10        1.111814
   11        1.918444
   12        2.313330
 
  0.1666667E+00  0.1388889E+00  0.0000000E+00  0.4629630E-02
    1      -21.684157
    2      -17.875984
    3      -14.172439
    4      -10.416617
    5       -9.712675
    6       -7.676912
    7       -6.684647
    8       -5.506080
    9       -0.184473
   10        1.209611
   11        2.017094
   12        2.413498
 
  0.2083333E+00  0.1388889E+00  0.0000000E+00  0.4629630E-02
    1      -21.591983
    2      -18.245603
    3      -13.686928
    4      -10.315492
    5       -9.603851
    6       -7.933967
    7       -6.849532
    8       -5.861097
    9        0.274507
   10        1.335370
   11        2.143878
   12        2.542293
 
  0.2500000E+00  0.1388889E+00  0.0000000E+00  0.4629630E-02
    1      -21.479465
    2      -18.601874
    3      -13.192607
    4      -10.191398
    5       -9.471223
    6       -8.212831
    7       -7.068733
    8       -6.223643
    9        0.761033
   10        1.489076
   11        2.298752
   12        2.699715
 
  0.2916667E+00  0.1388889E+00  0.0000000E+00  0.4629630E-02
    1      -21.346693
    2      -18.942729
    3      -12.694013
    4      -10.043874
    5       -9.315033
    6       -8.509888
    7       -7.335035
    8       -6.584042
    9        1.263698
   10        1.670700
   11        2.481659
   12        2.885763
 
  0.3333333E+00  0.1388889E+00  0.0000000E+00  0.4629630E-02
    1      -21.193773
    2      -19.266932
    3      -12.195605
    4       -9.872217
    5       -9.135589
    6       -8.824359
    7       -7.637399
    8       -6.936094
    9        1.774369
   10        1.880189
   11        2.692523
   12        3.100431
 
  0.3750000E+00  0.1388889E+00  0.0000000E+00  0.4629630E-02
    1      -21.020832
    2      -19.573656
    3      -11.702329
    4       -9.675424
    5       -9.158084
    6       -8.933274
    7       -7.962023
    8       -7.275660
    9        2.117477
   10        2.286816
   11        2.931241
   12        3.343711
 
  0.4166667E+00  0.1388889E+00  0.0000000E+00  0.4629630E-02
    1      -20.828026
    2      -19.862298
    3      -11.219878
    4       -9.514904
    5       -9.452207
    6       -8.708558
    7       -8.293646
    8       -7.599863
    9        2.382484
   10        2.795941
   11        3.197666
   12        3.615595
 
  0.4583333E+00  0.1388889E+00  0.0000000E+00  0.4629630E-02
    1      -20.615535
    2      -20.132394
    3      -10.754594
    4       -9.899049
    5       -9.201303
    6       -8.617590
    7       -8.462026
    8       -7.906628
    9        2.675114
   10        3.297255
   11        3.342742
   12        3.491495
 
  0.5000000E+00  0.1388889E+00  0.0000000E+00  0.2314815E-02
    1      -20.383573
    2      -20.383573
    3      -10.312753
    4      -10.312753
    5       -8.922355
    6       -8.922355
    7       -8.194410
    8       -8.194410
    9        2.995249
   10        2.995249
   11        3.775764
   12        3.775775
 
  0.0000000E+00  0.1666667E+00  0.0000000E+00  0.2314815E-02
    1      -21.701663
    2      -16.474508
    3      -15.550405
    4      -11.062548
    5       -9.733201
    6       -7.523657
    7       -6.798891
    8       -4.441166
    9       -1.359102
   10        1.185851
   11        1.993416
   12        2.389363
 
  0.4166667E-01  0.1666667E+00  0.0000000E+00  0.4629630E-02
    1      -21.691413
    2      -16.647888
    3      -15.364595
    4      -11.050676
    5       -9.721102
    6       -7.574593
    7       -6.792417
    8       -4.516800
    9       -1.272963
   10        1.199803
   11        2.007495
   12        2.403669
 
  0.8333333E-01  0.1666667E+00  0.0000000E+00  0.4629630E-02
    1      -21.660670
    2      -16.989724
    3      -14.985719
    4      -11.014977
    5       -9.684825
    6       -7.711630
    7       -6.788567
    8       -4.721601
    9       -1.036816
   10        1.241663
   11        2.049725
   12        2.446587
 
  0.1250000E+00  0.1666667E+00  0.0000000E+00  0.4629630E-02
    1      -21.609458
    2      -17.365525
    3      -14.549031
    4      -10.955186
    5       -9.624430
    6       -7.906890
    7       -6.814372
    8       -5.010914
    9       -0.695818
   10        1.311449
   11        2.120092
   12        2.518122
 
  0.1666667E+00  0.1666667E+00  0.0000000E+00  0.4629630E-02
    1      -21.537816
    2      -17.742218
    3      -14.088948
    4      -10.870820
    5       -9.540016
    6       -8.139633
    7       -6.888434
    8       -5.346398
    9       -0.289121
   10        1.409181
   11        2.218569
   12        2.618279
 
  0.2083333E+00  0.1666667E+00  0.0000000E+00  0.4629630E-02
    1      -21.445800
    2      -18.109881
    3      -13.617414
    4      -10.761090
    5       -9.431727
    6       -8.396953
    7       -7.019543
    8       -5.703117
    9        0.157252
   10        1.534873
   11        2.345116
   12        2.747064
 
  0.2500000E+00  0.1666667E+00  0.0000000E+00  0.4629630E-02
    1      -21.333483
    2      -18.464456
    3      -13.141350
    4      -10.624800
    5       -9.299755
    6       -8.670777
    7       -7.209286
    8       -6.066005
    9        0.626927
   10        1.688523
   11        2.499681
   12        2.904480
 
  0.2916667E+00  0.1666667E+00  0.0000000E+00  0.4629630E-02
    1      -21.200957
    2      -18.803851
    3      -12.666731
    4      -10.460202
    5       -9.144346
    6       -8.956116
    7       -7.453918
    8       -6.425871
    9        1.109228
   10        1.870101
   11        2.682187
   12        3.090527
 
  0.3333333E+00  0.1666667E+00  0.0000000E+00  0.4629630E-02
    1      -21.048333
    2      -19.126801
    3      -12.199882
    4      -10.264921
    5       -9.250340
    6       -8.965810
    7       -7.745679
    8       -6.776868
    9        1.596712
   10        2.079557
   11        2.892532
   12        3.305200
 
  0.3750000E+00  0.1666667E+00  0.0000000E+00  0.4629630E-02
    1      -20.875747
    2      -19.432450
    3      -11.747804
    4      -10.036132
    5       -9.553004
    6       -8.764525
    7       -8.073812
    8       -7.115098
    9        2.083820
   10        2.316815
   11        3.130564
   12        3.548491
 
  0.4166667E+00  0.1666667E+00  0.0000000E+00  0.4629630E-02
    1      -20.683361
    2      -19.720170
    3      -11.317599
    4       -9.865940
    5       -9.771426
    6       -8.540962
    7       -8.425289
    8       -7.437839
    9        2.566128
   10        2.581784
   11        3.395985
   12        3.820389
 
  0.4583333E+00  0.1666667E+00  0.0000000E+00  0.4629630E-02
    1      -20.471364
    2      -19.989477
    3      -10.914761
    4      -10.193298
    5       -9.470714
    6       -8.785386
    7       -8.295699
    8       -7.743118
    9        2.874356
   10        3.039871
   11        3.541773
   12        3.686833
 
  0.5000000E+00  0.1666667E+00  0.0000000E+00  0.2314815E-02
    1      -20.239982
    2      -20.239982
    3      -10.540971
    4      -10.540971
    5       -9.138614
    6       -9.138614
    7       -8.029452
    8       -8.029452
    9        3.194404
   10        3.194404
   11        3.501160
   12        3.501160
 