gr                                      
           1
     4.265391    0.000000    0.000000
     0.000000    2.492714    0.000000
     0.000000    0.000000   19.829760
   C 
   4
Direct configuration=     1
   0.00026297  0.00000000  0.00000000
   0.16640370  0.50000000  0.00000000
   0.50026297  0.50000000  0.00000000
   0.66640370  0.00000000  0.00000000
Direct configuration=     2
   0.00029732  0.00000000  0.00000000
   0.16636935  0.50000000 -0.00000000
   0.50029732  0.50000000  0.00000000
   0.66636935  0.00000000 -0.00000000
Direct configuration=     3
   0.00026973  0.00000000  0.00000000
   0.16639694  0.50000000 -0.00000000
   0.50026973  0.50000000  0.00000000
   0.66639694  0.00000000 -0.00000000
Direct configuration=     4
   0.00026972  0.00000000  0.00000000
   0.16639694  0.50000000 -0.00000000
   0.50026972  0.50000000  0.00000000
   0.66639694  0.00000000 -0.00000000
