    4    4  400    1
  0.5270948E+02  0.4255294E-09  0.2528615E-09  0.1959460E-08  0.5000000E-15
  1.000000000000000E-004
  CAR 
 gr                                      
     16    247     12
 
  0.0000000E+00  0.0000000E+00  0.0000000E+00  0.1157407E-02
    1      -22.082590
    2      -16.706621
    3      -15.865266
    4      -10.226871
    5       -9.472101
    6       -5.989947
    7       -5.742407
    8       -4.906195
    9       -1.142476
   10        0.544557
   11        1.342701
   12        1.736075
 
  0.4166667E-01  0.0000000E+00  0.0000000E+00  0.2314815E-02
    1      -22.072217
    2      -16.902662
    3      -15.654214
    4      -10.214562
    5       -9.461690
    6       -6.013676
    7       -5.782608
    8       -4.976329
    9       -1.057532
   10        0.558610
   11        1.356898
   12        1.750451
 
  0.8333333E-01  0.0000000E+00  0.0000000E+00  0.2314815E-02
    1      -22.041105
    2      -17.269043
    3      -15.242888
    4      -10.177652
    5       -9.430506
    6       -6.083490
    7       -5.901756
    8       -5.169568
    9       -0.820043
   10        0.600769
   11        1.399483
   12        1.793580
 
  0.1250000E+00  0.0000000E+00  0.0000000E+00  0.2314815E-02
    1      -21.989274
    2      -17.661859
    3      -14.775479
    4      -10.116199
    5       -9.378701
    6       -6.195526
    7       -6.095695
    8       -5.448777
    9       -0.467676
   10        0.671027
   11        1.470446
   12        1.865462
 
  0.1666667E+00  0.0000000E+00  0.0000000E+00  0.2314815E-02
    1      -21.916757
    2      -18.051457
    3      -14.282115
    4      -10.030300
    5       -9.306530
    6       -6.358139
    7       -6.344064
    8       -5.778677
    9       -0.036606
   10        0.769377
   11        1.569767
   12        1.966096
 
  0.2083333E+00  0.0000000E+00  0.0000000E+00  0.2314815E-02
    1      -21.823605
    2      -18.429558
    3      -13.771769
    4       -9.920095
    5       -9.214365
    6       -6.681424
    7       -6.522340
    8       -6.134076
    9        0.446717
   10        0.895802
   11        1.697417
   12        2.095479
 
  0.2500000E+00  0.0000000E+00  0.0000000E+00  0.2314815E-02
    1      -21.709881
    2      -18.792877
    3      -13.248636
    4       -9.785771
    5       -9.102702
    6       -7.057262
    7       -6.723292
    8       -6.498719
    9        0.964399
   10        1.050279
   11        1.853352
   12        2.253609
 
  0.2916667E+00  0.0000000E+00  0.0000000E+00  0.2314815E-02
    1      -21.575667
    2      -19.139752
    3      -12.715536
    4       -9.627571
    5       -8.972182
    6       -7.477340
    7       -6.940128
    8       -6.862288
    9        1.232775
   10        1.504074
   11        2.037509
   12        2.440480
 
  0.3333333E+00  0.0000000E+00  0.0000000E+00  0.2314815E-02
    1      -21.421058
    2      -19.469186
    3      -12.174901
    4       -9.445802
    5       -8.823609
    6       -7.933750
    7       -7.218101
    8       -7.166657
    9        1.443243
   10        2.056520
   11        2.249792
   12        2.656082
 
  0.3750000E+00  0.0000000E+00  0.0000000E+00  0.2314815E-02
    1      -21.246170
    2      -19.780506
    3      -11.629156
    4       -9.240846
    5       -8.657982
    6       -8.419231
    7       -7.561690
    8       -7.397448
    9        1.681621
   10        2.490042
   11        2.613883
   12        2.900397
 
  0.4166667E+00  0.0000000E+00  0.0000000E+00  0.2314815E-02
    1      -21.051136
    2      -20.073211
    3      -11.080900
    4       -9.013178
    5       -8.927280
    6       -8.476530
    7       -7.889959
    8       -7.627851
    9        1.947820
   10        2.757947
   11        3.166485
   12        3.173389
 
  0.4583333E+00  0.0000000E+00  0.0000000E+00  0.2314815E-02
    1      -20.836118
    2      -20.346914
    3      -10.533039
    4       -9.452161
    5       -8.763396
    6       -8.280754
    7       -8.200690
    8       -7.853951
    9        2.241703
   10        2.911355
   11        3.052692
   12        3.475753
 
  0.5000000E+00  0.0000000E+00  0.0000000E+00  0.1157407E-02
    1      -20.601303
    2      -20.601303
    3       -9.988865
    4       -9.988865
    5       -8.492248
    6       -8.492248
    7       -8.072485
    8       -8.072485
    9        2.563040
   10        2.563040
   11        3.370607
   12        3.370610
 
  0.0000000E+00  0.2777778E-01  0.0000000E+00  0.2314815E-02
    1      -22.069573
    2      -16.695386
    3      -15.854881
    4      -10.211423
    5       -9.530309
    6       -6.043565
    7       -5.774567
    8       -4.890437
    9       -1.148620
   10        0.562160
   11        1.360561
   12        1.754157
 
  0.4166667E-01  0.2777778E-01  0.0000000E+00  0.4629630E-02
    1      -22.059202
    2      -16.891326
    3      -15.643991
    4      -10.199118
    5       -9.519867
    6       -6.070283
    7       -5.811045
    8       -4.960749
    9       -1.063631
   10        0.576215
   11        1.374756
   12        1.768534
 
  0.8333333E-01  0.2777778E-01  0.0000000E+00  0.4629630E-02
    1      -22.028094
    2      -17.257506
    3      -15.233054
    4      -10.162222
    5       -9.488589
    6       -6.150239
    7       -5.917988
    8       -5.154385
    9       -0.826141
   10        0.618378
   11        1.417338
   12        1.811664
 
  0.1250000E+00  0.2777778E-01  0.0000000E+00  0.4629630E-02
    1      -21.976269
    2      -17.650116
    3      -14.766170
    4      -10.100792
    5       -9.436621
    6       -6.284992
    7       -6.086164
    8       -5.433985
    9       -0.474043
   10        0.688644
   11        1.488296
   12        1.883547
 
  0.1666667E+00  0.2777778E-01  0.0000000E+00  0.4629630E-02
    1      -21.903763
    2      -18.039528
    3      -14.273459
    4      -10.014925
    5       -9.364208
    6       -6.484714
    7       -6.293828
    8       -5.764159
    9       -0.043626
   10        0.787003
   11        1.587609
   12        1.984183
 
  0.2083333E+00  0.2777778E-01  0.0000000E+00  0.4629630E-02
    1      -21.810625
    2      -18.417466
    3      -13.763907
    4       -9.904760
    5       -9.271707
    6       -6.763730
    7       -6.512634
    8       -6.119706
    9        0.438653
   10        0.913440
   11        1.715249
   12        2.113569
 
  0.2500000E+00  0.2777778E-01  0.0000000E+00  0.4629630E-02
    1      -21.696919
    2      -18.780643
    3      -13.241739
    4       -9.770487
    5       -9.159596
    6       -7.114126
    7       -6.735441
    8       -6.484397
    9        0.954932
   10        1.067930
   11        1.871172
   12        2.271702
 
  0.2916667E+00  0.2777778E-01  0.0000000E+00  0.4629630E-02
    1      -21.562726
    2      -19.127396
    3      -12.709811
    4       -9.612346
    5       -9.028488
    6       -7.518267
    7       -6.964957
    8       -6.847946
    9        1.250440
   10        1.492893
   11        2.055316
   12        2.458577
 
  0.3333333E+00  0.2777778E-01  0.0000000E+00  0.4629630E-02
    1      -21.408143
    2      -19.456725
    3      -12.170606
    4       -9.430646
    5       -8.879153
    6       -7.963473
    7       -7.203697
    8       -7.199837
    9        1.460924
   10        2.043377
   11        2.267588
   12        2.674185
 
  0.3750000E+00  0.2777778E-01  0.0000000E+00  0.4629630E-02
    1      -21.233286
    2      -19.767953
    3      -11.626609
    4       -9.225767
    5       -8.712547
    6       -8.440543
    7       -7.547199
    8       -7.436594
    9        1.699321
   10        2.507831
   11        2.598667
   12        2.918509
 
  0.4166667E+00  0.2777778E-01  0.0000000E+00  0.4629630E-02
    1      -21.038289
    2      -20.060581
    3      -11.080503
    4       -8.998185
    5       -8.942069
    6       -8.529839
    7       -7.875368
    8       -7.671453
    9        1.965543
   10        2.775740
   11        3.149766
   12        3.191516
 
  0.4583333E+00  0.2777778E-01  0.0000000E+00  0.4629630E-02
    1      -20.823312
    2      -20.334217
    3      -10.535293
    4       -9.461804
    5       -8.748497
    6       -8.332457
    7       -8.185995
    8       -7.900960
    9        2.259460
   10        2.929311
   11        3.070520
   12        3.495123
 
  0.5000000E+00  0.2777778E-01  0.0000000E+00  0.2314815E-02
    1      -20.588548
    2      -20.588548
    3       -9.994408
    4       -9.994408
    5       -8.477449
    6       -8.477449
    7       -8.122132
    8       -8.122132
    9        2.580860
   10        2.580860
   11        3.388474
   12        3.388474
 
  0.0000000E+00  0.5555556E-01  0.0000000E+00  0.2314815E-02
    1      -22.030534
    2      -16.661683
    3      -15.823935
    4      -10.165112
    5       -9.700136
    6       -6.200244
    7       -5.870015
    8       -4.843184
    9       -1.167838
   10        0.614979
   11        1.414134
   12        1.808408
 
  0.4166667E-01  0.5555556E-01  0.0000000E+00  0.4629630E-02
    1      -22.020167
    2      -16.857341
    3      -15.613517
    4      -10.152820
    5       -9.689595
    6       -6.233249
    7       -5.898077
    8       -4.914046
    9       -1.082699
   10        0.629038
   11        1.428325
   12        1.822785
 
  0.8333333E-01  0.5555556E-01  0.0000000E+00  0.4629630E-02
    1      -21.989072
    2      -17.222926
    3      -15.203756
    4      -10.115965
    5       -9.658014
    6       -6.330266
    7       -5.981940
    8       -5.108905
    9       -0.845189
   10        0.671211
   11        1.470896
   12        1.865917
 
  0.1250000E+00  0.5555556E-01  0.0000000E+00  0.4629630E-02
    1      -21.937269
    2      -17.614919
    3      -14.738483
    4      -10.054604
    5       -9.605519
    6       -6.486738
    7       -6.119463
    8       -5.389703
    9       -0.493902
   10        0.741494
   11        1.541836
   12        1.937804
 
  0.1666667E+00  0.5555556E-01  0.0000000E+00  0.4629630E-02
    1      -21.864795
    2      -18.003772
    3      -14.247783
    4       -9.968833
    5       -9.532325
    6       -6.698440
    7       -6.304548
    8       -5.720710
    9       -0.065467
   10        0.839878
   11        1.641125
   12        2.038444
 
  0.2083333E+00  0.5555556E-01  0.0000000E+00  0.4629630E-02
    1      -21.771699
    2      -18.381217
    3      -13.740694
    4       -9.858793
    5       -9.438740
    6       -6.963334
    7       -6.526385
    8       -6.076702
    9        0.413636
   10        0.966345
   11        1.768733
   12        2.167837
 
  0.2500000E+00  0.5555556E-01  0.0000000E+00  0.4629630E-02
    1      -21.658045
    2      -18.743967
    3      -13.221529
    4       -9.724672
    5       -9.325174
    6       -7.280761
    7       -6.771467
    8       -6.441536
    9        0.925650
   10        1.120870
   11        1.924619
   12        2.325979
 
  0.2916667E+00  0.5555556E-01  0.0000000E+00  0.4629630E-02
    1      -21.523918
    2      -19.090351
    3      -12.693272
    4       -9.566712
    5       -9.192152
    6       -7.648554
    7       -7.027569
    8       -6.805022
    9        1.303418
   10        1.458397
   11        2.108723
   12        2.512865
 
  0.3333333E+00  0.5555556E-01  0.0000000E+00  0.4629630E-02
    1      -21.369412
    2      -19.419362
    3      -12.158567
    4       -9.385220
    5       -9.040325
    6       -8.061380
    7       -7.286244
    8       -7.160579
    9        1.513943
   10        2.002907
   11        2.320955
   12        2.728487
 
  0.3750000E+00  0.5555556E-01  0.0000000E+00  0.4629630E-02
    1      -21.194647
    2      -19.730316
    3      -11.620114
    4       -9.180578
    5       -8.870491
    6       -8.511792
    7       -7.542288
    8       -7.503811
    9        1.752387
   10        2.551811
   11        2.561170
   12        2.972831
 
  0.4166667E+00  0.5555556E-01  0.0000000E+00  0.4629630E-02
    1      -20.999759
    2      -20.022708
    3      -11.080871
    4       -8.991992
    5       -8.953259
    6       -8.683613
    7       -7.831673
    8       -7.792228
    9        2.018666
   10        2.829091
   11        3.097402
   12        3.245874
 
  0.4583333E+00  0.5555556E-01  0.0000000E+00  0.4629630E-02
    1      -20.784911
    2      -20.296140
    3      -10.544201
    4       -9.494810
    5       -8.703856
    6       -8.480849
    7       -8.141979
    8       -8.033396
    9        2.312666
   10        2.982965
   11        3.123979
   12        3.548250
 
  0.5000000E+00  0.5555556E-01  0.0000000E+00  0.2314815E-02
    1      -20.550296
    2      -20.550296
    3      -10.013995
    4      -10.013995
    5       -8.433114
    6       -8.433114
    7       -8.263569
    8       -8.263569
    9        2.634208
   10        2.634208
   11        3.442061
   12        3.442061
 
  0.0000000E+00  0.8333333E-01  0.0000000E+00  0.2314815E-02
    1      -21.965510
    2      -16.605525
    3      -15.773095
    4      -10.088033
    5       -9.968479
    6       -6.448689
    7       -6.025775
    8       -4.764494
    9       -1.202462
   10        0.703039
   11        1.503397
   12        1.898830
 
  0.4166667E-01  0.8333333E-01  0.0000000E+00  0.4629630E-02
    1      -21.955150
    2      -16.800783
    3      -15.563418
    4      -10.075765
    5       -9.957749
    6       -6.487959
    7       -6.044228
    8       -4.836333
    9       -1.117031
   10        0.717100
   11        1.517582
   12        1.913208
 
  0.8333333E-01  0.8333333E-01  0.0000000E+00  0.4629630E-02
    1      -21.924076
    2      -17.165409
    3      -15.155654
    4      -10.038980
    5       -9.925589
    6       -6.599544
    7       -6.104026
    8       -5.033346
    9       -0.879425
   10        0.759283
   11        1.560134
   12        1.956342
 
  0.1250000E+00  0.8333333E-01  0.0000000E+00  0.4629630E-02
    1      -21.872312
    2      -17.556374
    3      -14.693193
    4       -9.977737
    5       -9.872087
    6       -6.770658
    7       -6.212688
    8       -5.316228
    9       -0.529485
   10        0.829584
   11        1.631041
   12        2.028232
 
  0.1666667E+00  0.8333333E-01  0.0000000E+00  0.4629630E-02
    1      -21.799891
    2      -17.944283
    3      -14.206048
    4       -9.892131
    5       -9.797393
    6       -6.989815
    7       -6.373261
    8       -5.648666
    9       -0.104427
   10        0.927994
   11        1.730284
   12        2.128878
 
  0.2083333E+00  0.8333333E-01  0.0000000E+00  0.4629630E-02
    1      -21.706864
    2      -18.320897
    3      -13.703356
    4       -9.782304
    5       -9.701713
    6       -7.249396
    7       -6.582354
    8       -6.005406
    9        0.369252
   10        1.054496
   11        1.857833
   12        2.258279
 
  0.2500000E+00  0.8333333E-01  0.0000000E+00  0.4629630E-02
    1      -21.593300
    2      -18.682925
    3      -13.189612
    4       -9.648445
    5       -9.585318
    6       -7.545674
    7       -6.830984
    8       -6.370463
    9        0.873985
   10        1.209063
   11        2.013648
   12        2.416432
 
  0.2916667E+00  0.8333333E-01  0.0000000E+00  0.4629630E-02
    1      -21.459280
    2      -19.028685
    3      -12.668053
    4       -9.490796
    5       -9.448538
    6       -7.878087
    7       -7.106259
    8       -6.733819
    9        1.391658
   10        1.397840
   11        2.197672
   12        2.603333
 
  0.3333333E+00  0.8333333E-01  0.0000000E+00  0.4629630E-02
    1      -21.304905
    2      -19.357158
    3      -12.141666
    4       -9.309662
    5       -9.291761
    6       -8.247572
    7       -7.393920
    8       -7.089026
    9        1.602236
   10        1.932135
   11        2.409822
   12        2.818973
 
  0.3750000E+00  0.8333333E-01  0.0000000E+00  0.4629630E-02
    1      -21.130295
    2      -19.667649
    3      -11.613600
    4       -9.115431
    5       -9.105426
    6       -8.654114
    7       -7.681438
    8       -7.431783
    9        1.840735
   10        2.469963
   11        2.649974
   12        3.063343
 
  0.4166667E+00  0.8333333E-01  0.0000000E+00  0.4629630E-02
    1      -20.935590
    2      -19.959643
    3      -11.087408
    4       -9.095013
    5       -8.920037
    6       -8.878559
    7       -7.960142
    8       -7.759106
    9        2.107079
   10        2.917895
   11        3.004997
   12        3.336430
 
  0.4583333E+00  0.8333333E-01  0.0000000E+00  0.4629630E-02
    1      -20.720957
    2      -20.232734
    3      -10.567222
    4       -9.565057
    5       -8.706114
    6       -8.629650
    7       -8.225201
    8       -8.068853
    9        2.401166
   10        3.071895
   11        3.212972
   12        3.525157
 
  0.5000000E+00  0.8333333E-01  0.0000000E+00  0.2314815E-02
    1      -20.486595
    2      -20.486595
    3      -10.057891
    4      -10.057891
    5       -8.474254
    6       -8.474254
    7       -8.359436
    8       -8.359436
    9        2.722849
   10        2.722849
   11        3.531324
   12        3.531324
 
  0.0000000E+00  0.1111111E+00  0.0000000E+00  0.2314815E-02
    1      -21.874564
    2      -16.526933
    3      -15.703627
    4      -10.316975
    5       -9.980351
    6       -6.773391
    7       -6.237226
    8       -4.654464
    9       -1.256283
   10        0.826370
   11        1.628315
   12        2.025431
 
  0.4166667E-01  0.1111111E+00  0.0000000E+00  0.4629630E-02
    1      -21.864214
    2      -16.721790
    3      -15.494884
    4      -10.305924
    5       -9.968117
    6       -6.817969
    7       -6.246075
    8       -4.727811
    9       -1.170338
   10        0.840431
   11        1.642489
   12        2.039809
 
  0.8333333E-01  0.1111111E+00  0.0000000E+00  0.4629630E-02
    1      -21.833172
    2      -17.085146
    3      -15.090018
    4      -10.272775
    5       -9.931436
    6       -6.941311
    7       -6.281841
    8       -4.928107
    9       -0.932427
   10        0.882615
   11        1.685009
   12        2.082943
 
  0.1250000E+00  0.1111111E+00  0.0000000E+00  0.4629630E-02
    1      -21.781460
    2      -17.474668
    3      -14.631811
    4      -10.217545
    5       -9.870363
    6       -7.123798
    7       -6.360535
    8       -5.214105
    9       -0.584335
   10        0.952921
   11        1.755862
   12        2.154834
 
  0.1666667E+00  0.1111111E+00  0.0000000E+00  0.4629630E-02
    1      -21.709114
    2      -17.861233
    3      -14.150157
    4      -10.140257
    5       -9.784999
    6       -7.349442
    7       -6.491974
    8       -5.548632
    9       -0.164126
   10        1.051343
   11        1.855029
   12        2.255484
 
  0.2083333E+00  0.1111111E+00  0.0000000E+00  0.4629630E-02
    1      -21.616187
    2      -18.236657
    3      -13.654371
    4      -10.040923
    5       -9.675483
    6       -7.607733
    7       -6.677999
    8       -5.906426
    9        0.301723
   10        1.177867
   11        1.982479
   12        2.384892
 
  0.2500000E+00  0.1111111E+00  0.0000000E+00  0.4629630E-02
    1      -21.502748
    2      -18.597651
    3      -13.149286
    4       -9.919531
    5       -9.542006
    6       -7.892434
    7       -6.914097
    8       -6.271762
    9        0.795962
   10        1.332466
   11        2.138171
   12        2.543055
 
  0.2916667E+00  0.1111111E+00  0.0000000E+00  0.4629630E-02
    1      -21.368881
    2      -18.942518
    3      -12.638625
    4       -9.776012
    5       -9.384812
    6       -8.200770
    7       -7.190951
    8       -6.634882
    9        1.307034
   10        1.515102
   11        2.322051
   12        2.729969
 
  0.3333333E+00  0.1111111E+00  0.0000000E+00  0.4629630E-02
    1      -21.214690
    2      -19.270222
    3      -12.126042
    4       -9.610203
    5       -9.204204
    6       -8.532984
    7       -7.495739
    8       -6.989538
    9        1.725724
   10        1.826652
   11        2.534044
   12        2.945628
 
  0.3750000E+00  0.1111111E+00  0.0000000E+00  0.4629630E-02
    1      -21.040299
    2      -19.580053
    3      -11.615573
    4       -9.421804
    5       -9.000565
    6       -8.891607
    7       -7.813649
    8       -7.331567
    9        1.964269
   10        2.348400
   11        2.774046
   12        3.190022
 
  0.4166667E+00  0.1111111E+00  0.0000000E+00  0.4629630E-02
    1      -20.845854
    2      -19.871479
    3      -11.111909
    4       -9.279807
    5       -9.210337
    6       -8.774363
    7       -8.130071
    8       -7.658078
    9        2.230660
   10        2.866911
   11        3.041894
   12        3.463139
 
  0.4583333E+00  0.1111111E+00  0.0000000E+00  0.4629630E-02
    1      -20.631528
    2      -20.144082
    3      -10.620524
    4       -9.699053
    5       -8.975208
    6       -8.526182
    7       -8.433258
    8       -7.966989
    9        2.524803
   10        3.195782
   11        3.337210
   12        3.376897
 
  0.5000000E+00  0.1111111E+00  0.0000000E+00  0.2314815E-02
    1      -20.397525
    2      -20.397525
    3      -10.147536
    4      -10.147536
    5       -8.715993
    6       -8.715993
    7       -8.256751
    8       -8.256751
    9        2.846570
   10        2.846570
   11        3.655984
   12        3.655992
 
  0.0000000E+00  0.1388889E+00  0.0000000E+00  0.2314815E-02
    1      -21.757788
    2      -16.425939
    3      -15.617685
    4      -10.725123
    5       -9.842302
    6       -7.157703
    7       -6.498529
    8       -4.513235
    9       -1.334352
   10        0.984996
   11        1.788830
   12        2.188216
 
  0.4166667E-01  0.1388889E+00  0.0000000E+00  0.4629630E-02
    1      -21.747452
    2      -16.620591
    3      -15.409956
    4      -10.713535
    5       -9.830115
    6       -7.206782
    7       -6.497932
    8       -4.588805
    9       -1.247508
   10        0.999051
   11        1.802988
   12        2.202593
 
  0.8333333E-01  0.1388889E+00  0.0000000E+00  0.4629630E-02
    1      -21.716450
    2      -16.982453
    3      -15.009062
    4      -10.678731
    5       -9.793573
    6       -7.340070
    7       -6.509512
    8       -4.793847
    9       -1.008823
   10        1.041220
   11        1.845457
   12        2.245724
 
  0.1250000E+00  0.1388889E+00  0.0000000E+00  0.4629630E-02
    1      -21.664805
    2      -17.370106
    3      -14.557032
    4      -10.620589
    5       -9.732734
    6       -7.532404
    7       -6.556490
    8       -5.084220
    9       -0.662960
   10        1.111507
   11        1.916225
   12        2.317613
 
  0.1666667E+00  0.1388889E+00  0.0000000E+00  0.4629630E-02
    1      -21.592558
    2      -17.754894
    3      -14.083583
    4      -10.538878
    5       -9.647697
    6       -7.764479
    7       -6.654387
    8       -5.421579
    9       -0.249116
   10        1.209913
   11        2.015267
   12        2.418261
 
  0.2083333E+00  0.1388889E+00  0.0000000E+00  0.4629630E-02
    1      -21.499761
    2      -18.128736
    3      -13.598373
    4      -10.433221
    5       -9.538606
    6       -8.023991
    7       -6.809451
    8       -5.780727
    9        0.206362
   10        1.336431
   11        2.142552
   12        2.547670
 
  0.2500000E+00  0.1388889E+00  0.0000000E+00  0.4629630E-02
    1      -21.386484
    2      -18.488353
    3      -13.106881
    4      -10.303024
    5       -9.405650
    6       -8.303255
    7       -7.020987
    8       -6.146343
    9        0.686745
   10        1.491036
   11        2.298032
   12        2.705839
 
  0.2916667E+00  0.1388889E+00  0.0000000E+00  0.4629630E-02
    1      -21.252817
    2      -18.832034
    3      -12.613772
    4      -10.147397
    5       -9.249076
    6       -8.597786
    7       -7.283171
    8       -6.509049
    9        1.181030
   10        1.673688
   11        2.481647
   12        2.892763
 
  0.3333333E+00  0.1388889E+00  0.0000000E+00  0.4629630E-02
    1      -21.098867
    2      -19.158718
    3      -12.123969
    4       -9.965062
    5       -9.069188
    6       -8.905756
    7       -7.586352
    8       -6.862876
    9        1.681470
   10        1.884332
   11        2.693318
   12        3.108437
 
  0.3750000E+00  0.1388889E+00  0.0000000E+00  0.4629630E-02
    1      -20.924762
    2      -19.467673
    3      -11.643094
    4       -9.754321
    5       -9.227868
    6       -8.866366
    7       -7.918035
    8       -7.203851
    9        2.122899
   10        2.182204
   11        2.932942
   12        3.352851
 
  0.4166667E+00  0.1388889E+00  0.0000000E+00  0.4629630E-02
    1      -20.730658
    2      -19.758349
    3      -11.177500
    4       -9.567224
    5       -9.513273
    6       -8.641079
    7       -8.263722
    8       -7.529207
    9        2.389307
   10        2.678505
   11        3.200385
   12        3.625993
 
  0.4583333E+00  0.1388889E+00  0.0000000E+00  0.4629630E-02
    1      -20.516734
    2      -20.030310
    3      -10.733671
    4       -9.928623
    5       -9.240591
    6       -8.608114
    7       -8.393903
    8       -7.836941
    9        2.683458
   10        3.166355
   11        3.354472
   12        3.495455
 
  0.5000000E+00  0.1388889E+00  0.0000000E+00  0.2314815E-02
    1      -20.283202
    2      -20.283202
    3      -10.316744
    4      -10.316744
    5       -8.937159
    6       -8.937159
    7       -8.125557
    8       -8.125557
    9        3.005233
   10        3.005233
   11        3.642010
   12        3.642011
 
  0.0000000E+00  0.1666667E+00  0.0000000E+00  0.2314815E-02
    1      -21.615304
    2      -16.302582
    3      -15.518895
    4      -11.172132
    5       -9.674202
    6       -7.586034
    7       -6.803098
    8       -4.340990
    9       -1.442586
   10        1.178919
   11        1.984864
   12        2.387190
 
  0.4166667E-01  0.1666667E+00  0.0000000E+00  0.4629630E-02
    1      -21.604984
    2      -16.497563
    3      -15.312085
    4      -11.159631
    5       -9.662076
    6       -7.639104
    7       -6.793205
    8       -4.419825
    9       -1.354154
   10        1.192963
   11        1.998995
   12        2.401564
 
  0.8333333E-01  0.1666667E+00  0.0000000E+00  0.4629630E-02
    1      -21.574034
    2      -16.857830
    3      -14.916630
    4      -11.121999
    5       -9.625716
    6       -7.781303
    7       -6.780483
    8       -4.631633
    9       -1.113713
   10        1.235099
   11        2.041383
   12        2.444690
 
  0.1250000E+00  0.1666667E+00  0.0000000E+00  0.4629630E-02
    1      -21.522475
    2      -17.243162
    3      -14.473676
    4      -11.058825
    5       -9.565183
    6       -7.982749
    7       -6.794368
    8       -4.927976
    9       -0.770180
   10        1.305339
   11        2.112011
   12        2.516570
 
  0.1666667E+00  0.1666667E+00  0.0000000E+00  0.4629630E-02
    1      -21.450348
    2      -17.625681
    3      -14.012733
    4      -10.969358
    5       -9.480577
    6       -8.221453
    7       -6.855326
    8       -5.269007
    9       -0.364165
   10        1.403691
   11        2.210847
   12        2.617208
 
  0.2083333E+00  0.1666667E+00  0.0000000E+00  0.4629630E-02
    1      -21.357710
    2      -17.997491
    3      -13.544166
    4      -10.852400
    5       -9.372042
    6       -8.483859
    7       -6.973514
    8       -5.629766
    9        0.078368
   10        1.530159
   11        2.337844
   12        2.746609
 
  0.2500000E+00  0.1666667E+00  0.0000000E+00  0.4629630E-02
    1      -21.244636
    2      -18.355340
    3      -13.074721
    4      -10.706166
    5       -9.239773
    6       -8.761485
    7       -7.151644
    8       -5.995562
    9        0.541529
   10        1.684726
   11        2.492935
   12        2.904774
 
  0.2916667E+00  0.1666667E+00  0.0000000E+00  0.4629630E-02
    1      -21.111217
    2      -18.697499
    3      -12.610813
    4      -10.528167
    5       -9.084016
    6       -9.048949
    7       -7.386953
    8       -6.357551
    9        1.015150
   10        1.867354
   11        2.676021
   12        3.091701
 
  0.3333333E+00  0.1666667E+00  0.0000000E+00  0.4629630E-02
    1      -20.957568
    2      -19.022881
    3      -12.159398
    4      -10.315289
    5       -9.343107
    6       -8.905079
    7       -7.672601
    8       -6.710145
    9        1.492244
   10        2.077984
   11        2.886948
   12        3.307384
 
  0.3750000E+00  0.1666667E+00  0.0000000E+00  0.4629630E-02
    1      -20.783823
    2      -19.330721
    3      -11.727726
    4      -10.064456
    5       -9.642778
    6       -8.703343
    7       -7.998776
    8       -7.049621
    9        1.967657
   10        2.316539
   11        3.125422
   12        3.551812
 
  0.4166667E+00  0.1666667E+00  0.0000000E+00  0.4629630E-02
    1      -20.590147
    2      -19.620443
    3      -11.321902
    4       -9.948780
    5       -9.774312
    6       -8.479273
    7       -8.353513
    8       -7.373372
    9        2.437313
   10        2.582926
   11        3.390531
   12        3.824974
 
  0.4583333E+00  0.1666667E+00  0.0000000E+00  0.4629630E-02
    1      -20.376728
    2      -19.891591
    3      -10.944638
    4      -10.264108
    5       -9.447646
    6       -8.723177
    7       -8.233442
    8       -7.679495
    9        2.877037
   10        2.897678
   11        3.547892
   12        3.664007
 
  0.5000000E+00  0.1666667E+00  0.0000000E+00  0.2314815E-02
    1      -20.143789
    2      -20.143789
    3      -10.593909
    4      -10.593909
    5       -9.092909
    6       -9.092909
    7       -7.966556
    8       -7.966556
    9        3.198744
   10        3.198744
   11        3.344534
   12        3.344534
 