       N       E                     dE             d eps       ncg     rms          rms(c)
DAV:   1     0.186224529192E+03    0.18622E+03   -0.10530E+04  5928   0.274E+03
DAV:   2    -0.893193267112E+01   -0.19516E+03   -0.17300E+03 10272   0.258E+02
DAV:   3    -0.380613476916E+02   -0.29129E+02   -0.28527E+02  7356   0.119E+02    0.708E+00
RMM:   4    -0.375728337638E+02    0.48851E+00   -0.97780E+00  5928   0.267E+01    0.411E+00
RMM:   5    -0.368675142139E+02    0.70532E+00   -0.26633E+00  5933   0.111E+01    0.698E-01
RMM:   6    -0.368700349943E+02   -0.25208E-02   -0.88499E-02  6390   0.203E+00    0.497E-01
RMM:   7    -0.368611355636E+02    0.88994E-02   -0.31251E-02  5942   0.153E+00    0.323E-01
RMM:   8    -0.368563880043E+02    0.47476E-02   -0.61980E-03  5932   0.523E-01    0.135E-01
RMM:   9    -0.368561966477E+02    0.19136E-03   -0.19561E-02  5928   0.828E-01    0.152E-01
RMM:  10    -0.368560706707E+02    0.12598E-03   -0.20029E-03  5929   0.324E-01    0.264E-02
RMM:  11    -0.368583770520E+02   -0.23064E-02   -0.77416E-04  5929   0.189E-01    0.443E-02
RMM:  12    -0.368588539980E+02   -0.47695E-03   -0.19831E-04  5946   0.940E-02    0.662E-03
RMM:  13    -0.368591294900E+02   -0.27549E-03   -0.56980E-05  6022   0.410E-02    0.338E-03
RMM:  14    -0.368592107338E+02   -0.81244E-04   -0.10024E-05  5973   0.153E-02    0.101E-03
RMM:  15    -0.368592240475E+02   -0.13314E-04   -0.19905E-06  5969   0.778E-03    0.214E-03
RMM:  16    -0.368592374412E+02   -0.13394E-04   -0.17348E-06  5928   0.854E-03    0.117E-03
RMM:  17    -0.368592436054E+02   -0.61642E-05   -0.10873E-07  6054   0.202E-03    0.744E-04
RMM:  18    -0.368592447299E+02   -0.11245E-05   -0.63103E-08  5931   0.188E-03    0.852E-05
RMM:  19    -0.368592454680E+02   -0.73805E-06   -0.10031E-08  5882   0.463E-04    0.140E-05
RMM:  20    -0.368592455209E+02   -0.52946E-07   -0.81117E-10  4473   0.136E-04    0.208E-05
RMM:  21    -0.368592455338E+02   -0.12875E-07   -0.19045E-10  4319   0.835E-05    0.727E-06
RMM:  22    -0.368592455342E+02   -0.36334E-09   -0.21554E-11  3890   0.493E-05    0.120E-06
RMM:  23    -0.368592455344E+02   -0.24750E-09   -0.15443E-11  3562   0.378E-05    0.166E-06
RMM:  24    -0.368592455346E+02   -0.19111E-09   -0.60475E-12  3142   0.290E-05    0.487E-07
RMM:  25    -0.368592455345E+02    0.85265E-10   -0.40283E-12  2859   0.247E-05
   1 F= -.36859246E+02 E0= -.36859246E+02  d E =-.368592E+02
       N       E                     dE             d eps       ncg     rms          rms(c)
DAV:   1    -0.368592442783E+02    0.12563E-05   -0.10967E-04  6328   0.986E-02    0.200E-03
RMM:   2    -0.368592443657E+02   -0.87488E-07   -0.18387E-06  5948   0.119E-02    0.147E-03
RMM:   3    -0.368592443326E+02    0.33167E-07   -0.29282E-07  5980   0.438E-03    0.366E-04
RMM:   4    -0.368592443247E+02    0.78556E-08   -0.17928E-08  6058   0.106E-03    0.107E-04
RMM:   5    -0.368592443272E+02   -0.25154E-08   -0.15169E-09  5754   0.277E-04    0.484E-05
RMM:   6    -0.368592443268E+02    0.44020E-09   -0.19643E-10  3989   0.116E-04    0.544E-06
RMM:   7    -0.368592443268E+02   -0.43656E-10   -0.15366E-11  3753   0.590E-05
   2 F= -.36859244E+02 E0= -.36859244E+02  d E =0.120767E-05
       N       E                     dE             d eps       ncg     rms          rms(c)
DAV:   1    -0.368592456277E+02   -0.13009E-05   -0.70114E-05  6556   0.789E-02    0.161E-03
RMM:   2    -0.368592456686E+02   -0.40887E-07   -0.11244E-06  5946   0.946E-03    0.117E-03
RMM:   3    -0.368592456233E+02    0.45265E-07   -0.18293E-07  5984   0.346E-03    0.278E-04
RMM:   4    -0.368592456224E+02    0.95690E-09   -0.10669E-08  6043   0.822E-04    0.855E-05
RMM:   5    -0.368592456210E+02    0.14135E-08   -0.92230E-10  5172   0.219E-04    0.390E-05
RMM:   6    -0.368592456211E+02   -0.12903E-09   -0.12677E-10  3832   0.954E-05    0.446E-06
RMM:   7    -0.368592456210E+02    0.12767E-09   -0.20386E-11  3756   0.548E-05    0.319E-06
RMM:   8    -0.368592456206E+02    0.33378E-09   -0.12074E-11  3330   0.394E-05    0.132E-06
RMM:   9    -0.368592456209E+02   -0.29456E-09   -0.66798E-12  3063   0.305E-05    0.186E-06
RMM:  10    -0.368592456208E+02    0.17519E-09   -0.19486E-12  2754   0.266E-05    0.135E-06
RMM:  11    -0.368592456208E+02   -0.36835E-10   -0.18136E-12  2538   0.243E-05
   3 F= -.36859246E+02 E0= -.36859246E+02  d E =-.129395E-05
       N       E                     dE             d eps       ncg     rms          rms(c)
DAV:   1    -0.368592456204E+02    0.40791E-09    0.59790E-09  4564   0.269E-05    0.411E-07
RMM:   2    -0.368592456207E+02   -0.38665E-09   -0.27525E-13  1553   0.103E-05    0.255E-07
RMM:   3    -0.368592456208E+02   -0.95383E-10   -0.20736E-13  1511   0.104E-05    0.249E-08
RMM:   4    -0.368592456211E+02   -0.24670E-09   -0.43981E-13  1486   0.102E-05    0.141E-08
RMM:   5    -0.368592456209E+02    0.21339E-09    0.21325E-13  1462   0.992E-06    0.728E-09
RMM:   6    -0.368592456209E+02   -0.53660E-10   -0.46584E-13  1425   0.998E-06
   4 F= -.36859246E+02 E0= -.36859246E+02  d E =-.124260E-09
