<?xml version="1.0" encoding="ISO-8859-1"?>
<modeling>
 <generator>
  <i name="program" type="string">vasp </i>
  <i name="version" type="string">5.3.5  </i>
  <i name="subversion" type="string">31Mar14 (build Mar 02 2015 18:14:16) complex                          parallel </i>
  <i name="platform" type="string">LinuxIFC </i>
  <i name="date" type="string">2018 08 09 </i>
  <i name="time" type="string">21:00:42 </i>
 </generator>
 <incar>
  <i type="string" name="SYSTEM">  gr</i>
  <i type="string" name="PREC">accurate : accuracy</i>
  <i type="string" name="ALGO"> FAST.</i>
  <i type="int" name="NELM">   100</i>
  <i type="int" name="NELMDL">    -3</i>
  <i type="int" name="NELMIN">     5</i>
  <i type="int" name="IBRION">     1</i>
  <i name="EDIFF">      0.00000000</i>
  <i name="EDIFFG">     -0.00000100</i>
  <i type="int" name="NSW">   400</i>
  <i type="int" name="ISIF">     2</i>
  <i name="ENCUT">   2000.00000000</i>
  <i type="int" name="ISMEAR">     0</i>
  <i name="SIGMA">      0.05000000</i>
  <i type="int" name="NWRITE">     2</i>
  <i type="logical" name="LWAVE"> F  </i>
  <i type="logical" name="LCHARG"> F  </i>
  <i type="int" name="NELM">   100</i>
 </incar>
 <kpoints>
  <generation param="Gamma">
   <v type="int" name="divisions">      24       36        1 </v>
   <v name="usershift">      0.00000000       0.00000000       0.00000000 </v>
   <v name="genvec1">      0.04166667       0.00000000       0.00000000 </v>
   <v name="genvec2">      0.00000000       0.02777778       0.00000000 </v>
   <v name="genvec3">      0.00000000       0.00000000       1.00000000 </v>
   <v name="shift">      0.00000000       0.00000000       0.00000000 </v>
  </generation>
  <varray name="kpointlist" >
   <v>       0.00000000       0.00000000       0.00000000 </v>
   <v>       0.04166667       0.00000000       0.00000000 </v>
   <v>       0.08333333       0.00000000       0.00000000 </v>
   <v>       0.12500000       0.00000000       0.00000000 </v>
   <v>       0.16666667       0.00000000       0.00000000 </v>
   <v>       0.20833333       0.00000000       0.00000000 </v>
   <v>       0.25000000       0.00000000       0.00000000 </v>
   <v>       0.29166667       0.00000000       0.00000000 </v>
   <v>       0.33333333       0.00000000       0.00000000 </v>
   <v>       0.37500000       0.00000000       0.00000000 </v>
   <v>       0.41666667       0.00000000       0.00000000 </v>
   <v>       0.45833333       0.00000000       0.00000000 </v>
   <v>       0.50000000       0.00000000       0.00000000 </v>
   <v>       0.00000000       0.02777778       0.00000000 </v>
   <v>       0.04166667       0.02777778       0.00000000 </v>
   <v>       0.08333333       0.02777778       0.00000000 </v>
   <v>       0.12500000       0.02777778       0.00000000 </v>
   <v>       0.16666667       0.02777778       0.00000000 </v>
   <v>       0.20833333       0.02777778       0.00000000 </v>
   <v>       0.25000000       0.02777778       0.00000000 </v>
   <v>       0.29166667       0.02777778       0.00000000 </v>
   <v>       0.33333333       0.02777778       0.00000000 </v>
   <v>       0.37500000       0.02777778       0.00000000 </v>
   <v>       0.41666667       0.02777778       0.00000000 </v>
   <v>       0.45833333       0.02777778       0.00000000 </v>
   <v>       0.50000000       0.02777778       0.00000000 </v>
   <v>       0.00000000       0.05555556       0.00000000 </v>
   <v>       0.04166667       0.05555556       0.00000000 </v>
   <v>       0.08333333       0.05555556       0.00000000 </v>
   <v>       0.12500000       0.05555556       0.00000000 </v>
   <v>       0.16666667       0.05555556       0.00000000 </v>
   <v>       0.20833333       0.05555556       0.00000000 </v>
   <v>       0.25000000       0.05555556       0.00000000 </v>
   <v>       0.29166667       0.05555556       0.00000000 </v>
   <v>       0.33333333       0.05555556       0.00000000 </v>
   <v>       0.37500000       0.05555556       0.00000000 </v>
   <v>       0.41666667       0.05555556       0.00000000 </v>
   <v>       0.45833333       0.05555556       0.00000000 </v>
   <v>       0.50000000       0.05555556       0.00000000 </v>
   <v>       0.00000000       0.08333333       0.00000000 </v>
   <v>       0.04166667       0.08333333       0.00000000 </v>
   <v>       0.08333333       0.08333333       0.00000000 </v>
   <v>       0.12500000       0.08333333       0.00000000 </v>
   <v>       0.16666667       0.08333333       0.00000000 </v>
   <v>       0.20833333       0.08333333       0.00000000 </v>
   <v>       0.25000000       0.08333333       0.00000000 </v>
   <v>       0.29166667       0.08333333       0.00000000 </v>
   <v>       0.33333333       0.08333333       0.00000000 </v>
   <v>       0.37500000       0.08333333       0.00000000 </v>
   <v>       0.41666667       0.08333333       0.00000000 </v>
   <v>       0.45833333       0.08333333       0.00000000 </v>
   <v>       0.50000000       0.08333333       0.00000000 </v>
   <v>       0.00000000       0.11111111       0.00000000 </v>
   <v>       0.04166667       0.11111111       0.00000000 </v>
   <v>       0.08333333       0.11111111       0.00000000 </v>
   <v>       0.12500000       0.11111111       0.00000000 </v>
   <v>       0.16666667       0.11111111       0.00000000 </v>
   <v>       0.20833333       0.11111111       0.00000000 </v>
   <v>       0.25000000       0.11111111       0.00000000 </v>
   <v>       0.29166667       0.11111111       0.00000000 </v>
   <v>       0.33333333       0.11111111       0.00000000 </v>
   <v>       0.37500000       0.11111111       0.00000000 </v>
   <v>       0.41666667       0.11111111       0.00000000 </v>
   <v>       0.45833333       0.11111111       0.00000000 </v>
   <v>       0.50000000       0.11111111       0.00000000 </v>
   <v>       0.00000000       0.13888889       0.00000000 </v>
   <v>       0.04166667       0.13888889       0.00000000 </v>
   <v>       0.08333333       0.13888889       0.00000000 </v>
   <v>       0.12500000       0.13888889       0.00000000 </v>
   <v>       0.16666667       0.13888889       0.00000000 </v>
   <v>       0.20833333       0.13888889       0.00000000 </v>
   <v>       0.25000000       0.13888889       0.00000000 </v>
   <v>       0.29166667       0.13888889       0.00000000 </v>
   <v>       0.33333333       0.13888889       0.00000000 </v>
   <v>       0.37500000       0.13888889       0.00000000 </v>
   <v>       0.41666667       0.13888889       0.00000000 </v>
   <v>       0.45833333       0.13888889       0.00000000 </v>
   <v>       0.50000000       0.13888889       0.00000000 </v>
   <v>       0.00000000       0.16666667       0.00000000 </v>
   <v>       0.04166667       0.16666667       0.00000000 </v>
   <v>       0.08333333       0.16666667       0.00000000 </v>
   <v>       0.12500000       0.16666667       0.00000000 </v>
   <v>       0.16666667       0.16666667       0.00000000 </v>
   <v>       0.20833333       0.16666667       0.00000000 </v>
   <v>       0.25000000       0.16666667       0.00000000 </v>
   <v>       0.29166667       0.16666667       0.00000000 </v>
   <v>       0.33333333       0.16666667       0.00000000 </v>
   <v>       0.37500000       0.16666667       0.00000000 </v>
   <v>       0.41666667       0.16666667       0.00000000 </v>
   <v>       0.45833333       0.16666667       0.00000000 </v>
   <v>       0.50000000       0.16666667       0.00000000 </v>
   <v>       0.00000000       0.19444444       0.00000000 </v>
   <v>       0.04166667       0.19444444       0.00000000 </v>
   <v>       0.08333333       0.19444444       0.00000000 </v>
   <v>       0.12500000       0.19444444       0.00000000 </v>
   <v>       0.16666667       0.19444444       0.00000000 </v>
   <v>       0.20833333       0.19444444       0.00000000 </v>
   <v>       0.25000000       0.19444444       0.00000000 </v>
   <v>       0.29166667       0.19444444       0.00000000 </v>
   <v>       0.33333333       0.19444444       0.00000000 </v>
   <v>       0.37500000       0.19444444       0.00000000 </v>
   <v>       0.41666667       0.19444444       0.00000000 </v>
   <v>       0.45833333       0.19444444       0.00000000 </v>
   <v>       0.50000000       0.19444444       0.00000000 </v>
   <v>       0.00000000       0.22222222       0.00000000 </v>
   <v>       0.04166667       0.22222222       0.00000000 </v>
   <v>       0.08333333       0.22222222       0.00000000 </v>
   <v>       0.12500000       0.22222222       0.00000000 </v>
   <v>       0.16666667       0.22222222       0.00000000 </v>
   <v>       0.20833333       0.22222222       0.00000000 </v>
   <v>       0.25000000       0.22222222       0.00000000 </v>
   <v>       0.29166667       0.22222222       0.00000000 </v>
   <v>       0.33333333       0.22222222       0.00000000 </v>
   <v>       0.37500000       0.22222222       0.00000000 </v>
   <v>       0.41666667       0.22222222       0.00000000 </v>
   <v>       0.45833333       0.22222222       0.00000000 </v>
   <v>       0.50000000       0.22222222       0.00000000 </v>
   <v>       0.00000000       0.25000000       0.00000000 </v>
   <v>       0.04166667       0.25000000       0.00000000 </v>
   <v>       0.08333333       0.25000000       0.00000000 </v>
   <v>       0.12500000       0.25000000       0.00000000 </v>
   <v>       0.16666667       0.25000000       0.00000000 </v>
   <v>       0.20833333       0.25000000       0.00000000 </v>
   <v>       0.25000000       0.25000000       0.00000000 </v>
   <v>       0.29166667       0.25000000       0.00000000 </v>
   <v>       0.33333333       0.25000000       0.00000000 </v>
   <v>       0.37500000       0.25000000       0.00000000 </v>
   <v>       0.41666667       0.25000000       0.00000000 </v>
   <v>       0.45833333       0.25000000       0.00000000 </v>
   <v>       0.50000000       0.25000000       0.00000000 </v>
   <v>       0.00000000       0.27777778       0.00000000 </v>
   <v>       0.04166667       0.27777778       0.00000000 </v>
   <v>       0.08333333       0.27777778       0.00000000 </v>
   <v>       0.12500000       0.27777778       0.00000000 </v>
   <v>       0.16666667       0.27777778       0.00000000 </v>
   <v>       0.20833333       0.27777778       0.00000000 </v>
   <v>       0.25000000       0.27777778       0.00000000 </v>
   <v>       0.29166667       0.27777778       0.00000000 </v>
   <v>       0.33333333       0.27777778       0.00000000 </v>
   <v>       0.37500000       0.27777778       0.00000000 </v>
   <v>       0.41666667       0.27777778       0.00000000 </v>
   <v>       0.45833333       0.27777778       0.00000000 </v>
   <v>       0.50000000       0.27777778       0.00000000 </v>
   <v>       0.00000000       0.30555556       0.00000000 </v>
   <v>       0.04166667       0.30555556       0.00000000 </v>
   <v>       0.08333333       0.30555556       0.00000000 </v>
   <v>       0.12500000       0.30555556       0.00000000 </v>
   <v>       0.16666667       0.30555556       0.00000000 </v>
   <v>       0.20833333       0.30555556       0.00000000 </v>
   <v>       0.25000000       0.30555556       0.00000000 </v>
   <v>       0.29166667       0.30555556       0.00000000 </v>
   <v>       0.33333333       0.30555556       0.00000000 </v>
   <v>       0.37500000       0.30555556       0.00000000 </v>
   <v>       0.41666667       0.30555556       0.00000000 </v>
   <v>       0.45833333       0.30555556       0.00000000 </v>
   <v>       0.50000000       0.30555556       0.00000000 </v>
   <v>       0.00000000       0.33333333       0.00000000 </v>
   <v>       0.04166667       0.33333333       0.00000000 </v>
   <v>       0.08333333       0.33333333       0.00000000 </v>
   <v>       0.12500000       0.33333333       0.00000000 </v>
   <v>       0.16666667       0.33333333       0.00000000 </v>
   <v>       0.20833333       0.33333333       0.00000000 </v>
   <v>       0.25000000       0.33333333       0.00000000 </v>
   <v>       0.29166667       0.33333333       0.00000000 </v>
   <v>       0.33333333       0.33333333       0.00000000 </v>
   <v>       0.37500000       0.33333333       0.00000000 </v>
   <v>       0.41666667       0.33333333       0.00000000 </v>
   <v>       0.45833333       0.33333333       0.00000000 </v>
   <v>       0.50000000       0.33333333       0.00000000 </v>
   <v>       0.00000000       0.36111111       0.00000000 </v>
   <v>       0.04166667       0.36111111       0.00000000 </v>
   <v>       0.08333333       0.36111111       0.00000000 </v>
   <v>       0.12500000       0.36111111       0.00000000 </v>
   <v>       0.16666667       0.36111111       0.00000000 </v>
   <v>       0.20833333       0.36111111       0.00000000 </v>
   <v>       0.25000000       0.36111111       0.00000000 </v>
   <v>       0.29166667       0.36111111       0.00000000 </v>
   <v>       0.33333333       0.36111111       0.00000000 </v>
   <v>       0.37500000       0.36111111       0.00000000 </v>
   <v>       0.41666667       0.36111111       0.00000000 </v>
   <v>       0.45833333       0.36111111       0.00000000 </v>
   <v>       0.50000000       0.36111111       0.00000000 </v>
   <v>       0.00000000       0.38888889       0.00000000 </v>
   <v>       0.04166667       0.38888889       0.00000000 </v>
   <v>       0.08333333       0.38888889       0.00000000 </v>
   <v>       0.12500000       0.38888889       0.00000000 </v>
   <v>       0.16666667       0.38888889       0.00000000 </v>
   <v>       0.20833333       0.38888889       0.00000000 </v>
   <v>       0.25000000       0.38888889       0.00000000 </v>
   <v>       0.29166667       0.38888889       0.00000000 </v>
   <v>       0.33333333       0.38888889       0.00000000 </v>
   <v>       0.37500000       0.38888889       0.00000000 </v>
   <v>       0.41666667       0.38888889       0.00000000 </v>
   <v>       0.45833333       0.38888889       0.00000000 </v>
   <v>       0.50000000       0.38888889       0.00000000 </v>
   <v>       0.00000000       0.41666667       0.00000000 </v>
   <v>       0.04166667       0.41666667       0.00000000 </v>
   <v>       0.08333333       0.41666667       0.00000000 </v>
   <v>       0.12500000       0.41666667       0.00000000 </v>
   <v>       0.16666667       0.41666667       0.00000000 </v>
   <v>       0.20833333       0.41666667       0.00000000 </v>
   <v>       0.25000000       0.41666667       0.00000000 </v>
   <v>       0.29166667       0.41666667       0.00000000 </v>
   <v>       0.33333333       0.41666667       0.00000000 </v>
   <v>       0.37500000       0.41666667       0.00000000 </v>
   <v>       0.41666667       0.41666667       0.00000000 </v>
   <v>       0.45833333       0.41666667       0.00000000 </v>
   <v>       0.50000000       0.41666667       0.00000000 </v>
   <v>       0.00000000       0.44444444       0.00000000 </v>
   <v>       0.04166667       0.44444444       0.00000000 </v>
   <v>       0.08333333       0.44444444       0.00000000 </v>
   <v>       0.12500000       0.44444444       0.00000000 </v>
   <v>       0.16666667       0.44444444       0.00000000 </v>
   <v>       0.20833333       0.44444444       0.00000000 </v>
   <v>       0.25000000       0.44444444       0.00000000 </v>
   <v>       0.29166667       0.44444444       0.00000000 </v>
   <v>       0.33333333       0.44444444       0.00000000 </v>
   <v>       0.37500000       0.44444444       0.00000000 </v>
   <v>       0.41666667       0.44444444       0.00000000 </v>
   <v>       0.45833333       0.44444444       0.00000000 </v>
   <v>       0.50000000       0.44444444       0.00000000 </v>
   <v>       0.00000000       0.47222222       0.00000000 </v>
   <v>       0.04166667       0.47222222       0.00000000 </v>
   <v>       0.08333333       0.47222222       0.00000000 </v>
   <v>       0.12500000       0.47222222       0.00000000 </v>
   <v>       0.16666667       0.47222222       0.00000000 </v>
   <v>       0.20833333       0.47222222       0.00000000 </v>
   <v>       0.25000000       0.47222222       0.00000000 </v>
   <v>       0.29166667       0.47222222       0.00000000 </v>
   <v>       0.33333333       0.47222222       0.00000000 </v>
   <v>       0.37500000       0.47222222       0.00000000 </v>
   <v>       0.41666667       0.47222222       0.00000000 </v>
   <v>       0.45833333       0.47222222       0.00000000 </v>
   <v>       0.50000000       0.47222222       0.00000000 </v>
   <v>       0.00000000       0.50000000       0.00000000 </v>
   <v>       0.04166667       0.50000000       0.00000000 </v>
   <v>       0.08333333       0.50000000       0.00000000 </v>
   <v>       0.12500000       0.50000000       0.00000000 </v>
   <v>       0.16666667       0.50000000       0.00000000 </v>
   <v>       0.20833333       0.50000000       0.00000000 </v>
   <v>       0.25000000       0.50000000       0.00000000 </v>
   <v>       0.29166667       0.50000000       0.00000000 </v>
   <v>       0.33333333       0.50000000       0.00000000 </v>
   <v>       0.37500000       0.50000000       0.00000000 </v>
   <v>       0.41666667       0.50000000       0.00000000 </v>
   <v>       0.45833333       0.50000000       0.00000000 </v>
   <v>       0.50000000       0.50000000       0.00000000 </v>
  </varray>
  <varray name="weights" >
   <v>       0.00115741 </v>
   <v>       0.00231481 </v>
   <v>       0.00231481 </v>
   <v>       0.00231481 </v>
   <v>       0.00231481 </v>
   <v>       0.00231481 </v>
   <v>       0.00231481 </v>
   <v>       0.00231481 </v>
   <v>       0.00231481 </v>
   <v>       0.00231481 </v>
   <v>       0.00231481 </v>
   <v>       0.00231481 </v>
   <v>       0.00115741 </v>
   <v>       0.00231481 </v>
   <v>       0.00462963 </v>
   <v>       0.00462963 </v>
   <v>       0.00462963 </v>
   <v>       0.00462963 </v>
   <v>       0.00462963 </v>
   <v>       0.00462963 </v>
   <v>       0.00462963 </v>
   <v>       0.00462963 </v>
   <v>       0.00462963 </v>
   <v>       0.00462963 </v>
   <v>       0.00462963 </v>
   <v>       0.00231481 </v>
   <v>       0.00231481 </v>
   <v>       0.00462963 </v>
   <v>       0.00462963 </v>
   <v>       0.00462963 </v>
   <v>       0.00462963 </v>
   <v>       0.00462963 </v>
   <v>       0.00462963 </v>
   <v>       0.00462963 </v>
   <v>       0.00462963 </v>
   <v>       0.00462963 </v>
   <v>       0.00462963 </v>
   <v>       0.00462963 </v>
   <v>       0.00231481 </v>
   <v>       0.00231481 </v>
   <v>       0.00462963 </v>
   <v>       0.00462963 </v>
   <v>       0.00462963 </v>
   <v>       0.00462963 </v>
   <v>       0.00462963 </v>
   <v>       0.00462963 </v>
   <v>       0.00462963 </v>
   <v>       0.00462963 </v>
   <v>       0.00462963 </v>
   <v>       0.00462963 </v>
   <v>       0.00462963 </v>
   <v>       0.00231481 </v>
   <v>       0.00231481 </v>
   <v>       0.00462963 </v>
   <v>       0.00462963 </v>
   <v>       0.00462963 </v>
   <v>       0.00462963 </v>
   <v>       0.00462963 </v>
   <v>       0.00462963 </v>
   <v>       0.00462963 </v>
   <v>       0.00462963 </v>
   <v>       0.00462963 </v>
   <v>       0.00462963 </v>
   <v>       0.00462963 </v>
   <v>       0.00231481 </v>
   <v>       0.00231481 </v>
   <v>       0.00462963 </v>
   <v>       0.00462963 </v>
   <v>       0.00462963 </v>
   <v>       0.00462963 </v>
   <v>       0.00462963 </v>
   <v>       0.00462963 </v>
   <v>       0.00462963 </v>
   <v>       0.00462963 </v>
   <v>       0.00462963 </v>
   <v>       0.00462963 </v>
   <v>       0.00462963 </v>
   <v>       0.00231481 </v>
   <v>       0.00231481 </v>
   <v>       0.00462963 </v>
   <v>       0.00462963 </v>
   <v>       0.00462963 </v>
   <v>       0.00462963 </v>
   <v>       0.00462963 </v>
   <v>       0.00462963 </v>
   <v>       0.00462963 </v>
   <v>       0.00462963 </v>
   <v>       0.00462963 </v>
   <v>       0.00462963 </v>
   <v>       0.00462963 </v>
   <v>       0.00231481 </v>
   <v>       0.00231481 </v>
   <v>       0.00462963 </v>
   <v>       0.00462963 </v>
   <v>       0.00462963 </v>
   <v>       0.00462963 </v>
   <v>       0.00462963 </v>
   <v>       0.00462963 </v>
   <v>       0.00462963 </v>
   <v>       0.00462963 </v>
   <v>       0.00462963 </v>
   <v>       0.00462963 </v>
   <v>       0.00462963 </v>
   <v>       0.00231481 </v>
   <v>       0.00231481 </v>
   <v>       0.00462963 </v>
   <v>       0.00462963 </v>
   <v>       0.00462963 </v>
   <v>       0.00462963 </v>
   <v>       0.00462963 </v>
   <v>       0.00462963 </v>
   <v>       0.00462963 </v>
   <v>       0.00462963 </v>
   <v>       0.00462963 </v>
   <v>       0.00462963 </v>
   <v>       0.00462963 </v>
   <v>       0.00231481 </v>
   <v>       0.00231481 </v>
   <v>       0.00462963 </v>
   <v>       0.00462963 </v>
   <v>       0.00462963 </v>
   <v>       0.00462963 </v>
   <v>       0.00462963 </v>
   <v>       0.00462963 </v>
   <v>       0.00462963 </v>
   <v>       0.00462963 </v>
   <v>       0.00462963 </v>
   <v>       0.00462963 </v>
   <v>       0.00462963 </v>
   <v>       0.00231481 </v>
   <v>       0.00231481 </v>
   <v>       0.00462963 </v>
   <v>       0.00462963 </v>
   <v>       0.00462963 </v>
   <v>       0.00462963 </v>
   <v>       0.00462963 </v>
   <v>       0.00462963 </v>
   <v>       0.00462963 </v>
   <v>       0.00462963 </v>
   <v>       0.00462963 </v>
   <v>       0.00462963 </v>
   <v>       0.00462963 </v>
   <v>       0.00231481 </v>
   <v>       0.00231481 </v>
   <v>       0.00462963 </v>
   <v>       0.00462963 </v>
   <v>       0.00462963 </v>
   <v>       0.00462963 </v>
   <v>       0.00462963 </v>
   <v>       0.00462963 </v>
   <v>       0.00462963 </v>
   <v>       0.00462963 </v>
   <v>       0.00462963 </v>
   <v>       0.00462963 </v>
   <v>       0.00462963 </v>
   <v>       0.00231481 </v>
   <v>       0.00231481 </v>
   <v>       0.00462963 </v>
   <v>       0.00462963 </v>
   <v>       0.00462963 </v>
   <v>       0.00462963 </v>
   <v>       0.00462963 </v>
   <v>       0.00462963 </v>
   <v>       0.00462963 </v>
   <v>       0.00462963 </v>
   <v>       0.00462963 </v>
   <v>       0.00462963 </v>
   <v>       0.00462963 </v>
   <v>       0.00231481 </v>
   <v>       0.00231481 </v>
   <v>       0.00462963 </v>
   <v>       0.00462963 </v>
   <v>       0.00462963 </v>
   <v>       0.00462963 </v>
   <v>       0.00462963 </v>
   <v>       0.00462963 </v>
   <v>       0.00462963 </v>
   <v>       0.00462963 </v>
   <v>       0.00462963 </v>
   <v>       0.00462963 </v>
   <v>       0.00462963 </v>
   <v>       0.00231481 </v>
   <v>       0.00231481 </v>
   <v>       0.00462963 </v>
   <v>       0.00462963 </v>
   <v>       0.00462963 </v>
   <v>       0.00462963 </v>
   <v>       0.00462963 </v>
   <v>       0.00462963 </v>
   <v>       0.00462963 </v>
   <v>       0.00462963 </v>
   <v>       0.00462963 </v>
   <v>       0.00462963 </v>
   <v>       0.00462963 </v>
   <v>       0.00231481 </v>
   <v>       0.00231481 </v>
   <v>       0.00462963 </v>
   <v>       0.00462963 </v>
   <v>       0.00462963 </v>
   <v>       0.00462963 </v>
   <v>       0.00462963 </v>
   <v>       0.00462963 </v>
   <v>       0.00462963 </v>
   <v>       0.00462963 </v>
   <v>       0.00462963 </v>
   <v>       0.00462963 </v>
   <v>       0.00462963 </v>
   <v>       0.00231481 </v>
   <v>       0.00231481 </v>
   <v>       0.00462963 </v>
   <v>       0.00462963 </v>
   <v>       0.00462963 </v>
   <v>       0.00462963 </v>
   <v>       0.00462963 </v>
   <v>       0.00462963 </v>
   <v>       0.00462963 </v>
   <v>       0.00462963 </v>
   <v>       0.00462963 </v>
   <v>       0.00462963 </v>
   <v>       0.00462963 </v>
   <v>       0.00231481 </v>
   <v>       0.00231481 </v>
   <v>       0.00462963 </v>
   <v>       0.00462963 </v>
   <v>       0.00462963 </v>
   <v>       0.00462963 </v>
   <v>       0.00462963 </v>
   <v>       0.00462963 </v>
   <v>       0.00462963 </v>
   <v>       0.00462963 </v>
   <v>       0.00462963 </v>
   <v>       0.00462963 </v>
   <v>       0.00462963 </v>
   <v>       0.00231481 </v>
   <v>       0.00115741 </v>
   <v>       0.00231481 </v>
   <v>       0.00231481 </v>
   <v>       0.00231481 </v>
   <v>       0.00231481 </v>
   <v>       0.00231481 </v>
   <v>       0.00231481 </v>
   <v>       0.00231481 </v>
   <v>       0.00231481 </v>
   <v>       0.00231481 </v>
   <v>       0.00231481 </v>
   <v>       0.00231481 </v>
   <v>       0.00115741 </v>
  </varray>
 </kpoints>
 <parameters>
  <separator name="general" >
   <i type="string" name="SYSTEM">gr</i>
   <i type="logical" name="LCOMPAT"> F  </i>
  </separator>
  <separator name="electronic" >
   <i type="string" name="PREC">accura</i>
   <i name="ENMAX">   2000.00000000</i>
   <i name="ENAUG">    644.87300000</i>
   <i name="EDIFF">      0.00000000</i>
   <i type="int" name="IALGO">    68</i>
   <i type="int" name="IWAVPR">    11</i>
   <i type="int" name="NBANDS">    12</i>
   <i name="NELECT">     16.00000000</i>
   <i type="int" name="TURBO">     0</i>
   <i type="int" name="IRESTART">     0</i>
   <i type="int" name="NREBOOT">     0</i>
   <i type="int" name="NMIN">     0</i>
   <i name="EREF">      0.00000000</i>
   <separator name="electronic smearing" >
    <i type="int" name="ISMEAR">     0</i>
    <i name="SIGMA">      0.05000000</i>
    <i name="KSPACING">      0.50000000</i>
    <i type="logical" name="KGAMMA"> T  </i>
   </separator>
   <separator name="electronic projectors" >
    <i type="logical" name="LREAL"> F  </i>
    <v name="ROPT">      0.00000000</v>
    <i type="int" name="LMAXPAW">  -100</i>
    <i type="int" name="LMAXMIX">     2</i>
    <i type="logical" name="NLSPLINE"> F  </i>
   </separator>
   <separator name="electronic startup" >
    <i type="int" name="ISTART">     0</i>
    <i type="int" name="ICHARG">     2</i>
    <i type="int" name="INIWAV">     1</i>
   </separator>
   <separator name="electronic spin" >
    <i type="int" name="ISPIN">     1</i>
    <i type="logical" name="LNONCOLLINEAR"> F  </i>
    <v name="MAGMOM">      1.00000000      1.00000000      1.00000000      1.00000000</v>
    <i name="NUPDOWN">     -1.00000000</i>
    <i type="logical" name="LSORBIT"> F  </i>
    <v name="SAXIS">      0.00000000      0.00000000      1.00000000</v>
    <i type="logical" name="LSPIRAL"> F  </i>
    <v name="QSPIRAL">      0.00000000      0.00000000      0.00000000</v>
    <i type="logical" name="LZEROZ"> F  </i>
   </separator>
   <separator name="electronic exchange-correlation" >
    <i type="logical" name="LASPH"> F  </i>
    <i type="logical" name="LMETAGGA"> F  </i>
   </separator>
   <separator name="electronic convergence" >
    <i type="int" name="NELM">   100</i>
    <i type="int" name="NELMDL">    -3</i>
    <i type="int" name="NELMIN">     5</i>
    <i name="ENINI">   2000.00000000</i>
    <separator name="electronic convergence detail" >
     <i type="logical" name="LDIAG"> T  </i>
     <i type="logical" name="LSUBROT"> F  </i>
     <i name="WEIMIN">      0.00100000</i>
     <i name="EBREAK">      0.00000000</i>
     <i name="DEPER">      0.30000000</i>
     <i type="int" name="NRMM">     4</i>
     <i name="TIME">      0.40000000</i>
    </separator>
   </separator>
   <separator name="electronic mixer" >
    <i name="AMIX">      0.40000000</i>
    <i name="BMIX">      1.00000000</i>
    <i name="AMIN">      0.10000000</i>
    <i name="AMIX_MAG">      1.60000000</i>
    <i name="BMIX_MAG">      1.00000000</i>
    <separator name="electronic mixer details" >
     <i type="int" name="IMIX">     4</i>
     <i type="int" name="MAXMIX">   -45</i>
     <i name="WC">    100.00000000</i>
     <i type="int" name="INIMIX">     1</i>
     <i type="int" name="MIXPRE">     1</i>
     <i type="int" name="MREMOVE">     5</i>
    </separator>
   </separator>
   <separator name="electronic dipolcorrection" >
    <i type="logical" name="LDIPOL"> F  </i>
    <i type="logical" name="LMONO"> F  </i>
    <i type="int" name="IDIPOL">     0</i>
    <i name="EPSILON">      1.00000000</i>
    <v name="DIPOL">   -100.00000000   -100.00000000   -100.00000000</v>
    <i name="EFIELD">      0.00000000</i>
   </separator>
  </separator>
  <separator name="grids" >
   <i type="int" name="NGX">    64</i>
   <i type="int" name="NGY">    40</i>
   <i type="int" name="NGZ">   288</i>
   <i type="int" name="NGXF">   128</i>
   <i type="int" name="NGYF">    80</i>
   <i type="int" name="NGZF">   576</i>
   <i type="logical" name="ADDGRID"> F  </i>
  </separator>
  <separator name="ionic" >
   <i type="int" name="NSW">   400</i>
   <i type="int" name="IBRION">     1</i>
   <i type="int" name="ISIF">     2</i>
   <i name="PSTRESS">      0.00000000</i>
   <i name="EDIFFG">     -0.00000100</i>
   <i type="int" name="NFREE">     0</i>
   <i name="POTIM">      0.50000000</i>
   <i name="SMASS">     -3.00000000</i>
   <i name="SCALEE">      1.00000000</i>
  </separator>
  <separator name="ionic md" >
   <i name="TEBEG">      0.00010000</i>
   <i name="TEEND">      0.00010000</i>
   <i type="int" name="NBLOCK">     1</i>
   <i type="int" name="KBLOCK">   400</i>
   <i type="int" name="NPACO">   256</i>
   <i name="APACO">     16.00000000</i>
  </separator>
  <separator name="symmetry" >
   <i type="int" name="ISYM">     2</i>
   <i name="SYMPREC">      0.00001000</i>
  </separator>
  <separator name="dos" >
   <i type="logical" name="LORBIT"> F  </i>
   <v name="RWIGS">     -1.00000000</v>
   <i type="int" name="NEDOS">   301</i>
   <i name="EMIN">     10.00000000</i>
   <i name="EMAX">    -10.00000000</i>
   <i name="EFERMI">      0.00000000</i>
  </separator>
  <separator name="writing" >
   <i type="int" name="NWRITE">     2</i>
   <i type="logical" name="LWAVE"> F  </i>
   <i type="logical" name="LCHARG"> F  </i>
   <i type="logical" name="LPARD"> F  </i>
   <i type="logical" name="LVTOT"> F  </i>
   <i type="logical" name="LVHAR"> F  </i>
   <i type="logical" name="LELF"> F  </i>
   <i type="logical" name="LOPTICS"> F  </i>
   <v name="STM">      0.00000000      0.00000000      0.00000000      0.00000000      0.00000000      0.00000000      0.00000000</v>
  </separator>
  <separator name="performance" >
   <i type="int" name="NPAR">     4</i>
   <i type="int" name="NSIM">     4</i>
   <i type="int" name="NBLK">    -1</i>
   <i type="logical" name="LPLANE"> T  </i>
   <i type="logical" name="LSCALAPACK"> F  </i>
   <i type="logical" name="LSCAAWARE"> F  </i>
   <i type="logical" name="LSCALU"> F  </i>
   <i type="logical" name="LASYNC"> F  </i>
   <i type="logical" name="LORBITALREAL"> F  </i>
  </separator>
  <separator name="miscellaneous" >
   <i type="int" name="IDIOT">     3</i>
   <i type="logical" name="LMUSIC"> F  </i>
   <v name="POMASS">     12.01100000</v>
   <v name="DARWINR">      0.00000000</v>
   <v name="DARWINV">      1.00000000</v>
   <i type="logical" name="LCORR"> T  </i>
  </separator>
  <i type="logical" name="GGA_COMPAT"> T  </i>
  <i type="logical" name="LBERRY"> F  </i>
  <i type="int" name="ICORELEVEL">     0</i>
  <i type="logical" name="LDAU"> F  </i>
  <i type="int" name="I_CONSTRAINED_M">     0</i>
  <separator name="electronic exchange-correlation" >
   <i type="string" name="GGA">--</i>
   <i type="int" name="VOSKOWN">     0</i>
   <i type="logical" name="LHFCALC"> F  </i>
   <i type="string" name="PRECFOCK"></i>
   <i type="logical" name="LSYMGRAD"> F  </i>
   <i type="logical" name="LHFONE"> F  </i>
   <i type="logical" name="LRHFCALC"> F  </i>
   <i type="logical" name="LTHOMAS"> F  </i>
   <i type="logical" name="LMODELHF"> F  </i>
   <i name="ENCUT4O">     -1.00000000</i>
   <i type="int" name="EXXOEP">     0</i>
   <i type="int" name="FOURORBIT">     0</i>
   <i name="AEXX">      0.00000000</i>
   <i name="HFALPHA">      0.00000000</i>
   <i name="MCALPHA">      0.00000000</i>
   <i name="ALDAX">      1.00000000</i>
   <i name="AGGAX">      1.00000000</i>
   <i name="ALDAC">      1.00000000</i>
   <i name="AGGAC">      1.00000000</i>
   <i type="int" name="NKREDX">     1</i>
   <i type="int" name="NKREDY">     1</i>
   <i type="int" name="NKREDZ">     1</i>
   <i type="logical" name="SHIFTRED"> F  </i>
   <i type="logical" name="ODDONLY"> F  </i>
   <i type="logical" name="EVENONLY"> F  </i>
   <i type="int" name="LMAXFOCK">     0</i>
   <i type="int" name="NMAXFOCKAE">     0</i>
   <i type="logical" name="LFOCKAEDFT"> F  </i>
   <i name="HFSCREEN">      0.00000000</i>
   <i name="HFSCREENC">      0.00000000</i>
   <i type="int" name="NBANDSGWLOW">     0</i>
  </separator>
  <separator name="vdW DFT" >
   <i type="logical" name="LUSE_VDW"> F  </i>
   <i name="Zab_VDW">     -0.84910000</i>
   <i name="PARAM1">      0.12340000</i>
   <i name="PARAM2">      1.00000000</i>
   <i name="PARAM3">      0.00000000</i>
  </separator>
  <separator name="model GW" >
   <i type="int" name="MODEL_GW">     0</i>
   <i name="MODEL_EPS0">     31.62568521</i>
   <i name="MODEL_ALPHA">      1.00000000</i>
  </separator>
  <separator name="linear response parameters" >
   <i type="logical" name="LEPSILON"> F  </i>
   <i type="logical" name="LRPA"> F  </i>
   <i type="logical" name="LNABLA"> F  </i>
   <i type="logical" name="LVEL"> F  </i>
   <i type="int" name="KINTER">     0</i>
   <i name="CSHIFT">      0.10000000</i>
   <i name="OMEGAMAX">     -1.00000000</i>
   <i name="DEG_THRESHOLD">      0.00200000</i>
  </separator>
  <separator name="orbital magnetization" >
   <i type="logical" name="NUCIND"> F  </i>
   <v name="MAGPOS">      0.00000000      0.00000000      0.00000000</v>
   <i type="logical" name="LNICSALL"> T  </i>
   <i type="logical" name="ORBITALMAG"> F  </i>
   <i type="logical" name="LMAGBLOCH"> F  </i>
   <i type="logical" name="LCHIMAG"> F  </i>
   <i type="logical" name="LGAUGE"> T  </i>
   <i type="int" name="MAGATOM">     0</i>
   <v name="MAGDIPOL">      0.00000000      0.00000000      0.00000000</v>
   <v name="AVECCONST">      0.00000000      0.00000000      0.00000000</v>
  </separator>
  <separator name="response functions" >
   <i type="logical" name="LADDER"> F  </i>
   <i type="logical" name="LFXC"> F  </i>
   <i type="logical" name="LHARTREE"> T  </i>
   <i type="int" name="IBSE">     0</i>
   <i type="logical" name="LTCTE"> F  </i>
   <i type="logical" name="LTETE"> F  </i>
   <i type="logical" name="LTRIPLET"> F  </i>
   <i type="logical" name="LFXCEPS"> F  </i>
   <i type="logical" name="LFXHEG"> F  </i>
   <i type="logical" name="L2ORDER"> F  </i>
   <i type="logical" name="LUSEW"> F  </i>
   <i name="ENCUTGW">     -2.00000000</i>
   <i name="ENCUTGWSOFT">     -2.00000000</i>
   <i name="ENCUTLF">     -1.00000000</i>
   <i type="int" name="LMAXMP2">    -1</i>
   <i name="SCISSOR">      0.00000000</i>
   <i type="int" name="NOMEGA">     0</i>
   <i type="int" name="NOMEGAR">     0</i>
   <i type="int" name="NBANDSGW">    -1</i>
   <i type="int" name="NBANDSO">    -1</i>
   <i type="int" name="NBANDSV">    -1</i>
   <i type="int" name="NELM">   100</i>
   <i type="int" name="DIM">     3</i>
   <i type="int" name="ANTIRES">     0</i>
   <i name="OMEGAMAX">    -30.00000000</i>
   <i name="OMEGAMIN">    -30.00000000</i>
   <i name="OMEGATL">   -200.00000000</i>
   <i type="int" name="OMEGAGRID">     0</i>
   <i name="CSHIFT">     -0.10000000</i>
   <i type="logical" name="SELFENERGY"> F  </i>
   <i type="logical" name="LSPECTRAL"> F  </i>
   <i type="logical" name="ODDONLYGW"> F  </i>
   <i type="logical" name="EVENONLYGW"> F  </i>
   <i type="int" name="NKREDLFX">     1</i>
   <i type="int" name="NKREDLFY">     1</i>
   <i type="int" name="NKREDLFZ">     1</i>
   <i type="int" name="MAXMEM">  1800</i>
   <i type="int" name="TELESCOPE">     0</i>
   <i type="int" name="TAUPAR">     1</i>
  </separator>
  <separator name="External order field" >
   <i name="OFIELD_KAPPA">      0.00000000</i>
   <v name="OFIELD_K">      0.00000000      0.00000000      0.00000000</v>
   <i name="OFIELD_Q6_NEAR">      0.00000000</i>
   <i name="OFIELD_Q6_FAR">      0.00000000</i>
   <i name="OFIELD_A">      0.00000000</i>
  </separator>
 </parameters>
 <atominfo>
  <atoms>       4 </atoms>
  <types>       1 </types>
  <array name="atoms" >
   <dimension dim="1">ion</dimension>
   <field type="string">element</field>
   <field type="int">atomtype</field>
   <set>
    <rc><c>C </c><c>   1</c></rc>
    <rc><c>C </c><c>   1</c></rc>
    <rc><c>C </c><c>   1</c></rc>
    <rc><c>C </c><c>   1</c></rc>
   </set>
  </array>
  <array name="atomtypes" >
   <dimension dim="1">type</dimension>
   <field type="int">atomspertype</field>
   <field type="string">element</field>
   <field>mass</field>
   <field>valence</field>
   <field type="string">pseudopotential</field>
   <set>
    <rc><c>   4</c><c>C </c><c>     12.01100000</c><c>      4.00000000</c><c> PAW_PBE C 08Apr2002                    </c></rc>
   </set>
  </array>
 </atominfo>
 <structure name="initialpos" >
  <crystal>
   <varray name="basis" >
    <v>       4.25529366       0.00000000       0.00000000 </v>
    <v>       0.00000000       2.52861472       0.00000000 </v>
    <v>       0.00000000       0.00000000      19.59460383 </v>
   </varray>
   <i name="volume">    210.83790140 </i>
   <varray name="rec_basis" >
    <v>       0.23500141       0.00000000       0.00000000 </v>
    <v>       0.00000000       0.39547346       0.00000000 </v>
    <v>       0.00000000       0.00000000       0.05103446 </v>
   </varray>
  </crystal>
  <varray name="positions" >
   <v>       0.00063729       0.00000000       0.00000000 </v>
   <v>       0.16602938       0.50000000       0.00000000 </v>
   <v>       0.50063729       0.50000000       0.00000000 </v>
   <v>       0.66602938       0.00000000       0.00000000 </v>
  </varray>
 </structure>
 <calculation>
  <scstep>
   <time name="dav">  318.46  318.61</time>
   <time name="total">  321.17  321.59</time>
   <energy>
    <i name="alphaZ">      6.18334092 </i>
    <i name="ewald">   2450.86251044 </i>
    <i name="hartreedc">  -2880.31743276 </i>
    <i name="XCdc">     54.81987969 </i>
    <i name="pawpsdc">    151.32577238 </i>
    <i name="pawaedc">   -155.92769107 </i>
    <i name="eentropy">     -0.00167759 </i>
    <i name="bandstr">    -29.34369973 </i>
    <i name="atom">    588.62352690 </i>
    <i name="e_fr_energy">    186.22452919 </i>
    <i name="e_wo_entrp">    186.22620678 </i>
    <i name="e_0_energy">    186.22536799 </i>
   </energy>
  </scstep>
  <scstep>
   <time name="dav">  480.62  481.07</time>
   <time name="total">  480.63  481.07</time>
   <energy>
    <i name="e_fr_energy">     -8.93193267 </i>
    <i name="e_wo_entrp">     -8.93162415 </i>
    <i name="e_0_energy">     -8.93177841 </i>
   </energy>
  </scstep>
  <scstep>
   <time name="dav">  370.02  370.91</time>
   <time name="total">  403.83  404.80</time>
   <energy>
    <i name="e_fr_energy">    -38.06134769 </i>
    <i name="e_wo_entrp">    -38.06134764 </i>
    <i name="e_0_energy">    -38.06134767 </i>
   </energy>
  </scstep>
  <scstep>
   <time name="diag">   87.13   87.15</time>
   <time name="diis">  370.14  370.55</time>
   <time name="orth">    3.09    3.09</time>
   <time name="total">  496.12  496.74</time>
   <energy>
    <i name="e_fr_energy">    -37.57283376 </i>
    <i name="e_wo_entrp">    -37.57283375 </i>
    <i name="e_0_energy">    -37.57283376 </i>
   </energy>
  </scstep>
  <scstep>
   <time name="diag">   87.12   87.14</time>
   <time name="diis">  366.41  366.53</time>
   <time name="orth">    3.09    3.09</time>
   <time name="total">  492.58  493.26</time>
   <energy>
    <i name="e_fr_energy">    -36.86751421 </i>
    <i name="e_wo_entrp">    -36.86751419 </i>
    <i name="e_0_energy">    -36.86751420 </i>
   </energy>
  </scstep>
  <scstep>
   <time name="diag">   86.72   87.18</time>
   <time name="diis">  409.34  409.44</time>
   <time name="orth">    3.09    3.09</time>
   <time name="total">  535.25  535.93</time>
   <energy>
    <i name="e_fr_energy">    -36.87003499 </i>
    <i name="e_wo_entrp">    -36.87003498 </i>
    <i name="e_0_energy">    -36.87003498 </i>
   </energy>
  </scstep>
  <scstep>
   <time name="diag">   87.23   87.27</time>
   <time name="diis">  363.22  363.28</time>
   <time name="orth">    3.09    3.09</time>
   <time name="total">  489.80  490.03</time>
   <energy>
    <i name="e_fr_energy">    -36.86113556 </i>
    <i name="e_wo_entrp">    -36.86113555 </i>
    <i name="e_0_energy">    -36.86113556 </i>
   </energy>
  </scstep>
  <scstep>
   <time name="diag">   87.15   87.16</time>
   <time name="diis">  368.22  368.83</time>
   <time name="orth">    3.08    3.10</time>
   <time name="total">  494.55  495.59</time>
   <energy>
    <i name="e_fr_energy">    -36.85638800 </i>
    <i name="e_wo_entrp">    -36.85638799 </i>
    <i name="e_0_energy">    -36.85638800 </i>
   </energy>
  </scstep>
  <scstep>
   <time name="diag">   87.14   87.17</time>
   <time name="diis">  354.51  354.65</time>
   <time name="orth">    3.08    3.08</time>
   <time name="total">  481.12  482.17</time>
   <energy>
    <i name="e_fr_energy">    -36.85619665 </i>
    <i name="e_wo_entrp">    -36.85619663 </i>
    <i name="e_0_energy">    -36.85619664 </i>
   </energy>
  </scstep>
  <scstep>
   <time name="diag">   87.11   87.13</time>
   <time name="diis">  355.80  355.90</time>
   <time name="orth">    3.22    3.22</time>
   <time name="total">  482.30  482.53</time>
   <energy>
    <i name="e_fr_energy">    -36.85607067 </i>
    <i name="e_wo_entrp">    -36.85607065 </i>
    <i name="e_0_energy">    -36.85607066 </i>
   </energy>
  </scstep>
  <scstep>
   <time name="diag">   87.05   87.17</time>
   <time name="diis">  357.63  357.69</time>
   <time name="orth">    3.10    3.10</time>
   <time name="total">  483.74  483.97</time>
   <energy>
    <i name="e_fr_energy">    -36.85837705 </i>
    <i name="e_wo_entrp">    -36.85837704 </i>
    <i name="e_0_energy">    -36.85837704 </i>
   </energy>
  </scstep>
  <scstep>
   <time name="diag">   87.16   87.20</time>
   <time name="diis">  357.83  357.89</time>
   <time name="orth">    3.09    3.10</time>
   <time name="total">  484.29  484.56</time>
   <energy>
    <i name="e_fr_energy">    -36.85885400 </i>
    <i name="e_wo_entrp">    -36.85885398 </i>
    <i name="e_0_energy">    -36.85885399 </i>
   </energy>
  </scstep>
  <scstep>
   <time name="diag">   87.09   87.11</time>
   <time name="diis">  365.49  365.58</time>
   <time name="orth">    3.10    3.10</time>
   <time name="total">  491.99  492.15</time>
   <energy>
    <i name="e_fr_energy">    -36.85912949 </i>
    <i name="e_wo_entrp">    -36.85912947 </i>
    <i name="e_0_energy">    -36.85912948 </i>
   </energy>
  </scstep>
  <scstep>
   <time name="diag">   87.08   87.11</time>
   <time name="diis">  363.39  363.67</time>
   <time name="orth">    3.09    3.10</time>
   <time name="total">  489.76  490.17</time>
   <energy>
    <i name="e_fr_energy">    -36.85921073 </i>
    <i name="e_wo_entrp">    -36.85921072 </i>
    <i name="e_0_energy">    -36.85921073 </i>
   </energy>
  </scstep>
  <scstep>
   <time name="diag">   87.09   87.12</time>
   <time name="diis">  361.66  361.75</time>
   <time name="orth">    3.09    3.10</time>
   <time name="total">  488.12  488.64</time>
   <energy>
    <i name="e_fr_energy">    -36.85922405 </i>
    <i name="e_wo_entrp">    -36.85922403 </i>
    <i name="e_0_energy">    -36.85922404 </i>
   </energy>
  </scstep>
  <scstep>
   <time name="diag">   87.08   87.10</time>
   <time name="diis">  355.39  355.46</time>
   <time name="orth">    3.07    3.07</time>
   <time name="total">  481.78  481.96</time>
   <energy>
    <i name="e_fr_energy">    -36.85923744 </i>
    <i name="e_wo_entrp">    -36.85923742 </i>
    <i name="e_0_energy">    -36.85923743 </i>
   </energy>
  </scstep>
  <scstep>
   <time name="diag">   87.12   87.14</time>
   <time name="diis">  368.23  368.31</time>
   <time name="orth">    3.07    3.07</time>
   <time name="total">  494.37  494.52</time>
   <energy>
    <i name="e_fr_energy">    -36.85924361 </i>
    <i name="e_wo_entrp">    -36.85924359 </i>
    <i name="e_0_energy">    -36.85924360 </i>
   </energy>
  </scstep>
  <scstep>
   <time name="diag">   87.02   87.13</time>
   <time name="diis">  354.00  354.21</time>
   <time name="orth">    3.07    3.07</time>
   <time name="total">  480.25  480.71</time>
   <energy>
    <i name="e_fr_energy">    -36.85924473 </i>
    <i name="e_wo_entrp">    -36.85924471 </i>
    <i name="e_0_energy">    -36.85924472 </i>
   </energy>
  </scstep>
  <scstep>
   <time name="diag">   86.78   87.03</time>
   <time name="diis">  361.05  361.15</time>
   <time name="orth">    3.10    3.10</time>
   <time name="total">  486.95  487.42</time>
   <energy>
    <i name="e_fr_energy">    -36.85924547 </i>
    <i name="e_wo_entrp">    -36.85924545 </i>
    <i name="e_0_energy">    -36.85924546 </i>
   </energy>
  </scstep>
  <scstep>
   <time name="diag">   87.02   87.03</time>
   <time name="diis">  276.17  276.23</time>
   <time name="orth">    3.08    3.08</time>
   <time name="total">  402.58  402.98</time>
   <energy>
    <i name="e_fr_energy">    -36.85924552 </i>
    <i name="e_wo_entrp">    -36.85924550 </i>
    <i name="e_0_energy">    -36.85924551 </i>
   </energy>
  </scstep>
  <scstep>
   <time name="diag">   87.02   87.03</time>
   <time name="diis">  267.84  267.89</time>
   <time name="orth">    3.08    3.08</time>
   <time name="total">  394.00  394.12</time>
   <energy>
    <i name="e_fr_energy">    -36.85924553 </i>
    <i name="e_wo_entrp">    -36.85924552 </i>
    <i name="e_0_energy">    -36.85924553 </i>
   </energy>
  </scstep>
  <scstep>
   <time name="diag">   87.05   87.08</time>
   <time name="diis">  244.84  244.93</time>
   <time name="orth">    3.08    3.08</time>
   <time name="total">  370.97  371.27</time>
   <energy>
    <i name="e_fr_energy">    -36.85924553 </i>
    <i name="e_wo_entrp">    -36.85924552 </i>
    <i name="e_0_energy">    -36.85924553 </i>
   </energy>
  </scstep>
  <scstep>
   <time name="diag">   87.08   87.09</time>
   <time name="diis">  234.32  234.51</time>
   <time name="orth">    3.08    3.10</time>
   <time name="total">  360.42  360.87</time>
   <energy>
    <i name="e_fr_energy">    -36.85924553 </i>
    <i name="e_wo_entrp">    -36.85924552 </i>
    <i name="e_0_energy">    -36.85924553 </i>
   </energy>
  </scstep>
  <scstep>
   <time name="diag">   86.61   87.07</time>
   <time name="diis">  223.00  224.02</time>
   <time name="orth">    3.08    3.10</time>
   <time name="total">  348.64  350.35</time>
   <energy>
    <i name="e_fr_energy">    -36.85924553 </i>
    <i name="e_wo_entrp">    -36.85924552 </i>
    <i name="e_0_energy">    -36.85924553 </i>
   </energy>
  </scstep>
  <scstep>
   <time name="diag">   86.65   87.07</time>
   <time name="diis">  214.86  214.97</time>
   <time name="orth">    3.09    3.09</time>
   <time name="total">  307.22  307.78</time>
   <energy>
    <i name="alphaZ">      6.18334092 </i>
    <i name="ewald">   2450.86251044 </i>
    <i name="hartreedc">  -2945.14467833 </i>
    <i name="XCdc">     57.14539523 </i>
    <i name="pawpsdc">    268.89915134 </i>
    <i name="pawaedc">   -274.01100100 </i>
    <i name="eentropy">     -0.00000002 </i>
    <i name="bandstr">   -189.41749103 </i>
    <i name="atom">    588.62352690 </i>
    <i name="e_fr_energy">    -36.85924553 </i>
    <i name="e_wo_entrp">    -36.85924552 </i>
    <i name="e_0_energy">    -36.85924553 </i>
   </energy>
  </scstep>
  <structure>
   <crystal>
    <varray name="basis" >
     <v>       4.25529366       0.00000000       0.00000000 </v>
     <v>       0.00000000       2.52861472       0.00000000 </v>
     <v>       0.00000000       0.00000000      19.59460383 </v>
    </varray>
    <i name="volume">    210.83790140 </i>
    <varray name="rec_basis" >
     <v>       0.23500141       0.00000000       0.00000000 </v>
     <v>       0.00000000       0.39547346       0.00000000 </v>
     <v>       0.00000000       0.00000000       0.05103446 </v>
    </varray>
   </crystal>
   <varray name="positions" >
    <v>       0.00063729       0.00000000       0.00000000 </v>
    <v>       0.16602938       0.50000000       0.00000000 </v>
    <v>       0.50063729       0.50000000       0.00000000 </v>
    <v>       0.66602938       0.00000000       0.00000000 </v>
   </varray>
  </structure>
  <varray name="forces" >
   <v>      -0.00206181      -0.00000000       0.00000000 </v>
   <v>       0.00206181       0.00000000       0.00000000 </v>
   <v>      -0.00206181      -0.00000000       0.00000000 </v>
   <v>       0.00206181       0.00000000       0.00000000 </v>
  </varray>
  <varray name="stress" >
   <v>      -0.01424653       0.00000000       0.00000000 </v>
   <v>       0.00000000     -40.66503941       0.00000000 </v>
   <v>       0.00000000       0.00000000      -0.01019287 </v>
  </varray>
  <energy>
   <i name="e_fr_energy">    -36.85924553 </i>
   <i name="e_wo_entrp">    -36.85924553 </i>
   <i name="e_0_energy">     -0.00000002 </i>
  </energy>
  <time name="totalsc">11348.5911361.42</time>
 </calculation>
 <calculation>
  <scstep>
   <time name="dav">  335.35  335.59</time>
   <time name="total">  371.49  371.74</time>
   <energy>
    <i name="alphaZ">      6.18334092 </i>
    <i name="ewald">   2450.86461061 </i>
    <i name="hartreedc">  -2945.14559042 </i>
    <i name="XCdc">     57.14545522 </i>
    <i name="pawpsdc">    268.89914898 </i>
    <i name="pawaedc">   -274.01099858 </i>
    <i name="eentropy">     -0.00000001 </i>
    <i name="bandstr">   -189.41873790 </i>
    <i name="atom">    588.62352690 </i>
    <i name="e_fr_energy">    -36.85924428 </i>
    <i name="e_wo_entrp">    -36.85924426 </i>
    <i name="e_0_energy">    -36.85924427 </i>
   </energy>
  </scstep>
  <scstep>
   <time name="diag">   87.11   87.13</time>
   <time name="diis">  352.28  352.36</time>
   <time name="orth">    3.10    3.10</time>
   <time name="total">  478.80  478.91</time>
   <energy>
    <i name="e_fr_energy">    -36.85924437 </i>
    <i name="e_wo_entrp">    -36.85924435 </i>
    <i name="e_0_energy">    -36.85924436 </i>
   </energy>
  </scstep>
  <scstep>
   <time name="diag">   86.78   87.09</time>
   <time name="diis">  355.73  357.16</time>
   <time name="orth">    3.08    3.08</time>
   <time name="total">  481.66  483.79</time>
   <energy>
    <i name="e_fr_energy">    -36.85924433 </i>
    <i name="e_wo_entrp">    -36.85924432 </i>
    <i name="e_0_energy">    -36.85924433 </i>
   </energy>
  </scstep>
  <scstep>
   <time name="diag">   86.99   87.09</time>
   <time name="diis">  363.44  363.55</time>
   <time name="orth">    3.08    3.08</time>
   <time name="total">  489.79  490.06</time>
   <energy>
    <i name="e_fr_energy">    -36.85924432 </i>
    <i name="e_wo_entrp">    -36.85924431 </i>
    <i name="e_0_energy">    -36.85924432 </i>
   </energy>
  </scstep>
  <scstep>
   <time name="diag">   87.10   87.11</time>
   <time name="diis">  342.42  342.52</time>
   <time name="orth">    3.08    3.08</time>
   <time name="total">  468.91  469.37</time>
   <energy>
    <i name="e_fr_energy">    -36.85924433 </i>
    <i name="e_wo_entrp">    -36.85924431 </i>
    <i name="e_0_energy">    -36.85924432 </i>
   </energy>
  </scstep>
  <scstep>
   <time name="diag">   86.93   87.10</time>
   <time name="diis">  248.21  248.27</time>
   <time name="orth">    3.08    3.08</time>
   <time name="total">  374.52  375.13</time>
   <energy>
    <i name="e_fr_energy">    -36.85924433 </i>
    <i name="e_wo_entrp">    -36.85924431 </i>
    <i name="e_0_energy">    -36.85924432 </i>
   </energy>
  </scstep>
  <scstep>
   <time name="diag">   87.05   87.07</time>
   <time name="diis">  241.17  241.30</time>
   <time name="orth">    3.09    3.09</time>
   <time name="total">  333.96  334.10</time>
   <energy>
    <i name="alphaZ">      6.18334092 </i>
    <i name="ewald">   2450.86461061 </i>
    <i name="hartreedc">  -2945.14643265 </i>
    <i name="XCdc">     57.14549107 </i>
    <i name="pawpsdc">    268.90277974 </i>
    <i name="pawaedc">   -274.01464537 </i>
    <i name="eentropy">     -0.00000001 </i>
    <i name="bandstr">   -189.41791553 </i>
    <i name="atom">    588.62352690 </i>
    <i name="e_fr_energy">    -36.85924433 </i>
    <i name="e_wo_entrp">    -36.85924431 </i>
    <i name="e_0_energy">    -36.85924432 </i>
   </energy>
  </scstep>
  <structure>
   <crystal>
    <varray name="basis" >
     <v>       4.25529366       0.00000000       0.00000000 </v>
     <v>       0.00000000       2.52861472       0.00000000 </v>
     <v>       0.00000000       0.00000000      19.59460383 </v>
    </varray>
    <i name="volume">    210.83790140 </i>
    <varray name="rec_basis" >
     <v>       0.23500141       0.00000000       0.00000000 </v>
     <v>       0.00000000       0.39547346       0.00000000 </v>
     <v>       0.00000000       0.00000000       0.05103446 </v>
    </varray>
   </crystal>
   <varray name="positions" >
    <v>       0.00061391      -0.00000000       0.00000000 </v>
    <v>       0.16605275       0.50000000       0.00000000 </v>
    <v>       0.50061391       0.50000000       0.00000000 </v>
    <v>       0.66605275       0.00000000       0.00000000 </v>
   </varray>
  </structure>
  <varray name="forces" >
   <v>       0.00823432       0.00000000       0.00000000 </v>
   <v>      -0.00823432      -0.00000000       0.00000000 </v>
   <v>       0.00823432      -0.00000000       0.00000000 </v>
   <v>      -0.00823432       0.00000000       0.00000000 </v>
  </varray>
  <varray name="stress" >
   <v>       0.02677503       0.00000000       0.00000000 </v>
   <v>       0.00000000     -40.68961948       0.00000000 </v>
   <v>       0.00000000       0.00000000      -0.01011945 </v>
  </varray>
  <energy>
   <i name="e_fr_energy">    -36.85924433 </i>
   <i name="e_wo_entrp">    -36.85924432 </i>
   <i name="e_0_energy">     -0.00000001 </i>
  </energy>
  <time name="totalsc"> 3104.66 3108.93</time>
 </calculation>
 <calculation>
  <scstep>
   <time name="dav">  342.82  342.90</time>
   <time name="total">  379.14  379.34</time>
   <energy>
    <i name="alphaZ">      6.18334092 </i>
    <i name="ewald">   2450.86292990 </i>
    <i name="hartreedc">  -2945.14571082 </i>
    <i name="XCdc">     57.14544302 </i>
    <i name="pawpsdc">    268.90277069 </i>
    <i name="pawaedc">   -274.01463629 </i>
    <i name="eentropy">     -0.00000002 </i>
    <i name="bandstr">   -189.41690994 </i>
    <i name="atom">    588.62352690 </i>
    <i name="e_fr_energy">    -36.85924563 </i>
    <i name="e_wo_entrp">    -36.85924561 </i>
    <i name="e_0_energy">    -36.85924562 </i>
   </energy>
  </scstep>
  <scstep>
   <time name="diag">   87.15   87.17</time>
   <time name="diis">  353.35  353.42</time>
   <time name="orth">    3.10    3.10</time>
   <time name="total">  479.95  480.06</time>
   <energy>
    <i name="e_fr_energy">    -36.85924567 </i>
    <i name="e_wo_entrp">    -36.85924565 </i>
    <i name="e_0_energy">    -36.85924566 </i>
   </energy>
  </scstep>
  <scstep>
   <time name="diag">   87.22   87.25</time>
   <time name="diis">  357.50  357.58</time>
   <time name="orth">    3.09    3.10</time>
   <time name="total">  484.18  485.04</time>
   <energy>
    <i name="e_fr_energy">    -36.85924562 </i>
    <i name="e_wo_entrp">    -36.85924561 </i>
    <i name="e_0_energy">    -36.85924562 </i>
   </energy>
  </scstep>
  <scstep>
   <time name="diag">   87.14   87.16</time>
   <time name="diis">  362.51  362.66</time>
   <time name="orth">    3.09    3.09</time>
   <time name="total">  489.10  489.42</time>
   <energy>
    <i name="e_fr_energy">    -36.85924562 </i>
    <i name="e_wo_entrp">    -36.85924561 </i>
    <i name="e_0_energy">    -36.85924561 </i>
   </energy>
  </scstep>
  <scstep>
   <time name="diag">   87.12   87.14</time>
   <time name="diis">  310.23  310.36</time>
   <time name="orth">    3.08    3.08</time>
   <time name="total">  436.77  437.02</time>
   <energy>
    <i name="e_fr_energy">    -36.85924562 </i>
    <i name="e_wo_entrp">    -36.85924560 </i>
    <i name="e_0_energy">    -36.85924561 </i>
   </energy>
  </scstep>
  <scstep>
   <time name="diag">   87.10   87.13</time>
   <time name="diis">  242.15  242.20</time>
   <time name="orth">    3.08    3.08</time>
   <time name="total">  368.69  368.79</time>
   <energy>
    <i name="e_fr_energy">    -36.85924562 </i>
    <i name="e_wo_entrp">    -36.85924561 </i>
    <i name="e_0_energy">    -36.85924561 </i>
   </energy>
  </scstep>
  <scstep>
   <time name="diag">   87.07   87.18</time>
   <time name="diis">  238.25  239.44</time>
   <time name="orth">    3.08    3.08</time>
   <time name="total">  364.69  366.16</time>
   <energy>
    <i name="e_fr_energy">    -36.85924562 </i>
    <i name="e_wo_entrp">    -36.85924560 </i>
    <i name="e_0_energy">    -36.85924561 </i>
   </energy>
  </scstep>
  <scstep>
   <time name="diag">   86.66   87.15</time>
   <time name="diis">  222.41  224.73</time>
   <time name="orth">    3.07    3.09</time>
   <time name="total">  348.17  351.41</time>
   <energy>
    <i name="e_fr_energy">    -36.85924562 </i>
    <i name="e_wo_entrp">    -36.85924560 </i>
    <i name="e_0_energy">    -36.85924561 </i>
   </energy>
  </scstep>
  <scstep>
   <time name="diag">   86.26   87.15</time>
   <time name="diis">  214.19  215.74</time>
   <time name="orth">    3.08    3.08</time>
   <time name="total">  339.75  342.39</time>
   <energy>
    <i name="e_fr_energy">    -36.85924562 </i>
    <i name="e_wo_entrp">    -36.85924560 </i>
    <i name="e_0_energy">    -36.85924561 </i>
   </energy>
  </scstep>
  <scstep>
   <time name="diag">   86.90   87.11</time>
   <time name="diis">  205.84  206.60</time>
   <time name="orth">    3.08    3.10</time>
   <time name="total">  332.14  333.18</time>
   <energy>
    <i name="e_fr_energy">    -36.85924562 </i>
    <i name="e_wo_entrp">    -36.85924560 </i>
    <i name="e_0_energy">    -36.85924561 </i>
   </energy>
  </scstep>
  <scstep>
   <time name="diag">   87.08   87.15</time>
   <time name="diis">  199.43  199.50</time>
   <time name="orth">    3.10    3.10</time>
   <time name="total">  292.25  292.40</time>
   <energy>
    <i name="alphaZ">      6.18334092 </i>
    <i name="ewald">   2450.86292990 </i>
    <i name="hartreedc">  -2945.14503814 </i>
    <i name="XCdc">     57.14541426 </i>
    <i name="pawpsdc">    268.89986927 </i>
    <i name="pawaedc">   -274.01172206 </i>
    <i name="eentropy">     -0.00000002 </i>
    <i name="bandstr">   -189.41756666 </i>
    <i name="atom">    588.62352690 </i>
    <i name="e_fr_energy">    -36.85924562 </i>
    <i name="e_wo_entrp">    -36.85924560 </i>
    <i name="e_0_energy">    -36.85924561 </i>
   </energy>
  </scstep>
  <structure>
   <crystal>
    <varray name="basis" >
     <v>       4.25529366       0.00000000       0.00000000 </v>
     <v>       0.00000000       2.52861472       0.00000000 </v>
     <v>       0.00000000       0.00000000      19.59460383 </v>
    </varray>
    <i name="volume">    210.83790140 </i>
    <varray name="rec_basis" >
     <v>       0.23500141       0.00000000       0.00000000 </v>
     <v>       0.00000000       0.39547346       0.00000000 </v>
     <v>       0.00000000       0.00000000       0.05103446 </v>
    </varray>
   </crystal>
   <varray name="positions" >
    <v>       0.00063261       0.00000000       0.00000000 </v>
    <v>       0.16603406       0.50000000       0.00000000 </v>
    <v>       0.50063261       0.50000000       0.00000000 </v>
    <v>       0.66603406       0.00000000       0.00000000 </v>
   </varray>
  </structure>
  <varray name="forces" >
   <v>       0.00000169      -0.00000000      -0.00000000 </v>
   <v>      -0.00000169       0.00000000       0.00000000 </v>
   <v>       0.00000169       0.00000000      -0.00000000 </v>
   <v>      -0.00000169       0.00000000       0.00000000 </v>
  </varray>
  <varray name="stress" >
   <v>      -0.00599891       0.00000000       0.00000000 </v>
   <v>       0.00000000     -40.66998740       0.00000000 </v>
   <v>       0.00000000       0.00000000      -0.01020887 </v>
  </varray>
  <energy>
   <i name="e_fr_energy">    -36.85924562 </i>
   <i name="e_wo_entrp">    -36.85924561 </i>
   <i name="e_0_energy">     -0.00000002 </i>
  </energy>
  <time name="totalsc"> 4420.18 4430.80</time>
 </calculation>
 <calculation>
  <scstep>
   <time name="dav">  270.92  271.55</time>
   <time name="total">  307.39  308.04</time>
   <energy>
    <i name="alphaZ">      6.18334092 </i>
    <i name="ewald">   2450.86292956 </i>
    <i name="hartreedc">  -2945.14503421 </i>
    <i name="XCdc">     57.14541419 </i>
    <i name="pawpsdc">    268.89986780 </i>
    <i name="pawaedc">   -274.01172057 </i>
    <i name="eentropy">     -0.00000002 </i>
    <i name="bandstr">   -189.41757020 </i>
    <i name="atom">    588.62352690 </i>
    <i name="e_fr_energy">    -36.85924562 </i>
    <i name="e_wo_entrp">    -36.85924560 </i>
    <i name="e_0_energy">    -36.85924561 </i>
   </energy>
  </scstep>
  <scstep>
   <time name="diag">   86.88   87.14</time>
   <time name="diis">  168.35  169.72</time>
   <time name="orth">    3.07    3.08</time>
   <time name="total">  294.38  296.40</time>
   <energy>
    <i name="e_fr_energy">    -36.85924562 </i>
    <i name="e_wo_entrp">    -36.85924560 </i>
    <i name="e_0_energy">    -36.85924561 </i>
   </energy>
  </scstep>
  <scstep>
   <time name="diag">   86.60   87.18</time>
   <time name="diis">  167.80  167.92</time>
   <time name="orth">    3.08    3.08</time>
   <time name="total">  293.68  294.58</time>
   <energy>
    <i name="e_fr_energy">    -36.85924562 </i>
    <i name="e_wo_entrp">    -36.85924560 </i>
    <i name="e_0_energy">    -36.85924561 </i>
   </energy>
  </scstep>
  <scstep>
   <time name="diag">   86.66   87.14</time>
   <time name="diis">  166.58  167.32</time>
   <time name="orth">    3.09    3.09</time>
   <time name="total">  292.66  293.97</time>
   <energy>
    <i name="e_fr_energy">    -36.85924562 </i>
    <i name="e_wo_entrp">    -36.85924561 </i>
    <i name="e_0_energy">    -36.85924561 </i>
   </energy>
  </scstep>
  <scstep>
   <time name="diag">   86.76   87.24</time>
   <time name="diis">  166.36  166.79</time>
   <time name="orth">    3.09    3.10</time>
   <time name="total">  292.46  293.63</time>
   <energy>
    <i name="e_fr_energy">    -36.85924562 </i>
    <i name="e_wo_entrp">    -36.85924560 </i>
    <i name="e_0_energy">    -36.85924561 </i>
   </energy>
  </scstep>
  <scstep>
   <time name="diag">   86.79   87.09</time>
   <time name="diis">  165.08  165.86</time>
   <time name="orth">    3.07    3.08</time>
   <time name="total">  257.56  258.69</time>
   <energy>
    <i name="alphaZ">      6.18334092 </i>
    <i name="ewald">   2450.86292956 </i>
    <i name="hartreedc">  -2945.14503724 </i>
    <i name="XCdc">     57.14541432 </i>
    <i name="pawpsdc">    268.89986965 </i>
    <i name="pawaedc">   -274.01172245 </i>
    <i name="eentropy">     -0.00000002 </i>
    <i name="bandstr">   -189.41756728 </i>
    <i name="atom">    588.62352690 </i>
    <i name="e_fr_energy">    -36.85924562 </i>
    <i name="e_wo_entrp">    -36.85924560 </i>
    <i name="e_0_energy">    -36.85924561 </i>
   </energy>
  </scstep>
  <structure>
   <crystal>
    <varray name="basis" >
     <v>       4.25529366       0.00000000       0.00000000 </v>
     <v>       0.00000000       2.52861472       0.00000000 </v>
     <v>       0.00000000       0.00000000      19.59460383 </v>
    </varray>
    <i name="volume">    210.83790140 </i>
    <varray name="rec_basis" >
     <v>       0.23500141       0.00000000       0.00000000 </v>
     <v>       0.00000000       0.39547346       0.00000000 </v>
     <v>       0.00000000       0.00000000       0.05103446 </v>
    </varray>
   </crystal>
   <varray name="positions" >
    <v>       0.00063261      -0.00000000      -0.00000000 </v>
    <v>       0.16603405       0.50000000       0.00000000 </v>
    <v>       0.50063261       0.50000000      -0.00000000 </v>
    <v>       0.66603405       0.00000000       0.00000000 </v>
   </varray>
  </structure>
  <varray name="forces" >
   <v>      -0.00000090       0.00000000       0.00000000 </v>
   <v>       0.00000090      -0.00000000      -0.00000000 </v>
   <v>      -0.00000090      -0.00000000       0.00000000 </v>
   <v>       0.00000090       0.00000000      -0.00000000 </v>
  </varray>
  <varray name="stress" >
   <v>      -0.00602488       0.00000000       0.00000000 </v>
   <v>       0.00000000     -40.66996915       0.00000000 </v>
   <v>       0.00000000       0.00000000      -0.01017721 </v>
  </varray>
  <energy>
   <i name="e_fr_energy">    -36.85924562 </i>
   <i name="e_wo_entrp">    -36.85924561 </i>
   <i name="e_0_energy">     -0.00000002 </i>
  </energy>
  <time name="totalsc"> 1836.00 1844.19</time>
  <eigenvalues>
   <array>
    <dimension dim="1">band</dimension>
    <dimension dim="2">kpoint</dimension>
    <dimension dim="3">spin</dimension>
    <field>eigene</field>
    <field>occ</field>
    <set>
     <set comment="spin 1">
      <set comment="kpoint 1">
       <r>  -22.0826    1.0000 </r>
       <r>  -16.7066    1.0000 </r>
       <r>  -15.8653    1.0000 </r>
       <r>  -10.2269    1.0000 </r>
       <r>   -9.4721    1.0000 </r>
       <r>   -5.9899    1.0000 </r>
       <r>   -5.7424    1.0000 </r>
       <r>   -4.9062    1.0000 </r>
       <r>   -1.1425    0.0000 </r>
       <r>    0.5446    0.0000 </r>
       <r>    1.3427    0.0000 </r>
       <r>    1.7361    0.0000 </r>
      </set>
      <set comment="kpoint 2">
       <r>  -22.0722    1.0000 </r>
       <r>  -16.9027    1.0000 </r>
       <r>  -15.6542    1.0000 </r>
       <r>  -10.2146    1.0000 </r>
       <r>   -9.4617    1.0000 </r>
       <r>   -6.0137    1.0000 </r>
       <r>   -5.7826    1.0000 </r>
       <r>   -4.9763    1.0000 </r>
       <r>   -1.0575    0.0000 </r>
       <r>    0.5586    0.0000 </r>
       <r>    1.3569    0.0000 </r>
       <r>    1.7505    0.0000 </r>
      </set>
      <set comment="kpoint 3">
       <r>  -22.0411    1.0000 </r>
       <r>  -17.2690    1.0000 </r>
       <r>  -15.2429    1.0000 </r>
       <r>  -10.1777    1.0000 </r>
       <r>   -9.4305    1.0000 </r>
       <r>   -6.0835    1.0000 </r>
       <r>   -5.9018    1.0000 </r>
       <r>   -5.1696    1.0000 </r>
       <r>   -0.8200    0.0000 </r>
       <r>    0.6008    0.0000 </r>
       <r>    1.3995    0.0000 </r>
       <r>    1.7936    0.0000 </r>
      </set>
      <set comment="kpoint 4">
       <r>  -21.9893    1.0000 </r>
       <r>  -17.6619    1.0000 </r>
       <r>  -14.7755    1.0000 </r>
       <r>  -10.1162    1.0000 </r>
       <r>   -9.3787    1.0000 </r>
       <r>   -6.1955    1.0000 </r>
       <r>   -6.0957    1.0000 </r>
       <r>   -5.4488    1.0000 </r>
       <r>   -0.4677    0.0000 </r>
       <r>    0.6710    0.0000 </r>
       <r>    1.4704    0.0000 </r>
       <r>    1.8655    0.0000 </r>
      </set>
      <set comment="kpoint 5">
       <r>  -21.9168    1.0000 </r>
       <r>  -18.0515    1.0000 </r>
       <r>  -14.2821    1.0000 </r>
       <r>  -10.0303    1.0000 </r>
       <r>   -9.3065    1.0000 </r>
       <r>   -6.3581    1.0000 </r>
       <r>   -6.3441    1.0000 </r>
       <r>   -5.7787    1.0000 </r>
       <r>   -0.0366    0.0000 </r>
       <r>    0.7694    0.0000 </r>
       <r>    1.5698    0.0000 </r>
       <r>    1.9661    0.0000 </r>
      </set>
      <set comment="kpoint 6">
       <r>  -21.8236    1.0000 </r>
       <r>  -18.4296    1.0000 </r>
       <r>  -13.7718    1.0000 </r>
       <r>   -9.9201    1.0000 </r>
       <r>   -9.2144    1.0000 </r>
       <r>   -6.6814    1.0000 </r>
       <r>   -6.5223    1.0000 </r>
       <r>   -6.1341    1.0000 </r>
       <r>    0.4467    0.0000 </r>
       <r>    0.8958    0.0000 </r>
       <r>    1.6974    0.0000 </r>
       <r>    2.0955    0.0000 </r>
      </set>
      <set comment="kpoint 7">
       <r>  -21.7099    1.0000 </r>
       <r>  -18.7929    1.0000 </r>
       <r>  -13.2486    1.0000 </r>
       <r>   -9.7858    1.0000 </r>
       <r>   -9.1027    1.0000 </r>
       <r>   -7.0573    1.0000 </r>
       <r>   -6.7233    1.0000 </r>
       <r>   -6.4987    1.0000 </r>
       <r>    0.9644    0.0000 </r>
       <r>    1.0503    0.0000 </r>
       <r>    1.8534    0.0000 </r>
       <r>    2.2536    0.0000 </r>
      </set>
      <set comment="kpoint 8">
       <r>  -21.5757    1.0000 </r>
       <r>  -19.1398    1.0000 </r>
       <r>  -12.7155    1.0000 </r>
       <r>   -9.6276    1.0000 </r>
       <r>   -8.9722    1.0000 </r>
       <r>   -7.4773    1.0000 </r>
       <r>   -6.9401    1.0000 </r>
       <r>   -6.8623    1.0000 </r>
       <r>    1.2328    0.0000 </r>
       <r>    1.5041    0.0000 </r>
       <r>    2.0375    0.0000 </r>
       <r>    2.4405    0.0000 </r>
      </set>
      <set comment="kpoint 9">
       <r>  -21.4211    1.0000 </r>
       <r>  -19.4692    1.0000 </r>
       <r>  -12.1749    1.0000 </r>
       <r>   -9.4458    1.0000 </r>
       <r>   -8.8236    1.0000 </r>
       <r>   -7.9338    1.0000 </r>
       <r>   -7.2181    1.0000 </r>
       <r>   -7.1667    1.0000 </r>
       <r>    1.4432    0.0000 </r>
       <r>    2.0565    0.0000 </r>
       <r>    2.2498    0.0000 </r>
       <r>    2.6561    0.0000 </r>
      </set>
      <set comment="kpoint 10">
       <r>  -21.2462    1.0000 </r>
       <r>  -19.7805    1.0000 </r>
       <r>  -11.6292    1.0000 </r>
       <r>   -9.2408    1.0000 </r>
       <r>   -8.6580    1.0000 </r>
       <r>   -8.4192    1.0000 </r>
       <r>   -7.5617    1.0000 </r>
       <r>   -7.3974    1.0000 </r>
       <r>    1.6816    0.0000 </r>
       <r>    2.4900    0.0000 </r>
       <r>    2.6139    0.0000 </r>
       <r>    2.9004    0.0000 </r>
      </set>
      <set comment="kpoint 11">
       <r>  -21.0511    1.0000 </r>
       <r>  -20.0732    1.0000 </r>
       <r>  -11.0809    1.0000 </r>
       <r>   -9.0132    1.0000 </r>
       <r>   -8.9273    1.0000 </r>
       <r>   -8.4765    1.0000 </r>
       <r>   -7.8900    1.0000 </r>
       <r>   -7.6279    1.0000 </r>
       <r>    1.9478    0.0000 </r>
       <r>    2.7579    0.0000 </r>
       <r>    3.1665    0.0000 </r>
       <r>    3.1734    0.0000 </r>
      </set>
      <set comment="kpoint 12">
       <r>  -20.8361    1.0000 </r>
       <r>  -20.3469    1.0000 </r>
       <r>  -10.5330    1.0000 </r>
       <r>   -9.4522    1.0000 </r>
       <r>   -8.7634    1.0000 </r>
       <r>   -8.2808    1.0000 </r>
       <r>   -8.2007    1.0000 </r>
       <r>   -7.8540    1.0000 </r>
       <r>    2.2417    0.0000 </r>
       <r>    2.9114    0.0000 </r>
       <r>    3.0527    0.0000 </r>
       <r>    3.4758    0.0000 </r>
      </set>
      <set comment="kpoint 13">
       <r>  -20.6013    1.0000 </r>
       <r>  -20.6013    1.0000 </r>
       <r>   -9.9889    1.0000 </r>
       <r>   -9.9889    1.0000 </r>
       <r>   -8.4922    1.0000 </r>
       <r>   -8.4922    1.0000 </r>
       <r>   -8.0725    1.0000 </r>
       <r>   -8.0725    1.0000 </r>
       <r>    2.5630    0.0000 </r>
       <r>    2.5630    0.0000 </r>
       <r>    3.3706    0.0000 </r>
       <r>    3.3706    0.0000 </r>
      </set>
      <set comment="kpoint 14">
       <r>  -22.0696    1.0000 </r>
       <r>  -16.6954    1.0000 </r>
       <r>  -15.8549    1.0000 </r>
       <r>  -10.2114    1.0000 </r>
       <r>   -9.5303    1.0000 </r>
       <r>   -6.0436    1.0000 </r>
       <r>   -5.7746    1.0000 </r>
       <r>   -4.8904    1.0000 </r>
       <r>   -1.1486    0.0000 </r>
       <r>    0.5622    0.0000 </r>
       <r>    1.3606    0.0000 </r>
       <r>    1.7542    0.0000 </r>
      </set>
      <set comment="kpoint 15">
       <r>  -22.0592    1.0000 </r>
       <r>  -16.8913    1.0000 </r>
       <r>  -15.6440    1.0000 </r>
       <r>  -10.1991    1.0000 </r>
       <r>   -9.5199    1.0000 </r>
       <r>   -6.0703    1.0000 </r>
       <r>   -5.8110    1.0000 </r>
       <r>   -4.9607    1.0000 </r>
       <r>   -1.0636    0.0000 </r>
       <r>    0.5762    0.0000 </r>
       <r>    1.3748    0.0000 </r>
       <r>    1.7685    0.0000 </r>
      </set>
      <set comment="kpoint 16">
       <r>  -22.0281    1.0000 </r>
       <r>  -17.2575    1.0000 </r>
       <r>  -15.2331    1.0000 </r>
       <r>  -10.1622    1.0000 </r>
       <r>   -9.4886    1.0000 </r>
       <r>   -6.1502    1.0000 </r>
       <r>   -5.9180    1.0000 </r>
       <r>   -5.1544    1.0000 </r>
       <r>   -0.8261    0.0000 </r>
       <r>    0.6184    0.0000 </r>
       <r>    1.4173    0.0000 </r>
       <r>    1.8117    0.0000 </r>
      </set>
      <set comment="kpoint 17">
       <r>  -21.9763    1.0000 </r>
       <r>  -17.6501    1.0000 </r>
       <r>  -14.7662    1.0000 </r>
       <r>  -10.1008    1.0000 </r>
       <r>   -9.4366    1.0000 </r>
       <r>   -6.2850    1.0000 </r>
       <r>   -6.0862    1.0000 </r>
       <r>   -5.4340    1.0000 </r>
       <r>   -0.4740    0.0000 </r>
       <r>    0.6886    0.0000 </r>
       <r>    1.4883    0.0000 </r>
       <r>    1.8835    0.0000 </r>
      </set>
      <set comment="kpoint 18">
       <r>  -21.9038    1.0000 </r>
       <r>  -18.0395    1.0000 </r>
       <r>  -14.2735    1.0000 </r>
       <r>  -10.0149    1.0000 </r>
       <r>   -9.3642    1.0000 </r>
       <r>   -6.4847    1.0000 </r>
       <r>   -6.2938    1.0000 </r>
       <r>   -5.7642    1.0000 </r>
       <r>   -0.0436    0.0000 </r>
       <r>    0.7870    0.0000 </r>
       <r>    1.5876    0.0000 </r>
       <r>    1.9842    0.0000 </r>
      </set>
      <set comment="kpoint 19">
       <r>  -21.8106    1.0000 </r>
       <r>  -18.4175    1.0000 </r>
       <r>  -13.7639    1.0000 </r>
       <r>   -9.9048    1.0000 </r>
       <r>   -9.2717    1.0000 </r>
       <r>   -6.7637    1.0000 </r>
       <r>   -6.5126    1.0000 </r>
       <r>   -6.1197    1.0000 </r>
       <r>    0.4387    0.0000 </r>
       <r>    0.9134    0.0000 </r>
       <r>    1.7152    0.0000 </r>
       <r>    2.1136    0.0000 </r>
      </set>
      <set comment="kpoint 20">
       <r>  -21.6969    1.0000 </r>
       <r>  -18.7806    1.0000 </r>
       <r>  -13.2417    1.0000 </r>
       <r>   -9.7705    1.0000 </r>
       <r>   -9.1596    1.0000 </r>
       <r>   -7.1141    1.0000 </r>
       <r>   -6.7354    1.0000 </r>
       <r>   -6.4844    1.0000 </r>
       <r>    0.9549    0.0000 </r>
       <r>    1.0679    0.0000 </r>
       <r>    1.8712    0.0000 </r>
       <r>    2.2717    0.0000 </r>
      </set>
      <set comment="kpoint 21">
       <r>  -21.5627    1.0000 </r>
       <r>  -19.1274    1.0000 </r>
       <r>  -12.7098    1.0000 </r>
       <r>   -9.6123    1.0000 </r>
       <r>   -9.0285    1.0000 </r>
       <r>   -7.5183    1.0000 </r>
       <r>   -6.9650    1.0000 </r>
       <r>   -6.8479    1.0000 </r>
       <r>    1.2504    0.0000 </r>
       <r>    1.4929    0.0000 </r>
       <r>    2.0553    0.0000 </r>
       <r>    2.4586    0.0000 </r>
      </set>
      <set comment="kpoint 22">
       <r>  -21.4081    1.0000 </r>
       <r>  -19.4567    1.0000 </r>
       <r>  -12.1706    1.0000 </r>
       <r>   -9.4306    1.0000 </r>
       <r>   -8.8792    1.0000 </r>
       <r>   -7.9635    1.0000 </r>
       <r>   -7.2037    1.0000 </r>
       <r>   -7.1998    1.0000 </r>
       <r>    1.4609    0.0000 </r>
       <r>    2.0434    0.0000 </r>
       <r>    2.2676    0.0000 </r>
       <r>    2.6742    0.0000 </r>
      </set>
      <set comment="kpoint 23">
       <r>  -21.2333    1.0000 </r>
       <r>  -19.7680    1.0000 </r>
       <r>  -11.6266    1.0000 </r>
       <r>   -9.2258    1.0000 </r>
       <r>   -8.7125    1.0000 </r>
       <r>   -8.4405    1.0000 </r>
       <r>   -7.5472    1.0000 </r>
       <r>   -7.4366    1.0000 </r>
       <r>    1.6993    0.0000 </r>
       <r>    2.5078    0.0000 </r>
       <r>    2.5987    0.0000 </r>
       <r>    2.9185    0.0000 </r>
      </set>
      <set comment="kpoint 24">
       <r>  -21.0383    1.0000 </r>
       <r>  -20.0606    1.0000 </r>
       <r>  -11.0805    1.0000 </r>
       <r>   -8.9982    1.0000 </r>
       <r>   -8.9421    1.0000 </r>
       <r>   -8.5298    1.0000 </r>
       <r>   -7.8754    1.0000 </r>
       <r>   -7.6715    1.0000 </r>
       <r>    1.9655    0.0000 </r>
       <r>    2.7757    0.0000 </r>
       <r>    3.1498    0.0000 </r>
       <r>    3.1915    0.0000 </r>
      </set>
      <set comment="kpoint 25">
       <r>  -20.8233    1.0000 </r>
       <r>  -20.3342    1.0000 </r>
       <r>  -10.5353    1.0000 </r>
       <r>   -9.4618    1.0000 </r>
       <r>   -8.7485    1.0000 </r>
       <r>   -8.3325    1.0000 </r>
       <r>   -8.1860    1.0000 </r>
       <r>   -7.9010    1.0000 </r>
       <r>    2.2595    0.0000 </r>
       <r>    2.9293    0.0000 </r>
       <r>    3.0705    0.0000 </r>
       <r>    3.4951    0.0000 </r>
      </set>
      <set comment="kpoint 26">
       <r>  -20.5885    1.0000 </r>
       <r>  -20.5885    1.0000 </r>
       <r>   -9.9944    1.0000 </r>
       <r>   -9.9944    1.0000 </r>
       <r>   -8.4774    1.0000 </r>
       <r>   -8.4774    1.0000 </r>
       <r>   -8.1221    1.0000 </r>
       <r>   -8.1221    1.0000 </r>
       <r>    2.5809    0.0000 </r>
       <r>    2.5809    0.0000 </r>
       <r>    3.3885    0.0000 </r>
       <r>    3.3885    0.0000 </r>
      </set>
      <set comment="kpoint 27">
       <r>  -22.0305    1.0000 </r>
       <r>  -16.6617    1.0000 </r>
       <r>  -15.8239    1.0000 </r>
       <r>  -10.1651    1.0000 </r>
       <r>   -9.7001    1.0000 </r>
       <r>   -6.2002    1.0000 </r>
       <r>   -5.8700    1.0000 </r>
       <r>   -4.8432    1.0000 </r>
       <r>   -1.1678    0.0000 </r>
       <r>    0.6150    0.0000 </r>
       <r>    1.4141    0.0000 </r>
       <r>    1.8084    0.0000 </r>
      </set>
      <set comment="kpoint 28">
       <r>  -22.0202    1.0000 </r>
       <r>  -16.8573    1.0000 </r>
       <r>  -15.6135    1.0000 </r>
       <r>  -10.1528    1.0000 </r>
       <r>   -9.6896    1.0000 </r>
       <r>   -6.2332    1.0000 </r>
       <r>   -5.8981    1.0000 </r>
       <r>   -4.9140    1.0000 </r>
       <r>   -1.0827    0.0000 </r>
       <r>    0.6290    0.0000 </r>
       <r>    1.4283    0.0000 </r>
       <r>    1.8228    0.0000 </r>
      </set>
      <set comment="kpoint 29">
       <r>  -21.9891    1.0000 </r>
       <r>  -17.2229    1.0000 </r>
       <r>  -15.2038    1.0000 </r>
       <r>  -10.1160    1.0000 </r>
       <r>   -9.6580    1.0000 </r>
       <r>   -6.3303    1.0000 </r>
       <r>   -5.9819    1.0000 </r>
       <r>   -5.1089    1.0000 </r>
       <r>   -0.8452    0.0000 </r>
       <r>    0.6712    0.0000 </r>
       <r>    1.4709    0.0000 </r>
       <r>    1.8659    0.0000 </r>
      </set>
      <set comment="kpoint 30">
       <r>  -21.9373    1.0000 </r>
       <r>  -17.6149    1.0000 </r>
       <r>  -14.7385    1.0000 </r>
       <r>  -10.0546    1.0000 </r>
       <r>   -9.6055    1.0000 </r>
       <r>   -6.4867    1.0000 </r>
       <r>   -6.1195    1.0000 </r>
       <r>   -5.3897    1.0000 </r>
       <r>   -0.4939    0.0000 </r>
       <r>    0.7415    0.0000 </r>
       <r>    1.5418    0.0000 </r>
       <r>    1.9378    0.0000 </r>
      </set>
      <set comment="kpoint 31">
       <r>  -21.8648    1.0000 </r>
       <r>  -18.0038    1.0000 </r>
       <r>  -14.2478    1.0000 </r>
       <r>   -9.9688    1.0000 </r>
       <r>   -9.5323    1.0000 </r>
       <r>   -6.6984    1.0000 </r>
       <r>   -6.3045    1.0000 </r>
       <r>   -5.7207    1.0000 </r>
       <r>   -0.0655    0.0000 </r>
       <r>    0.8399    0.0000 </r>
       <r>    1.6411    0.0000 </r>
[...]
       <r>   -9.0098    1.0000 </r>
       <r>   -5.6631    1.0000 </r>
       <r>   -5.6631    1.0000 </r>
       <r>   -0.5710    0.0000 </r>
       <r>   -0.5710    0.0000 </r>
       <r>    4.8102    0.0000 </r>
       <r>    4.8102    0.0000 </r>
      </set>
      <set comment="kpoint 209">
       <r>  -18.8385    1.0000 </r>
       <r>  -17.1502    1.0000 </r>
       <r>  -13.8613    1.0000 </r>
       <r>  -12.3127    1.0000 </r>
       <r>  -12.3047    1.0000 </r>
       <r>  -10.8493    1.0000 </r>
       <r>   -6.4973    1.0000 </r>
       <r>   -4.6969    1.0000 </r>
       <r>   -0.9965    0.0000 </r>
       <r>    1.0585    0.0000 </r>
       <r>    5.0345    0.0000 </r>
       <r>    5.8237    0.0000 </r>
      </set>
      <set comment="kpoint 210">
       <r>  -18.8288    1.0000 </r>
       <r>  -17.1428    1.0000 </r>
       <r>  -13.9537    1.0000 </r>
       <r>  -12.3922    1.0000 </r>
       <r>  -12.2117    1.0000 </r>
       <r>  -10.7633    1.0000 </r>
       <r>   -6.4885    1.0000 </r>
       <r>   -4.6989    1.0000 </r>
       <r>   -1.0077    0.0000 </r>
       <r>    1.0325    0.0000 </r>
       <r>    5.0483    0.0000 </r>
       <r>    5.8399    0.0000 </r>
      </set>
      <set comment="kpoint 211">
       <r>  -18.7995    1.0000 </r>
       <r>  -17.1208    1.0000 </r>
       <r>  -14.1793    1.0000 </r>
       <r>  -12.6092    1.0000 </r>
       <r>  -11.9607    1.0000 </r>
       <r>  -10.5516    1.0000 </r>
       <r>   -6.4622    1.0000 </r>
       <r>   -4.7055    1.0000 </r>
       <r>   -1.0393    0.0000 </r>
       <r>    0.9565    0.0000 </r>
       <r>    5.0894    0.0000 </r>
       <r>    5.8882    0.0000 </r>
      </set>
      <set comment="kpoint 212">
       <r>  -18.7509    1.0000 </r>
       <r>  -17.0857    1.0000 </r>
       <r>  -14.4625    1.0000 </r>
       <r>  -12.8886    1.0000 </r>
       <r>  -11.6352    1.0000 </r>
       <r>  -10.2833    1.0000 </r>
       <r>   -6.4186    1.0000 </r>
       <r>   -4.7183    1.0000 </r>
       <r>   -1.0861    0.0000 </r>
       <r>    0.8360    0.0000 </r>
       <r>    5.1576    0.0000 </r>
       <r>    5.9675    0.0000 </r>
      </set>
      <set comment="kpoint 213">
       <r>  -18.6831    1.0000 </r>
       <r>  -17.0402    1.0000 </r>
       <r>  -14.7601    1.0000 </r>
       <r>  -13.1926    1.0000 </r>
       <r>  -11.2781    1.0000 </r>
       <r>   -9.9997    1.0000 </r>
       <r>   -6.3583    1.0000 </r>
       <r>   -4.7396    1.0000 </r>
       <r>   -1.1399    0.0000 </r>
       <r>    0.6789    0.0000 </r>
       <r>    5.2521    0.0000 </r>
       <r>    6.0764    0.0000 </r>
      </set>
      <set comment="kpoint 214">
       <r>  -18.5964    1.0000 </r>
       <r>  -16.9893    1.0000 </r>
       <r>  -15.0488    1.0000 </r>
       <r>  -13.5032    1.0000 </r>
       <r>  -10.9111    1.0000 </r>
       <r>   -9.7234    1.0000 </r>
       <r>   -6.2821    1.0000 </r>
       <r>   -4.7723    1.0000 </r>
       <r>   -1.1913    0.0000 </r>
       <r>    0.4943    0.0000 </r>
       <r>    5.3696    0.0000 </r>
       <r>    6.1847    0.0000 </r>
      </set>
      <set comment="kpoint 215">
       <r>  -18.4911    1.0000 </r>
       <r>  -16.9424    1.0000 </r>
       <r>  -15.3103    1.0000 </r>
       <r>  -13.8109    1.0000 </r>
       <r>  -10.5475    1.0000 </r>
       <r>   -9.4699    1.0000 </r>
       <r>   -6.1911    1.0000 </r>
       <r>   -4.8193    1.0000 </r>
       <r>   -1.2307    0.0000 </r>
       <r>    0.2913    0.0000 </r>
       <r>    5.4804    0.0000 </r>
       <r>    5.7773    0.0000 </r>
      </set>
      <set comment="kpoint 216">
       <r>  -18.3678    1.0000 </r>
       <r>  -16.9163    1.0000 </r>
       <r>  -15.5231    1.0000 </r>
       <r>  -14.1102    1.0000 </r>
       <r>  -10.1980    1.0000 </r>
       <r>   -9.2511    1.0000 </r>
       <r>   -6.0865    1.0000 </r>
       <r>   -4.8830    1.0000 </r>
       <r>   -1.2494    0.0000 </r>
       <r>    0.0785    0.0000 </r>
       <r>    5.2989    0.0000 </r>
       <r>    5.7545    0.0000 </r>
      </set>
      <set comment="kpoint 217">
       <r>  -18.2272    1.0000 </r>
       <r>  -16.9351    1.0000 </r>
       <r>  -15.6600    1.0000 </r>
       <r>  -14.3973    1.0000 </r>
       <r>   -9.8719    1.0000 </r>
       <r>   -9.0779    1.0000 </r>
       <r>   -5.9701    1.0000 </r>
       <r>   -4.9645    1.0000 </r>
       <r>   -1.2407    0.0000 </r>
       <r>   -0.1363    0.0000 </r>
       <r>    5.0075    0.0000 </r>
       <r>    5.8260    0.0000 </r>
      </set>
      <set comment="kpoint 218">
       <r>  -18.0706    1.0000 </r>
       <r>  -17.0181    1.0000 </r>
       <r>  -15.7002    1.0000 </r>
       <r>  -14.6689    1.0000 </r>
       <r>   -9.5788    1.0000 </r>
       <r>   -8.9593    1.0000 </r>
       <r>   -5.8441    1.0000 </r>
       <r>   -5.0632    1.0000 </r>
       <r>   -1.2006    0.0000 </r>
       <r>   -0.3462    0.0000 </r>
       <r>    4.7881    0.0000 </r>
       <r>    5.4263    0.0000 </r>
      </set>
      <set comment="kpoint 219">
       <r>  -17.8994    1.0000 </r>
       <r>  -17.1596    1.0000 </r>
       <r>  -15.6483    1.0000 </r>
       <r>  -14.9221    1.0000 </r>
       <r>   -9.3280    1.0000 </r>
       <r>   -8.9025    1.0000 </r>
       <r>   -5.7111    1.0000 </r>
       <r>   -5.1772    1.0000 </r>
       <r>   -1.1277    0.0000 </r>
       <r>   -0.5451    0.0000 </r>
       <r>    4.6585    0.0000 </r>
       <r>    5.0971    0.0000 </r>
      </set>
      <set comment="kpoint 220">
       <r>  -17.7165    1.0000 </r>
       <r>  -17.3361    1.0000 </r>
       <r>  -15.5270    1.0000 </r>
       <r>  -15.1533    1.0000 </r>
       <r>   -9.1285    1.0000 </r>
       <r>   -8.9117    1.0000 </r>
       <r>   -5.5741    1.0000 </r>
       <r>   -5.3030    1.0000 </r>
       <r>   -1.0226    0.0000 </r>
       <r>   -0.7273    0.0000 </r>
       <r>    4.6250    0.0000 </r>
       <r>    4.8486    0.0000 </r>
      </set>
      <set comment="kpoint 221">
       <r>  -17.5262    1.0000 </r>
       <r>  -17.5262    1.0000 </r>
       <r>  -15.3576    1.0000 </r>
       <r>  -15.3576    1.0000 </r>
       <r>   -8.9879    1.0000 </r>
       <r>   -8.9879    1.0000 </r>
       <r>   -5.4367    1.0000 </r>
       <r>   -5.4367    1.0000 </r>
       <r>   -0.8880    0.0000 </r>
       <r>   -0.8880    0.0000 </r>
       <r>    4.6892    0.0000 </r>
       <r>    4.6892    0.0000 </r>
      </set>
      <set comment="kpoint 222">
       <r>  -18.4387    1.0000 </r>
       <r>  -17.5907    1.0000 </r>
       <r>  -13.5008    1.0000 </r>
       <r>  -12.7218    1.0000 </r>
       <r>  -11.9813    1.0000 </r>
       <r>  -11.2450    1.0000 </r>
       <r>   -6.0603    1.0000 </r>
       <r>   -5.1553    1.0000 </r>
       <r>   -0.5145    0.0000 </r>
       <r>    0.5149    0.0000 </r>
       <r>    5.6036    0.0000 </r>
       <r>    6.3614    0.0000 </r>
      </set>
      <set comment="kpoint 223">
       <r>  -18.4291    1.0000 </r>
       <r>  -17.5821    1.0000 </r>
       <r>  -13.5940    1.0000 </r>
       <r>  -12.8119    1.0000 </r>
       <r>  -11.8824    1.0000 </r>
       <r>  -11.1540    1.0000 </r>
       <r>   -6.0528    1.0000 </r>
       <r>   -5.1526    1.0000 </r>
       <r>   -0.5317    0.0000 </r>
       <r>    0.4910    0.0000 </r>
       <r>    5.6173    0.0000 </r>
       <r>    6.3785    0.0000 </r>
      </set>
      <set comment="kpoint 224">
       <r>  -18.4005    1.0000 </r>
       <r>  -17.5565    1.0000 </r>
       <r>  -13.8220    1.0000 </r>
       <r>  -13.0342    1.0000 </r>
       <r>  -11.6376    1.0000 </r>
       <r>  -10.9294    1.0000 </r>
       <r>   -6.0303    1.0000 </r>
       <r>   -5.1448    1.0000 </r>
       <r>   -0.5815    0.0000 </r>
       <r>    0.4209    0.0000 </r>
       <r>    5.6582    0.0000 </r>
       <r>    6.4291    0.0000 </r>
      </set>
      <set comment="kpoint 225">
       <r>  -18.3531    1.0000 </r>
       <r>  -17.5143    1.0000 </r>
       <r>  -14.1102    1.0000 </r>
       <r>  -13.3186    1.0000 </r>
       <r>  -11.3224    1.0000 </r>
       <r>  -10.6431    1.0000 </r>
       <r>   -5.9934    1.0000 </r>
       <r>   -5.1331    1.0000 </r>
       <r>   -0.6586    0.0000 </r>
       <r>    0.3102    0.0000 </r>
       <r>    5.7259    0.0000 </r>
       <r>    6.5118    0.0000 </r>
      </set>
      <set comment="kpoint 226">
       <r>  -18.2870    1.0000 </r>
       <r>  -17.4567    1.0000 </r>
       <r>  -14.4177    1.0000 </r>
       <r>  -13.6263    1.0000 </r>
       <r>  -10.9794    1.0000 </r>
       <r>  -10.3371    1.0000 </r>
       <r>   -5.9428    1.0000 </r>
       <r>   -5.1193    1.0000 </r>
       <r>   -0.7547    0.0000 </r>
       <r>    0.1667    0.0000 </r>
       <r>    5.8188    0.0000 </r>
       <r>    6.6261    0.0000 </r>
      </set>
      <set comment="kpoint 227">
       <r>  -18.2027    1.0000 </r>
       <r>  -17.3856    1.0000 </r>
       <r>  -14.7245    1.0000 </r>
       <r>  -13.9390    1.0000 </r>
       <r>  -10.6306    1.0000 </r>
       <r>  -10.0337    1.0000 </r>
       <r>   -5.8798    1.0000 </r>
       <r>   -5.1059    1.0000 </r>
       <r>   -0.8602    0.0000 </r>
       <r>   -0.0003    0.0000 </r>
       <r>    5.9281    0.0000 </r>
       <r>    6.4522    0.0000 </r>
      </set>
      <set comment="kpoint 228">
       <r>  -18.1010    1.0000 </r>
       <r>  -17.3041    1.0000 </r>
       <r>  -15.0186    1.0000 </r>
       <r>  -14.2471    1.0000 </r>
       <r>  -10.2896    1.0000 </r>
       <r>   -9.7478    1.0000 </r>
       <r>   -5.8059    1.0000 </r>
       <r>   -5.0961    1.0000 </r>
       <r>   -0.9647    0.0000 </r>
       <r>   -0.1815    0.0000 </r>
       <r>    5.8816    0.0000 </r>
       <r>    6.1703    0.0000 </r>
      </set>
      <set comment="kpoint 229">
       <r>  -17.9827    1.0000 </r>
       <r>  -17.2181    1.0000 </r>
       <r>  -15.2894    1.0000 </r>
       <r>  -14.5447    1.0000 </r>
       <r>   -9.9675    1.0000 </r>
       <r>   -9.4911    1.0000 </r>
       <r>   -5.7231    1.0000 </r>
       <r>   -5.0935    1.0000 </r>
       <r>   -1.0581    0.0000 </r>
       <r>   -0.3677    0.0000 </r>
       <r>    5.5017    0.0000 </r>
       <r>    5.9927    0.0000 </r>
      </set>
      <set comment="kpoint 230">
       <r>  -17.8493    1.0000 </r>
       <r>  -17.1379    1.0000 </r>
       <r>  -15.5236    1.0000 </r>
       <r>  -14.8274    1.0000 </r>
       <r>   -9.6742    1.0000 </r>
       <r>   -9.2745    1.0000 </r>
       <r>   -5.6340    1.0000 </r>
       <r>   -5.1015    1.0000 </r>
       <r>   -1.1308    0.0000 </r>
       <r>   -0.5502    0.0000 </r>
       <r>    5.1548    0.0000 </r>
       <r>    5.5654    0.0000 </r>
      </set>
      <set comment="kpoint 231">
       <r>  -17.7033    1.0000 </r>
       <r>  -17.0817    1.0000 </r>
       <r>  -15.7015    1.0000 </r>
       <r>  -15.0907    1.0000 </r>
       <r>   -9.4195    1.0000 </r>
       <r>   -9.1074    1.0000 </r>
       <r>   -5.5416    1.0000 </r>
       <r>   -5.1233    1.0000 </r>
       <r>   -1.1754    0.0000 </r>
       <r>   -0.7213    0.0000 </r>
       <r>    4.8830    0.0000 </r>
       <r>    5.2038    0.0000 </r>
      </set>
      <set comment="kpoint 232">
       <r>  -17.5487    1.0000 </r>
       <r>  -17.0744    1.0000 </r>
       <r>  -15.7967    1.0000 </r>
       <r>  -15.3295    1.0000 </r>
       <r>   -9.2127    1.0000 </r>
       <r>   -8.9981    1.0000 </r>
       <r>   -5.4495    1.0000 </r>
       <r>   -5.1607    1.0000 </r>
       <r>   -1.1863    0.0000 </r>
       <r>   -0.8738    0.0000 </r>
       <r>    4.6984    0.0000 </r>
       <r>    4.9191    0.0000 </r>
      </set>
      <set comment="kpoint 233">
       <r>  -17.3924    1.0000 </r>
       <r>  -17.1327    1.0000 </r>
       <r>  -15.7922    1.0000 </r>
       <r>  -15.5359    1.0000 </r>
       <r>   -9.0621    1.0000 </r>
       <r>   -8.9527    1.0000 </r>
       <r>   -5.3616    1.0000 </r>
       <r>   -5.2140    1.0000 </r>
       <r>   -1.1606    0.0000 </r>
       <r>   -1.0012    0.0000 </r>
       <r>    4.6082    0.0000 </r>
       <r>    4.7207    0.0000 </r>
      </set>
      <set comment="kpoint 234">
       <r>  -17.2469    1.0000 </r>
       <r>  -17.2469    1.0000 </r>
       <r>  -15.6971    1.0000 </r>
       <r>  -15.6971    1.0000 </r>
       <r>   -8.9742    1.0000 </r>
       <r>   -8.9742    1.0000 </r>
       <r>   -5.2819    1.0000 </r>
       <r>   -5.2819    1.0000 </r>
       <r>   -1.0982    0.0000 </r>
       <r>   -1.0982    0.0000 </r>
       <r>    4.6157    0.0000 </r>
       <r>    4.6157    0.0000 </r>
      </set>
      <set comment="kpoint 235">
       <r>  -18.0217    1.0000 </r>
       <r>  -18.0217    1.0000 </r>
       <r>  -13.1208    1.0000 </r>
       <r>  -13.1208    1.0000 </r>
       <r>  -11.6237    1.0000 </r>
       <r>  -11.6237    1.0000 </r>
       <r>   -5.6115    1.0000 </r>
       <r>   -5.6115    1.0000 </r>
       <r>   -0.0101    0.0000 </r>
       <r>   -0.0101    0.0000 </r>
       <r>    6.2014    0.0000 </r>
       <r>    6.2014    0.0000 </r>
      </set>
      <set comment="kpoint 236">
       <r>  -18.0125    1.0000 </r>
       <r>  -18.0125    1.0000 </r>
       <r>  -13.2129    1.0000 </r>
       <r>  -13.2129    1.0000 </r>
       <r>  -11.5282    1.0000 </r>
       <r>  -11.5282    1.0000 </r>
       <r>   -5.6059    1.0000 </r>
       <r>   -5.6059    1.0000 </r>
       <r>   -0.0313    0.0000 </r>
       <r>   -0.0313    0.0000 </r>
       <r>    6.2150    0.0000 </r>
       <r>    6.2150    0.0000 </r>
      </set>
      <set comment="kpoint 237">
       <r>  -17.9850    1.0000 </r>
       <r>  -17.9850    1.0000 </r>
       <r>  -13.4392    1.0000 </r>
       <r>  -13.4392    1.0000 </r>
       <r>  -11.2925    1.0000 </r>
       <r>  -11.2925    1.0000 </r>
       <r>   -5.5892    1.0000 </r>
       <r>   -5.5892    1.0000 </r>
       <r>   -0.0931    0.0000 </r>
       <r>   -0.0931    0.0000 </r>
       <r>    6.2556    0.0000 </r>
       <r>    6.2556    0.0000 </r>
      </set>
      <set comment="kpoint 238">
       <r>  -17.9394    1.0000 </r>
       <r>  -17.9394    1.0000 </r>
       <r>  -13.7269    1.0000 </r>
       <r>  -13.7269    1.0000 </r>
       <r>  -10.9905    1.0000 </r>
       <r>  -10.9905    1.0000 </r>
       <r>   -5.5622    1.0000 </r>
       <r>   -5.5622    1.0000 </r>
       <r>   -0.1901    0.0000 </r>
       <r>   -0.1901    0.0000 </r>
       <r>    6.3225    0.0000 </r>
       <r>    6.3225    0.0000 </r>
      </set>
      <set comment="kpoint 239">
       <r>  -17.8763    1.0000 </r>
       <r>  -17.8763    1.0000 </r>
       <r>  -14.0364    1.0000 </r>
       <r>  -14.0364    1.0000 </r>
       <r>  -10.6647    1.0000 </r>
       <r>  -10.6647    1.0000 </r>
       <r>   -5.5261    1.0000 </r>
       <r>   -5.5261    1.0000 </r>
       <r>   -0.3143    0.0000 </r>
       <r>   -0.3143    0.0000 </r>
       <r>    6.4125    0.0000 </r>
       <r>    6.4125    0.0000 </r>
      </set>
      <set comment="kpoint 240">
       <r>  -17.7964    1.0000 </r>
       <r>  -17.7964    1.0000 </r>
       <r>  -14.3487    1.0000 </r>
       <r>  -14.3487    1.0000 </r>
       <r>  -10.3371    1.0000 </r>
       <r>  -10.3371    1.0000 </r>
       <r>   -5.4827    1.0000 </r>
       <r>   -5.4827    1.0000 </r>
       <r>   -0.4564    0.0000 </r>
       <r>   -0.4564    0.0000 </r>
       <r>    6.4901    0.0000 </r>
       <r>    6.4902    0.0000 </r>
      </set>
      <set comment="kpoint 241">
       <r>  -17.7011    1.0000 </r>
       <r>  -17.7011    1.0000 </r>
       <r>  -14.6537    1.0000 </r>
       <r>  -14.6537    1.0000 </r>
       <r>  -10.0220    1.0000 </r>
       <r>  -10.0220    1.0000 </r>
       <r>   -5.4344    1.0000 </r>
       <r>   -5.4344    1.0000 </r>
       <r>   -0.6063    0.0000 </r>
       <r>   -0.6063    0.0000 </r>
       <r>    6.1745    0.0000 </r>
       <r>    6.1745    0.0000 </r>
      </set>
      <set comment="kpoint 242">
       <r>  -17.5926    1.0000 </r>
       <r>  -17.5926    1.0000 </r>
       <r>  -14.9445    1.0000 </r>
       <r>  -14.9445    1.0000 </r>
       <r>   -9.7309    1.0000 </r>
       <r>   -9.7309    1.0000 </r>
       <r>   -5.3840    1.0000 </r>
       <r>   -5.3840    1.0000 </r>
       <r>   -0.7543    0.0000 </r>
       <r>   -0.7543    0.0000 </r>
       <r>    5.7314    0.0000 </r>
       <r>    5.7314    0.0000 </r>
      </set>
      <set comment="kpoint 243">
       <r>  -17.4744    1.0000 </r>
       <r>  -17.4744    1.0000 </r>
       <r>  -15.2145    1.0000 </r>
       <r>  -15.2145    1.0000 </r>
       <r>   -9.4741    1.0000 </r>
       <r>   -9.4741    1.0000 </r>
       <r>   -5.3350    1.0000 </r>
       <r>   -5.3350    1.0000 </r>
       <r>   -0.8909    0.0000 </r>
       <r>   -0.8909    0.0000 </r>
       <r>    5.3410    0.0000 </r>
       <r>    5.3410    0.0000 </r>
      </set>
      <set comment="kpoint 244">
       <r>  -17.3530    1.0000 </r>
       <r>  -17.3530    1.0000 </r>
       <r>  -15.4556    1.0000 </r>
       <r>  -15.4556    1.0000 </r>
       <r>   -9.2615    1.0000 </r>
       <r>   -9.2615    1.0000 </r>
       <r>   -5.2912    1.0000 </r>
       <r>   -5.2912    1.0000 </r>
       <r>   -1.0077    0.0000 </r>
       <r>   -1.0077    0.0000 </r>
       <r>    5.0221    0.0000 </r>
       <r>    5.0221    0.0000 </r>
      </set>
      <set comment="kpoint 245">
       <r>  -17.2397    1.0000 </r>
       <r>  -17.2397    1.0000 </r>
       <r>  -15.6551    1.0000 </r>
       <r>  -15.6551    1.0000 </r>
       <r>   -9.1021    1.0000 </r>
       <r>   -9.1021    1.0000 </r>
       <r>   -5.2564    1.0000 </r>
       <r>   -5.2564    1.0000 </r>
       <r>   -1.0971    0.0000 </r>
       <r>   -1.0971    0.0000 </r>
       <r>    4.7857    0.0000 </r>
       <r>    4.7857    0.0000 </r>
      </set>
      <set comment="kpoint 246">
       <r>  -17.1539    1.0000 </r>
       <r>  -17.1539    1.0000 </r>
       <r>  -15.7928    1.0000 </r>
       <r>  -15.7928    1.0000 </r>
       <r>   -9.0031    1.0000 </r>
       <r>   -9.0031    1.0000 </r>
       <r>   -5.2340    1.0000 </r>
       <r>   -5.2340    1.0000 </r>
       <r>   -1.1532    0.0000 </r>
       <r>   -1.1532    0.0000 </r>
       <r>    4.6402    0.0000 </r>
       <r>    4.6402    0.0000 </r>
      </set>
      <set comment="kpoint 247">
       <r>  -17.1209    1.0000 </r>
       <r>  -17.1209    1.0000 </r>
       <r>  -15.8432    1.0000 </r>
       <r>  -15.8432    1.0000 </r>
       <r>   -8.9695    1.0000 </r>
       <r>   -8.9695    1.0000 </r>
       <r>   -5.2262    1.0000 </r>
       <r>   -5.2262    1.0000 </r>
       <r>   -1.1724    0.0000 </r>
       <r>   -1.1724    0.0000 </r>
       <r>    4.5911    0.0000 </r>
       <r>    4.5911    0.0000 </r>
      </set>
     </set>
    </set>
   </array>
  </eigenvalues>
  <separator name="orbital magnetization" >
   <v name="MAGDIPOLOUT">      0.00000000      0.00000000      0.00000000</v>
  </separator>
 </calculation>
 <structure name="finalpos" >
  <crystal>
   <varray name="basis" >
    <v>       4.25529366       0.00000000       0.00000000 </v>
    <v>       0.00000000       2.52861472       0.00000000 </v>
    <v>       0.00000000       0.00000000      19.59460383 </v>
   </varray>
   <i name="volume">    210.83790140 </i>
   <varray name="rec_basis" >
    <v>       0.23500141       0.00000000       0.00000000 </v>
    <v>       0.00000000       0.39547346       0.00000000 </v>
    <v>       0.00000000       0.00000000       0.05103446 </v>
   </varray>
  </crystal>
  <varray name="positions" >
   <v>       0.00063261      -0.00000000      -0.00000000 </v>
   <v>       0.16603405       0.50000000       0.00000000 </v>
   <v>       0.50063261       0.50000000      -0.00000000 </v>
   <v>       0.66603405       0.00000000       0.00000000 </v>
  </varray>
 </structure>
</modeling>
