gr                                      
           1
     4.255294    0.000000    0.000000
     0.000000    2.528615    0.000000
     0.000000    0.000000   19.594604
   C 
   4
Direct configuration=     1
   0.00063729  0.00000000  0.00000000
   0.16602938  0.50000000  0.00000000
   0.50063729  0.50000000  0.00000000
   0.66602938  0.00000000  0.00000000
Direct configuration=     2
   0.00061391 -0.00000000  0.00000000
   0.16605275  0.50000000  0.00000000
   0.50061391  0.50000000  0.00000000
   0.66605275  0.00000000  0.00000000
Direct configuration=     3
   0.00063261  0.00000000  0.00000000
   0.16603406  0.50000000  0.00000000
   0.50063261  0.50000000  0.00000000
   0.66603406  0.00000000  0.00000000
Direct configuration=     4
   0.00063261 -0.00000000 -0.00000000
   0.16603405  0.50000000  0.00000000
   0.50063261  0.50000000 -0.00000000
   0.66603405  0.00000000  0.00000000
