 running on    8 total cores
 distrk:  each k-point on    8 cores,    1 groups
 distr:  one band on    2 cores,    4 groups
 using from now: INCAR     
 vasp.5.3.5 31Mar14 (build Mar 02 2015 18:14:16) complex                        
  
 POSCAR found type information on POSCAR  C 
 POSCAR found :  1 types and       4 ions
 LDA part: xc-table for Pade appr. of Perdew
 POSCAR, INCAR and KPOINTS ok, starting setup
 WARNING: small aliasing (wrap around) errors must be expected
 FFT: planning ...
 WAVECAR not read
 entering main loop
       N       E                     dE             d eps       ncg     rms          rms(c)
DAV:   1     0.187712854786E+03    0.18771E+03   -0.10616E+04  5928   0.275E+03
DAV:   2    -0.906827483876E+01   -0.19678E+03   -0.17466E+03 10408   0.260E+02
DAV:   3    -0.382039551808E+02   -0.29136E+02   -0.28513E+02  7364   0.119E+02    0.719E+00
RMM:   4    -0.376439733920E+02    0.55998E+00   -0.96755E+00  5929   0.265E+01    0.417E+00
RMM:   5    -0.369101054440E+02    0.73387E+00   -0.27250E+00  5930   0.113E+01    0.714E-01
RMM:   6    -0.369114509292E+02   -0.13455E-02   -0.79507E-02  6355   0.200E+00    0.509E-01
RMM:   7    -0.369022658934E+02    0.91850E-02   -0.31943E-02  5945   0.156E+00    0.333E-01
RMM:   8    -0.368970275705E+02    0.52383E-02   -0.69176E-03  5929   0.551E-01    0.135E-01
RMM:   9    -0.368967615820E+02    0.26599E-03   -0.19897E-02  5928   0.834E-01    0.155E-01
RMM:  10    -0.368966951202E+02    0.66462E-04   -0.23976E-03  5928   0.354E-01    0.290E-02
RMM:  11    -0.368990947528E+02   -0.23996E-02   -0.66934E-04  5928   0.169E-01    0.430E-02
RMM:  12    -0.368995775045E+02   -0.48275E-03   -0.22019E-04  5938   0.976E-02    0.424E-03
RMM:  13    -0.368998143447E+02   -0.23684E-03   -0.43221E-05  6032   0.352E-02    0.345E-03
RMM:  14    -0.368998968568E+02   -0.82512E-04   -0.10104E-05  5962   0.159E-02    0.133E-03
RMM:  15    -0.368999070170E+02   -0.10160E-04   -0.15319E-06  5963   0.709E-03    0.159E-03
RMM:  16    -0.368999191672E+02   -0.12150E-04   -0.11307E-06  5928   0.696E-03    0.110E-03
RMM:  17    -0.368999243287E+02   -0.51615E-05   -0.95480E-08  6020   0.191E-03    0.611E-04
RMM:  18    -0.368999254075E+02   -0.10788E-05   -0.45700E-08  5930   0.167E-03    0.114E-04
RMM:  19    -0.368999261642E+02   -0.75666E-06   -0.10102E-08  6046   0.484E-04    0.180E-05
RMM:  20    -0.368999262095E+02   -0.45376E-07   -0.79091E-10  4534   0.144E-04    0.238E-05
RMM:  21    -0.368999262260E+02   -0.16427E-07   -0.22206E-10  4364   0.859E-05    0.732E-06
RMM:  22    -0.368999262258E+02    0.18429E-09   -0.12660E-11  3901   0.493E-05    0.165E-06
RMM:  23    -0.368999262265E+02   -0.74067E-09   -0.20748E-11  3535   0.389E-05    0.200E-06
RMM:  24    -0.368999262265E+02    0.51045E-10   -0.44521E-12  3044   0.284E-05
   1 F= -.36899926E+02 E0= -.36899924E+02  d E =-.368999E+02
 BRION: g(F)=  0.115E-05 g(S)=  0.000E+00
 bond charge predicted
       N       E                     dE             d eps       ncg     rms          rms(c)
DAV:   1    -0.368999245448E+02    0.16817E-05   -0.15389E-04  6336   0.116E-01    0.238E-03
RMM:   2    -0.368999246316E+02   -0.86862E-07   -0.24526E-06  5949   0.139E-02    0.172E-03
RMM:   3    -0.368999245551E+02    0.76561E-07   -0.42266E-07  5962   0.523E-03    0.455E-04
RMM:   4    -0.368999245488E+02    0.62741E-08   -0.28200E-08  6107   0.134E-03    0.129E-04
RMM:   5    -0.368999245478E+02    0.95463E-09   -0.20840E-09  5947   0.319E-04    0.591E-05
RMM:   6    -0.368999245477E+02    0.98566E-10   -0.29109E-10  4426   0.138E-04
   2 F= -.36899925E+02 E0= -.36899922E+02  d E =0.167872E-05
 BRION: g(F)=  0.174E-04 g(S)=  0.000E+00 retain N=  1 mean eig= 0.20
 eig:   0.205
 bond charge predicted
       N       E                     dE             d eps       ncg     rms          rms(c)
DAV:   1    -0.368999263186E+02   -0.17707E-05   -0.97274E-05  6680   0.926E-02    0.190E-03
RMM:   2    -0.368999263827E+02   -0.64165E-07   -0.15187E-06  5954   0.110E-02    0.137E-03
RMM:   3    -0.368999263457E+02    0.37066E-07   -0.26486E-07  5966   0.414E-03    0.353E-04
WARNING in EDDRMM: call to ZHEGV failed, returncode =   6  3  1
RMM:   4    -0.368999263398E+02    0.58890E-08   -0.17130E-08  6078   0.105E-03    0.102E-04
RMM:   5    -0.368999263407E+02   -0.91904E-09   -0.13699E-09  5547   0.258E-04    0.471E-05
 num prob  num prob  num prob  num prob RMM:   6    -0.368999263404E+02    0.29422E-09   -0.18178E-10  3903   0.112E-04    0.481E-06
RMM:   7    -0.368999263403E+02    0.13983E-09   -0.91165E-12  3717   0.520E-05    0.200E-06
RMM:   8    -0.368999263407E+02   -0.43383E-09   -0.15023E-11  3416   0.427E-05    0.131E-06
RMM:   9    -0.368999263405E+02    0.23442E-09   -0.84760E-12  3030   0.317E-05    0.158E-06
RMM:  10    -0.368999263406E+02   -0.11164E-09   -0.47278E-12  2766   0.277E-05    0.563E-07
RMM:  11    -0.368999263408E+02   -0.22351E-09   -0.23568E-12  2540   0.247E-05    0.823E-08
RMM:  12    -0.368999263406E+02    0.24488E-09   -0.35742E-12  2361   0.232E-05    0.383E-08
RMM:  13    -0.368999263405E+02    0.12278E-10   -0.23677E-12  2237   0.213E-05
   3 F= -.36899926E+02 E0= -.36899924E+02  d E =-.179280E-05
 BRION: g(F)=  0.101E-11 g(S)=  0.000E+00 retain N=  1 mean eig= 0.20
 eig:   0.205
 bond charge predicted
       N       E                     dE             d eps       ncg     rms          rms(c)
DAV:   1    -0.368999263403E+02    0.23942E-09    0.54885E-09  4716   0.288E-05    0.514E-07
RMM:   2    -0.368999263407E+02   -0.42530E-09   -0.42435E-14  1454   0.107E-05    0.316E-07
RMM:   3    -0.368999263403E+02    0.39563E-09   -0.26185E-13  1423   0.107E-05    0.211E-08
RMM:   4    -0.368999263406E+02   -0.26614E-09    0.11431E-14  1404   0.105E-05    0.115E-08
RMM:   5    -0.368999263406E+02    0.12051E-10   -0.18487E-13  1379   0.104E-05
   4 F= -.36899926E+02 E0= -.36899924E+02  d E =-.566160E-10
 BRION: g(F)=  0.107E-11 g(S)=  0.000E+00 retain N=  1 mean eig= 0.10
 eig:   0.101
 bond charge predicted
       N       E                     dE             d eps       ncg     rms          rms(c)
DAV:   1    -0.368999263399E+02    0.72555E-09    0.54957E-09  4628   0.134E-05    0.166E-07
RMM:   2    -0.368999263406E+02   -0.66939E-09   -0.41942E-15  1109   0.509E-06    0.102E-07
RMM:   3    -0.368999263404E+02    0.10937E-09   -0.45231E-15  1082   0.503E-06    0.400E-09
RMM:   4    -0.368999263407E+02   -0.23977E-09    0.40133E-14   934   0.501E-06    0.173E-09
RMM:   5    -0.368999263407E+02   -0.12847E-10   -0.75495E-14   841   0.501E-06
   5 F= -.36899926E+02 E0= -.36899924E+02  d E =-.991349E-10
 BRION: g(F)=  0.298E-13 g(S)=  0.000E+00 retain N=  1 mean eig= 0.09
 eig:   0.087
 reached required accuracy - stopping structural energy minimisation
