    4    4  400    1
  0.5270948E+02  0.4338856E-09  0.2460720E-09  0.1974746E-08  0.5000000E-15
  1.000000000000000E-004
  CAR 
 gr                                      
     16    247     12
 
  0.0000000E+00  0.0000000E+00  0.0000000E+00  0.1157407E-02
    1      -22.147580
    2      -17.169799
    3      -15.889373
    4      -10.277027
    5       -8.937370
    6       -5.925122
    7       -5.748071
    8       -5.250765
    9       -1.145788
   10        0.536576
   11        1.335882
   12        1.725156
 
  0.4166667E-01  0.0000000E+00  0.0000000E+00  0.2314815E-02
    1      -22.137636
    2      -17.303464
    3      -15.740618
    4      -10.265196
    5       -8.927643
    6       -5.968835
    7       -5.769081
    8       -5.312389
    9       -1.068325
   10        0.550042
   11        1.349535
   12        1.738978
 
  0.8333333E-01  0.0000000E+00  0.0000000E+00  0.2314815E-02
    1      -22.107808
    2      -17.600229
    3      -15.398660
    4      -10.229721
    5       -8.898512
    6       -6.097999
    7       -5.830992
    8       -5.484283
    9       -0.849074
   10        0.590442
   11        1.390490
   12        1.780446
 
  0.1250000E+00  0.0000000E+00  0.0000000E+00  0.2314815E-02
    1      -22.058116
    2      -17.948437
    3      -14.975397
    4      -10.170660
    5       -8.850130
    6       -6.307053
    7       -5.930625
    8       -5.736984
    9       -0.517988
   10        0.657793
   11        1.458734
   12        1.849562
 
  0.1666667E+00  0.0000000E+00  0.0000000E+00  0.2314815E-02
    1      -21.988595
    2      -18.306722
    3      -14.512603
    4      -10.088111
    5       -8.782756
    6       -6.587807
    7       -6.063223
    8       -6.040343
    9       -0.106042
   10        0.752108
   11        1.554241
   12        1.946329
 
  0.2083333E+00  0.0000000E+00  0.0000000E+00  0.2314815E-02
    1      -21.899294
    2      -18.660441
    3      -14.025513
    4       -9.982216
    5       -8.696769
    6       -6.930621
    7       -6.371187
    8       -6.223070
    9        0.362396
   10        0.873398
   11        1.676973
   12        2.070749
 
  0.2500000E+00  0.0000000E+00  0.0000000E+00  0.2314815E-02
    1      -21.790278
    2      -19.003422
    3      -13.521077
    4       -9.853164
    5       -8.592669
    6       -7.325469
    7       -6.713664
    8       -6.404089
    9        0.869869
   10        1.021656
   11        1.826870
   12        2.222823
 
  0.2916667E+00  0.0000000E+00  0.0000000E+00  0.2314815E-02
    1      -21.661629
    2      -19.332605
    3      -13.003357
    4       -9.701202
    5       -8.471104
    6       -7.762720
    7       -7.057287
    8       -6.600316
    9        1.196867
   10        1.403782
   11        2.003836
   12        2.402548
 
  0.3333333E+00  0.0000000E+00  0.0000000E+00  0.2314815E-02
    1      -21.513447
    2      -19.646255
    3      -12.475333
    4       -9.526643
    5       -8.332883
    6       -8.233591
    7       -7.395084
    8       -6.806214
    9        1.398995
   10        1.954304
   11        2.207718
   12        2.609922
 
  0.3750000E+00  0.0000000E+00  0.0000000E+00  0.2314815E-02
    1      -21.345851
    2      -19.943285
    3      -11.939622
    4       -9.329882
    5       -8.730328
    6       -8.179004
    7       -7.722321
    8       -7.016833
    9        1.627993
   10        2.438225
   11        2.512185
   12        2.844935
 
  0.4166667E+00  0.0000000E+00  0.0000000E+00  0.2314815E-02
    1      -21.158986
    2      -20.222951
    3      -11.398827
    4       -9.246230
    5       -9.111411
    6       -8.035695
    7       -8.010691
    8       -7.227867
    9        1.883793
   10        2.694738
   11        3.062369
   12        3.107574
 
  0.4583333E+00  0.0000000E+00  0.0000000E+00  0.2314815E-02
    1      -20.953026
    2      -20.484719
    3      -10.855731
    4       -9.775565
    5       -8.871852
    6       -8.332832
    7       -7.829431
    8       -7.435632
    9        2.166305
   10        2.810925
   11        2.975514
   12        3.397824
 
  0.5000000E+00  0.0000000E+00  0.0000000E+00  0.1157407E-02
    1      -20.728184
    2      -20.728184
    3      -10.313452
    4      -10.313452
    5       -8.611989
    6       -8.611989
    7       -7.637021
    8       -7.637021
    9        2.475408
   10        2.475408
   11        3.272706
   12        3.272706
 
  0.0000000E+00  0.2777778E-01  0.0000000E+00  0.2314815E-02
    1      -22.133811
    2      -17.157898
    3      -15.877657
    4      -10.260645
    5       -9.000046
    6       -5.952745
    7       -5.806303
    8       -5.234095
    9       -1.148777
   10        0.555242
   11        1.354755
   12        1.744264
 
  0.4166667E-01  0.2777778E-01  0.0000000E+00  0.4629630E-02
    1      -22.123867
    2      -17.291427
    3      -15.729085
    4      -10.248817
    5       -8.990306
    6       -5.998290
    7       -5.824850
    8       -5.295844
    9       -1.071296
   10        0.568707
   11        1.368408
   12        1.758086
 
  0.8333333E-01  0.2777778E-01  0.0000000E+00  0.4629630E-02
    1      -22.094044
    2      -17.587956
    3      -15.387505
    4      -10.213355
    5       -8.961134
    6       -6.129723
    7       -5.882713
    8       -5.468031
    9       -0.852076
   10        0.609108
   11        1.409361
   12        1.799554
 
  0.1250000E+00  0.2777778E-01  0.0000000E+00  0.4629630E-02
    1      -22.044360
    2      -17.935945
    3      -14.964702
    4      -10.154314
    5       -8.912680
    6       -6.338573
    7       -5.979922
    8       -5.721041
    9       -0.521222
   10        0.676460
   11        1.477601
   12        1.868670
 
  0.1666667E+00  0.2777778E-01  0.0000000E+00  0.4629630E-02
    1      -21.974849
    2      -18.294041
    3      -14.502447
    4      -10.071793
    5       -8.845201
    6       -6.616787
    7       -6.111951
    8       -6.024637
    9       -0.109800
   10        0.770779
   11        1.573103
   12        1.965438
 
  0.2083333E+00  0.2777778E-01  0.0000000E+00  0.4629630E-02
    1      -21.885564
    2      -18.647597
    3      -14.015986
    4       -9.965933
    5       -8.759065
    6       -6.955681
    7       -6.355625
    8       -6.272461
    9        0.357802
   10        0.892073
   11        1.695829
   12        2.089859
 
  0.2500000E+00  0.2777778E-01  0.0000000E+00  0.4629630E-02
    1      -21.776566
    2      -18.990439
    3      -13.512290
    4       -9.836924
    5       -8.654767
    6       -7.346055
    7       -6.698166
    8       -6.454802
    9        0.864147
   10        1.040338
   11        1.845719
   12        2.241935
 
  0.2916667E+00  0.2777778E-01  0.0000000E+00  0.4629630E-02
    1      -21.647939
    2      -19.319502
    3      -12.995442
    4       -9.685014
    5       -8.532940
    6       -7.778817
    7       -7.041793
    8       -6.652624
    9        1.215557
   10        1.396678
   11        2.022681
   12        2.421664
 
  0.3333333E+00  0.2777778E-01  0.0000000E+00  0.4629630E-02
    1      -21.499784
    2      -19.633048
    3      -12.468450
    4       -9.510515
    5       -8.394381
    6       -8.245485
    7       -7.379555
    8       -6.860152
    9        1.417695
   10        1.945637
   11        2.226560
   12        2.629040
 
  0.3750000E+00  0.2777778E-01  0.0000000E+00  0.4629630E-02
    1      -21.332220
    2      -19.929988
    3      -11.933964
    4       -9.313820
    5       -8.738449
    6       -8.240072
    7       -7.706732
    8       -7.072304
    9        1.646704
   10        2.457071
   11        2.501965
   12        2.864058
 
  0.4166667E+00  0.2777778E-01  0.0000000E+00  0.4629630E-02
    1      -21.145391
    2      -20.209577
    3      -11.394621
    4       -9.251051
    5       -9.095422
    6       -8.071217
    7       -8.020031
    8       -7.284708
    9        1.902516
   10        2.713599
   11        3.051593
   12        3.126704
 
  0.4583333E+00  0.2777778E-01  0.0000000E+00  0.4629630E-02
    1      -20.939475
    2      -20.471277
    3      -10.853251
    4       -9.777547
    5       -8.855940
    6       -8.317087
    7       -7.889283
    8       -7.493659
    9        2.185044
   10        2.829721
   11        2.994398
   12        3.417069
 
  0.5000000E+00  0.2777778E-01  0.0000000E+00  0.2314815E-02
    1      -20.714684
    2      -20.714684
    3      -10.313017
    4      -10.313017
    5       -8.596160
    6       -8.596160
    7       -7.696047
    8       -7.696047
    9        2.494169
   10        2.494169
   11        3.291393
   12        3.291393
 
  0.0000000E+00  0.5555556E-01  0.0000000E+00  0.2314815E-02
    1      -22.092512
    2      -17.122199
    3      -15.842654
    4      -10.211532
    5       -9.183018
    6       -6.035103
    7       -5.976266
    8       -5.184107
    9       -1.158556
   10        0.611238
   11        1.411368
   12        1.801587
 
  0.4166667E-01  0.5555556E-01  0.0000000E+00  0.4629630E-02
    1      -22.082572
    2      -17.255328
    3      -15.694626
    4      -10.199717
    5       -9.173233
    6       -6.093971
    7       -5.979638
    8       -5.246243
    9       -1.081018
   10        0.624703
   11        1.425018
   12        1.815410
 
  0.8333333E-01  0.5555556E-01  0.0000000E+00  0.4629630E-02
    1      -22.052762
    2      -17.551154
    3      -15.354185
    4      -10.164290
    5       -9.143925
    6       -6.234723
    7       -6.022947
    8       -5.419330
    9       -0.861888
   10        0.665105
   11        1.465964
   12        1.856878
 
  0.1250000E+00  0.5555556E-01  0.0000000E+00  0.4629630E-02
    1      -22.003101
    2      -17.898487
    3      -14.932781
    4      -10.105310
    5       -9.095235
    6       -6.442163
    7       -6.113788
    8       -5.673290
    9       -0.531738
   10        0.732459
   11        1.534193
   12        1.925995
 
  0.1666667E+00  0.5555556E-01  0.0000000E+00  0.4629630E-02
    1      -21.933625
    2      -18.256016
    3      -14.472166
    4      -10.022874
    5       -9.027404
    6       -6.711612
    7       -6.245335
    8       -5.977607
    9       -0.121917
   10        0.826784
   11        1.629679
   12        2.022765
 
  0.2083333E+00  0.5555556E-01  0.0000000E+00  0.4629630E-02
    1      -21.844383
    2      -18.609085
    3      -13.987632
    4       -9.917123
    5       -8.940777
    6       -7.037600
    7       -6.409035
    8       -6.309031
    9        0.343132
   10        0.948088
   11        1.752387
   12        2.147190
 
  0.2500000E+00  0.5555556E-01  0.0000000E+00  0.4629630E-02
    1      -21.735440
    2      -18.951508
    3      -13.486207
    4       -9.788248
    5       -8.835820
    6       -7.413413
    7       -6.651762
    8       -6.596504
    9        0.846024
   10        1.096368
   11        1.902258
   12        2.299270
 
  0.2916667E+00  0.5555556E-01  0.0000000E+00  0.4629630E-02
    1      -21.606882
    2      -19.280209
    3      -12.972048
    4       -9.636494
    5       -8.713128
    6       -7.831633
    7       -6.995400
    8       -6.800173
    9        1.271606
   10        1.374322
   11        2.079202
   12        2.479005
 
  0.3333333E+00  0.5555556E-01  0.0000000E+00  0.4629630E-02
    1      -21.458806
    2      -19.593443
    3      -12.448248
    4       -9.462175
    5       -8.573451
    6       -8.284746
    7       -7.333052
    8       -7.013512
    9        1.473767
   10        1.918468
   11        2.283071
   12        2.686391
 
  0.3750000E+00  0.5555556E-01  0.0000000E+00  0.4629630E-02
    1      -21.291338
    2      -19.890112
    3      -11.917560
    4       -9.265682
    5       -8.765598
    6       -8.417716
    7       -7.660043
    8       -7.231023
    9        1.702802
   10        2.469915
   11        2.513593
   12        2.921420
 
  0.4166667E+00  0.5555556E-01  0.0000000E+00  0.4629630E-02
    1      -21.104621
    2      -20.169467
    3      -11.382745
    4       -9.267660
    5       -9.047505
    6       -8.247064
    7       -7.973111
    8       -7.448146
    9        1.958644
   10        2.770168
   11        3.016990
   12        3.184081
 
  0.4583333E+00  0.5555556E-01  0.0000000E+00  0.4629630E-02
    1      -20.898835
    2      -20.430965
    3      -10.846773
    4       -9.785138
    5       -8.808263
    6       -8.269916
    7       -8.062887
    8       -7.661128
    9        2.241207
   10        2.886007
   11        3.051045
   12        3.474406
 
  0.5000000E+00  0.5555556E-01  0.0000000E+00  0.2314815E-02
    1      -20.674196
    2      -20.674196
    3      -10.312971
    4      -10.312971
    5       -8.548733
    6       -8.548733
    7       -7.866884
    8       -7.866884
    9        2.550380
   10        2.550380
   11        3.347340
   12        3.347340
 
  0.0000000E+00  0.8333333E-01  0.0000000E+00  0.2314815E-02
    1      -22.023717
    2      -17.062714
    3      -15.784823
    4      -10.129793
    5       -9.472538
    6       -6.245222
    7       -6.170669
    8       -5.100865
    9       -1.177576
   10        0.704569
   11        1.505699
   12        1.897129
 
  0.4166667E-01  0.8333333E-01  0.0000000E+00  0.4629630E-02
    1      -22.013786
    2      -17.195199
    3      -15.637690
    4      -10.117999
    5       -9.462663
    6       -6.306293
    7       -6.168871
    8       -5.163684
    9       -1.099922
   10        0.718032
   11        1.519345
   12        1.910951
 
  0.8333333E-01  0.8333333E-01  0.0000000E+00  0.4629630E-02
    1      -21.983999
    2      -17.489876
    3      -15.299163
    4      -10.082635
    5       -9.433081
    6       -6.446315
    7       -6.204492
    8       -5.338353
    9       -0.880916
   10        0.758430
   11        1.560277
   12        1.952419
 
  0.1250000E+00  0.8333333E-01  0.0000000E+00  0.4629630E-02
    1      -21.934377
    2      -17.836126
    3      -14.880147
    4      -10.023759
    5       -9.383915
    6       -6.644771
    7       -6.291732
    8       -5.593965
    9       -0.551964
   10        0.825781
   11        1.628484
   12        2.021536
 
  0.1666667E+00  0.8333333E-01  0.0000000E+00  0.4629630E-02
    1      -21.864957
    2      -18.192709
    3      -14.422365
    4       -9.941468
    5       -9.315376
    6       -6.896630
    7       -6.425776
    8       -5.899527
    9       -0.144900
   10        0.920105
   11        1.723942
   12        2.118307
 
  0.2083333E+00  0.8333333E-01  0.0000000E+00  0.4629630E-02
    1      -21.775788
    2      -18.544963
    3      -13.941186
    4       -9.835904
    5       -9.227765
    6       -7.198511
    7       -6.597586
    8       -6.231691
    9        0.315738
   10        1.041413
   11        1.846615
   12        2.242734
 
  0.2500000E+00  0.8333333E-01  0.0000000E+00  0.4629630E-02
    1      -21.666938
    2      -18.886684
    3      -13.443745
    4       -9.707257
    5       -9.121488
    6       -7.546863
    7       -6.796861
    8       -6.574737
    9        0.812667
   10        1.189705
   11        1.996447
   12        2.394821
 
  0.2916667E+00  0.8333333E-01  0.0000000E+00  0.4629630E-02
    1      -21.538492
    2      -19.214778
    3      -12.934336
    4       -9.555773
    5       -8.997065
    6       -7.937250
    7       -7.013847
    8       -6.918380
    9        1.333637
   10        1.364960
   11        2.173356
   12        2.574564
 
  0.3333333E+00  0.8333333E-01  0.0000000E+00  0.4629630E-02
    1      -21.390552
    2      -19.527487
    3      -12.416218
    4       -9.381763
    5       -8.855147
    6       -8.364248
    7       -7.255830
    8       -7.240312
    9        1.567143
   10        1.869390
   11        2.377205
   12        2.781960
 
  0.3750000E+00  0.8333333E-01  0.0000000E+00  0.4629630E-02
    1      -21.223242
    2      -19.823703
    3      -11.892349
    4       -9.185618
    5       -8.821802
    6       -8.696542
    7       -7.582491
    8       -7.469764
    9        1.796202
   10        2.412041
   11        2.607741
   12        3.017003
 
  0.4166667E+00  0.8333333E-01  0.0000000E+00  0.4629630E-02
    1      -21.036713
    2      -20.102666
    3      -11.365732
    4       -9.303738
    5       -8.967824
    6       -8.522243
    7       -7.895157
    8       -7.697220
    9        2.052070
   10        2.864401
   11        2.952616
   12        3.279683
 
  0.4583333E+00  0.8333333E-01  0.0000000E+00  0.4629630E-02
    1      -20.831145
    2      -20.363823
    3      -10.839633
    4       -9.804165
    5       -8.728994
    6       -8.333468
    7       -8.191526
    8       -7.918859
    9        2.334663
   10        2.979557
   11        3.145435
   12        3.457437
 
  0.5000000E+00  0.8333333E-01  0.0000000E+00  0.2314815E-02
    1      -20.606760
    2      -20.606760
    3      -10.317718
    4      -10.317718
    5       -8.469899
    6       -8.469899
    7       -8.131720
    8       -8.131720
    9        2.643872
   10        2.643872
   11        3.440002
   12        3.440002
 
  0.0000000E+00  0.1111111E+00  0.0000000E+00  0.2314815E-02
    1      -21.927489
    2      -16.979464
    3      -15.705027
    4      -10.015606
    5       -9.849504
    6       -6.595837
    7       -6.356918
    8       -4.984475
    9       -1.209904
   10        0.835235
   11        1.637708
   12        2.030889
 
  0.4166667E-01  0.1111111E+00  0.0000000E+00  0.4629630E-02
    1      -21.917569
    2      -17.111099
    3      -15.559127
    4      -10.003842
    5       -9.839471
    6       -6.644626
    7       -6.363497
    8       -5.048341
    9       -1.132037
   10        0.848694
   11        1.651347
   12        2.044711
 
  0.8333333E-01  0.1111111E+00  0.0000000E+00  0.4629630E-02
    1      -21.887815
    2      -17.404221
    3      -15.223318
    4       -9.968569
    5       -9.809401
    6       -6.773519
    7       -6.399105
    8       -5.225411
    9       -0.913133
   10        0.889080
   11        1.692258
   12        2.086177
 
  0.1250000E+00  0.1111111E+00  0.0000000E+00  0.4629630E-02
    1      -21.838248
    2      -17.748967
    3      -14.807792
    4       -9.909845
    5       -9.759386
    6       -6.960148
    7       -6.481347
    8       -5.483497
    9       -0.585885
   10        0.956414
   11        1.760429
   12        2.155292
 
  0.1666667E+00  0.1111111E+00  0.0000000E+00  0.4629630E-02
    1      -21.768906
    2      -18.104226
    3      -14.354225
    4       -9.827767
    5       -9.689582
    6       -7.192961
    7       -6.614010
    8       -5.790891
    9       -0.182848
   10        1.050719
   11        1.855838
   12        2.252061
 
  0.2083333E+00  0.1111111E+00  0.0000000E+00  0.4629630E-02
    1      -21.679841
    2      -18.455330
    3      -13.878104
    4       -9.722477
    5       -9.600210
    6       -7.466415
    7       -6.792319
    8       -6.124121
    9        0.271318
   10        1.172013
   11        1.978451
   12        2.376489
 
  0.2500000E+00  0.1111111E+00  0.0000000E+00  0.4629630E-02
    1      -21.571122
    2      -18.796058
    3      -13.386746
    4       -9.594165
    5       -9.491562
    6       -7.778057
    7       -7.006593
    8       -6.467598
    9        0.759497
   10        1.320296
   11        2.128218
   12        2.528577
 
  0.2916667E+00  0.1111111E+00  0.0000000E+00  0.4629630E-02
    1      -21.442833
    2      -19.123295
    3      -12.884681
    4       -9.443076
    5       -9.364006
    6       -8.126846
    7       -7.244846
    8       -6.811218
    9        1.269705
   10        1.495550
   11        2.305062
   12        2.708327
 
  0.3333333E+00  0.1111111E+00  0.0000000E+00  0.4629630E-02
    1      -21.295082
    2      -19.435263
    3      -12.375467
    4       -9.269521
    5       -9.217995
    6       -8.511575
    7       -7.495263
    8       -7.148346
    9        1.697737
   10        1.793049
   11        2.508864
   12        2.915732
 
  0.3750000E+00  0.1111111E+00  0.0000000E+00  0.4629630E-02
    1      -21.127996
    2      -19.730837
    3      -11.862439
    4       -9.073886
    5       -9.054081
    6       -8.929664
    7       -7.748090
    8       -7.474500
    9        1.926801
   10        2.322302
   11        2.739407
   12        3.150788
 
  0.4166667E+00  0.1111111E+00  0.0000000E+00  0.4629630E-02
    1      -20.941730
    2      -20.009245
    3      -11.349075
    4       -9.376899
    5       -8.872931
    6       -8.856656
    7       -7.996335
    8       -7.786557
    9        2.182672
   10        2.850563
   11        2.996197
   12        3.413485
 
  0.4583333E+00  0.1111111E+00  0.0000000E+00  0.4629630E-02
    1      -20.736471
    2      -20.269924
    3      -10.839216
    4       -9.847963
    5       -8.675360
    6       -8.618434
    7       -8.235415
    8       -8.082271
    9        2.465263
   10        3.110143
   11        3.277531
   12        3.365421
 
  0.5000000E+00  0.1111111E+00  0.0000000E+00  0.2314815E-02
    1      -20.512444
    2      -20.512444
    3      -10.337209
    4      -10.337209
    5       -8.462401
    6       -8.462401
    7       -8.359983
    8       -8.359983
    9        2.774465
   10        2.774465
   11        3.566523
   12        3.566523
 
  0.0000000E+00  0.1388889E+00  0.0000000E+00  0.2314815E-02
    1      -21.803914
    2      -16.872478
    3      -15.604726
    4      -10.292924
    5       -9.869228
    6       -7.009732
    7       -6.590386
    8       -4.835091
    9       -1.261149
   10        1.003232
   11        1.807337
   12        2.202871
 
  0.4166667E-01  0.1388889E+00  0.0000000E+00  0.4629630E-02
    1      -21.794008
    2      -17.003117
    3      -15.460378
    4      -10.282618
    5       -9.857505
    6       -7.056205
    7       -6.594657
    8       -4.900481
    9       -1.182889
   10        1.016683
   11        1.820964
   12        2.216691
 
  0.8333333E-01  0.1388889E+00  0.0000000E+00  0.4629630E-02
    1      -21.764296
    2      -17.294334
    3      -15.128166
    4      -10.251711
    5       -9.822356
    6       -7.181664
    7       -6.620423
    8       -5.081001
    9       -0.963930
   10        1.057044
   11        1.861841
   12        2.258153
 
  0.1250000E+00  0.1388889E+00  0.0000000E+00  0.4629630E-02
    1      -21.714801
    2      -17.637177
    3      -14.717451
    4      -10.200234
    5       -9.763838
    6       -7.363346
    7       -6.687323
    8       -5.342570
    9       -0.638860
   10        1.124340
   11        1.929955
   12        2.327262
 
  0.1666667E+00  0.1388889E+00  0.0000000E+00  0.4629630E-02
    1      -21.645561
    2      -17.990729
    3      -14.269852
    4      -10.128240
    5       -9.682050
    6       -7.585823
    7       -6.805313
    8       -5.652480
    9       -0.241233
   10        1.218600
   11        2.025285
   12        2.424024
 
  0.2083333E+00  0.1388889E+00  0.0000000E+00  0.4629630E-02
    1      -21.556629
    2      -18.340340
    3      -13.801043
    4      -10.035791
    5       -9.577134
    6       -7.840264
    7       -6.975343
    8       -5.987126
    9        0.204181
   10        1.339847
   11        2.147798
   12        2.548446
 
  0.2500000E+00  0.1388889E+00  0.0000000E+00  0.4629630E-02
    1      -21.448077
    2      -18.679775
    3      -13.318653
    4       -9.922952
    5       -9.449279
    6       -8.122099
    7       -7.191983
    8       -6.331132
    9        0.680532
   10        1.488089
   11        2.297447
   12        2.700531
 
  0.2916667E+00  0.1388889E+00  0.0000000E+00  0.4629630E-02
    1      -21.319993
    2      -19.005892
    3      -12.827637
    4       -9.789777
    5       -9.298731
    6       -8.429893
    7       -7.445195
    8       -6.674659
    9        1.176212
   10        1.663308
   11        2.474168
   12        2.880281
 
  0.3333333E+00  0.1388889E+00  0.0000000E+00  0.4629630E-02
    1      -21.172487
    2      -19.316893
    3      -12.332121
    4       -9.636290
    5       -9.125798
    6       -8.764546
    7       -7.721987
    8       -7.011290
    9        1.682764
   10        1.865466
   11        2.677862
   12        3.087692
 
  0.3750000E+00  0.1388889E+00  0.0000000E+00  0.4629630E-02
    1      -21.005692
    2      -19.611630
    3      -11.836177
    4       -9.462470
    5       -9.128045
    6       -8.930866
    7       -8.008439
    8       -7.336707
    9        2.094502
   10        2.193561
   11        2.908366
   12        3.322756
 
  0.4166667E+00  0.1388889E+00  0.0000000E+00  0.4629630E-02
    1      -20.819768
    2      -19.889314
    3      -11.344217
    4       -9.521662
    5       -9.268246
    6       -8.714412
    7       -8.292100
    8       -7.647896
    9        2.350338
   10        2.702949
   11        3.165323
   12        3.585465
 
  0.4583333E+00  0.1388889E+00  0.0000000E+00  0.4629630E-02
    1      -20.614909
    2      -20.149368
    3      -10.861205
    4       -9.944397
    5       -9.053548
    6       -8.563881
    7       -8.477033
    8       -7.942688
    9        2.632880
   10        3.205159
   11        3.277597
   12        3.447256
 
  0.5000000E+00  0.1388889E+00  0.0000000E+00  0.2314815E-02
    1      -20.391349
    2      -20.391349
    3      -10.392668
    4      -10.392668
    5       -8.818497
    6       -8.818497
    7       -8.219476
    8       -8.219476
    9        2.942013
   10        2.942013
   11        3.664999
   12        3.664999
 
  0.0000000E+00  0.1666667E+00  0.0000000E+00  0.2314815E-02
    1      -21.653110
    2      -16.741796
    3      -15.486360
    4      -10.782118
    5       -9.690999
    6       -7.469905
    7       -6.866783
    8       -4.652914
    9       -1.338220
   10        1.208541
   11        2.014504
   12        2.413074
 
  0.4166667E-01  0.1666667E+00  0.0000000E+00  0.4629630E-02
    1      -21.643220
    2      -16.871384
    3      -15.343876
    4      -10.771344
    5       -9.679331
    6       -7.516559
    7       -6.865772
    8       -4.720502
    9       -1.259223
   10        1.221979
   11        2.028112
   12        2.426892
 
  0.8333333E-01  0.1666667E+00  0.0000000E+00  0.4629630E-02
    1      -21.613561
    2      -17.160439
    3      -15.016311
    4      -10.738993
    5       -9.644345
    6       -7.642931
    7       -6.875878
    8       -4.905902
    9       -1.039765
   10        1.262303
   11        2.068933
   12        2.468347
 
  0.1250000E+00  0.1666667E+00  0.0000000E+00  0.4629630E-02
    1      -21.564153
    2      -17.501002
    3      -14.612180
    4      -10.684979
    5       -9.586099
    6       -7.824934
    7       -6.919622
    8       -5.172249
    9       -0.717204
   10        1.329539
   11        2.136953
   12        2.537445
 
  0.1666667E+00  0.1666667E+00  0.0000000E+00  0.4629630E-02
    1      -21.495037
    2      -17.852457
    3      -14.173056
    4      -10.609136
    5       -9.504693
    6       -8.044562
    7       -7.011824
    8       -5.485488
    9       -0.326410
   10        1.423719
   11        2.232148
   12        2.634192
 
  0.2083333E+00  0.1666667E+00  0.0000000E+00  0.4629630E-02
    1      -21.406270
    2      -18.200216
    3      -13.714956
    4      -10.511193
    5       -9.400269
    6       -8.290632
    7       -7.158373
    8       -5.821916
    9        0.107808
   10        1.544876
   11        2.354485
   12        2.758598
 
  0.2500000E+00  0.1666667E+00  0.0000000E+00  0.4629630E-02
    1      -21.297924
    2      -18.538035
    3      -13.246097
    4      -10.390720
    5       -9.273018
    6       -8.556403
    7       -7.358443
    8       -6.166503
    9        0.569053
   10        1.693027
   11        2.503917
   12        2.910670
 
  0.2916667E+00  0.1666667E+00  0.0000000E+00  0.4629630E-02
    1      -21.170091
    2      -18.862755
    3      -12.772280
    4      -10.247065
    5       -9.123185
    6       -8.838246
    7       -7.606131
    8       -6.509790
    9        1.046272
   10        1.868163
   11        2.680383
   12        3.090411
 
  0.3333333E+00  0.1666667E+00  0.0000000E+00  0.4629630E-02
    1      -21.022888
    2      -19.172547
    3      -12.298774
    4      -10.079282
    5       -9.135152
    6       -8.951078
    7       -7.891630
    8       -6.845666
    9        1.531577
   10        2.070244
   11        2.883799
   12        3.297819
 
  0.3750000E+00  0.1666667E+00  0.0000000E+00  0.4629630E-02
    1      -20.856452
    2      -19.466239
    3      -11.831125
    4       -9.886091
    5       -9.448546
    6       -8.757079
    7       -8.202238
    8       -7.170025
    9        2.018949
   10        2.299206
   11        3.114058
   12        3.532886
 
  0.4166667E+00  0.1666667E+00  0.0000000E+00  0.4629630E-02
    1      -20.670953
    2      -19.743022
    3      -11.375438
    4       -9.781917
    5       -9.665981
    6       -8.541662
    7       -8.523463
    8       -7.480004
    9        2.503508
   10        2.554960
   11        3.371007
   12        3.795602
 
  0.4583333E+00  0.1666667E+00  0.0000000E+00  0.4629630E-02
    1      -20.466591
    2      -20.002299
    3      -10.938154
    4      -10.139675
    5       -9.417705
    6       -8.840674
    7       -8.305413
    8       -7.773531
    9        2.837399
   10        2.981077
   11        3.481793
   12        3.654208
 
  0.5000000E+00  0.1666667E+00  0.0000000E+00  0.2314815E-02
    1      -20.243609
    2      -20.243609
    3      -10.525063
    4      -10.525063
    5       -9.141457
    6       -9.141457
    7       -8.049061
    8       -8.049061
    9        3.146394
   10        3.146394
   11        3.447854
   12        3.447854
 