gr                                      
           1
     4.338856    0.000000    0.000000
     0.000000    2.460720    0.000000
     0.000000    0.000000   19.747461
   C 
   4
Direct configuration=     1
   0.99964215  0.00000000  0.00000000
   0.16702452  0.50000000  0.00000000
   0.49964215  0.50000000  0.00000000
   0.66702452  0.00000000  0.00000000
Direct configuration=     2
   0.99961500 -0.00000000 -0.00000000
   0.16705166  0.50000000  0.00000000
   0.49961500  0.50000000 -0.00000000
   0.66705166 -0.00000000  0.00000000
Direct configuration=     3
   0.99963659  0.00000000 -0.00000000
   0.16703007  0.50000000  0.00000000
   0.49963659  0.50000000 -0.00000000
   0.66703007 -0.00000000  0.00000000
Direct configuration=     4
   0.99963660  0.00000000 -0.00000000
   0.16703007  0.50000000  0.00000000
   0.49963660  0.50000000 -0.00000000
   0.66703007 -0.00000000  0.00000000
Direct configuration=     5
   0.99963660  0.00000000 -0.00000000
   0.16703007  0.50000000  0.00000000
   0.49963660  0.50000000 -0.00000000
   0.66703007 -0.00000000  0.00000000
