    4    4  400    1
  0.5270948E+02  0.4358942E-09  0.2458965E-09  0.1967049E-08  0.5000000E-15
  1.000000000000000E-004
  CAR 
 gr                                      
     16    247     12
 
  0.0000000E+00  0.0000000E+00  0.0000000E+00  0.1157407E-02
    1      -22.114917
    2      -17.212981
    3      -15.862162
    4      -10.251814
    5       -8.872094
    6       -5.965638
    7       -5.737418
    8       -5.292157
    9       -1.165994
   10        0.540580
   11        1.339372
   12        1.729958
 
  0.4166667E-01  0.0000000E+00  0.0000000E+00  0.2314815E-02
    1      -22.105064
    2      -17.338768
    3      -15.721339
    4      -10.240107
    5       -8.862504
    6       -6.009631
    7       -5.757966
    8       -5.352352
    9       -1.090016
   10        0.553915
   11        1.352897
   12        1.743651
 
  0.8333333E-01  0.0000000E+00  0.0000000E+00  0.2314815E-02
    1      -22.075510
    2      -17.623979
    3      -15.391097
    4      -10.205004
    5       -8.833787
    6       -6.139568
    7       -5.818528
    8       -5.520521
    9       -0.874659
   10        0.593924
   11        1.393465
   12        1.784732
 
  0.1250000E+00  0.0000000E+00  0.0000000E+00  0.2314815E-02
    1      -22.026275
    2      -17.963493
    3      -14.976789
    4      -10.146562
    5       -8.786093
    6       -6.349711
    7       -5.916031
    8       -5.768298
    9       -0.548768
   10        0.660625
   11        1.461064
   12        1.853205
 
  0.1666667E+00  0.0000000E+00  0.0000000E+00  0.2314815E-02
    1      -21.957394
    2      -18.315258
    3      -14.520870
    4      -10.064880
    5       -8.719684
    6       -6.631642
    7       -6.066386
    8       -6.045862
    9       -0.142458
   10        0.754038
   11        1.555667
   12        1.949071
 
  0.2083333E+00  0.0000000E+00  0.0000000E+00  0.2314815E-02
    1      -21.868918
    2      -18.663749
    3      -14.039439
    4       -9.960100
    5       -8.634934
    6       -6.975492
    7       -6.392046
    8       -6.202474
    9        0.320355
   10        0.874174
   11        1.677233
   12        2.072335
 
  0.2500000E+00  0.0000000E+00  0.0000000E+00  0.2314815E-02
    1      -21.760909
    2      -19.002314
    3      -13.539911
    4       -9.832412
    5       -8.532345
    6       -7.371057
    7       -6.729596
    8       -6.379947
    9        0.822406
   10        1.021033
   11        1.825699
   12        2.222997
 
  0.2916667E+00  0.0000000E+00  0.0000000E+00  0.2314815E-02
    1      -21.633453
    2      -19.327634
    3      -13.026582
    4       -9.682064
    5       -8.412562
    6       -7.808586
    7       -7.068600
    8       -6.572459
    9        1.194597
   10        1.351172
   11        2.000965
   12        2.401056
 
  0.3333333E+00  0.0000000E+00  0.0000000E+00  0.2314815E-02
    1      -21.486651
    2      -19.637834
    3      -12.502548
    4       -9.509370
    5       -8.279230
    6       -8.276391
    7       -7.402093
    8       -6.774589
    9        1.394833
   10        1.896849
   11        2.202863
   12        2.606507
 
  0.3750000E+00  0.0000000E+00  0.0000000E+00  0.2314815E-02
    1      -21.320623
    2      -19.931743
    3      -11.970479
    4       -9.314725
    5       -8.775219
    6       -8.124827
    7       -7.725332
    8       -6.981478
    9        1.621696
   10        2.431079
   11        2.450229
   12        2.839343
 
  0.4166667E+00  0.0000000E+00  0.0000000E+00  0.2314815E-02
    1      -21.135518
    2      -20.208566
    3      -11.432987
    4       -9.289862
    5       -9.098624
    6       -8.034998
    7       -7.959086
    8       -7.188887
    9        1.875117
   10        2.684925
   11        2.996729
   12        3.099551
 
  0.4583333E+00  0.0000000E+00  0.0000000E+00  0.2314815E-02
    1      -20.931515
    2      -20.467738
    3      -10.892849
    4       -9.817455
    5       -8.861690
    6       -8.328711
    7       -7.780648
    8       -7.393183
    9        2.155010
   10        2.793685
   11        2.962428
   12        3.387191
 
  0.5000000E+00  0.0000000E+00  0.0000000E+00  0.1157407E-02
    1      -20.708832
    2      -20.708832
    3      -10.353159
    4      -10.353159
    5       -8.604715
    6       -8.604715
    7       -7.591296
    8       -7.591296
    9        2.461255
   10        2.461255
   11        3.254357
   12        3.254469
 
  0.0000000E+00  0.2777778E-01  0.0000000E+00  0.2314815E-02
    1      -22.101118
    2      -17.201029
    3      -15.850410
    4      -10.235417
    5       -8.935087
    6       -5.992507
    7       -5.796060
    8       -5.275478
    9       -1.168710
   10        0.559280
   11        1.358271
   12        1.749093
 
  0.4166667E-01  0.2777778E-01  0.0000000E+00  0.4629630E-02
    1      -22.091266
    2      -17.326689
    3      -15.709759
    4      -10.223714
    5       -8.925485
    6       -6.037649
    7       -5.814841
    8       -5.335793
    9       -1.092717
   10        0.572615
   11        1.371795
   12        1.762786
 
  0.8333333E-01  0.2777778E-01  0.0000000E+00  0.4629630E-02
    1      -22.061717
    2      -17.611671
    3      -15.379884
    4      -10.188622
    5       -8.896729
    6       -6.169046
    7       -5.872201
    8       -5.504243
    9       -0.877395
   10        0.612624
   11        1.412361
   12        1.803868
 
  0.1250000E+00  0.2777778E-01  0.0000000E+00  0.4629630E-02
    1      -22.012489
    2      -17.950969
    3      -14.966027
    4      -10.130200
    5       -8.848970
    6       -6.378791
    7       -5.967525
    8       -5.752320
    9       -0.551731
   10        0.679327
   11        1.479956
   12        1.872340
 
  0.1666667E+00  0.2777778E-01  0.0000000E+00  0.4629630E-02
    1      -21.943619
    2      -18.302546
    3      -14.510635
    4      -10.048546
    5       -8.782462
    6       -6.658360
    7       -6.096673
    8       -6.050639
    9       -0.145929
   10        0.772742
   11        1.574554
   12        1.968208
 
  0.2083333E+00  0.2777778E-01  0.0000000E+00  0.4629630E-02
    1      -21.855158
    2      -18.650876
    3      -14.029818
    4       -9.943801
    5       -8.697575
    6       -6.998603
    7       -6.376441
    8       -6.253703
    9        0.316076
   10        0.892883
   11        1.696115
   12        2.091473
 
  0.2500000E+00  0.2777778E-01  0.0000000E+00  0.4629630E-02
    1      -21.747168
    2      -18.989302
    3      -13.531011
    4       -9.816156
    5       -8.594801
    6       -7.390024
    7       -6.714056
    8       -6.432233
    9        0.817032
   10        1.039746
   11        1.844576
   12        2.242137
 
  0.2916667E+00  0.2777778E-01  0.0000000E+00  0.4629630E-02
    1      -21.619734
    2      -19.314503
    3      -13.018531
    4       -9.665858
    5       -8.474775
    6       -7.823367
    7       -7.053067
    8       -6.626095
    9        1.213317
   10        1.344457
   11        2.019837
   12        2.420198
 
  0.3333333E+00  0.2777778E-01  0.0000000E+00  0.4629630E-02
    1      -21.472959
    2      -19.624599
    3      -12.495497
    4       -9.493222
    5       -8.338290
    6       -8.290069
    7       -7.386528
    8       -6.829644
    9        1.413563
   10        1.888617
   11        2.221734
   12        2.625653
 
  0.3750000E+00  0.2777778E-01  0.0000000E+00  0.4629630E-02
    1      -21.306963
    2      -19.918418
    3      -11.964610
    4       -9.298642
    5       -8.782501
    6       -8.186328
    7       -7.709709
    8       -7.037890
    9        1.640435
   10        2.440487
   11        2.449955
   12        2.858493
 
  0.4166667E+00  0.2777778E-01  0.0000000E+00  0.4629630E-02
    1      -21.121896
    2      -20.195164
    3      -11.428519
    4       -9.294018
    5       -9.082612
    6       -8.020087
    7       -8.019304
    8       -7.246528
    9        1.893868
   10        2.703816
   11        2.986376
   12        3.118707
 
  0.4583333E+00  0.2777778E-01  0.0000000E+00  0.4629630E-02
    1      -20.917936
    2      -20.454268
    3      -10.890039
    4       -9.818912
    5       -8.845755
    6       -8.312937
    7       -7.841028
    8       -7.451897
    9        2.173775
   10        2.812500
   11        2.981338
   12        3.406292
 
  0.5000000E+00  0.2777778E-01  0.0000000E+00  0.2314815E-02
    1      -20.695304
    2      -20.695304
    3      -10.352308
    4      -10.352308
    5       -8.588860
    6       -8.588860
    7       -7.650920
    8       -7.650920
    9        2.480039
   10        2.480039
   11        3.272979
   12        3.272979
 
  0.0000000E+00  0.5555556E-01  0.0000000E+00  0.2314815E-02
    1      -22.059731
    2      -17.165176
    3      -15.815295
    4      -10.186260
    5       -9.118974
    6       -6.072664
    7       -5.967190
    8       -5.225464
    9       -1.177670
   10        0.615381
   11        1.414960
   12        1.806499
 
  0.4166667E-01  0.5555556E-01  0.0000000E+00  0.4629630E-02
    1      -22.049883
    2      -17.290462
    3      -15.675159
    4      -10.174568
    5       -9.109331
    6       -6.125724
    7       -5.976236
    8       -5.286148
    9       -1.101628
   10        0.628714
   11        1.428481
   12        1.820192
 
  0.8333333E-01  0.5555556E-01  0.0000000E+00  0.4629630E-02
    1      -22.020347
    2      -17.574763
    3      -15.346388
    4      -10.139512
    5       -9.080448
    6       -6.264621
    7       -6.020961
    8       -5.455461
    9       -0.886404
   10        0.668724
   11        1.469041
   12        1.861274
 
  0.1250000E+00  0.5555556E-01  0.0000000E+00  0.4629630E-02
    1      -21.971143
    2      -17.913416
    3      -14.933900
    4      -10.081150
    5       -9.032467
    6       -6.473373
    7       -6.109653
    8       -5.704458
    9       -0.561429
   10        0.735427
   11        1.536625
   12        1.929747
 
  0.1666667E+00  0.5555556E-01  0.0000000E+00  0.4629630E-02
    1      -21.902308
    2      -18.264431
    3      -14.480112
    4       -9.999579
    5       -8.965630
    6       -6.745210
    7       -6.237469
    8       -6.003483
    9       -0.157178
   10        0.828847
   11        1.631208
   12        2.025616
 
  0.2083333E+00  0.5555556E-01  0.0000000E+00  0.4629630E-02
    1      -21.813890
    2      -18.612277
    3      -14.001176
    4       -9.894941
    5       -8.880284
    6       -7.073761
    7       -6.396669
    8       -6.329717
    9        0.302352
   10        0.948995
   11        1.752752
   12        2.148884
 
  0.2500000E+00  0.5555556E-01  0.0000000E+00  0.4629630E-02
    1      -21.705955
    2      -18.950286
    3      -13.504580
    4       -9.767427
    5       -8.776896
    6       -7.451822
    7       -6.667526
    8       -6.579314
    9        0.799962
   10        1.095871
   11        1.901194
   12        2.299553
 
  0.2916667E+00  0.5555556E-01  0.0000000E+00  0.4629630E-02
    1      -21.578590
    2      -19.275126
    3      -12.994710
    4       -9.617284
    5       -8.656065
    6       -7.871705
    7       -7.006555
    8       -6.778111
    9        1.269459
   10        1.323279
   11        2.076441
   12        2.477621
 
  0.3333333E+00  0.5555556E-01  0.0000000E+00  0.4629630E-02
    1      -21.431896
    2      -19.584911
    3      -12.474767
    4       -9.444824
    5       -8.518543
    6       -8.325775
    7       -7.339914
    8       -6.986695
    9        1.469724
   10        1.862768
   11        2.278331
   12        2.683083
 
  0.3750000E+00  0.5555556E-01  0.0000000E+00  0.4629630E-02
    1      -21.265996
    2      -19.878459
    3      -11.947547
    4       -9.250442
    5       -8.806851
    6       -8.365261
    7       -7.662918
    8       -7.199667
    9        1.696619
   10        2.409890
   11        2.506566
   12        2.915935
 
  0.4166667E+00  0.5555556E-01  0.0000000E+00  0.4629630E-02
    1      -21.081041
    2      -20.154971
    3      -11.415811
    4       -9.308434
    5       -9.034630
    6       -8.197362
    7       -7.972291
    8       -7.412518
    9        1.950077
   10        2.760477
   11        2.953169
   12        3.176214
 
  0.4583333E+00  0.5555556E-01  0.0000000E+00  0.4629630E-02
    1      -20.877212
    2      -20.413872
    3      -10.882507
    4       -9.824788
    5       -8.798006
    6       -8.265682
    7       -8.016242
    8       -7.621521
    9        2.230015
   10        2.868848
   11        3.038060
   12        3.437094
 
  0.5000000E+00  0.5555556E-01  0.0000000E+00  0.2314815E-02
    1      -20.654732
    2      -20.654732
    3      -10.350918
    4      -10.350918
    5       -8.541356
    6       -8.541356
    7       -7.823604
    8       -7.823604
    9        2.536322
   10        2.536322
   11        3.328673
   12        3.328673
 
  0.0000000E+00  0.8333333E-01  0.0000000E+00  0.2314815E-02
    1      -21.990789
    2      -17.105436
    3      -15.757270
    4      -10.104448
    5       -9.409906
    6       -6.237915
    7       -6.204755
    8       -5.142178
    9       -1.195306
   10        0.708881
   11        1.509416
   12        1.902177
 
  0.4166667E-01  0.8333333E-01  0.0000000E+00  0.4629630E-02
    1      -21.980949
    2      -17.230118
    3      -15.617982
    4      -10.092777
    5       -9.400178
    6       -6.311791
    7       -6.190067
    8       -5.203514
    9       -1.119165
   10        0.722214
   11        1.522933
   12        1.915870
 
  0.8333333E-01  0.8333333E-01  0.0000000E+00  0.4629630E-02
    1      -21.951436
    2      -17.513306
    3      -15.291067
    4      -10.057782
    5       -9.371038
    6       -6.457084
    7       -6.220125
    8       -5.374345
    9       -0.904082
   10        0.762218
   11        1.563480
   12        1.956951
 
  0.1250000E+00  0.8333333E-01  0.0000000E+00  0.4629630E-02
    1      -21.902273
    2      -17.850892
    3      -14.880912
    4       -9.999523
    5       -9.322611
    6       -6.659258
    7       -6.303034
    8       -5.624941
    9       -0.580279
   10        0.828917
   11        1.631044
   12        2.025424
 
  0.1666667E+00  0.8333333E-01  0.0000000E+00  0.4629630E-02
    1      -21.833493
    2      -18.200970
    3      -14.429891
    4       -9.918095
    5       -9.255110
    6       -6.915075
    7       -6.432053
    8       -5.925186
    9       -0.178701
   10        0.922333
   11        1.725600
   12        2.121294
 
  0.2083333E+00  0.8333333E-01  0.0000000E+00  0.4629630E-02
    1      -21.745149
    2      -18.548007
    3      -13.954224
    4       -9.813641
    5       -9.168843
    6       -7.221270
    7       -6.597912
    8       -6.252155
    9        0.276554
   10        1.042482
   11        1.847110
   12        2.244565
 
  0.2500000E+00  0.8333333E-01  0.0000000E+00  0.4629630E-02
    1      -21.637309
    2      -18.885317
    3      -13.461499
    4       -9.686352
    5       -9.064223
    6       -7.573893
    7       -6.790637
    8       -6.590285
    9        0.768380
   10        1.189365
   11        1.995518
   12        2.395238
 
  0.2916667E+00  0.8333333E-01  0.0000000E+00  0.4629630E-02
    1      -21.510057
    2      -19.209553
    3      -12.956230
    4       -9.536473
    5       -8.941779
    6       -7.968022
    7       -7.000944
    8       -6.929333
    9        1.284584
   10        1.362966
   11        2.170734
   12        2.573313
 
  0.3333333E+00  0.8333333E-01  0.0000000E+00  0.4629630E-02
    1      -21.363498
    2      -19.518815
    3      -12.441772
    4       -9.364317
    5       -8.802176
    6       -8.397891
    7       -7.262507
    8       -7.220980
    9        1.563248
   10        1.815919
   11        2.372610
   12        2.778786
 
  0.3750000E+00  0.8333333E-01  0.0000000E+00  0.4629630E-02
    1      -21.197758
    2      -19.811910
    3      -11.921109
    4       -9.170276
    5       -8.857297
    6       -8.646238
    7       -7.585196
    8       -7.444467
    9        1.790162
   10        2.354491
   11        2.600867
   12        3.011651
 
  0.4166667E+00  0.8333333E-01  0.0000000E+00  0.4629630E-02
    1      -21.012991
    2      -20.088031
    3      -11.397228
    4       -9.340067
    5       -8.954838
    6       -8.474980
    7       -7.894181
    8       -7.666504
    9        2.043642
   10        2.854869
   11        2.891354
   12        3.271924
 
  0.4583333E+00  0.8333333E-01  0.0000000E+00  0.4629630E-02
    1      -20.809381
    2      -20.346591
    3      -10.873342
    4       -9.840399
    5       -8.718618
    6       -8.289648
    7       -8.187149
    8       -7.883272
    9        2.323602
   10        2.962509
   11        3.132580
   12        3.395969
 
  0.5000000E+00  0.8333333E-01  0.0000000E+00  0.2314815E-02
    1      -20.587156
    2      -20.587156
    3      -10.353040
    4      -10.353040
    5       -8.462391
    6       -8.462391
    7       -8.091778
    8       -8.091778
    9        2.629937
   10        2.629937
   11        3.420597
   12        3.420601
 
  0.0000000E+00  0.1111111E+00  0.0000000E+00  0.2314815E-02
    1      -21.894355
    2      -17.021827
    3      -15.677185
    4       -9.990160
    5       -9.788669
    6       -6.590709
    7       -6.386516
    8       -5.025729
    9       -1.225669
   10        0.839782
   11        1.641601
   12        2.036129
 
  0.4166667E-01  0.1111111E+00  0.0000000E+00  0.4629630E-02
    1      -21.884526
    2      -17.145709
    3      -15.539069
    4       -9.978519
    5       -9.778791
    6       -6.641331
    7       -6.391235
    8       -5.088063
    9       -1.149341
   10        0.853110
   11        1.655111
   12        2.049821
 
  0.8333333E-01  0.1111111E+00  0.0000000E+00  0.4629630E-02
    1      -21.855046
    2      -17.427390
    3      -15.214788
    4       -9.943615
    5       -9.749191
    6       -6.772489
    7       -6.424451
    8       -5.261196
    9       -0.934391
   10        0.893102
   11        1.695637
   12        2.090900
 
  0.1250000E+00  0.1111111E+00  0.0000000E+00  0.4629630E-02
    1      -21.805938
    2      -17.763498
    3      -14.808035
    4       -9.885504
    5       -9.699965
    6       -6.960818
    7       -6.504640
    8       -5.514188
    9       -0.612258
   10        0.959781
   11        1.763167
   12        2.159370
 
  0.1666667E+00  0.1111111E+00  0.0000000E+00  0.4629630E-02
    1      -21.737237
    2      -18.112266
    3      -14.361120
    4       -9.804286
    5       -9.631276
    6       -7.195727
    7       -6.634471
    8       -5.816227
    9       -0.214588
   10        1.053176
   11        1.857677
   12        2.255238
 
  0.2083333E+00  0.1111111E+00  0.0000000E+00  0.4629630E-02
    1      -21.648998
    2      -18.458163
    3      -13.890366
    4       -9.700102
    5       -9.543358
    6       -7.472324
    7       -6.808370
    8       -6.144257
    9        0.234392
   10        1.173307
   11        1.979132
   12        2.378508
 
  0.2500000E+00  0.1111111E+00  0.0000000E+00  0.4629630E-02
    1      -21.541289
    2      -18.794487
    3      -13.403530
    4       -9.573141
    5       -9.436522
    6       -7.788279
    7       -7.016427
    8       -6.482831
    9        0.717724
   10        1.320177
   11        2.127479
   12        2.529183
 
  0.2916667E+00  0.1111111E+00  0.0000000E+00  0.4629630E-02
    1      -21.414195
    2      -19.117870
    3      -12.905344
    4       -9.423651
    5       -9.311161
    6       -8.142158
    7       -7.247014
    8       -6.821878
    9        1.223471
   10        1.493770
   11        2.302637
   12        2.707263
 
  0.3333333E+00  0.1111111E+00  0.0000000E+00  0.4629630E-02
    1      -21.267827
    2      -19.426393
    3      -12.399439
    4       -9.251941
    5       -9.167763
    6       -8.532003
    7       -7.489077
    8       -7.154753
    9        1.694051
   10        1.742738
   11        2.504477
   12        2.912744
 
  0.3750000E+00  0.1111111E+00  0.0000000E+00  0.4629630E-02
    1      -21.102312
    2      -19.718848
    3      -11.889143
    4       -9.058401
    5       -9.006925
    6       -8.954490
    7       -7.733671
    8       -7.476959
    9        1.920964
   10        2.268277
   11        2.732755
   12        3.145621
 
  0.4166667E+00  0.1111111E+00  0.0000000E+00  0.4629630E-02
    1      -20.917809
    2      -19.994414
    3      -11.377870
    4       -9.404938
    5       -8.843515
    6       -8.829380
    7       -7.974350
    8       -7.785359
    9        2.174439
   10        2.793136
   11        2.986904
   12        3.405885
 
  0.4583333E+00  0.1111111E+00  0.0000000E+00  0.4629630E-02
    1      -20.714509
    2      -20.252495
    3      -10.869351
    4       -9.877893
    5       -8.636026
    6       -8.607890
    7       -8.206764
    8       -8.077692
    9        2.454389
   10        3.093260
   11        3.264865
   12        3.305179
 
  0.5000000E+00  0.1111111E+00  0.0000000E+00  0.2314815E-02
    1      -20.492644
    2      -20.492644
    3      -10.367780
    4      -10.367780
    5       -8.427996
    6       -8.427996
    7       -8.352291
    8       -8.352291
    9        2.760708
   10        2.760708
   11        3.544100
   12        3.544113
 
  0.0000000E+00  0.1388889E+00  0.0000000E+00  0.2314815E-02
    1      -21.770514
    2      -16.914381
    3      -15.576473
    4      -10.234174
    5       -9.843656
    6       -7.007029
    7       -6.614795
    8       -4.876272
    9       -1.274353
   10        1.008073
   11        1.811455
   12        2.208355
 
  0.4166667E-01  0.1388889E+00  0.0000000E+00  0.4629630E-02
    1      -21.760699
    2      -17.037318
    3      -15.439839
    4      -10.224039
    5       -9.832055
    6       -7.053285
    7       -6.619309
    8       -4.940057
    9       -1.197675
   10        1.021392
   11        1.824954
   12        2.222046
 
  0.8333333E-01  0.1388889E+00  0.0000000E+00  0.4629630E-02
    1      -21.731262
    2      -17.317152
    3      -15.119041
    4      -10.193649
    5       -9.797273
    6       -7.177948
    7       -6.645901
    8       -5.116498
    9       -0.982725
   10        1.061360
   11        1.865447
   12        2.263121
 
  0.1250000E+00  0.1388889E+00  0.0000000E+00  0.4629630E-02
    1      -21.682225
    2      -17.651391
    3      -14.716963
    4      -10.143047
    5       -9.739366
    6       -7.358515
    7       -6.713819
    8       -5.372864
    9       -0.662733
   10        1.128001
   11        1.932922
   12        2.331584
 
  0.1666667E+00  0.1388889E+00  0.0000000E+00  0.4629630E-02
    1      -21.613628
    2      -17.998475
    3      -14.275837
    4      -10.072300
    5       -9.658433
    6       -7.580150
    7       -6.832257
    8       -5.677370
    9       -0.270316
   10        1.221348
   11        2.027356
   12        2.427444
 
  0.2083333E+00  0.1388889E+00  0.0000000E+00  0.4629630E-02
    1      -21.525523
    2      -18.342893
    3      -13.812153
    4       -9.981500
    5       -9.554617
    6       -7.834569
    7       -7.001441
    8       -6.006813
    9        0.170169
   10        1.341428
   11        2.148717
   12        2.550707
 
  0.2500000E+00  0.1388889E+00  0.0000000E+00  0.4629630E-02
    1      -21.417982
    2      -18.677934
    3      -13.333953
    4       -9.870754
    5       -9.428106
    6       -8.117654
    7       -7.215351
    8       -6.345937
    9        0.642005
   10        1.488251
   11        2.296955
   12        2.701377
 
  0.2916667E+00  0.1388889E+00  0.0000000E+00  0.4629630E-02
    1      -21.291095
    2      -19.000204
    3      -12.846357
    4       -9.740173
    5       -9.279148
    6       -8.428275
    7       -7.463576
    8       -6.684922
    9        1.133613
   10        1.661803
   11        2.472002
   12        2.879457
 
  0.3333333E+00  0.1388889E+00  0.0000000E+00  0.4629630E-02
    1      -21.144972
    2      -19.307764
    3      -12.353510
    4       -9.589867
    5       -9.108050
    6       -8.767322
    7       -7.733122
    8       -7.017337
    9        1.636523
   10        1.862047
   11        2.673753
   12        3.084942
 
  0.3750000E+00  0.1388889E+00  0.0000000E+00  0.4629630E-02
    1      -20.979750
    2      -19.599385
    3      -11.859406
    4       -9.419928
    5       -9.136283
    6       -8.915198
    7       -8.010618
    8       -7.338840
    9        2.088924
   10        2.144071
   11        2.902023
   12        3.317826
 
  0.4166667E+00  0.1388889E+00  0.0000000E+00  0.4629630E-02
    1      -20.795590
    2      -19.874229
    3      -11.368300
    4       -9.535498
    5       -9.230439
    6       -8.701072
    7       -8.284619
    8       -7.646403
    9        2.342356
   10        2.650544
   11        3.156379
   12        3.578121
 
  0.4583333E+00  0.1388889E+00  0.0000000E+00  0.4629630E-02
    1      -20.592692
    2      -20.131686
    3      -10.884940
    4       -9.963004
    5       -9.021514
    6       -8.547094
    7       -8.466271
    8       -7.937844
    9        2.622248
   10        3.150044
   11        3.260935
   12        3.434870
 
  0.5000000E+00  0.1388889E+00  0.0000000E+00  0.2314815E-02
    1      -20.371293
    2      -20.371293
    3      -10.414624
    4      -10.414624
    5       -8.793448
    6       -8.793448
    7       -8.211544
    8       -8.211544
    9        2.928488
   10        2.928488
   11        3.613450
   12        3.613483
 
  0.0000000E+00  0.1666667E+00  0.0000000E+00  0.2314815E-02
    1      -21.619383
    2      -16.783138
    3      -15.457530
    4      -10.725699
    5       -9.665279
    6       -7.469748
    7       -6.885622
    8       -4.694012
    9       -1.348277
   10        1.213734
   11        2.018894
   12        2.418857
 
  0.4166667E-01  0.1666667E+00  0.0000000E+00  0.4629630E-02
    1      -21.609585
    2      -16.905066
    3      -15.322687
    4      -10.715123
    5       -9.653732
    6       -7.515476
    7       -6.885605
    8       -4.759886
    9       -1.270936
   10        1.227041
   11        2.032375
   12        2.432545
 
  0.8333333E-01  0.1666667E+00  0.0000000E+00  0.4629630E-02
    1      -21.580201
    2      -17.182799
    3      -15.006379
    4      -10.683373
    5       -9.619110
    6       -7.639595
    7       -6.898122
    8       -4.940999
    9       -1.055583
   10        1.266972
   11        2.072814
   12        2.473613
 
  0.1250000E+00  0.1666667E+00  0.0000000E+00  0.4629630E-02
    1      -21.531253
    2      -17.514804
    3      -14.610667
    4      -10.630383
    5       -9.561472
    6       -7.818872
    7       -6.944716
    8       -5.201995
    9       -0.738066
   10        1.333552
   11        2.140199
   12        2.542064
 
  0.1666667E+00  0.1666667E+00  0.0000000E+00  0.4629630E-02
    1      -21.462780
    2      -17.859824
    3      -14.177715
    4      -10.556029
    5       -9.480915
    6       -8.035876
    7       -7.039457
    8       -5.509773
    9       -0.352292
   10        1.426818
   11        2.234504
   12        2.637908
 
  0.2083333E+00  0.1666667E+00  0.0000000E+00  0.4629630E-02
    1      -21.374840
    2      -18.202413
    3      -13.724315
    4      -10.460097
    5       -9.377583
    6       -8.279788
    7       -7.187680
    8       -5.841003
    9        0.077311
   10        1.546804
   11        2.355698
   12        2.761153
 
  0.2500000E+00  0.1666667E+00  0.0000000E+00  0.4629630E-02
    1      -21.267507
    2      -18.535856
    3      -13.259042
    4      -10.342252
    5       -9.251667
    6       -8.544166
    7       -7.388095
    8       -6.180744
    9        0.534443
   10        1.693530
   11        2.503733
   12        2.911808
 
  0.2916667E+00  0.1666667E+00  0.0000000E+00  0.4629630E-02
    1      -21.140873
    2      -18.856739
    3      -12.787780
    4      -10.201979
    5       -9.103411
    6       -8.825692
    7       -7.634383
    8       -6.519538
    9        1.008048
   10        1.866991
   11        2.678546
   12        3.089877
 
  0.3333333E+00  0.1666667E+00  0.0000000E+00  0.4629630E-02
    1      -20.995055
    2      -19.163097
    3      -12.315710
    4      -10.038521
    5       -9.123684
    6       -8.933124
    7       -7.916371
    8       -6.851247
    9        1.490203
   10        2.067150
   11        2.880055
   12        3.295358
 
  0.3750000E+00  0.1666667E+00  0.0000000E+00  0.4629630E-02
    1      -20.830193
    2      -19.453678
    3      -11.848164
    4       -9.850840
    5       -9.439845
    6       -8.741188
    7       -8.221104
    8       -7.171742
    9        1.974841
   10        2.293943
   11        3.108145
   12        3.528243
 
  0.4166667E+00  0.1666667E+00  0.0000000E+00  0.4629630E-02
    1      -20.646460
    2      -19.727622
    3      -11.390981
    4       -9.777688
    5       -9.637687
    6       -8.534136
    7       -8.528078
    8       -7.478139
    9        2.457024
   10        2.547284
   11        3.362630
   12        3.788688
 
  0.4583333E+00  0.1666667E+00  0.0000000E+00  0.4629630E-02
    1      -20.444059
    2      -19.984303
    3      -10.950410
    4      -10.141130
    5       -9.397962
    6       -8.841416
    7       -8.294381
    8       -7.768354
    9        2.827064
   10        2.932497
   11        3.465406
   12        3.642504
 
  0.5000000E+00  0.1666667E+00  0.0000000E+00  0.2314815E-02
    1      -20.223240
    2      -20.223240
    3      -10.532390
    4      -10.532390
    5       -9.131652
    6       -9.131652
    7       -8.040830
    8       -8.040830
    9        3.133156
   10        3.133156
   11        3.397304
   12        3.397328
 