<?xml version="1.0" encoding="ISO-8859-1"?>
<modeling>
 <generator>
  <i name="program" type="string">vasp </i>
  <i name="version" type="string">5.3.5  </i>
  <i name="subversion" type="string">31Mar14 (build Mar 02 2015 18:14:16) complex                          parallel </i>
  <i name="platform" type="string">LinuxIFC </i>
  <i name="date" type="string">2018 08 08 </i>
  <i name="time" type="string">18:43:56 </i>
 </generator>
 <incar>
  <i type="string" name="SYSTEM">  gr</i>
  <i type="string" name="PREC">accurate : accuracy</i>
  <i type="string" name="ALGO"> FAST.</i>
  <i type="int" name="NELM">   100</i>
  <i type="int" name="NELMDL">    -3</i>
  <i type="int" name="NELMIN">     5</i>
  <i type="int" name="IBRION">     1</i>
  <i name="EDIFF">      0.00000000</i>
  <i name="EDIFFG">     -0.00000100</i>
  <i type="int" name="NSW">   400</i>
  <i type="int" name="ISIF">     2</i>
  <i name="ENCUT">   2000.00000000</i>
  <i type="int" name="ISMEAR">     0</i>
  <i name="SIGMA">      0.05000000</i>
  <i type="int" name="NWRITE">     2</i>
  <i type="logical" name="LWAVE"> F  </i>
  <i type="logical" name="LCHARG"> F  </i>
  <i type="int" name="NELM">   100</i>
 </incar>
 <kpoints>
  <generation param="Gamma">
   <v type="int" name="divisions">      24       36        1 </v>
   <v name="usershift">      0.00000000       0.00000000       0.00000000 </v>
   <v name="genvec1">      0.04166667       0.00000000       0.00000000 </v>
   <v name="genvec2">      0.00000000       0.02777778       0.00000000 </v>
   <v name="genvec3">      0.00000000       0.00000000       1.00000000 </v>
   <v name="shift">      0.00000000       0.00000000       0.00000000 </v>
  </generation>
  <varray name="kpointlist" >
   <v>       0.00000000       0.00000000       0.00000000 </v>
   <v>       0.04166667       0.00000000       0.00000000 </v>
   <v>       0.08333333       0.00000000       0.00000000 </v>
   <v>       0.12500000       0.00000000       0.00000000 </v>
   <v>       0.16666667       0.00000000       0.00000000 </v>
   <v>       0.20833333       0.00000000       0.00000000 </v>
   <v>       0.25000000       0.00000000       0.00000000 </v>
   <v>       0.29166667       0.00000000       0.00000000 </v>
   <v>       0.33333333       0.00000000       0.00000000 </v>
   <v>       0.37500000       0.00000000       0.00000000 </v>
   <v>       0.41666667       0.00000000       0.00000000 </v>
   <v>       0.45833333       0.00000000       0.00000000 </v>
   <v>       0.50000000       0.00000000       0.00000000 </v>
   <v>       0.00000000       0.02777778       0.00000000 </v>
   <v>       0.04166667       0.02777778       0.00000000 </v>
   <v>       0.08333333       0.02777778       0.00000000 </v>
   <v>       0.12500000       0.02777778       0.00000000 </v>
   <v>       0.16666667       0.02777778       0.00000000 </v>
   <v>       0.20833333       0.02777778       0.00000000 </v>
   <v>       0.25000000       0.02777778       0.00000000 </v>
   <v>       0.29166667       0.02777778       0.00000000 </v>
   <v>       0.33333333       0.02777778       0.00000000 </v>
   <v>       0.37500000       0.02777778       0.00000000 </v>
   <v>       0.41666667       0.02777778       0.00000000 </v>
   <v>       0.45833333       0.02777778       0.00000000 </v>
   <v>       0.50000000       0.02777778       0.00000000 </v>
   <v>       0.00000000       0.05555556       0.00000000 </v>
   <v>       0.04166667       0.05555556       0.00000000 </v>
   <v>       0.08333333       0.05555556       0.00000000 </v>
   <v>       0.12500000       0.05555556       0.00000000 </v>
   <v>       0.16666667       0.05555556       0.00000000 </v>
   <v>       0.20833333       0.05555556       0.00000000 </v>
   <v>       0.25000000       0.05555556       0.00000000 </v>
   <v>       0.29166667       0.05555556       0.00000000 </v>
   <v>       0.33333333       0.05555556       0.00000000 </v>
   <v>       0.37500000       0.05555556       0.00000000 </v>
   <v>       0.41666667       0.05555556       0.00000000 </v>
   <v>       0.45833333       0.05555556       0.00000000 </v>
   <v>       0.50000000       0.05555556       0.00000000 </v>
   <v>       0.00000000       0.08333333       0.00000000 </v>
   <v>       0.04166667       0.08333333       0.00000000 </v>
   <v>       0.08333333       0.08333333       0.00000000 </v>
   <v>       0.12500000       0.08333333       0.00000000 </v>
   <v>       0.16666667       0.08333333       0.00000000 </v>
   <v>       0.20833333       0.08333333       0.00000000 </v>
   <v>       0.25000000       0.08333333       0.00000000 </v>
   <v>       0.29166667       0.08333333       0.00000000 </v>
   <v>       0.33333333       0.08333333       0.00000000 </v>
   <v>       0.37500000       0.08333333       0.00000000 </v>
   <v>       0.41666667       0.08333333       0.00000000 </v>
   <v>       0.45833333       0.08333333       0.00000000 </v>
   <v>       0.50000000       0.08333333       0.00000000 </v>
   <v>       0.00000000       0.11111111       0.00000000 </v>
   <v>       0.04166667       0.11111111       0.00000000 </v>
   <v>       0.08333333       0.11111111       0.00000000 </v>
   <v>       0.12500000       0.11111111       0.00000000 </v>
   <v>       0.16666667       0.11111111       0.00000000 </v>
   <v>       0.20833333       0.11111111       0.00000000 </v>
   <v>       0.25000000       0.11111111       0.00000000 </v>
   <v>       0.29166667       0.11111111       0.00000000 </v>
   <v>       0.33333333       0.11111111       0.00000000 </v>
   <v>       0.37500000       0.11111111       0.00000000 </v>
   <v>       0.41666667       0.11111111       0.00000000 </v>
   <v>       0.45833333       0.11111111       0.00000000 </v>
   <v>       0.50000000       0.11111111       0.00000000 </v>
   <v>       0.00000000       0.13888889       0.00000000 </v>
   <v>       0.04166667       0.13888889       0.00000000 </v>
   <v>       0.08333333       0.13888889       0.00000000 </v>
   <v>       0.12500000       0.13888889       0.00000000 </v>
   <v>       0.16666667       0.13888889       0.00000000 </v>
   <v>       0.20833333       0.13888889       0.00000000 </v>
   <v>       0.25000000       0.13888889       0.00000000 </v>
   <v>       0.29166667       0.13888889       0.00000000 </v>
   <v>       0.33333333       0.13888889       0.00000000 </v>
   <v>       0.37500000       0.13888889       0.00000000 </v>
   <v>       0.41666667       0.13888889       0.00000000 </v>
   <v>       0.45833333       0.13888889       0.00000000 </v>
   <v>       0.50000000       0.13888889       0.00000000 </v>
   <v>       0.00000000       0.16666667       0.00000000 </v>
   <v>       0.04166667       0.16666667       0.00000000 </v>
   <v>       0.08333333       0.16666667       0.00000000 </v>
   <v>       0.12500000       0.16666667       0.00000000 </v>
   <v>       0.16666667       0.16666667       0.00000000 </v>
   <v>       0.20833333       0.16666667       0.00000000 </v>
   <v>       0.25000000       0.16666667       0.00000000 </v>
   <v>       0.29166667       0.16666667       0.00000000 </v>
   <v>       0.33333333       0.16666667       0.00000000 </v>
   <v>       0.37500000       0.16666667       0.00000000 </v>
   <v>       0.41666667       0.16666667       0.00000000 </v>
   <v>       0.45833333       0.16666667       0.00000000 </v>
   <v>       0.50000000       0.16666667       0.00000000 </v>
   <v>       0.00000000       0.19444444       0.00000000 </v>
   <v>       0.04166667       0.19444444       0.00000000 </v>
   <v>       0.08333333       0.19444444       0.00000000 </v>
   <v>       0.12500000       0.19444444       0.00000000 </v>
   <v>       0.16666667       0.19444444       0.00000000 </v>
   <v>       0.20833333       0.19444444       0.00000000 </v>
   <v>       0.25000000       0.19444444       0.00000000 </v>
   <v>       0.29166667       0.19444444       0.00000000 </v>
   <v>       0.33333333       0.19444444       0.00000000 </v>
   <v>       0.37500000       0.19444444       0.00000000 </v>
   <v>       0.41666667       0.19444444       0.00000000 </v>
   <v>       0.45833333       0.19444444       0.00000000 </v>
   <v>       0.50000000       0.19444444       0.00000000 </v>
   <v>       0.00000000       0.22222222       0.00000000 </v>
   <v>       0.04166667       0.22222222       0.00000000 </v>
   <v>       0.08333333       0.22222222       0.00000000 </v>
   <v>       0.12500000       0.22222222       0.00000000 </v>
   <v>       0.16666667       0.22222222       0.00000000 </v>
   <v>       0.20833333       0.22222222       0.00000000 </v>
   <v>       0.25000000       0.22222222       0.00000000 </v>
   <v>       0.29166667       0.22222222       0.00000000 </v>
   <v>       0.33333333       0.22222222       0.00000000 </v>
   <v>       0.37500000       0.22222222       0.00000000 </v>
   <v>       0.41666667       0.22222222       0.00000000 </v>
   <v>       0.45833333       0.22222222       0.00000000 </v>
   <v>       0.50000000       0.22222222       0.00000000 </v>
   <v>       0.00000000       0.25000000       0.00000000 </v>
   <v>       0.04166667       0.25000000       0.00000000 </v>
   <v>       0.08333333       0.25000000       0.00000000 </v>
   <v>       0.12500000       0.25000000       0.00000000 </v>
   <v>       0.16666667       0.25000000       0.00000000 </v>
   <v>       0.20833333       0.25000000       0.00000000 </v>
   <v>       0.25000000       0.25000000       0.00000000 </v>
   <v>       0.29166667       0.25000000       0.00000000 </v>
   <v>       0.33333333       0.25000000       0.00000000 </v>
   <v>       0.37500000       0.25000000       0.00000000 </v>
   <v>       0.41666667       0.25000000       0.00000000 </v>
   <v>       0.45833333       0.25000000       0.00000000 </v>
   <v>       0.50000000       0.25000000       0.00000000 </v>
   <v>       0.00000000       0.27777778       0.00000000 </v>
   <v>       0.04166667       0.27777778       0.00000000 </v>
   <v>       0.08333333       0.27777778       0.00000000 </v>
   <v>       0.12500000       0.27777778       0.00000000 </v>
   <v>       0.16666667       0.27777778       0.00000000 </v>
   <v>       0.20833333       0.27777778       0.00000000 </v>
   <v>       0.25000000       0.27777778       0.00000000 </v>
   <v>       0.29166667       0.27777778       0.00000000 </v>
   <v>       0.33333333       0.27777778       0.00000000 </v>
   <v>       0.37500000       0.27777778       0.00000000 </v>
   <v>       0.41666667       0.27777778       0.00000000 </v>
   <v>       0.45833333       0.27777778       0.00000000 </v>
   <v>       0.50000000       0.27777778       0.00000000 </v>
   <v>       0.00000000       0.30555556       0.00000000 </v>
   <v>       0.04166667       0.30555556       0.00000000 </v>
   <v>       0.08333333       0.30555556       0.00000000 </v>
   <v>       0.12500000       0.30555556       0.00000000 </v>
   <v>       0.16666667       0.30555556       0.00000000 </v>
   <v>       0.20833333       0.30555556       0.00000000 </v>
   <v>       0.25000000       0.30555556       0.00000000 </v>
   <v>       0.29166667       0.30555556       0.00000000 </v>
   <v>       0.33333333       0.30555556       0.00000000 </v>
   <v>       0.37500000       0.30555556       0.00000000 </v>
   <v>       0.41666667       0.30555556       0.00000000 </v>
   <v>       0.45833333       0.30555556       0.00000000 </v>
   <v>       0.50000000       0.30555556       0.00000000 </v>
   <v>       0.00000000       0.33333333       0.00000000 </v>
   <v>       0.04166667       0.33333333       0.00000000 </v>
   <v>       0.08333333       0.33333333       0.00000000 </v>
   <v>       0.12500000       0.33333333       0.00000000 </v>
   <v>       0.16666667       0.33333333       0.00000000 </v>
   <v>       0.20833333       0.33333333       0.00000000 </v>
   <v>       0.25000000       0.33333333       0.00000000 </v>
   <v>       0.29166667       0.33333333       0.00000000 </v>
   <v>       0.33333333       0.33333333       0.00000000 </v>
   <v>       0.37500000       0.33333333       0.00000000 </v>
   <v>       0.41666667       0.33333333       0.00000000 </v>
   <v>       0.45833333       0.33333333       0.00000000 </v>
   <v>       0.50000000       0.33333333       0.00000000 </v>
   <v>       0.00000000       0.36111111       0.00000000 </v>
   <v>       0.04166667       0.36111111       0.00000000 </v>
   <v>       0.08333333       0.36111111       0.00000000 </v>
   <v>       0.12500000       0.36111111       0.00000000 </v>
   <v>       0.16666667       0.36111111       0.00000000 </v>
   <v>       0.20833333       0.36111111       0.00000000 </v>
   <v>       0.25000000       0.36111111       0.00000000 </v>
   <v>       0.29166667       0.36111111       0.00000000 </v>
   <v>       0.33333333       0.36111111       0.00000000 </v>
   <v>       0.37500000       0.36111111       0.00000000 </v>
   <v>       0.41666667       0.36111111       0.00000000 </v>
   <v>       0.45833333       0.36111111       0.00000000 </v>
   <v>       0.50000000       0.36111111       0.00000000 </v>
   <v>       0.00000000       0.38888889       0.00000000 </v>
   <v>       0.04166667       0.38888889       0.00000000 </v>
   <v>       0.08333333       0.38888889       0.00000000 </v>
   <v>       0.12500000       0.38888889       0.00000000 </v>
   <v>       0.16666667       0.38888889       0.00000000 </v>
   <v>       0.20833333       0.38888889       0.00000000 </v>
   <v>       0.25000000       0.38888889       0.00000000 </v>
   <v>       0.29166667       0.38888889       0.00000000 </v>
   <v>       0.33333333       0.38888889       0.00000000 </v>
   <v>       0.37500000       0.38888889       0.00000000 </v>
   <v>       0.41666667       0.38888889       0.00000000 </v>
   <v>       0.45833333       0.38888889       0.00000000 </v>
   <v>       0.50000000       0.38888889       0.00000000 </v>
   <v>       0.00000000       0.41666667       0.00000000 </v>
   <v>       0.04166667       0.41666667       0.00000000 </v>
   <v>       0.08333333       0.41666667       0.00000000 </v>
   <v>       0.12500000       0.41666667       0.00000000 </v>
   <v>       0.16666667       0.41666667       0.00000000 </v>
   <v>       0.20833333       0.41666667       0.00000000 </v>
   <v>       0.25000000       0.41666667       0.00000000 </v>
   <v>       0.29166667       0.41666667       0.00000000 </v>
   <v>       0.33333333       0.41666667       0.00000000 </v>
   <v>       0.37500000       0.41666667       0.00000000 </v>
   <v>       0.41666667       0.41666667       0.00000000 </v>
   <v>       0.45833333       0.41666667       0.00000000 </v>
   <v>       0.50000000       0.41666667       0.00000000 </v>
   <v>       0.00000000       0.44444444       0.00000000 </v>
   <v>       0.04166667       0.44444444       0.00000000 </v>
   <v>       0.08333333       0.44444444       0.00000000 </v>
   <v>       0.12500000       0.44444444       0.00000000 </v>
   <v>       0.16666667       0.44444444       0.00000000 </v>
   <v>       0.20833333       0.44444444       0.00000000 </v>
   <v>       0.25000000       0.44444444       0.00000000 </v>
   <v>       0.29166667       0.44444444       0.00000000 </v>
   <v>       0.33333333       0.44444444       0.00000000 </v>
   <v>       0.37500000       0.44444444       0.00000000 </v>
   <v>       0.41666667       0.44444444       0.00000000 </v>
   <v>       0.45833333       0.44444444       0.00000000 </v>
   <v>       0.50000000       0.44444444       0.00000000 </v>
   <v>       0.00000000       0.47222222       0.00000000 </v>
   <v>       0.04166667       0.47222222       0.00000000 </v>
   <v>       0.08333333       0.47222222       0.00000000 </v>
   <v>       0.12500000       0.47222222       0.00000000 </v>
   <v>       0.16666667       0.47222222       0.00000000 </v>
   <v>       0.20833333       0.47222222       0.00000000 </v>
   <v>       0.25000000       0.47222222       0.00000000 </v>
   <v>       0.29166667       0.47222222       0.00000000 </v>
   <v>       0.33333333       0.47222222       0.00000000 </v>
   <v>       0.37500000       0.47222222       0.00000000 </v>
   <v>       0.41666667       0.47222222       0.00000000 </v>
   <v>       0.45833333       0.47222222       0.00000000 </v>
   <v>       0.50000000       0.47222222       0.00000000 </v>
   <v>       0.00000000       0.50000000       0.00000000 </v>
   <v>       0.04166667       0.50000000       0.00000000 </v>
   <v>       0.08333333       0.50000000       0.00000000 </v>
   <v>       0.12500000       0.50000000       0.00000000 </v>
   <v>       0.16666667       0.50000000       0.00000000 </v>
   <v>       0.20833333       0.50000000       0.00000000 </v>
   <v>       0.25000000       0.50000000       0.00000000 </v>
   <v>       0.29166667       0.50000000       0.00000000 </v>
   <v>       0.33333333       0.50000000       0.00000000 </v>
   <v>       0.37500000       0.50000000       0.00000000 </v>
   <v>       0.41666667       0.50000000       0.00000000 </v>
   <v>       0.45833333       0.50000000       0.00000000 </v>
   <v>       0.50000000       0.50000000       0.00000000 </v>
  </varray>
  <varray name="weights" >
   <v>       0.00115741 </v>
   <v>       0.00231481 </v>
   <v>       0.00231481 </v>
   <v>       0.00231481 </v>
   <v>       0.00231481 </v>
   <v>       0.00231481 </v>
   <v>       0.00231481 </v>
   <v>       0.00231481 </v>
   <v>       0.00231481 </v>
   <v>       0.00231481 </v>
   <v>       0.00231481 </v>
   <v>       0.00231481 </v>
   <v>       0.00115741 </v>
   <v>       0.00231481 </v>
   <v>       0.00462963 </v>
   <v>       0.00462963 </v>
   <v>       0.00462963 </v>
   <v>       0.00462963 </v>
   <v>       0.00462963 </v>
   <v>       0.00462963 </v>
   <v>       0.00462963 </v>
   <v>       0.00462963 </v>
   <v>       0.00462963 </v>
   <v>       0.00462963 </v>
   <v>       0.00462963 </v>
   <v>       0.00231481 </v>
   <v>       0.00231481 </v>
   <v>       0.00462963 </v>
   <v>       0.00462963 </v>
   <v>       0.00462963 </v>
   <v>       0.00462963 </v>
   <v>       0.00462963 </v>
   <v>       0.00462963 </v>
   <v>       0.00462963 </v>
   <v>       0.00462963 </v>
   <v>       0.00462963 </v>
   <v>       0.00462963 </v>
   <v>       0.00462963 </v>
   <v>       0.00231481 </v>
   <v>       0.00231481 </v>
   <v>       0.00462963 </v>
   <v>       0.00462963 </v>
   <v>       0.00462963 </v>
   <v>       0.00462963 </v>
   <v>       0.00462963 </v>
   <v>       0.00462963 </v>
   <v>       0.00462963 </v>
   <v>       0.00462963 </v>
   <v>       0.00462963 </v>
   <v>       0.00462963 </v>
   <v>       0.00462963 </v>
   <v>       0.00231481 </v>
   <v>       0.00231481 </v>
   <v>       0.00462963 </v>
   <v>       0.00462963 </v>
   <v>       0.00462963 </v>
   <v>       0.00462963 </v>
   <v>       0.00462963 </v>
   <v>       0.00462963 </v>
   <v>       0.00462963 </v>
   <v>       0.00462963 </v>
   <v>       0.00462963 </v>
   <v>       0.00462963 </v>
   <v>       0.00462963 </v>
   <v>       0.00231481 </v>
   <v>       0.00231481 </v>
   <v>       0.00462963 </v>
   <v>       0.00462963 </v>
   <v>       0.00462963 </v>
   <v>       0.00462963 </v>
   <v>       0.00462963 </v>
   <v>       0.00462963 </v>
   <v>       0.00462963 </v>
   <v>       0.00462963 </v>
   <v>       0.00462963 </v>
   <v>       0.00462963 </v>
   <v>       0.00462963 </v>
   <v>       0.00231481 </v>
   <v>       0.00231481 </v>
   <v>       0.00462963 </v>
   <v>       0.00462963 </v>
   <v>       0.00462963 </v>
   <v>       0.00462963 </v>
   <v>       0.00462963 </v>
   <v>       0.00462963 </v>
   <v>       0.00462963 </v>
   <v>       0.00462963 </v>
   <v>       0.00462963 </v>
   <v>       0.00462963 </v>
   <v>       0.00462963 </v>
   <v>       0.00231481 </v>
   <v>       0.00231481 </v>
   <v>       0.00462963 </v>
   <v>       0.00462963 </v>
   <v>       0.00462963 </v>
   <v>       0.00462963 </v>
   <v>       0.00462963 </v>
   <v>       0.00462963 </v>
   <v>       0.00462963 </v>
   <v>       0.00462963 </v>
   <v>       0.00462963 </v>
   <v>       0.00462963 </v>
   <v>       0.00462963 </v>
   <v>       0.00231481 </v>
   <v>       0.00231481 </v>
   <v>       0.00462963 </v>
   <v>       0.00462963 </v>
   <v>       0.00462963 </v>
   <v>       0.00462963 </v>
   <v>       0.00462963 </v>
   <v>       0.00462963 </v>
   <v>       0.00462963 </v>
   <v>       0.00462963 </v>
   <v>       0.00462963 </v>
   <v>       0.00462963 </v>
   <v>       0.00462963 </v>
   <v>       0.00231481 </v>
   <v>       0.00231481 </v>
   <v>       0.00462963 </v>
   <v>       0.00462963 </v>
   <v>       0.00462963 </v>
   <v>       0.00462963 </v>
   <v>       0.00462963 </v>
   <v>       0.00462963 </v>
   <v>       0.00462963 </v>
   <v>       0.00462963 </v>
   <v>       0.00462963 </v>
   <v>       0.00462963 </v>
   <v>       0.00462963 </v>
   <v>       0.00231481 </v>
   <v>       0.00231481 </v>
   <v>       0.00462963 </v>
   <v>       0.00462963 </v>
   <v>       0.00462963 </v>
   <v>       0.00462963 </v>
   <v>       0.00462963 </v>
   <v>       0.00462963 </v>
   <v>       0.00462963 </v>
   <v>       0.00462963 </v>
   <v>       0.00462963 </v>
   <v>       0.00462963 </v>
   <v>       0.00462963 </v>
   <v>       0.00231481 </v>
   <v>       0.00231481 </v>
   <v>       0.00462963 </v>
   <v>       0.00462963 </v>
   <v>       0.00462963 </v>
   <v>       0.00462963 </v>
   <v>       0.00462963 </v>
   <v>       0.00462963 </v>
   <v>       0.00462963 </v>
   <v>       0.00462963 </v>
   <v>       0.00462963 </v>
   <v>       0.00462963 </v>
   <v>       0.00462963 </v>
   <v>       0.00231481 </v>
   <v>       0.00231481 </v>
   <v>       0.00462963 </v>
   <v>       0.00462963 </v>
   <v>       0.00462963 </v>
   <v>       0.00462963 </v>
   <v>       0.00462963 </v>
   <v>       0.00462963 </v>
   <v>       0.00462963 </v>
   <v>       0.00462963 </v>
   <v>       0.00462963 </v>
   <v>       0.00462963 </v>
   <v>       0.00462963 </v>
   <v>       0.00231481 </v>
   <v>       0.00231481 </v>
   <v>       0.00462963 </v>
   <v>       0.00462963 </v>
   <v>       0.00462963 </v>
   <v>       0.00462963 </v>
   <v>       0.00462963 </v>
   <v>       0.00462963 </v>
   <v>       0.00462963 </v>
   <v>       0.00462963 </v>
   <v>       0.00462963 </v>
   <v>       0.00462963 </v>
   <v>       0.00462963 </v>
   <v>       0.00231481 </v>
   <v>       0.00231481 </v>
   <v>       0.00462963 </v>
   <v>       0.00462963 </v>
   <v>       0.00462963 </v>
   <v>       0.00462963 </v>
   <v>       0.00462963 </v>
   <v>       0.00462963 </v>
   <v>       0.00462963 </v>
   <v>       0.00462963 </v>
   <v>       0.00462963 </v>
   <v>       0.00462963 </v>
   <v>       0.00462963 </v>
   <v>       0.00231481 </v>
   <v>       0.00231481 </v>
   <v>       0.00462963 </v>
   <v>       0.00462963 </v>
   <v>       0.00462963 </v>
   <v>       0.00462963 </v>
   <v>       0.00462963 </v>
   <v>       0.00462963 </v>
   <v>       0.00462963 </v>
   <v>       0.00462963 </v>
   <v>       0.00462963 </v>
   <v>       0.00462963 </v>
   <v>       0.00462963 </v>
   <v>       0.00231481 </v>
   <v>       0.00231481 </v>
   <v>       0.00462963 </v>
   <v>       0.00462963 </v>
   <v>       0.00462963 </v>
   <v>       0.00462963 </v>
   <v>       0.00462963 </v>
   <v>       0.00462963 </v>
   <v>       0.00462963 </v>
   <v>       0.00462963 </v>
   <v>       0.00462963 </v>
   <v>       0.00462963 </v>
   <v>       0.00462963 </v>
   <v>       0.00231481 </v>
   <v>       0.00231481 </v>
   <v>       0.00462963 </v>
   <v>       0.00462963 </v>
   <v>       0.00462963 </v>
   <v>       0.00462963 </v>
   <v>       0.00462963 </v>
   <v>       0.00462963 </v>
   <v>       0.00462963 </v>
   <v>       0.00462963 </v>
   <v>       0.00462963 </v>
   <v>       0.00462963 </v>
   <v>       0.00462963 </v>
   <v>       0.00231481 </v>
   <v>       0.00115741 </v>
   <v>       0.00231481 </v>
   <v>       0.00231481 </v>
   <v>       0.00231481 </v>
   <v>       0.00231481 </v>
   <v>       0.00231481 </v>
   <v>       0.00231481 </v>
   <v>       0.00231481 </v>
   <v>       0.00231481 </v>
   <v>       0.00231481 </v>
   <v>       0.00231481 </v>
   <v>       0.00231481 </v>
   <v>       0.00115741 </v>
  </varray>
 </kpoints>
 <parameters>
  <separator name="general" >
   <i type="string" name="SYSTEM">gr</i>
   <i type="logical" name="LCOMPAT"> F  </i>
  </separator>
  <separator name="electronic" >
   <i type="string" name="PREC">accura</i>
   <i name="ENMAX">   2000.00000000</i>
   <i name="ENAUG">    644.87300000</i>
   <i name="EDIFF">      0.00000000</i>
   <i type="int" name="IALGO">    68</i>
   <i type="int" name="IWAVPR">    11</i>
   <i type="int" name="NBANDS">    12</i>
   <i name="NELECT">     16.00000000</i>
   <i type="int" name="TURBO">     0</i>
   <i type="int" name="IRESTART">     0</i>
   <i type="int" name="NREBOOT">     0</i>
   <i type="int" name="NMIN">     0</i>
   <i name="EREF">      0.00000000</i>
   <separator name="electronic smearing" >
    <i type="int" name="ISMEAR">     0</i>
    <i name="SIGMA">      0.05000000</i>
    <i name="KSPACING">      0.50000000</i>
    <i type="logical" name="KGAMMA"> T  </i>
   </separator>
   <separator name="electronic projectors" >
    <i type="logical" name="LREAL"> F  </i>
    <v name="ROPT">      0.00000000</v>
    <i type="int" name="LMAXPAW">  -100</i>
    <i type="int" name="LMAXMIX">     2</i>
    <i type="logical" name="NLSPLINE"> F  </i>
   </separator>
   <separator name="electronic startup" >
    <i type="int" name="ISTART">     0</i>
    <i type="int" name="ICHARG">     2</i>
    <i type="int" name="INIWAV">     1</i>
   </separator>
   <separator name="electronic spin" >
    <i type="int" name="ISPIN">     1</i>
    <i type="logical" name="LNONCOLLINEAR"> F  </i>
    <v name="MAGMOM">      1.00000000      1.00000000      1.00000000      1.00000000</v>
    <i name="NUPDOWN">     -1.00000000</i>
    <i type="logical" name="LSORBIT"> F  </i>
    <v name="SAXIS">      0.00000000      0.00000000      1.00000000</v>
    <i type="logical" name="LSPIRAL"> F  </i>
    <v name="QSPIRAL">      0.00000000      0.00000000      0.00000000</v>
    <i type="logical" name="LZEROZ"> F  </i>
   </separator>
   <separator name="electronic exchange-correlation" >
    <i type="logical" name="LASPH"> F  </i>
    <i type="logical" name="LMETAGGA"> F  </i>
   </separator>
   <separator name="electronic convergence" >
    <i type="int" name="NELM">   100</i>
    <i type="int" name="NELMDL">    -3</i>
    <i type="int" name="NELMIN">     5</i>
    <i name="ENINI">   2000.00000000</i>
    <separator name="electronic convergence detail" >
     <i type="logical" name="LDIAG"> T  </i>
     <i type="logical" name="LSUBROT"> F  </i>
     <i name="WEIMIN">      0.00100000</i>
     <i name="EBREAK">      0.00000000</i>
     <i name="DEPER">      0.30000000</i>
     <i type="int" name="NRMM">     4</i>
     <i name="TIME">      0.40000000</i>
    </separator>
   </separator>
   <separator name="electronic mixer" >
    <i name="AMIX">      0.40000000</i>
    <i name="BMIX">      1.00000000</i>
    <i name="AMIN">      0.10000000</i>
    <i name="AMIX_MAG">      1.60000000</i>
    <i name="BMIX_MAG">      1.00000000</i>
    <separator name="electronic mixer details" >
     <i type="int" name="IMIX">     4</i>
     <i type="int" name="MAXMIX">   -45</i>
     <i name="WC">    100.00000000</i>
     <i type="int" name="INIMIX">     1</i>
     <i type="int" name="MIXPRE">     1</i>
     <i type="int" name="MREMOVE">     5</i>
    </separator>
   </separator>
   <separator name="electronic dipolcorrection" >
    <i type="logical" name="LDIPOL"> F  </i>
    <i type="logical" name="LMONO"> F  </i>
    <i type="int" name="IDIPOL">     0</i>
    <i name="EPSILON">      1.00000000</i>
    <v name="DIPOL">   -100.00000000   -100.00000000   -100.00000000</v>
    <i name="EFIELD">      0.00000000</i>
   </separator>
  </separator>
  <separator name="grids" >
   <i type="int" name="NGX">    64</i>
   <i type="int" name="NGY">    36</i>
   <i type="int" name="NGZ">   288</i>
   <i type="int" name="NGXF">   128</i>
   <i type="int" name="NGYF">    72</i>
   <i type="int" name="NGZF">   576</i>
   <i type="logical" name="ADDGRID"> F  </i>
  </separator>
  <separator name="ionic" >
   <i type="int" name="NSW">   400</i>
   <i type="int" name="IBRION">     1</i>
   <i type="int" name="ISIF">     2</i>
   <i name="PSTRESS">      0.00000000</i>
   <i name="EDIFFG">     -0.00000100</i>
   <i type="int" name="NFREE">     0</i>
   <i name="POTIM">      0.50000000</i>
   <i name="SMASS">     -3.00000000</i>
   <i name="SCALEE">      1.00000000</i>
  </separator>
  <separator name="ionic md" >
   <i name="TEBEG">      0.00010000</i>
   <i name="TEEND">      0.00010000</i>
   <i type="int" name="NBLOCK">     1</i>
   <i type="int" name="KBLOCK">   400</i>
   <i type="int" name="NPACO">   256</i>
   <i name="APACO">     16.00000000</i>
  </separator>
  <separator name="symmetry" >
   <i type="int" name="ISYM">     2</i>
   <i name="SYMPREC">      0.00001000</i>
  </separator>
  <separator name="dos" >
   <i type="logical" name="LORBIT"> F  </i>
   <v name="RWIGS">     -1.00000000</v>
   <i type="int" name="NEDOS">   301</i>
   <i name="EMIN">     10.00000000</i>
   <i name="EMAX">    -10.00000000</i>
   <i name="EFERMI">      0.00000000</i>
  </separator>
  <separator name="writing" >
   <i type="int" name="NWRITE">     2</i>
   <i type="logical" name="LWAVE"> F  </i>
   <i type="logical" name="LCHARG"> F  </i>
   <i type="logical" name="LPARD"> F  </i>
   <i type="logical" name="LVTOT"> F  </i>
   <i type="logical" name="LVHAR"> F  </i>
   <i type="logical" name="LELF"> F  </i>
   <i type="logical" name="LOPTICS"> F  </i>
   <v name="STM">      0.00000000      0.00000000      0.00000000      0.00000000      0.00000000      0.00000000      0.00000000</v>
  </separator>
  <separator name="performance" >
   <i type="int" name="NPAR">     4</i>
   <i type="int" name="NSIM">     4</i>
   <i type="int" name="NBLK">    -1</i>
   <i type="logical" name="LPLANE"> T  </i>
   <i type="logical" name="LSCALAPACK"> F  </i>
   <i type="logical" name="LSCAAWARE"> F  </i>
   <i type="logical" name="LSCALU"> F  </i>
   <i type="logical" name="LASYNC"> F  </i>
   <i type="logical" name="LORBITALREAL"> F  </i>
  </separator>
  <separator name="miscellaneous" >
   <i type="int" name="IDIOT">     3</i>
   <i type="logical" name="LMUSIC"> F  </i>
   <v name="POMASS">     12.01100000</v>
   <v name="DARWINR">      0.00000000</v>
   <v name="DARWINV">      1.00000000</v>
   <i type="logical" name="LCORR"> T  </i>
  </separator>
  <i type="logical" name="GGA_COMPAT"> T  </i>
  <i type="logical" name="LBERRY"> F  </i>
  <i type="int" name="ICORELEVEL">     0</i>
  <i type="logical" name="LDAU"> F  </i>
  <i type="int" name="I_CONSTRAINED_M">     0</i>
  <separator name="electronic exchange-correlation" >
   <i type="string" name="GGA">--</i>
   <i type="int" name="VOSKOWN">     0</i>
   <i type="logical" name="LHFCALC"> F  </i>
   <i type="string" name="PRECFOCK"></i>
   <i type="logical" name="LSYMGRAD"> F  </i>
   <i type="logical" name="LHFONE"> F  </i>
   <i type="logical" name="LRHFCALC"> F  </i>
   <i type="logical" name="LTHOMAS"> F  </i>
   <i type="logical" name="LMODELHF"> F  </i>
   <i name="ENCUT4O">     -1.00000000</i>
   <i type="int" name="EXXOEP">     0</i>
   <i type="int" name="FOURORBIT">     0</i>
   <i name="AEXX">      0.00000000</i>
   <i name="HFALPHA">      0.00000000</i>
   <i name="MCALPHA">      0.00000000</i>
   <i name="ALDAX">      1.00000000</i>
   <i name="AGGAX">      1.00000000</i>
   <i name="ALDAC">      1.00000000</i>
   <i name="AGGAC">      1.00000000</i>
   <i type="int" name="NKREDX">     1</i>
   <i type="int" name="NKREDY">     1</i>
   <i type="int" name="NKREDZ">     1</i>
   <i type="logical" name="SHIFTRED"> F  </i>
   <i type="logical" name="ODDONLY"> F  </i>
   <i type="logical" name="EVENONLY"> F  </i>
   <i type="int" name="LMAXFOCK">     0</i>
   <i type="int" name="NMAXFOCKAE">     0</i>
   <i type="logical" name="LFOCKAEDFT"> F  </i>
   <i name="HFSCREEN">      0.00000000</i>
   <i name="HFSCREENC">      0.00000000</i>
   <i type="int" name="NBANDSGWLOW">     0</i>
  </separator>
  <separator name="vdW DFT" >
   <i type="logical" name="LUSE_VDW"> F  </i>
   <i name="Zab_VDW">     -0.84910000</i>
   <i name="PARAM1">      0.12340000</i>
   <i name="PARAM2">      1.00000000</i>
   <i name="PARAM3">      0.00000000</i>
  </separator>
  <separator name="model GW" >
   <i type="int" name="MODEL_GW">     0</i>
   <i name="MODEL_EPS0">     31.62568521</i>
   <i name="MODEL_ALPHA">      1.00000000</i>
  </separator>
  <separator name="linear response parameters" >
   <i type="logical" name="LEPSILON"> F  </i>
   <i type="logical" name="LRPA"> F  </i>
   <i type="logical" name="LNABLA"> F  </i>
   <i type="logical" name="LVEL"> F  </i>
   <i type="int" name="KINTER">     0</i>
   <i name="CSHIFT">      0.10000000</i>
   <i name="OMEGAMAX">     -1.00000000</i>
   <i name="DEG_THRESHOLD">      0.00200000</i>
  </separator>
  <separator name="orbital magnetization" >
   <i type="logical" name="NUCIND"> F  </i>
   <v name="MAGPOS">      0.00000000      0.00000000      0.00000000</v>
   <i type="logical" name="LNICSALL"> T  </i>
   <i type="logical" name="ORBITALMAG"> F  </i>
   <i type="logical" name="LMAGBLOCH"> F  </i>
   <i type="logical" name="LCHIMAG"> F  </i>
   <i type="logical" name="LGAUGE"> T  </i>
   <i type="int" name="MAGATOM">     0</i>
   <v name="MAGDIPOL">      0.00000000      0.00000000      0.00000000</v>
   <v name="AVECCONST">      0.00000000      0.00000000      0.00000000</v>
  </separator>
  <separator name="response functions" >
   <i type="logical" name="LADDER"> F  </i>
   <i type="logical" name="LFXC"> F  </i>
   <i type="logical" name="LHARTREE"> T  </i>
   <i type="int" name="IBSE">     0</i>
   <i type="logical" name="LTCTE"> F  </i>
   <i type="logical" name="LTETE"> F  </i>
   <i type="logical" name="LTRIPLET"> F  </i>
   <i type="logical" name="LFXCEPS"> F  </i>
   <i type="logical" name="LFXHEG"> F  </i>
   <i type="logical" name="L2ORDER"> F  </i>
   <i type="logical" name="LUSEW"> F  </i>
   <i name="ENCUTGW">     -2.00000000</i>
   <i name="ENCUTGWSOFT">     -2.00000000</i>
   <i name="ENCUTLF">     -1.00000000</i>
   <i type="int" name="LMAXMP2">    -1</i>
   <i name="SCISSOR">      0.00000000</i>
   <i type="int" name="NOMEGA">     0</i>
   <i type="int" name="NOMEGAR">     0</i>
   <i type="int" name="NBANDSGW">    -1</i>
   <i type="int" name="NBANDSO">    -1</i>
   <i type="int" name="NBANDSV">    -1</i>
   <i type="int" name="NELM">   100</i>
   <i type="int" name="DIM">     3</i>
   <i type="int" name="ANTIRES">     0</i>
   <i name="OMEGAMAX">    -30.00000000</i>
   <i name="OMEGAMIN">    -30.00000000</i>
   <i name="OMEGATL">   -200.00000000</i>
   <i type="int" name="OMEGAGRID">     0</i>
   <i name="CSHIFT">     -0.10000000</i>
   <i type="logical" name="SELFENERGY"> F  </i>
   <i type="logical" name="LSPECTRAL"> F  </i>
   <i type="logical" name="ODDONLYGW"> F  </i>
   <i type="logical" name="EVENONLYGW"> F  </i>
   <i type="int" name="NKREDLFX">     1</i>
   <i type="int" name="NKREDLFY">     1</i>
   <i type="int" name="NKREDLFZ">     1</i>
   <i type="int" name="MAXMEM">  1800</i>
   <i type="int" name="TELESCOPE">     0</i>
   <i type="int" name="TAUPAR">     1</i>
  </separator>
  <separator name="External order field" >
   <i name="OFIELD_KAPPA">      0.00000000</i>
   <v name="OFIELD_K">      0.00000000      0.00000000      0.00000000</v>
   <i name="OFIELD_Q6_NEAR">      0.00000000</i>
   <i name="OFIELD_Q6_FAR">      0.00000000</i>
   <i name="OFIELD_A">      0.00000000</i>
  </separator>
 </parameters>
 <atominfo>
  <atoms>       4 </atoms>
  <types>       1 </types>
  <array name="atoms" >
   <dimension dim="1">ion</dimension>
   <field type="string">element</field>
   <field type="int">atomtype</field>
   <set>
    <rc><c>C </c><c>   1</c></rc>
    <rc><c>C </c><c>   1</c></rc>
    <rc><c>C </c><c>   1</c></rc>
    <rc><c>C </c><c>   1</c></rc>
   </set>
  </array>
  <array name="atomtypes" >
   <dimension dim="1">type</dimension>
   <field type="int">atomspertype</field>
   <field type="string">element</field>
   <field>mass</field>
   <field>valence</field>
   <field type="string">pseudopotential</field>
   <set>
    <rc><c>   4</c><c>C </c><c>     12.01100000</c><c>      4.00000000</c><c> PAW_PBE C 08Apr2002                    </c></rc>
   </set>
  </array>
 </atominfo>
 <structure name="initialpos" >
  <crystal>
   <varray name="basis" >
    <v>       4.35894224       0.00000000       0.00000000 </v>
    <v>       0.00000000       2.45896511       0.00000000 </v>
    <v>       0.00000000       0.00000000      19.67049113 </v>
   </varray>
   <i name="volume">    210.83790140 </i>
   <varray name="rec_basis" >
    <v>       0.22941346       0.00000000       0.00000000 </v>
    <v>       0.00000000       0.40667515       0.00000000 </v>
    <v>       0.00000000       0.00000000       0.05083757 </v>
   </varray>
  </crystal>
  <varray name="positions" >
   <v>       0.99954297       0.00000000       0.00000000 </v>
   <v>       0.16712369       0.50000000       0.00000000 </v>
   <v>       0.49954297       0.50000000       0.00000000 </v>
   <v>       0.66712369       0.00000000       0.00000000 </v>
  </varray>
 </structure>
 <calculation>
  <scstep>
   <time name="dav">  293.91  294.96</time>
   <time name="total">  296.44  297.53</time>
   <energy>
    <i name="alphaZ">      6.18334092 </i>
    <i name="ewald">   2476.08744220 </i>
    <i name="hartreedc">  -2904.78357676 </i>
    <i name="XCdc">     54.87215876 </i>
    <i name="pawpsdc">    151.32577238 </i>
    <i name="pawaedc">   -155.92769107 </i>
    <i name="eentropy">     -0.00089307 </i>
    <i name="bandstr">    -28.82433500 </i>
    <i name="atom">    588.62352690 </i>
    <i name="e_fr_energy">    187.55574527 </i>
    <i name="e_wo_entrp">    187.55663834 </i>
    <i name="e_0_energy">    187.55619180 </i>
   </energy>
  </scstep>
  <scstep>
   <time name="dav">  441.92  442.97</time>
   <time name="total">  441.92  442.98</time>
   <energy>
    <i name="e_fr_energy">     -9.20950736 </i>
    <i name="e_wo_entrp">     -9.20929734 </i>
    <i name="e_0_energy">     -9.20940235 </i>
   </energy>
  </scstep>
  <scstep>
   <time name="dav">  340.29  340.83</time>
   <time name="total">  370.26  370.84</time>
   <energy>
    <i name="e_fr_energy">    -38.14834982 </i>
    <i name="e_wo_entrp">    -38.14834746 </i>
    <i name="e_0_energy">    -38.14834864 </i>
   </energy>
  </scstep>
  <scstep>
   <time name="diag">   78.62   78.65</time>
   <time name="diis">  339.91  340.16</time>
   <time name="orth">    3.06    3.07</time>
   <time name="total">  453.86  454.19</time>
   <energy>
    <i name="e_fr_energy">    -37.60735562 </i>
    <i name="e_wo_entrp">    -37.60735528 </i>
    <i name="e_0_energy">    -37.60735545 </i>
   </energy>
  </scstep>
  <scstep>
   <time name="diag">   78.51   78.55</time>
   <time name="diis">  336.97  337.04</time>
   <time name="orth">    3.09    3.09</time>
   <time name="total">  451.03  452.02</time>
   <energy>
    <i name="e_fr_energy">    -36.89073870 </i>
    <i name="e_wo_entrp">    -36.89073815 </i>
    <i name="e_0_energy">    -36.89073843 </i>
   </energy>
  </scstep>
  <scstep>
   <time name="diag">   78.54   78.57</time>
   <time name="diis">  363.28  364.26</time>
   <time name="orth">    3.06    3.07</time>
   <time name="total">  477.39  478.48</time>
   <energy>
    <i name="e_fr_energy">    -36.89321890 </i>
    <i name="e_wo_entrp">    -36.89321842 </i>
    <i name="e_0_energy">    -36.89321866 </i>
   </energy>
  </scstep>
  <scstep>
   <time name="diag">   78.53   78.55</time>
   <time name="diis">  333.53  333.61</time>
   <time name="orth">    3.08    3.08</time>
   <time name="total">  447.27  447.56</time>
   <energy>
    <i name="e_fr_energy">    -36.88413426 </i>
    <i name="e_wo_entrp">    -36.88413390 </i>
    <i name="e_0_energy">    -36.88413408 </i>
   </energy>
  </scstep>
  <scstep>
   <time name="diag">   78.60   78.62</time>
   <time name="diis">  333.80  333.88</time>
   <time name="orth">    3.08    3.08</time>
   <time name="total">  447.95  448.09</time>
   <energy>
    <i name="e_fr_energy">    -36.87924107 </i>
    <i name="e_wo_entrp">    -36.87924067 </i>
    <i name="e_0_energy">    -36.87924087 </i>
   </energy>
  </scstep>
  <scstep>
   <time name="diag">   78.56   78.58</time>
   <time name="diis">  317.84  317.92</time>
   <time name="orth">    3.09    3.09</time>
   <time name="total">  431.91  432.06</time>
   <energy>
    <i name="e_fr_energy">    -36.87893512 </i>
    <i name="e_wo_entrp">    -36.87893467 </i>
    <i name="e_0_energy">    -36.87893490 </i>
   </energy>
  </scstep>
  <scstep>
   <time name="diag">   78.60   78.62</time>
   <time name="diis">  318.44  318.52</time>
   <time name="orth">    3.07    3.07</time>
   <time name="total">  432.58  432.71</time>
   <energy>
    <i name="e_fr_energy">    -36.87890383 </i>
    <i name="e_wo_entrp">    -36.87890341 </i>
    <i name="e_0_energy">    -36.87890362 </i>
   </energy>
  </scstep>
  <scstep>
   <time name="diag">   78.53   78.57</time>
   <time name="diis">  320.47  320.58</time>
   <time name="orth">    3.07    3.07</time>
   <time name="total">  434.47  434.70</time>
   <energy>
    <i name="e_fr_energy">    -36.88124452 </i>
    <i name="e_wo_entrp">    -36.88124412 </i>
    <i name="e_0_energy">    -36.88124432 </i>
   </energy>
  </scstep>
  <scstep>
   <time name="diag">   78.57   78.59</time>
   <time name="diis">  319.90  319.97</time>
   <time name="orth">    3.06    3.07</time>
   <time name="total">  433.93  434.06</time>
   <energy>
    <i name="e_fr_energy">    -36.88173651 </i>
    <i name="e_wo_entrp">    -36.88173609 </i>
    <i name="e_0_energy">    -36.88173630 </i>
   </energy>
  </scstep>
  <scstep>
   <time name="diag">   78.47   78.49</time>
   <time name="diis">  325.69  325.78</time>
   <time name="orth">    3.06    3.07</time>
   <time name="total">  439.73  439.88</time>
   <energy>
    <i name="e_fr_energy">    -36.88197218 </i>
    <i name="e_wo_entrp">    -36.88197176 </i>
    <i name="e_0_energy">    -36.88197197 </i>
   </energy>
  </scstep>
  <scstep>
   <time name="diag">   78.28   78.51</time>
   <time name="diis">  321.42  322.20</time>
   <time name="orth">    3.07    3.07</time>
   <time name="total">  435.21  436.25</time>
   <energy>
    <i name="e_fr_energy">    -36.88205410 </i>
    <i name="e_wo_entrp">    -36.88205368 </i>
    <i name="e_0_energy">    -36.88205389 </i>
   </energy>
  </scstep>
  <scstep>
   <time name="diag">   78.48   78.50</time>
   <time name="diis">  320.17  320.25</time>
   <time name="orth">    3.07    3.07</time>
   <time name="total">  434.18  434.30</time>
   <energy>
    <i name="e_fr_energy">    -36.88206474 </i>
    <i name="e_wo_entrp">    -36.88206432 </i>
    <i name="e_0_energy">    -36.88206453 </i>
   </energy>
  </scstep>
  <scstep>
   <time name="diag">   78.50   78.52</time>
   <time name="diis">  317.48  318.08</time>
   <time name="orth">    3.07    3.09</time>
   <time name="total">  431.29  432.09</time>
   <energy>
    <i name="e_fr_energy">    -36.88207743 </i>
    <i name="e_wo_entrp">    -36.88207701 </i>
    <i name="e_0_energy">    -36.88207722 </i>
   </energy>
  </scstep>
  <scstep>
   <time name="diag">   78.37   78.53</time>
   <time name="diis">  318.90  318.97</time>
   <time name="orth">    3.07    3.07</time>
   <time name="total">  432.77  433.04</time>
   <energy>
    <i name="e_fr_energy">    -36.88208274 </i>
    <i name="e_wo_entrp">    -36.88208232 </i>
    <i name="e_0_energy">    -36.88208253 </i>
   </energy>
  </scstep>
  <scstep>
   <time name="diag">   78.26   78.52</time>
   <time name="diis">  319.75  320.02</time>
   <time name="orth">    3.07    3.07</time>
   <time name="total">  433.43  434.00</time>
   <energy>
    <i name="e_fr_energy">    -36.88208377 </i>
    <i name="e_wo_entrp">    -36.88208336 </i>
    <i name="e_0_energy">    -36.88208356 </i>
   </energy>
  </scstep>
  <scstep>
   <time name="diag">   78.56   78.58</time>
   <time name="diis">  333.66  333.75</time>
   <time name="orth">    3.08    3.09</time>
   <time name="total">  447.71  447.85</time>
   <energy>
    <i name="e_fr_energy">    -36.88208451 </i>
    <i name="e_wo_entrp">    -36.88208410 </i>
    <i name="e_0_energy">    -36.88208431 </i>
   </energy>
  </scstep>
  <scstep>
   <time name="diag">   78.46   78.50</time>
   <time name="diis">  256.29  256.47</time>
   <time name="orth">    3.08    3.09</time>
   <time name="total">  370.23  370.51</time>
   <energy>
    <i name="e_fr_energy">    -36.88208455 </i>
    <i name="e_wo_entrp">    -36.88208414 </i>
    <i name="e_0_energy">    -36.88208434 </i>
   </energy>
  </scstep>
  <scstep>
   <time name="diag">   78.47   78.49</time>
   <time name="diis">  243.25  243.32</time>
   <time name="orth">    3.07    3.07</time>
   <time name="total">  357.18  357.32</time>
   <energy>
    <i name="e_fr_energy">    -36.88208457 </i>
    <i name="e_wo_entrp">    -36.88208415 </i>
    <i name="e_0_energy">    -36.88208436 </i>
   </energy>
  </scstep>
  <scstep>
   <time name="diag">   78.51   78.54</time>
   <time name="diis">  220.22  220.27</time>
   <time name="orth">    3.07    3.07</time>
   <time name="total">  334.27  334.37</time>
   <energy>
    <i name="e_fr_energy">    -36.88208457 </i>
    <i name="e_wo_entrp">    -36.88208415 </i>
    <i name="e_0_energy">    -36.88208436 </i>
   </energy>
  </scstep>
  <scstep>
   <time name="diag">   77.82   78.58</time>
   <time name="diis">  208.70  210.33</time>
   <time name="orth">    3.08    3.09</time>
   <time name="total">  321.68  324.67</time>
   <energy>
    <i name="e_fr_energy">    -36.88208457 </i>
    <i name="e_wo_entrp">    -36.88208415 </i>
    <i name="e_0_energy">    -36.88208436 </i>
   </energy>
  </scstep>
  <scstep>
   <time name="diag">   78.13   78.65</time>
   <time name="diis">  193.77  195.16</time>
   <time name="orth">    3.08    3.09</time>
   <time name="total">  307.18  309.45</time>
   <energy>
    <i name="e_fr_energy">    -36.88208457 </i>
    <i name="e_wo_entrp">    -36.88208415 </i>
    <i name="e_0_energy">    -36.88208436 </i>
   </energy>
  </scstep>
  <scstep>
   <time name="diag">   78.13   78.69</time>
   <time name="diis">  184.25  185.97</time>
   <time name="orth">    3.08    3.09</time>
   <time name="total">  267.88  270.19</time>
   <energy>
    <i name="alphaZ">      6.18334092 </i>
    <i name="ewald">   2476.08744220 </i>
    <i name="hartreedc">  -2970.30723423 </i>
    <i name="XCdc">     57.21643786 </i>
    <i name="pawpsdc">    270.41839304 </i>
    <i name="pawaedc">   -275.53707357 </i>
    <i name="eentropy">     -0.00000041 </i>
    <i name="bandstr">   -189.56691728 </i>
    <i name="atom">    588.62352690 </i>
    <i name="e_fr_energy">    -36.88208457 </i>
    <i name="e_wo_entrp">    -36.88208415 </i>
    <i name="e_0_energy">    -36.88208436 </i>
   </energy>
  </scstep>
  <structure>
   <crystal>
    <varray name="basis" >
     <v>       4.35894224       0.00000000       0.00000000 </v>
     <v>       0.00000000       2.45896511       0.00000000 </v>
     <v>       0.00000000       0.00000000      19.67049113 </v>
    </varray>
    <i name="volume">    210.83790140 </i>
    <varray name="rec_basis" >
     <v>       0.22941346       0.00000000       0.00000000 </v>
     <v>       0.00000000       0.40667515       0.00000000 </v>
     <v>       0.00000000       0.00000000       0.05083757 </v>
    </varray>
   </crystal>
   <varray name="positions" >
    <v>       0.99954297       0.00000000       0.00000000 </v>
    <v>       0.16712369       0.50000000       0.00000000 </v>
    <v>       0.49954297       0.50000000       0.00000000 </v>
    <v>       0.66712369       0.00000000       0.00000000 </v>
   </varray>
  </structure>
  <varray name="forces" >
   <v>       0.00040533      -0.00000000       0.00000000 </v>
   <v>      -0.00040533      -0.00000000       0.00000000 </v>
   <v>       0.00040533      -0.00000000       0.00000000 </v>
   <v>      -0.00040533       0.00000000       0.00000000 </v>
  </varray>
  <varray name="stress" >
   <v>     -33.18212668       0.00000000       0.00000000 </v>
   <v>       0.00000000      -0.00336509       0.00000000 </v>
   <v>       0.00000000       0.00000000      -0.01027113 </v>
  </varray>
  <energy>
   <i name="e_fr_energy">    -36.88208457 </i>
   <i name="e_wo_entrp">    -36.88208436 </i>
   <i name="e_0_energy">     -0.00000041 </i>
  </energy>
  <time name="totalsc">10232.7110251.06</time>
 </calculation>
 <calculation>
  <scstep>
   <time name="dav">  307.68  308.10</time>
   <time name="total">  340.18  340.60</time>
   <energy>
    <i name="alphaZ">      6.18334092 </i>
    <i name="ewald">   2476.08777872 </i>
    <i name="hartreedc">  -2970.30738376 </i>
    <i name="XCdc">     57.21644756 </i>
    <i name="pawpsdc">    270.41839649 </i>
    <i name="pawaedc">   -275.53707702 </i>
    <i name="eentropy">     -0.00000040 </i>
    <i name="bandstr">   -189.56711392 </i>
    <i name="atom">    588.62352690 </i>
    <i name="e_fr_energy">    -36.88208452 </i>
    <i name="e_wo_entrp">    -36.88208412 </i>
    <i name="e_0_energy">    -36.88208432 </i>
   </energy>
  </scstep>
  <scstep>
   <time name="diag">   78.52   78.53</time>
   <time name="diis">  319.79  319.87</time>
   <time name="orth">    3.06    3.07</time>
   <time name="total">  433.84  433.95</time>
   <energy>
    <i name="e_fr_energy">    -36.88208453 </i>
    <i name="e_wo_entrp">    -36.88208412 </i>
    <i name="e_0_energy">    -36.88208432 </i>
   </energy>
  </scstep>
  <scstep>
   <time name="diag">   78.46   78.48</time>
   <time name="diis">  323.11  323.19</time>
   <time name="orth">    3.09    3.09</time>
   <time name="total">  437.06  437.21</time>
   <energy>
    <i name="e_fr_energy">    -36.88208453 </i>
    <i name="e_wo_entrp">    -36.88208412 </i>
    <i name="e_0_energy">    -36.88208432 </i>
   </energy>
  </scstep>
  <scstep>
   <time name="diag">   78.40   78.42</time>
   <time name="diis">  305.00  305.09</time>
   <time name="orth">    3.09    3.09</time>
   <time name="total">  418.92  419.04</time>
   <energy>
    <i name="e_fr_energy">    -36.88208453 </i>
    <i name="e_wo_entrp">    -36.88208412 </i>
    <i name="e_0_energy">    -36.88208432 </i>
   </energy>
  </scstep>
  <scstep>
   <time name="diag">   78.45   78.49</time>
   <time name="diis">  216.20  216.37</time>
   <time name="orth">    3.09    3.09</time>
   <time name="total">  330.11  330.42</time>
   <energy>
    <i name="e_fr_energy">    -36.88208453 </i>
    <i name="e_wo_entrp">    -36.88208412 </i>
    <i name="e_0_energy">    -36.88208432 </i>
   </energy>
  </scstep>
  <scstep>
   <time name="diag">   78.42   78.46</time>
   <time name="diis">  204.67  204.71</time>
   <time name="orth">    3.07    3.07</time>
   <time name="total">  318.57  318.68</time>
   <energy>
    <i name="e_fr_energy">    -36.88208453 </i>
    <i name="e_wo_entrp">    -36.88208412 </i>
    <i name="e_0_energy">    -36.88208432 </i>
   </energy>
  </scstep>
  <scstep>
   <time name="diag">   78.52   78.55</time>
   <time name="diis">  199.08  199.12</time>
   <time name="orth">    3.09    3.09</time>
   <time name="total">  313.11  313.51</time>
   <energy>
    <i name="e_fr_energy">    -36.88208453 </i>
    <i name="e_wo_entrp">    -36.88208412 </i>
    <i name="e_0_energy">    -36.88208432 </i>
   </energy>
  </scstep>
  <scstep>
   <time name="diag">   78.46   78.49</time>
   <time name="diis">  194.00  194.29</time>
   <time name="orth">    3.07    3.09</time>
   <time name="total">  277.92  278.37</time>
   <energy>
    <i name="alphaZ">      6.18334092 </i>
    <i name="ewald">   2476.08777872 </i>
    <i name="hartreedc">  -2970.30751915 </i>
    <i name="XCdc">     57.21645323 </i>
    <i name="pawpsdc">    270.41897263 </i>
    <i name="pawaedc">   -275.53765576 </i>
    <i name="eentropy">     -0.00000040 </i>
    <i name="bandstr">   -189.56698162 </i>
    <i name="atom">    588.62352690 </i>
    <i name="e_fr_energy">    -36.88208453 </i>
    <i name="e_wo_entrp">    -36.88208412 </i>
    <i name="e_0_energy">    -36.88208432 </i>
   </energy>
  </scstep>
  <structure>
   <crystal>
    <varray name="basis" >
     <v>       4.35894224       0.00000000       0.00000000 </v>
     <v>       0.00000000       2.45896511       0.00000000 </v>
     <v>       0.00000000       0.00000000      19.67049113 </v>
    </varray>
    <i name="volume">    210.83790140 </i>
    <varray name="rec_basis" >
     <v>       0.22941346       0.00000000       0.00000000 </v>
     <v>       0.00000000       0.40667515       0.00000000 </v>
     <v>       0.00000000       0.00000000       0.05083757 </v>
    </varray>
   </crystal>
   <varray name="positions" >
    <v>       0.99954746      -0.00000000       0.00000000 </v>
    <v>       0.16711921       0.50000000       0.00000000 </v>
    <v>       0.49954746       0.50000000       0.00000000 </v>
    <v>       0.66711921       0.00000000       0.00000000 </v>
   </varray>
  </structure>
  <varray name="forces" >
   <v>      -0.00153738      -0.00000000      -0.00000000 </v>
   <v>       0.00153738       0.00000000       0.00000000 </v>
   <v>      -0.00153738      -0.00000000      -0.00000000 </v>
   <v>       0.00153738       0.00000000       0.00000000 </v>
  </varray>
  <varray name="stress" >
   <v>     -33.18594472       0.00000000       0.00000000 </v>
   <v>       0.00000000       0.00307347       0.00000000 </v>
   <v>       0.00000000       0.00000000      -0.01025267 </v>
  </varray>
  <energy>
   <i name="e_fr_energy">    -36.88208453 </i>
   <i name="e_wo_entrp">    -36.88208432 </i>
   <i name="e_0_energy">     -0.00000040 </i>
  </energy>
  <time name="totalsc"> 2970.24 2972.83</time>
 </calculation>
 <calculation>
  <scstep>
   <time name="dav">  310.29  310.37</time>
   <time name="total">  342.66  344.77</time>
   <energy>
    <i name="alphaZ">      6.18334092 </i>
    <i name="ewald">   2476.08751237 </i>
    <i name="hartreedc">  -2970.30740378 </i>
    <i name="XCdc">     57.21644565 </i>
    <i name="pawpsdc">    270.41897233 </i>
    <i name="pawaedc">   -275.53765544 </i>
    <i name="eentropy">     -0.00000041 </i>
    <i name="bandstr">   -189.56682311 </i>
    <i name="atom">    588.62352690 </i>
    <i name="e_fr_energy">    -36.88208457 </i>
    <i name="e_wo_entrp">    -36.88208416 </i>
    <i name="e_0_energy">    -36.88208437 </i>
   </energy>
  </scstep>
  <scstep>
   <time name="diag">   78.41   78.44</time>
   <time name="diis">  322.93  323.18</time>
   <time name="orth">    3.06    3.07</time>
   <time name="total">  436.78  437.10</time>
   <energy>
    <i name="e_fr_energy">    -36.88208457 </i>
    <i name="e_wo_entrp">    -36.88208416 </i>
    <i name="e_0_energy">    -36.88208437 </i>
   </energy>
  </scstep>
  <scstep>
   <time name="diag">   78.43   78.47</time>
   <time name="diis">  324.28  324.53</time>
   <time name="orth">    3.08    3.08</time>
   <time name="total">  438.19  438.51</time>
   <energy>
    <i name="e_fr_energy">    -36.88208457 </i>
    <i name="e_wo_entrp">    -36.88208416 </i>
    <i name="e_0_energy">    -36.88208436 </i>
   </energy>
  </scstep>
  <scstep>
   <time name="diag">   78.41   78.43</time>
   <time name="diis">  273.34  273.40</time>
   <time name="orth">    3.09    3.09</time>
   <time name="total">  387.29  387.45</time>
   <energy>
    <i name="e_fr_energy">    -36.88208457 </i>
    <i name="e_wo_entrp">    -36.88208416 </i>
    <i name="e_0_energy">    -36.88208436 </i>
   </energy>
  </scstep>
  <scstep>
   <time name="diag">   78.44   78.45</time>
   <time name="diis">  211.35  211.40</time>
   <time name="orth">    3.09    3.09</time>
   <time name="total">  325.37  325.46</time>
   <energy>
    <i name="e_fr_energy">    -36.88208457 </i>
    <i name="e_wo_entrp">    -36.88208416 </i>
    <i name="e_0_energy">    -36.88208436 </i>
   </energy>
  </scstep>
  <scstep>
   <time name="diag">   78.49   78.51</time>
   <time name="diis">  199.21  199.27</time>
   <time name="orth">    3.07    3.07</time>
   <time name="total">  313.15  313.44</time>
   <energy>
    <i name="e_fr_energy">    -36.88208457 </i>
    <i name="e_wo_entrp">    -36.88208416 </i>
    <i name="e_0_energy">    -36.88208436 </i>
   </energy>
  </scstep>
  <scstep>
   <time name="diag">   78.55   78.57</time>
   <time name="diis">  194.01  194.05</time>
   <time name="orth">    3.08    3.08</time>
   <time name="total">  307.99  308.26</time>
   <energy>
    <i name="e_fr_energy">    -36.88208457 </i>
    <i name="e_wo_entrp">    -36.88208416 </i>
    <i name="e_0_energy">    -36.88208436 </i>
   </energy>
  </scstep>
  <scstep>
   <time name="diag">   78.41   78.43</time>
   <time name="diis">  187.63  187.69</time>
   <time name="orth">    3.07    3.07</time>
   <time name="total">  301.51  301.72</time>
   <energy>
    <i name="e_fr_energy">    -36.88208457 </i>
    <i name="e_wo_entrp">    -36.88208416 </i>
    <i name="e_0_energy">    -36.88208436 </i>
   </energy>
  </scstep>
  <scstep>
   <time name="diag">   78.50   78.54</time>
   <time name="diis">  178.91  179.04</time>
   <time name="orth">    3.08    3.09</time>
   <time name="total">  292.96  293.15</time>
   <energy>
    <i name="e_fr_energy">    -36.88208457 </i>
    <i name="e_wo_entrp">    -36.88208416 </i>
    <i name="e_0_energy">    -36.88208436 </i>
   </energy>
  </scstep>
  <scstep>
   <time name="diag">   78.43   78.47</time>
   <time name="diis">  172.08  172.12</time>
   <time name="orth">    3.07    3.07</time>
   <time name="total">  256.01  256.11</time>
   <energy>
    <i name="alphaZ">      6.18334092 </i>
    <i name="ewald">   2476.08751237 </i>
    <i name="hartreedc">  -2970.30729885 </i>
    <i name="XCdc">     57.21644116 </i>
    <i name="pawpsdc">    270.41851628 </i>
    <i name="pawaedc">   -275.53719742 </i>
    <i name="eentropy">     -0.00000041 </i>
    <i name="bandstr">   -189.56692553 </i>
    <i name="atom">    588.62352690 </i>
    <i name="e_fr_energy">    -36.88208457 </i>
    <i name="e_wo_entrp">    -36.88208416 </i>
    <i name="e_0_energy">    -36.88208436 </i>
   </energy>
  </scstep>
  <structure>
   <crystal>
    <varray name="basis" >
     <v>       4.35894224       0.00000000       0.00000000 </v>
     <v>       0.00000000       2.45896511       0.00000000 </v>
     <v>       0.00000000       0.00000000      19.67049113 </v>
    </varray>
    <i name="volume">    210.83790140 </i>
    <varray name="rec_basis" >
     <v>       0.22941346       0.00000000       0.00000000 </v>
     <v>       0.00000000       0.40667515       0.00000000 </v>
     <v>       0.00000000       0.00000000       0.05083757 </v>
    </varray>
   </crystal>
   <varray name="positions" >
    <v>       0.99954391      -0.00000000      -0.00000000 </v>
    <v>       0.16712276       0.50000000       0.00000000 </v>
    <v>       0.49954391       0.50000000      -0.00000000 </v>
    <v>       0.66712276       0.00000000       0.00000000 </v>
   </varray>
  </structure>
  <varray name="forces" >
   <v>      -0.00000051       0.00000000      -0.00000000 </v>
   <v>       0.00000051       0.00000000       0.00000000 </v>
   <v>      -0.00000051       0.00000000      -0.00000000 </v>
   <v>       0.00000051      -0.00000000       0.00000000 </v>
  </varray>
  <varray name="stress" >
   <v>     -33.18292559       0.00000000       0.00000000 </v>
   <v>       0.00000000      -0.00199053       0.00000000 </v>
   <v>       0.00000000       0.00000000      -0.01027960 </v>
  </varray>
  <energy>
   <i name="e_fr_energy">    -36.88208457 </i>
   <i name="e_wo_entrp">    -36.88208436 </i>
   <i name="e_0_energy">     -0.00000041 </i>
  </energy>
  <time name="totalsc"> 3496.90 3501.07</time>
  <eigenvalues>
   <array>
    <dimension dim="1">band</dimension>
    <dimension dim="2">kpoint</dimension>
    <dimension dim="3">spin</dimension>
    <field>eigene</field>
    <field>occ</field>
    <set>
     <set comment="spin 1">
      <set comment="kpoint 1">
       <r>  -22.1149    1.0000 </r>
       <r>  -17.2130    1.0000 </r>
       <r>  -15.8622    1.0000 </r>
       <r>  -10.2518    1.0000 </r>
       <r>   -8.8721    1.0000 </r>
       <r>   -5.9656    1.0000 </r>
       <r>   -5.7374    1.0000 </r>
       <r>   -5.2922    1.0000 </r>
       <r>   -1.1660    0.0000 </r>
       <r>    0.5406    0.0000 </r>
       <r>    1.3394    0.0000 </r>
       <r>    1.7300    0.0000 </r>
      </set>
      <set comment="kpoint 2">
       <r>  -22.1051    1.0000 </r>
       <r>  -17.3388    1.0000 </r>
       <r>  -15.7213    1.0000 </r>
       <r>  -10.2401    1.0000 </r>
       <r>   -8.8625    1.0000 </r>
       <r>   -6.0096    1.0000 </r>
       <r>   -5.7580    1.0000 </r>
       <r>   -5.3524    1.0000 </r>
       <r>   -1.0900    0.0000 </r>
       <r>    0.5539    0.0000 </r>
       <r>    1.3529    0.0000 </r>
       <r>    1.7437    0.0000 </r>
      </set>
      <set comment="kpoint 3">
       <r>  -22.0755    1.0000 </r>
       <r>  -17.6240    1.0000 </r>
       <r>  -15.3911    1.0000 </r>
       <r>  -10.2050    1.0000 </r>
       <r>   -8.8338    1.0000 </r>
       <r>   -6.1396    1.0000 </r>
       <r>   -5.8185    1.0000 </r>
       <r>   -5.5205    1.0000 </r>
       <r>   -0.8747    0.0000 </r>
       <r>    0.5939    0.0000 </r>
       <r>    1.3935    0.0000 </r>
       <r>    1.7847    0.0000 </r>
      </set>
      <set comment="kpoint 4">
       <r>  -22.0263    1.0000 </r>
       <r>  -17.9635    1.0000 </r>
       <r>  -14.9768    1.0000 </r>
       <r>  -10.1466    1.0000 </r>
       <r>   -8.7861    1.0000 </r>
       <r>   -6.3497    1.0000 </r>
       <r>   -5.9160    1.0000 </r>
       <r>   -5.7683    1.0000 </r>
       <r>   -0.5488    0.0000 </r>
       <r>    0.6606    0.0000 </r>
       <r>    1.4611    0.0000 </r>
       <r>    1.8532    0.0000 </r>
      </set>
      <set comment="kpoint 5">
       <r>  -21.9574    1.0000 </r>
       <r>  -18.3153    1.0000 </r>
       <r>  -14.5209    1.0000 </r>
       <r>  -10.0649    1.0000 </r>
       <r>   -8.7197    1.0000 </r>
       <r>   -6.6316    1.0000 </r>
       <r>   -6.0664    1.0000 </r>
       <r>   -6.0459    1.0000 </r>
       <r>   -0.1425    0.0000 </r>
       <r>    0.7540    0.0000 </r>
       <r>    1.5557    0.0000 </r>
       <r>    1.9491    0.0000 </r>
      </set>
      <set comment="kpoint 6">
       <r>  -21.8689    1.0000 </r>
       <r>  -18.6637    1.0000 </r>
       <r>  -14.0394    1.0000 </r>
       <r>   -9.9601    1.0000 </r>
       <r>   -8.6349    1.0000 </r>
       <r>   -6.9755    1.0000 </r>
       <r>   -6.3920    1.0000 </r>
       <r>   -6.2025    1.0000 </r>
       <r>    0.3204    0.0000 </r>
       <r>    0.8742    0.0000 </r>
       <r>    1.6772    0.0000 </r>
       <r>    2.0723    0.0000 </r>
      </set>
      <set comment="kpoint 7">
       <r>  -21.7609    1.0000 </r>
       <r>  -19.0023    1.0000 </r>
       <r>  -13.5399    1.0000 </r>
       <r>   -9.8324    1.0000 </r>
       <r>   -8.5323    1.0000 </r>
       <r>   -7.3711    1.0000 </r>
       <r>   -6.7296    1.0000 </r>
       <r>   -6.3799    1.0000 </r>
       <r>    0.8224    0.0000 </r>
       <r>    1.0210    0.0000 </r>
       <r>    1.8257    0.0000 </r>
       <r>    2.2230    0.0000 </r>
      </set>
      <set comment="kpoint 8">
       <r>  -21.6335    1.0000 </r>
       <r>  -19.3276    1.0000 </r>
       <r>  -13.0266    1.0000 </r>
       <r>   -9.6821    1.0000 </r>
       <r>   -8.4126    1.0000 </r>
       <r>   -7.8086    1.0000 </r>
       <r>   -7.0686    1.0000 </r>
       <r>   -6.5725    1.0000 </r>
       <r>    1.1946    0.0000 </r>
       <r>    1.3512    0.0000 </r>
       <r>    2.0010    0.0000 </r>
       <r>    2.4011    0.0000 </r>
      </set>
      <set comment="kpoint 9">
       <r>  -21.4867    1.0000 </r>
       <r>  -19.6378    1.0000 </r>
       <r>  -12.5025    1.0000 </r>
       <r>   -9.5094    1.0000 </r>
       <r>   -8.2792    1.0000 </r>
       <r>   -8.2764    1.0000 </r>
       <r>   -7.4021    1.0000 </r>
       <r>   -6.7746    1.0000 </r>
       <r>    1.3948    0.0000 </r>
       <r>    1.8968    0.0000 </r>
       <r>    2.2029    0.0000 </r>
       <r>    2.6065    0.0000 </r>
      </set>
      <set comment="kpoint 10">
       <r>  -21.3206    1.0000 </r>
       <r>  -19.9317    1.0000 </r>
       <r>  -11.9705    1.0000 </r>
       <r>   -9.3147    1.0000 </r>
       <r>   -8.7752    1.0000 </r>
       <r>   -8.1248    1.0000 </r>
       <r>   -7.7253    1.0000 </r>
       <r>   -6.9815    1.0000 </r>
       <r>    1.6217    0.0000 </r>
       <r>    2.4311    0.0000 </r>
       <r>    2.4502    0.0000 </r>
       <r>    2.8393    0.0000 </r>
      </set>
      <set comment="kpoint 11">
       <r>  -21.1355    1.0000 </r>
       <r>  -20.2086    1.0000 </r>
       <r>  -11.4330    1.0000 </r>
       <r>   -9.2899    1.0000 </r>
       <r>   -9.0986    1.0000 </r>
       <r>   -8.0350    1.0000 </r>
       <r>   -7.9591    1.0000 </r>
       <r>   -7.1889    1.0000 </r>
       <r>    1.8751    0.0000 </r>
       <r>    2.6849    0.0000 </r>
       <r>    2.9967    0.0000 </r>
       <r>    3.0996    0.0000 </r>
      </set>
      <set comment="kpoint 12">
       <r>  -20.9315    1.0000 </r>
       <r>  -20.4677    1.0000 </r>
       <r>  -10.8928    1.0000 </r>
       <r>   -9.8175    1.0000 </r>
       <r>   -8.8617    1.0000 </r>
       <r>   -8.3287    1.0000 </r>
       <r>   -7.7806    1.0000 </r>
       <r>   -7.3932    1.0000 </r>
       <r>    2.1550    0.0000 </r>
       <r>    2.7937    0.0000 </r>
       <r>    2.9624    0.0000 </r>
       <r>    3.3872    0.0000 </r>
      </set>
      <set comment="kpoint 13">
       <r>  -20.7088    1.0000 </r>
       <r>  -20.7088    1.0000 </r>
       <r>  -10.3532    1.0000 </r>
       <r>  -10.3532    1.0000 </r>
       <r>   -8.6047    1.0000 </r>
       <r>   -8.6047    1.0000 </r>
       <r>   -7.5913    1.0000 </r>
       <r>   -7.5913    1.0000 </r>
       <r>    2.4613    0.0000 </r>
       <r>    2.4613    0.0000 </r>
       <r>    3.2544    0.0000 </r>
       <r>    3.2545    0.0000 </r>
      </set>
      <set comment="kpoint 14">
       <r>  -22.1011    1.0000 </r>
       <r>  -17.2010    1.0000 </r>
       <r>  -15.8504    1.0000 </r>
       <r>  -10.2354    1.0000 </r>
       <r>   -8.9351    1.0000 </r>
       <r>   -5.9925    1.0000 </r>
       <r>   -5.7961    1.0000 </r>
       <r>   -5.2755    1.0000 </r>
       <r>   -1.1687    0.0000 </r>
       <r>    0.5593    0.0000 </r>
       <r>    1.3583    0.0000 </r>
       <r>    1.7491    0.0000 </r>
      </set>
      <set comment="kpoint 15">
       <r>  -22.0913    1.0000 </r>
       <r>  -17.3267    1.0000 </r>
       <r>  -15.7098    1.0000 </r>
       <r>  -10.2237    1.0000 </r>
       <r>   -8.9255    1.0000 </r>
       <r>   -6.0376    1.0000 </r>
       <r>   -5.8148    1.0000 </r>
       <r>   -5.3358    1.0000 </r>
       <r>   -1.0927    0.0000 </r>
       <r>    0.5726    0.0000 </r>
       <r>    1.3718    0.0000 </r>
       <r>    1.7628    0.0000 </r>
      </set>
      <set comment="kpoint 16">
       <r>  -22.0617    1.0000 </r>
       <r>  -17.6117    1.0000 </r>
       <r>  -15.3799    1.0000 </r>
       <r>  -10.1886    1.0000 </r>
       <r>   -8.8967    1.0000 </r>
       <r>   -6.1690    1.0000 </r>
       <r>   -5.8722    1.0000 </r>
       <r>   -5.5042    1.0000 </r>
       <r>   -0.8774    0.0000 </r>
       <r>    0.6126    0.0000 </r>
       <r>    1.4124    0.0000 </r>
       <r>    1.8039    0.0000 </r>
      </set>
      <set comment="kpoint 17">
       <r>  -22.0125    1.0000 </r>
       <r>  -17.9510    1.0000 </r>
       <r>  -14.9660    1.0000 </r>
       <r>  -10.1302    1.0000 </r>
       <r>   -8.8490    1.0000 </r>
       <r>   -6.3788    1.0000 </r>
       <r>   -5.9675    1.0000 </r>
       <r>   -5.7523    1.0000 </r>
       <r>   -0.5517    0.0000 </r>
       <r>    0.6793    0.0000 </r>
       <r>    1.4800    0.0000 </r>
       <r>    1.8723    0.0000 </r>
      </set>
      <set comment="kpoint 18">
       <r>  -21.9436    1.0000 </r>
       <r>  -18.3025    1.0000 </r>
       <r>  -14.5106    1.0000 </r>
       <r>  -10.0485    1.0000 </r>
       <r>   -8.7825    1.0000 </r>
       <r>   -6.6584    1.0000 </r>
       <r>   -6.0967    1.0000 </r>
       <r>   -6.0506    1.0000 </r>
       <r>   -0.1459    0.0000 </r>
       <r>    0.7727    0.0000 </r>
       <r>    1.5746    0.0000 </r>
       <r>    1.9682    0.0000 </r>
      </set>
      <set comment="kpoint 19">
       <r>  -21.8552    1.0000 </r>
       <r>  -18.6509    1.0000 </r>
       <r>  -14.0298    1.0000 </r>
       <r>   -9.9438    1.0000 </r>
       <r>   -8.6976    1.0000 </r>
       <r>   -6.9986    1.0000 </r>
       <r>   -6.3764    1.0000 </r>
       <r>   -6.2537    1.0000 </r>
       <r>    0.3161    0.0000 </r>
       <r>    0.8929    0.0000 </r>
       <r>    1.6961    0.0000 </r>
       <r>    2.0915    0.0000 </r>
      </set>
      <set comment="kpoint 20">
       <r>  -21.7472    1.0000 </r>
       <r>  -18.9893    1.0000 </r>
       <r>  -13.5310    1.0000 </r>
       <r>   -9.8162    1.0000 </r>
       <r>   -8.5948    1.0000 </r>
       <r>   -7.3900    1.0000 </r>
       <r>   -6.7141    1.0000 </r>
       <r>   -6.4322    1.0000 </r>
       <r>    0.8170    0.0000 </r>
       <r>    1.0397    0.0000 </r>
       <r>    1.8446    0.0000 </r>
       <r>    2.2421    0.0000 </r>
      </set>
      <set comment="kpoint 21">
       <r>  -21.6197    1.0000 </r>
       <r>  -19.3145    1.0000 </r>
       <r>  -13.0185    1.0000 </r>
       <r>   -9.6659    1.0000 </r>
       <r>   -8.4748    1.0000 </r>
       <r>   -7.8234    1.0000 </r>
       <r>   -7.0531    1.0000 </r>
       <r>   -6.6261    1.0000 </r>
       <r>    1.2133    0.0000 </r>
       <r>    1.3445    0.0000 </r>
       <r>    2.0198    0.0000 </r>
       <r>    2.4202    0.0000 </r>
      </set>
      <set comment="kpoint 22">
       <r>  -21.4730    1.0000 </r>
       <r>  -19.6246    1.0000 </r>
       <r>  -12.4955    1.0000 </r>
       <r>   -9.4932    1.0000 </r>
       <r>   -8.3383    1.0000 </r>
       <r>   -8.2901    1.0000 </r>
       <r>   -7.3865    1.0000 </r>
       <r>   -6.8296    1.0000 </r>
       <r>    1.4136    0.0000 </r>
       <r>    1.8886    0.0000 </r>
       <r>    2.2217    0.0000 </r>
       <r>    2.6257    0.0000 </r>
      </set>
      <set comment="kpoint 23">
       <r>  -21.3070    1.0000 </r>
       <r>  -19.9184    1.0000 </r>
       <r>  -11.9646    1.0000 </r>
       <r>   -9.2986    1.0000 </r>
       <r>   -8.7825    1.0000 </r>
       <r>   -8.1863    1.0000 </r>
       <r>   -7.7097    1.0000 </r>
       <r>   -7.0379    1.0000 </r>
       <r>    1.6404    0.0000 </r>
       <r>    2.4405    0.0000 </r>
       <r>    2.4500    0.0000 </r>
       <r>    2.8585    0.0000 </r>
      </set>
      <set comment="kpoint 24">
       <r>  -21.1219    1.0000 </r>
       <r>  -20.1952    1.0000 </r>
       <r>  -11.4285    1.0000 </r>
       <r>   -9.2940    1.0000 </r>
       <r>   -9.0826    1.0000 </r>
       <r>   -8.0201    1.0000 </r>
       <r>   -8.0193    1.0000 </r>
       <r>   -7.2465    1.0000 </r>
       <r>    1.8939    0.0000 </r>
       <r>    2.7038    0.0000 </r>
       <r>    2.9864    0.0000 </r>
       <r>    3.1187    0.0000 </r>
      </set>
      <set comment="kpoint 25">
       <r>  -20.9179    1.0000 </r>
       <r>  -20.4543    1.0000 </r>
       <r>  -10.8900    1.0000 </r>
       <r>   -9.8189    1.0000 </r>
       <r>   -8.8458    1.0000 </r>
       <r>   -8.3129    1.0000 </r>
       <r>   -7.8410    1.0000 </r>
       <r>   -7.4519    1.0000 </r>
       <r>    2.1738    0.0000 </r>
       <r>    2.8125    0.0000 </r>
       <r>    2.9813    0.0000 </r>
       <r>    3.4063    0.0000 </r>
      </set>
      <set comment="kpoint 26">
       <r>  -20.6953    1.0000 </r>
       <r>  -20.6953    1.0000 </r>
       <r>  -10.3523    1.0000 </r>
       <r>  -10.3523    1.0000 </r>
       <r>   -8.5889    1.0000 </r>
       <r>   -8.5889    1.0000 </r>
       <r>   -7.6509    1.0000 </r>
       <r>   -7.6509    1.0000 </r>
       <r>    2.4800    0.0000 </r>
       <r>    2.4800    0.0000 </r>
       <r>    3.2730    0.0000 </r>
       <r>    3.2730    0.0000 </r>
      </set>
      <set comment="kpoint 27">
       <r>  -22.0597    1.0000 </r>
       <r>  -17.1652    1.0000 </r>
       <r>  -15.8153    1.0000 </r>
       <r>  -10.1863    1.0000 </r>
       <r>   -9.1190    1.0000 </r>
       <r>   -6.0727    1.0000 </r>
       <r>   -5.9672    1.0000 </r>
       <r>   -5.2255    1.0000 </r>
       <r>   -1.1777    0.0000 </r>
       <r>    0.6154    0.0000 </r>
       <r>    1.4150    0.0000 </r>
       <r>    1.8065    0.0000 </r>
      </set>
      <set comment="kpoint 28">
       <r>  -22.0499    1.0000 </r>
       <r>  -17.2905    1.0000 </r>
       <r>  -15.6752    1.0000 </r>
       <r>  -10.1746    1.0000 </r>
       <r>   -9.1093    1.0000 </r>
       <r>   -6.1257    1.0000 </r>
       <r>   -5.9762    1.0000 </r>
       <r>   -5.2861    1.0000 </r>
       <r>   -1.1016    0.0000 </r>
       <r>    0.6287    0.0000 </r>
       <r>    1.4285    0.0000 </r>
       <r>    1.8202    0.0000 </r>
      </set>
      <set comment="kpoint 29">
       <r>  -22.0203    1.0000 </r>
       <r>  -17.5748    1.0000 </r>
       <r>  -15.3464    1.0000 </r>
       <r>  -10.1395    1.0000 </r>
       <r>   -9.0804    1.0000 </r>
       <r>   -6.2646    1.0000 </r>
       <r>   -6.0210    1.0000 </r>
       <r>   -5.4555    1.0000 </r>
       <r>   -0.8864    0.0000 </r>
       <r>    0.6687    0.0000 </r>
       <r>    1.4690    0.0000 </r>
       <r>    1.8613    0.0000 </r>
      </set>
      <set comment="kpoint 30">
       <r>  -21.9711    1.0000 </r>
       <r>  -17.9134    1.0000 </r>
       <r>  -14.9339    1.0000 </r>
       <r>  -10.0812    1.0000 </r>
       <r>   -9.0325    1.0000 </r>
       <r>   -6.4734    1.0000 </r>
       <r>   -6.1097    1.0000 </r>
       <r>   -5.7045    1.0000 </r>
       <r>   -0.5614    0.0000 </r>
       <r>    0.7354    0.0000 </r>
       <r>    1.5366    0.0000 </r>
       <r>    1.9297    0.0000 </r>
      </set>
      <set comment="kpoint 31">
       <r>  -21.9023    1.0000 </r>
       <r>  -18.2644    1.0000 </r>
       <r>  -14.4801    1.0000 </r>
       <r>   -9.9996    1.0000 </r>
       <r>   -8.9656    1.0000 </r>
       <r>   -6.7452    1.0000 </r>
       <r>   -6.2375    1.0000 </r>
       <r>   -6.0035    1.0000 </r>
       <r>   -0.1572    0.0000 </r>
       <r>    0.8288    0.0000 </r>
       <r>    1.6312    0.0000 </r>
       <r>    2.0256    0.0000 </r>
      </set>
      <set comment="kpoint 32">
       <r>  -21.8139    1.0000 </r>
       <r>  -18.6123    1.0000 </r>
       <r>  -14.0012    1.0000 </r>
       <r>   -9.8949    1.0000 </r>
       <r>   -8.8803    1.0000 </r>
       <r>   -7.0738    1.0000 </r>
       <r>   -6.3967    1.0000 </r>
       <r>   -6.3297    1.0000 </r>
       <r>    0.3024    0.0000 </r>
       <r>    0.9490    0.0000 </r>
       <r>    1.7528    0.0000 </r>
       <r>    2.1489    0.0000 </r>
      </set>
      <set comment="kpoint 33">
       <r>  -21.7060    1.0000 </r>
       <r>  -18.9503    1.0000 </r>
       <r>  -13.5046    1.0000 </r>
       <r>   -9.7674    1.0000 </r>
       <r>   -8.7769    1.0000 </r>
       <r>   -7.4518    1.0000 </r>
       <r>   -6.6675    1.0000 </r>
       <r>   -6.5793    1.0000 </r>
       <r>    0.8000    0.0000 </r>
       <r>    1.0959    0.0000 </r>
       <r>    1.9012    0.0000 </r>
       <r>    2.2996    0.0000 </r>
      </set>
      <set comment="kpoint 34">
       <r>  -21.5786    1.0000 </r>
       <r>  -19.2751    1.0000 </r>
       <r>  -12.9947    1.0000 </r>
       <r>   -9.6173    1.0000 </r>
       <r>   -8.6561    1.0000 </r>
       <r>   -7.8717    1.0000 </r>
       <r>   -7.0066    1.0000 </r>
       <r>   -6.7781    1.0000 </r>
       <r>    1.2695    0.0000 </r>
       <r>    1.3233    0.0000 </r>
       <r>    2.0764    0.0000 </r>
       <r>    2.4776    0.0000 </r>
      </set>
      <set comment="kpoint 35">
       <r>  -21.4319    1.0000 </r>
       <r>  -19.5849    1.0000 </r>
       <r>  -12.4748    1.0000 </r>
       <r>   -9.4448    1.0000 </r>
       <r>   -8.5185    1.0000 </r>
       <r>   -8.3258    1.0000 </r>
       <r>   -7.3399    1.0000 </r>
       <r>   -6.9867    1.0000 </r>
       <r>    1.4697    0.0000 </r>
       <r>    1.8628    0.0000 </r>
       <r>    2.2783    0.0000 </r>
       <r>    2.6831    0.0000 </r>
      </set>
      <set comment="kpoint 36">
       <r>  -21.2660    1.0000 </r>
       <r>  -19.8785    1.0000 </r>
       <r>  -11.9475    1.0000 </r>
       <r>   -9.2504    1.0000 </r>
       <r>   -8.8069    1.0000 </r>
       <r>   -8.3653    1.0000 </r>
       <r>   -7.6629    1.0000 </r>
       <r>   -7.1997    1.0000 </r>
       <r>    1.6966    0.0000 </r>
       <r>    2.4099    0.0000 </r>
       <r>    2.5066    0.0000 </r>
       <r>    2.9159    0.0000 </r>
      </set>
      <set comment="kpoint 37">
       <r>  -21.0810    1.0000 </r>
       <r>  -20.1550    1.0000 </r>
       <r>  -11.4158    1.0000 </r>
       <r>   -9.3084    1.0000 </r>
       <r>   -9.0346    1.0000 </r>
       <r>   -8.1974    1.0000 </r>
       <r>   -7.9723    1.0000 </r>
       <r>   -7.4125    1.0000 </r>
       <r>    1.9501    0.0000 </r>
       <r>    2.7605    0.0000 </r>
       <r>    2.9532    0.0000 </r>
       <r>    3.1762    0.0000 </r>
      </set>
      <set comment="kpoint 38">
       <r>  -20.8772    1.0000 </r>
       <r>  -20.4139    1.0000 </r>
       <r>  -10.8825    1.0000 </r>
       <r>   -9.8248    1.0000 </r>
       <r>   -8.7980    1.0000 </r>
       <r>   -8.2657    1.0000 </r>
       <r>   -8.0162    1.0000 </r>
       <r>   -7.6215    1.0000 </r>
       <r>    2.2300    0.0000 </r>
       <r>    2.8688    0.0000 </r>
       <r>    3.0381    0.0000 </r>
       <r>    3.4371    0.0000 </r>
      </set>
      <set comment="kpoint 39">
       <r>  -20.6547    1.0000 </r>
       <r>  -20.6547    1.0000 </r>
       <r>  -10.3509    1.0000 </r>
       <r>  -10.3509    1.0000 </r>
       <r>   -8.5414    1.0000 </r>
       <r>   -8.5414    1.0000 </r>
       <r>   -7.8236    1.0000 </r>
       <r>   -7.8236    1.0000 </r>
       <r>    2.5363    0.0000 </r>
       <r>    2.5363    0.0000 </r>
       <r>    3.3287    0.0000 </r>
       <r>    3.3287    0.0000 </r>
      </set>
      <set comment="kpoint 40">
       <r>  -21.9908    1.0000 </r>
       <r>  -17.1054    1.0000 </r>
       <r>  -15.7573    1.0000 </r>
       <r>  -10.1044    1.0000 </r>
       <r>   -9.4099    1.0000 </r>
       <r>   -6.2379    1.0000 </r>
       <r>   -6.2048    1.0000 </r>
       <r>   -5.1422    1.0000 </r>
       <r>   -1.1953    0.0000 </r>
       <r>    0.7089    0.0000 </r>
       <r>    1.5094    0.0000 </r>
       <r>    1.9022    0.0000 </r>
      </set>
      <set comment="kpoint 41">
       <r>  -21.9809    1.0000 </r>
       <r>  -17.2301    1.0000 </r>
       <r>  -15.6180    1.0000 </r>
       <r>  -10.0928    1.0000 </r>
[...]
       <r>   -9.3294    1.0000 </r>
       <r>   -5.5301    1.0000 </r>
       <r>   -5.5301    1.0000 </r>
       <r>   -0.4776    0.0000 </r>
       <r>   -0.4776    0.0000 </r>
       <r>    4.2752    0.0000 </r>
       <r>    4.2752    0.0000 </r>
      </set>
      <set comment="kpoint 209">
       <r>  -18.6653    1.0000 </r>
       <r>  -16.8537    1.0000 </r>
       <r>  -14.1839    1.0000 </r>
       <r>  -12.5244    1.0000 </r>
       <r>  -12.3242    1.0000 </r>
       <r>  -10.8077    1.0000 </r>
       <r>   -6.3041    1.0000 </r>
       <r>   -4.4244    1.0000 </r>
       <r>   -1.1610    0.0000 </r>
       <r>    1.0002    0.0000 </r>
       <r>    5.3024    0.0000 </r>
       <r>    6.0757    0.0000 </r>
      </set>
      <set comment="kpoint 210">
       <r>  -18.6559    1.0000 </r>
       <r>  -16.8464    1.0000 </r>
       <r>  -14.2542    1.0000 </r>
       <r>  -12.5902    1.0000 </r>
       <r>  -12.2462    1.0000 </r>
       <r>  -10.7443    1.0000 </r>
       <r>   -6.2957    1.0000 </r>
       <r>   -4.4282    1.0000 </r>
       <r>   -1.1679    0.0000 </r>
       <r>    0.9770    0.0000 </r>
       <r>    5.3154    0.0000 </r>
       <r>    6.0910    0.0000 </r>
      </set>
      <set comment="kpoint 211">
       <r>  -18.6280    1.0000 </r>
       <r>  -16.8249    1.0000 </r>
       <r>  -14.4359    1.0000 </r>
       <r>  -12.7630    1.0000 </r>
       <r>  -12.0415    1.0000 </r>
       <r>  -10.5796    1.0000 </r>
       <r>   -6.2706    1.0000 </r>
       <r>   -4.4400    1.0000 </r>
       <r>   -1.1873    0.0000 </r>
       <r>    0.9091    0.0000 </r>
       <r>    5.3543    0.0000 </r>
       <r>    6.1366    0.0000 </r>
      </set>
      <set comment="kpoint 212">
       <r>  -18.5816    1.0000 </r>
       <r>  -16.7906    1.0000 </r>
       <r>  -14.6773    1.0000 </r>
       <r>  -12.9984    1.0000 </r>
       <r>  -11.7616    1.0000 </r>
       <r>  -10.3597    1.0000 </r>
       <r>   -6.2291    1.0000 </r>
       <r>   -4.4612    1.0000 </r>
       <r>   -1.2147    0.0000 </r>
       <r>    0.8009    0.0000 </r>
       <r>    5.4185    0.0000 </r>
       <r>    6.2116    0.0000 </r>
      </set>
      <set comment="kpoint 213">
       <r>  -18.5168    1.0000 </r>
       <r>  -16.7464    1.0000 </r>
       <r>  -14.9404    1.0000 </r>
       <r>  -13.2644    1.0000 </r>
       <r>  -11.4440    1.0000 </r>
       <r>  -10.1201    1.0000 </r>
       <r>   -6.1715    1.0000 </r>
       <r>   -4.4938    1.0000 </r>
       <r>   -1.2437    0.0000 </r>
       <r>    0.6589    0.0000 </r>
       <r>    5.5040    0.0000 </r>
       <r>    6.0247    0.0000 </r>
      </set>
      <set comment="kpoint 214">
       <r>  -18.4337    1.0000 </r>
       <r>  -16.6980    1.0000 </r>
       <r>  -15.2003    1.0000 </r>
       <r>  -13.5426    1.0000 </r>
       <r>  -11.1109    1.0000 </r>
       <r>   -9.8834    1.0000 </r>
       <r>   -6.0987    1.0000 </r>
       <r>   -4.5400    1.0000 </r>
       <r>   -1.2666    0.0000 </r>
       <r>    0.4909    0.0000 </r>
       <r>    5.4806    0.0000 </r>
       <r>    5.6790    0.0000 </r>
      </set>
      <set comment="kpoint 215">
       <r>  -18.3328    1.0000 </r>
       <r>  -16.6573    1.0000 </r>
       <r>  -15.4347    1.0000 </r>
       <r>  -13.8226    1.0000 </r>
       <r>  -10.7769    1.0000 </r>
       <r>   -9.6654    1.0000 </r>
       <r>   -6.0115    1.0000 </r>
       <r>   -4.6018    1.0000 </r>
       <r>   -1.2760    0.0000 </r>
       <r>    0.3047    0.0000 </r>
       <r>    5.0817    0.0000 </r>
       <r>    5.7908    0.0000 </r>
      </set>
      <set comment="kpoint 216">
       <r>  -18.2143    1.0000 </r>
       <r>  -16.6471    1.0000 </r>
       <r>  -15.6149    1.0000 </r>
       <r>  -14.0981    1.0000 </r>
       <r>  -10.4527    1.0000 </r>
       <r>   -9.4785    1.0000 </r>
       <r>   -5.9110    1.0000 </r>
       <r>   -4.6801    1.0000 </r>
       <r>   -1.2654    0.0000 </r>
       <r>    0.1078    0.0000 </r>
       <r>    4.7192    0.0000 </r>
       <r>    5.6840    0.0000 </r>
      </set>
      <set comment="kpoint 217">
       <r>  -18.0789    1.0000 </r>
       <r>  -16.6988    1.0000 </r>
       <r>  -15.7062    1.0000 </r>
       <r>  -14.3650    1.0000 </r>
       <r>  -10.1482    1.0000 </r>
       <r>   -9.3331    1.0000 </r>
       <r>   -5.7987    1.0000 </r>
       <r>   -4.7750    1.0000 </r>
       <r>   -1.2302    0.0000 </r>
       <r>   -0.0930    0.0000 </r>
       <r>    4.4291    0.0000 </r>
       <r>    5.2405    0.0000 </r>
      </set>
      <set comment="kpoint 218">
       <r>  -17.9271    1.0000 </r>
       <r>  -16.8236    1.0000 </r>
       <r>  -15.6953    1.0000 </r>
       <r>  -14.6199    1.0000 </r>
       <r>   -9.8723    1.0000 </r>
       <r>   -9.2376    1.0000 </r>
       <r>   -5.6765    1.0000 </r>
       <r>   -4.8848    1.0000 </r>
       <r>   -1.1678    0.0000 </r>
       <r>   -0.2915    0.0000 </r>
       <r>    4.2211    0.0000 </r>
       <r>    4.8552    0.0000 </r>
      </set>
      <set comment="kpoint 219">
       <r>  -17.7603    1.0000 </r>
       <r>  -16.9974    1.0000 </r>
       <r>  -15.6048    1.0000 </r>
       <r>  -14.8604    1.0000 </r>
       <r>   -9.6338    1.0000 </r>
       <r>   -9.1986    1.0000 </r>
       <r>   -5.5464    1.0000 </r>
       <r>   -5.0069    1.0000 </r>
       <r>   -1.0779    0.0000 </r>
       <r>   -0.4822    0.0000 </r>
       <r>    4.1019    0.0000 </r>
       <r>    4.5378    0.0000 </r>
      </set>
      <set comment="kpoint 220">
       <r>  -17.5799    1.0000 </r>
       <r>  -17.1916    1.0000 </r>
       <r>  -15.4627    1.0000 </r>
       <r>  -15.0835    1.0000 </r>
       <r>   -9.4412    1.0000 </r>
       <r>   -9.2197    1.0000 </r>
       <r>   -5.4112    1.0000 </r>
       <r>   -5.1379    1.0000 </r>
       <r>   -0.9617    0.0000 </r>
       <r>   -0.6603    0.0000 </r>
       <r>    4.0752    0.0000 </r>
       <r>    4.2973    0.0000 </r>
      </set>
      <set comment="kpoint 221">
       <r>  -17.3888    1.0000 </r>
       <r>  -17.3888    1.0000 </r>
       <r>  -15.2859    1.0000 </r>
       <r>  -15.2859    1.0000 </r>
       <r>   -9.3014    1.0000 </r>
       <r>   -9.3014    1.0000 </r>
       <r>   -5.2739    1.0000 </r>
       <r>   -5.2739    1.0000 </r>
       <r>   -0.8214    0.0000 </r>
       <r>   -0.8214    0.0000 </r>
       <r>    4.1412    0.0000 </r>
       <r>    4.1412    0.0000 </r>
      </set>
      <set comment="kpoint 222">
       <r>  -18.2377    1.0000 </r>
       <r>  -17.3282    1.0000 </r>
       <r>  -13.7998    1.0000 </r>
       <r>  -12.9692    1.0000 </r>
       <r>  -11.9764    1.0000 </r>
       <r>  -11.2132    1.0000 </r>
       <r>   -5.8448    1.0000 </r>
       <r>   -4.8993    1.0000 </r>
       <r>   -0.6532    0.0000 </r>
       <r>    0.4296    0.0000 </r>
       <r>    5.9076    0.0000 </r>
       <r>    6.6375    0.0000 </r>
      </set>
      <set comment="kpoint 223">
       <r>  -18.2286    1.0000 </r>
       <r>  -17.3198    1.0000 </r>
       <r>  -13.8704    1.0000 </r>
       <r>  -13.0372    1.0000 </r>
       <r>  -11.9009    1.0000 </r>
       <r>  -11.1452    1.0000 </r>
       <r>   -5.8378    1.0000 </r>
       <r>   -4.8975    1.0000 </r>
       <r>   -0.6671    0.0000 </r>
       <r>    0.4085    0.0000 </r>
       <r>    5.9206    0.0000 </r>
       <r>    6.6537    0.0000 </r>
      </set>
      <set comment="kpoint 224">
       <r>  -18.2012    1.0000 </r>
       <r>  -17.2948    1.0000 </r>
       <r>  -14.0537    1.0000 </r>
       <r>  -13.2146    1.0000 </r>
       <r>  -11.7031    1.0000 </r>
       <r>  -10.9679    1.0000 </r>
       <r>   -5.8166    1.0000 </r>
       <r>   -4.8923    1.0000 </r>
       <r>   -0.7073    0.0000 </r>
       <r>    0.3466    0.0000 </r>
       <r>    5.9592    0.0000 </r>
       <r>    6.7018    0.0000 </r>
      </set>
      <set comment="kpoint 225">
       <r>  -18.1556    1.0000 </r>
       <r>  -17.2536    1.0000 </r>
       <r>  -14.2994    1.0000 </r>
       <r>  -13.4552    1.0000 </r>
       <r>  -11.4344    1.0000 </r>
       <r>  -10.7295    1.0000 </r>
       <r>   -5.7819    1.0000 </r>
       <r>   -4.8849    1.0000 </r>
       <r>   -0.7692    0.0000 </r>
       <r>    0.2485    0.0000 </r>
       <r>    6.0223    0.0000 </r>
       <r>    6.7811    0.0000 </r>
      </set>
      <set comment="kpoint 226">
       <r>  -18.0921    1.0000 </r>
       <r>  -17.1972    1.0000 </r>
       <r>  -14.5720    1.0000 </r>
       <r>  -13.7255    1.0000 </r>
       <r>  -11.1320    1.0000 </r>
       <r>  -10.4663    1.0000 </r>
       <r>   -5.7343    1.0000 </r>
       <r>   -4.8770    1.0000 </r>
       <r>   -0.8462    0.0000 </r>
       <r>    0.1206    0.0000 </r>
       <r>    6.0925    0.0000 </r>
       <r>    6.3190    0.0000 </r>
      </set>
      <set comment="kpoint 227">
       <r>  -18.0109    1.0000 </r>
       <r>  -17.1271    1.0000 </r>
       <r>  -14.8507    1.0000 </r>
       <r>  -14.0069    1.0000 </r>
       <r>  -10.8183    1.0000 </r>
       <r>  -10.2009    1.0000 </r>
       <r>   -5.6748    1.0000 </r>
       <r>   -4.8710    1.0000 </r>
       <r>   -0.9300    0.0000 </r>
       <r>   -0.0293    0.0000 </r>
       <r>    5.7631    0.0000 </r>
       <r>    6.2526    0.0000 </r>
      </set>
      <set comment="kpoint 228">
       <r>  -17.9126    1.0000 </r>
       <r>  -17.0462    1.0000 </r>
       <r>  -15.1226    1.0000 </r>
       <r>  -14.2887    1.0000 </r>
       <r>  -10.5081    1.0000 </r>
       <r>   -9.9488    1.0000 </r>
       <r>   -5.6048    1.0000 </r>
       <r>   -4.8696    1.0000 </r>
       <r>   -1.0115    0.0000 </r>
       <r>   -0.1930    0.0000 </r>
       <r>    5.3048    0.0000 </r>
       <r>    5.8541    0.0000 </r>
      </set>
      <set comment="kpoint 229">
       <r>  -17.7979    1.0000 </r>
       <r>  -16.9602    1.0000 </r>
       <r>  -15.3762    1.0000 </r>
       <r>  -14.5645    1.0000 </r>
       <r>  -10.2127    1.0000 </r>
       <r>   -9.7221    1.0000 </r>
       <r>   -5.5262    1.0000 </r>
       <r>   -4.8760    1.0000 </r>
       <r>   -1.0821    0.0000 </r>
       <r>   -0.3626    0.0000 </r>
       <r>    4.9011    0.0000 </r>
       <r>    5.3862    0.0000 </r>
      </set>
      <set comment="kpoint 230">
       <r>  -17.6676    1.0000 </r>
       <r>  -16.8801    1.0000 </r>
       <r>  -15.5970    1.0000 </r>
       <r>  -14.8294    1.0000 </r>
       <r>   -9.9421    1.0000 </r>
       <r>   -9.5314    1.0000 </r>
       <r>   -5.4412    1.0000 </r>
       <r>   -4.8931    1.0000 </r>
       <r>   -1.1337    0.0000 </r>
       <r>   -0.5303    0.0000 </r>
       <r>    4.5652    0.0000 </r>
       <r>    4.9736    0.0000 </r>
      </set>
      <set comment="kpoint 231">
       <r>  -17.5237    1.0000 </r>
       <r>  -16.8276    1.0000 </r>
       <r>  -15.7612    1.0000 </r>
       <r>  -15.0796    1.0000 </r>
       <r>   -9.7058    1.0000 </r>
       <r>   -9.3857    1.0000 </r>
       <r>   -5.3524    1.0000 </r>
       <r>   -4.9231    1.0000 </r>
       <r>   -1.1598    0.0000 </r>
       <r>   -0.6893    0.0000 </r>
       <r>    4.3067    0.0000 </r>
       <r>    4.6261    0.0000 </r>
      </set>
      <set comment="kpoint 232">
       <r>  -17.3687    1.0000 </r>
       <r>  -16.8344    1.0000 </r>
       <r>  -15.8356    1.0000 </r>
       <r>  -15.3108    1.0000 </r>
       <r>   -9.5125    1.0000 </r>
       <r>   -9.2928    1.0000 </r>
       <r>   -5.2630    1.0000 </r>
       <r>   -4.9673    1.0000 </r>
       <r>   -1.1561    0.0000 </r>
       <r>   -0.8331    0.0000 </r>
       <r>    4.1331    0.0000 </r>
       <r>    4.3529    0.0000 </r>
      </set>
      <set comment="kpoint 233">
       <r>  -17.2078    1.0000 </r>
       <r>  -16.9160    1.0000 </r>
       <r>  -15.8040    1.0000 </r>
       <r>  -15.5169    1.0000 </r>
       <r>   -9.3698    1.0000 </r>
       <r>   -9.2579    1.0000 </r>
       <r>   -5.1764    1.0000 </r>
       <r>   -5.0255    1.0000 </r>
       <r>   -1.1204    0.0000 </r>
       <r>   -0.9559    0.0000 </r>
       <r>    4.0500    0.0000 </r>
       <r>    4.1620    0.0000 </r>
      </set>
      <set comment="kpoint 234">
       <r>  -17.0506    1.0000 </r>
       <r>  -17.0506    1.0000 </r>
       <r>  -15.6877    1.0000 </r>
       <r>  -15.6877    1.0000 </r>
       <r>   -9.2838    1.0000 </r>
       <r>   -9.2838    1.0000 </r>
       <r>   -5.0961    1.0000 </r>
       <r>   -5.0961    1.0000 </r>
       <r>   -1.0530    0.0000 </r>
       <r>   -1.0530    0.0000 </r>
       <r>    4.0598    0.0000 </r>
       <r>    4.0598    0.0000 </r>
      </set>
      <set comment="kpoint 235">
       <r>  -17.7911    1.0000 </r>
       <r>  -17.7911    1.0000 </r>
       <r>  -13.3947    1.0000 </r>
       <r>  -13.3947    1.0000 </r>
       <r>  -11.6043    1.0000 </r>
       <r>  -11.6043    1.0000 </r>
       <r>   -5.3749    1.0000 </r>
       <r>   -5.3749    1.0000 </r>
       <r>   -0.1223    0.0000 </r>
       <r>   -0.1223    0.0000 </r>
       <r>    6.5449    0.0000 </r>
       <r>    6.5449    0.0000 </r>
      </set>
      <set comment="kpoint 236">
       <r>  -17.7822    1.0000 </r>
       <r>  -17.7822    1.0000 </r>
       <r>  -13.4643    1.0000 </r>
       <r>  -13.4643    1.0000 </r>
       <r>  -11.5321    1.0000 </r>
       <r>  -11.5321    1.0000 </r>
       <r>   -5.3698    1.0000 </r>
       <r>   -5.3698    1.0000 </r>
       <r>   -0.1405    0.0000 </r>
       <r>   -0.1405    0.0000 </r>
       <r>    6.5578    0.0000 </r>
       <r>    6.5578    0.0000 </r>
      </set>
      <set comment="kpoint 237">
       <r>  -17.7556    1.0000 </r>
       <r>  -17.7556    1.0000 </r>
       <r>  -13.6456    1.0000 </r>
       <r>  -13.6456    1.0000 </r>
       <r>  -11.3437    1.0000 </r>
       <r>  -11.3437    1.0000 </r>
       <r>   -5.3548    1.0000 </r>
       <r>   -5.3548    1.0000 </r>
       <r>   -0.1937    0.0000 </r>
       <r>   -0.1937    0.0000 </r>
       <r>    6.5960    0.0000 </r>
       <r>    6.5960    0.0000 </r>
      </set>
      <set comment="kpoint 238">
       <r>  -17.7115    1.0000 </r>
       <r>  -17.7115    1.0000 </r>
       <r>  -13.8899    1.0000 </r>
       <r>  -13.8899    1.0000 </r>
       <r>  -11.0890    1.0000 </r>
       <r>  -11.0890    1.0000 </r>
       <r>   -5.3305    1.0000 </r>
       <r>   -5.3305    1.0000 </r>
       <r>   -0.2774    0.0000 </r>
       <r>   -0.2774    0.0000 </r>
       <r>    6.6562    0.0000 </r>
       <r>    6.6563    0.0000 </r>
      </set>
      <set comment="kpoint 239">
       <r>  -17.6503    1.0000 </r>
       <r>  -17.6503    1.0000 </r>
       <r>  -14.1630    1.0000 </r>
       <r>  -14.1630    1.0000 </r>
       <r>  -10.8048    1.0000 </r>
       <r>  -10.8048    1.0000 </r>
       <r>   -5.2981    1.0000 </r>
       <r>   -5.2981    1.0000 </r>
       <r>   -0.3851    0.0000 </r>
       <r>   -0.3851    0.0000 </r>
       <r>    6.5679    0.0000 </r>
       <r>    6.5808    0.0000 </r>
      </set>
      <set comment="kpoint 240">
       <r>  -17.5726    1.0000 </r>
       <r>  -17.5726    1.0000 </r>
       <r>  -14.4455    1.0000 </r>
       <r>  -14.4455    1.0000 </r>
       <r>  -10.5137    1.0000 </r>
       <r>  -10.5137    1.0000 </r>
       <r>   -5.2593    1.0000 </r>
       <r>   -5.2593    1.0000 </r>
       <r>   -0.5086    0.0000 </r>
       <r>   -0.5086    0.0000 </r>
       <r>    6.0525    0.0000 </r>
       <r>    6.0525    0.0000 </r>
      </set>
      <set comment="kpoint 241">
       <r>  -17.4794    1.0000 </r>
       <r>  -17.4794    1.0000 </r>
       <r>  -14.7263    1.0000 </r>
       <r>  -14.7263    1.0000 </r>
       <r>  -10.2308    1.0000 </r>
       <r>  -10.2308    1.0000 </r>
       <r>   -5.2161    1.0000 </r>
       <r>   -5.2161    1.0000 </r>
       <r>   -0.6394    0.0000 </r>
       <r>   -0.6394    0.0000 </r>
       <r>    5.5628    0.0000 </r>
       <r>    5.5628    0.0000 </r>
      </set>
      <set comment="kpoint 242">
       <r>  -17.3723    1.0000 </r>
       <r>  -17.3723    1.0000 </r>
       <r>  -14.9979    1.0000 </r>
       <r>  -14.9979    1.0000 </r>
       <r>   -9.9679    1.0000 </r>
       <r>   -9.9679    1.0000 </r>
       <r>   -5.1712    1.0000 </r>
       <r>   -5.1712    1.0000 </r>
       <r>   -0.7688    0.0000 </r>
       <r>   -0.7688    0.0000 </r>
       <r>    5.1242    0.0000 </r>
       <r>    5.1242    0.0000 </r>
      </set>
      <set comment="kpoint 243">
       <r>  -17.2543    1.0000 </r>
       <r>  -17.2543    1.0000 </r>
       <r>  -15.2538    1.0000 </r>
       <r>  -15.2538    1.0000 </r>
       <r>   -9.7354    1.0000 </r>
       <r>   -9.7354    1.0000 </r>
       <r>   -5.1277    1.0000 </r>
       <r>   -5.1277    1.0000 </r>
       <r>   -0.8886    0.0000 </r>
       <r>   -0.8886    0.0000 </r>
       <r>    4.7476    0.0000 </r>
       <r>    4.7476    0.0000 </r>
      </set>
      <set comment="kpoint 244">
       <r>  -17.1305    1.0000 </r>
       <r>  -17.1305    1.0000 </r>
       <r>  -15.4866    1.0000 </r>
       <r>  -15.4866    1.0000 </r>
       <r>   -9.5426    1.0000 </r>
       <r>   -9.5426    1.0000 </r>
       <r>   -5.0889    1.0000 </r>
       <r>   -5.0889    1.0000 </r>
       <r>   -0.9910    0.0000 </r>
       <r>   -0.9910    0.0000 </r>
       <r>    4.4424    0.0000 </r>
       <r>    4.4424    0.0000 </r>
      </set>
      <set comment="kpoint 245">
       <r>  -17.0114    1.0000 </r>
       <r>  -17.0114    1.0000 </r>
       <r>  -15.6845    1.0000 </r>
       <r>  -15.6845    1.0000 </r>
       <r>   -9.3980    1.0000 </r>
       <r>   -9.3980    1.0000 </r>
       <r>   -5.0582    1.0000 </r>
       <r>   -5.0582    1.0000 </r>
       <r>   -1.0695    0.0000 </r>
       <r>   -1.0695    0.0000 </r>
       <r>    4.2173    0.0000 </r>
       <r>    4.2173    0.0000 </r>
      </set>
      <set comment="kpoint 246">
       <r>  -16.9174    1.0000 </r>
       <r>  -16.9174    1.0000 </r>
       <r>  -15.8262    1.0000 </r>
       <r>  -15.8262    1.0000 </r>
       <r>   -9.3082    1.0000 </r>
       <r>   -9.3082    1.0000 </r>
       <r>   -5.0384    1.0000 </r>
       <r>   -5.0384    1.0000 </r>
       <r>   -1.1188    0.0000 </r>
       <r>   -1.1188    0.0000 </r>
       <r>    4.0791    0.0000 </r>
       <r>    4.0791    0.0000 </r>
      </set>
      <set comment="kpoint 247">
       <r>  -16.8797    1.0000 </r>
       <r>  -16.8797    1.0000 </r>
       <r>  -15.8798    1.0000 </r>
       <r>  -15.8798    1.0000 </r>
       <r>   -9.2778    1.0000 </r>
       <r>   -9.2778    1.0000 </r>
       <r>   -5.0316    1.0000 </r>
       <r>   -5.0316    1.0000 </r>
       <r>   -1.1356    0.0000 </r>
       <r>   -1.1356    0.0000 </r>
       <r>    4.0326    0.0000 </r>
       <r>    4.0326    0.0000 </r>
      </set>
     </set>
    </set>
   </array>
  </eigenvalues>
  <separator name="orbital magnetization" >
   <v name="MAGDIPOLOUT">      0.00000000      0.00000000      0.00000000</v>
  </separator>
 </calculation>
 <structure name="finalpos" >
  <crystal>
   <varray name="basis" >
    <v>       4.35894224       0.00000000       0.00000000 </v>
    <v>       0.00000000       2.45896511       0.00000000 </v>
    <v>       0.00000000       0.00000000      19.67049113 </v>
   </varray>
   <i name="volume">    210.83790140 </i>
   <varray name="rec_basis" >
    <v>       0.22941346       0.00000000       0.00000000 </v>
    <v>       0.00000000       0.40667515       0.00000000 </v>
    <v>       0.00000000       0.00000000       0.05083757 </v>
   </varray>
  </crystal>
  <varray name="positions" >
   <v>       0.99954391      -0.00000000      -0.00000000 </v>
   <v>       0.16712276       0.50000000       0.00000000 </v>
   <v>       0.49954391       0.50000000      -0.00000000 </v>
   <v>       0.66712276       0.00000000       0.00000000 </v>
  </varray>
 </structure>
</modeling>
