gr                                      
           1
     4.358942    0.000000    0.000000
     0.000000    2.458965    0.000000
     0.000000    0.000000   19.670491
   C 
   4
Direct configuration=     1
   0.99954297  0.00000000  0.00000000
   0.16712369  0.50000000  0.00000000
   0.49954297  0.50000000  0.00000000
   0.66712369  0.00000000  0.00000000
Direct configuration=     2
   0.99954746 -0.00000000  0.00000000
   0.16711921  0.50000000  0.00000000
   0.49954746  0.50000000  0.00000000
   0.66711921  0.00000000  0.00000000
Direct configuration=     3
   0.99954391 -0.00000000 -0.00000000
   0.16712276  0.50000000  0.00000000
   0.49954391  0.50000000 -0.00000000
   0.66712276  0.00000000  0.00000000
