    4    4  400    1
  0.5270948E+02  0.4402961E-09  0.2455300E-09  0.1950290E-08  0.5000000E-15
  1.000000000000000E-004
  CAR 
 gr                                      
     16    247     12
 
  0.0000000E+00  0.0000000E+00  0.0000000E+00  0.1157407E-02
    1      -22.043652
    2      -17.304826
    3      -15.799326
    4      -10.196837
    5       -8.733242
    6       -6.048762
    7       -5.717198
    8       -5.381872
    9       -1.206098
   10        0.549398
   11        1.346708
   12        1.742205
 
  0.4166667E-01  0.0000000E+00  0.0000000E+00  0.2314815E-02
    1      -22.033996
    2      -17.415445
    3      -15.673788
    4      -10.185397
    5       -8.723953
    6       -6.093375
    7       -5.736749
    8       -5.438999
    9       -1.133329
   10        0.562449
   11        1.359955
   12        1.755621
 
  0.8333333E-01  0.0000000E+00  0.0000000E+00  0.2314815E-02
    1      -22.005034
    2      -17.676590
    3      -15.367960
    4      -10.151096
    5       -8.696134
    6       -6.225022
    7       -5.794400
    8       -5.599131
    9       -0.926428
   10        0.601612
   11        1.399693
   12        1.795870
 
  0.1250000E+00  0.0000000E+00  0.0000000E+00  0.2314815E-02
    1      -21.956786
    2      -17.997053
    3      -14.973271
    4      -10.093992
    5       -8.649938
    6       -6.437566
    7       -5.887297
    8       -5.836229
    9       -0.611896
   10        0.666912
   11        1.465906
   12        1.862959
 
  0.1666667E+00  0.0000000E+00  0.0000000E+00  0.2314815E-02
    1      -21.889287
    2      -18.334303
    3      -14.532634
    4      -10.014184
    5       -8.585625
    6       -6.722072
    7       -6.122837
    8       -6.011146
    9       -0.217983
   10        0.758379
   11        1.558565
   12        1.956891
 
  0.2083333E+00  0.0000000E+00  0.0000000E+00  0.2314815E-02
    1      -21.802590
    2      -18.671145
    3      -14.063787
    4       -9.911815
    5       -8.503568
    6       -7.068173
    7       -6.437181
    8       -6.160749
    9        0.232398
   10        0.876034
   11        1.677625
   12        2.077671
 
  0.2500000E+00  0.0000000E+00  0.0000000E+00  0.2314815E-02
    1      -21.696760
    2      -18.999902
    3      -13.575135
    4       -9.787077
    5       -8.404266
    6       -7.465269
    7       -6.763973
    8       -6.330534
    9        0.722413
   10        1.019881
   11        1.823014
   12        2.225301
 
  0.2916667E+00  0.0000000E+00  0.0000000E+00  0.2314815E-02
    1      -21.571884
    2      -19.316683
    3      -13.071499
    4       -9.640219
    5       -8.288359
    6       -7.903353
    7       -7.092898
    8       -6.514985
    9        1.189908
   10        1.239707
   11        1.994617
   12        2.399781
 
  0.3333333E+00  0.0000000E+00  0.0000000E+00  0.2314815E-02
    1      -21.428067
    2      -19.619287
    3      -12.556243
    4       -9.471558
    5       -8.373446
    6       -8.156647
    7       -7.417008
    8       -6.708931
    9        1.386085
   10        1.774545
   11        2.192237
   12        2.601106
 
  0.3750000E+00  0.0000000E+00  0.0000000E+00  0.2314815E-02
    1      -21.265436
    2      -19.906349
    3      -12.032161
    4       -9.281494
    5       -8.867744
    6       -8.010118
    7       -7.731537
    8       -6.907712
    9        1.608364
   10        2.317810
   11        2.415493
   12        2.829268
 
  0.4166667E+00  0.0000000E+00  0.0000000E+00  0.2314815E-02
    1      -21.084147
    2      -20.176956
    3      -11.501911
    4       -9.379587
    5       -9.070526
    6       -8.033140
    7       -7.849975
    8       -7.107240
    9        1.856683
   10        2.663520
   11        2.855814
   12        3.084278
 
  0.4583333E+00  0.0000000E+00  0.0000000E+00  0.2314815E-02
    1      -20.884389
    2      -20.430464
    3      -10.968256
    4       -9.903339
    5       -8.839284
    6       -8.319410
    7       -7.677675
    8       -7.303992
    9        2.130956
   10        2.756870
   11        2.933723
   12        3.308267
 
  0.5000000E+00  0.0000000E+00  0.0000000E+00  0.1157407E-02
    1      -20.666398
    2      -20.666398
    3      -10.434241
    4      -10.434241
    5       -8.588571
    6       -8.588571
    7       -7.494977
    8       -7.494977
    9        2.431070
   10        2.431070
   11        3.212863
   12        3.212863
 
  0.0000000E+00  0.2777778E-01  0.0000000E+00  0.2314815E-02
    1      -22.029791
    2      -17.292767
    3      -15.787492
    4      -10.180407
    5       -8.796907
    6       -6.074033
    7       -5.776691
    8       -5.365175
    9       -1.208247
   10        0.568169
   11        1.365659
   12        1.761397
 
  0.4166667E-01  0.2777778E-01  0.0000000E+00  0.4629630E-02
    1      -22.020136
    2      -17.403276
    3      -15.662107
    4      -10.168971
    5       -8.787607
    6       -6.119070
    7       -5.795226
    8       -5.422411
    9       -1.135470
   10        0.581220
   11        1.378906
   12        1.774813
 
  0.8333333E-01  0.2777778E-01  0.0000000E+00  0.4629630E-02
    1      -21.991178
    2      -17.664208
    3      -15.356623
    4      -10.134682
    5       -8.759756
    6       -6.251092
    7       -5.850834
    8       -5.582798
    9       -0.928609
   10        0.620383
   11        1.418642
   12        1.815063
 
  0.1250000E+00  0.2777778E-01  0.0000000E+00  0.4629630E-02
    1      -21.942938
    2      -17.984462
    3      -14.962364
    4      -10.077597
    5       -8.713504
    6       -6.462777
    7       -5.942126
    8       -5.820175
    9       -0.614295
   10        0.685684
   11        1.484852
   12        1.882151
 
  0.1666667E+00  0.2777778E-01  0.0000000E+00  0.4629630E-02
    1      -21.875451
    2      -18.321528
    3      -14.522229
    4       -9.997816
    5       -8.649106
    6       -6.745019
    7       -6.107002
    8       -6.065326
    9       -0.220857
   10        0.777153
   11        1.577507
   12        1.976084
 
  0.2083333E+00  0.2777778E-01  0.0000000E+00  0.4629630E-02
    1      -21.788769
    2      -18.658212
    3      -14.053967
    4       -9.895480
    5       -8.566931
    6       -7.087896
    7       -6.421486
    8       -6.215106
    9        0.228768
   10        0.894810
   11        1.696562
   12        2.096865
 
  0.2500000E+00  0.2777778E-01  0.0000000E+00  0.4629630E-02
    1      -21.682958
    2      -18.986831
    3      -13.565998
    4       -9.770783
    5       -8.467470
    6       -7.481331
    7       -6.748344
    8       -6.385602
    9        0.717759
   10        1.038661
   11        1.841947
   12        2.244497
 
  0.2916667E+00  0.2777778E-01  0.0000000E+00  0.4629630E-02
    1      -21.558105
    2      -19.303493
    3      -13.063161
    4       -9.623974
    5       -8.351356
    6       -7.915712
    7       -7.077281
    8       -6.571041
    9        1.208693
   10        1.233797
   11        2.013547
   12        2.418979
 
  0.3333333E+00  0.2777778E-01  0.0000000E+00  0.4629630E-02
    1      -21.414315
    2      -19.605994
    3      -12.548842
    4       -9.455369
    5       -8.382302
    6       -8.219378
    7       -7.401364
    8       -6.766072
    9        1.404876
   10        1.767211
   11        2.211167
   12        2.620307
 
  0.3750000E+00  0.2777778E-01  0.0000000E+00  0.4629630E-02
    1      -21.251716
    2      -19.892966
    3      -12.025864
    4       -9.265366
    5       -8.873421
    6       -8.072511
    7       -7.715842
    8       -6.965922
    9        1.627163
   10        2.309052
   11        2.434430
   12        2.848473
 
  0.4166667E+00  0.2777778E-01  0.0000000E+00  0.4629630E-02
    1      -21.070465
    2      -20.163496
    3      -11.496912
    4       -9.382453
    5       -9.054466
    6       -8.017380
    7       -7.911945
    8       -7.166436
    9        1.875491
   10        2.682473
   11        2.846372
   12        3.103466
 
  0.4583333E+00  0.2777778E-01  0.0000000E+00  0.4629630E-02
    1      -20.870751
    2      -20.416936
    3      -10.964784
    4       -9.903762
    5       -8.823298
    6       -8.303576
    7       -7.739126
    8       -7.364062
    9        2.149774
   10        2.775726
   11        2.952676
   12        3.308036
 
  0.5000000E+00  0.2777778E-01  0.0000000E+00  0.2314815E-02
    1      -20.652811
    2      -20.652811
    3      -10.432565
    4      -10.432565
    5       -8.572660
    6       -8.572660
    7       -7.555798
    8       -7.555798
    9        2.449903
   10        2.449903
   11        3.231231
   12        3.231231
 
  0.0000000E+00  0.5555556E-01  0.0000000E+00  0.2314815E-02
    1      -21.988218
    2      -17.256592
    3      -15.752129
    4      -10.131155
    5       -8.982726
    6       -6.149519
    7       -5.950245
    8       -5.315109
    9       -1.215495
   10        0.624483
   11        1.422507
   12        1.818974
 
  0.4166667E-01  0.5555556E-01  0.0000000E+00  0.4629630E-02
    1      -21.978568
    2      -17.366774
    3      -15.627202
    4      -10.119730
    5       -8.973389
    6       -6.197698
    7       -5.963893
    8       -5.372676
    9       -1.142686
   10        0.637533
   11        1.435752
   12        1.832390
 
  0.8333333E-01  0.5555556E-01  0.0000000E+00  0.4629630E-02
    1      -21.949624
    2      -17.627074
    3      -15.322749
    4      -10.085475
    5       -8.945428
    6       -6.333203
    7       -6.011092
    8       -5.533851
    9       -0.935944
   10        0.676695
   11        1.475482
   12        1.872640
 
  0.1250000E+00  0.5555556E-01  0.0000000E+00  0.4629630E-02
    1      -21.901407
    2      -17.946705
    3      -14.929794
    4      -10.028448
    5       -8.898985
    6       -6.543190
    7       -6.096772
    8       -5.772081
    9       -0.622291
   10        0.741995
   11        1.541682
   12        1.939729
 
  0.1666667E+00  0.5555556E-01  0.0000000E+00  0.4629630E-02
    1      -21.833954
    2      -18.283220
    3      -14.491190
    4       -9.948747
    5       -8.834303
    6       -6.818606
    7       -6.218118
    8       -6.059580
    9       -0.230307
   10        0.833465
   11        1.634324
   12        2.033662
 
  0.2083333E+00  0.5555556E-01  0.0000000E+00  0.4629630E-02
    1      -21.747317
    2      -18.619427
    3      -14.024715
    4       -9.846515
    5       -8.751733
    6       -7.151377
    7       -6.374486
    8       -6.368889
    9        0.217004
   10        0.951126
   11        1.753364
   12        2.154446
 
  0.2500000E+00  0.5555556E-01  0.0000000E+00  0.4629630E-02
    1      -21.641562
    2      -18.947633
    3      -13.538836
    4       -9.721944
    5       -8.651745
    6       -7.533242
    7       -6.701544
    8       -6.542108
    9        0.702863
   10        1.094984
   11        1.898735
   12        2.302082
 
  0.2916667E+00  0.5555556E-01  0.0000000E+00  0.4629630E-02
    1      -21.516779
    2      -19.263938
    3      -13.038453
    4       -9.575283
    5       -8.534941
    6       -7.955897
    7       -7.030514
    8       -6.731113
    9        1.215051
   10        1.265027
   11        2.070325
   12        2.476569
 
  0.3333333E+00  0.5555556E-01  0.0000000E+00  0.4629630E-02
    1      -21.373071
    2      -19.566129
    3      -12.527023
    4       -9.406847
    5       -8.411399
    6       -8.402078
    7       -7.354514
    8       -6.929950
    9        1.461224
   10        1.744081
   11        2.267946
   12        2.677905
 
  0.3750000E+00  0.5555556E-01  0.0000000E+00  0.4629630E-02
    1      -21.210569
    2      -19.852832
    3      -12.007451
    4       -9.217034
    5       -8.892475
    6       -8.254090
    7       -7.668833
    8       -7.133476
    9        1.683527
   10        2.281450
   11        2.491230
   12        2.906081
 
  0.4166667E+00  0.5555556E-01  0.0000000E+00  0.4629630E-02
    1      -21.029431
    2      -20.123127
    3      -11.482521
    4       -9.392653
    5       -9.006341
    6       -8.092126
    7       -7.970168
    8       -7.337342
    9        1.931873
   10        2.739324
   11        2.816084
   12        3.161104
 
  0.4583333E+00  0.5555556E-01  0.0000000E+00  0.4629630E-02
    1      -20.829849
    2      -20.376364
    3      -10.955143
    4       -9.906292
    5       -8.775395
    6       -8.256138
    7       -7.917580
    8       -7.537908
    9        2.206178
   10        2.832207
   11        3.009528
   12        3.299522
 
  0.5000000E+00  0.5555556E-01  0.0000000E+00  0.2314815E-02
    1      -20.612062
    2      -20.612062
    3      -10.428520
    4      -10.428520
    5       -8.524988
    6       -8.524988
    7       -7.732154
    8       -7.732154
    9        2.506336
   10        2.506336
   11        3.285950
   12        3.285950
 
  0.0000000E+00  0.8333333E-01  0.0000000E+00  0.2314815E-02
    1      -21.918967
    2      -17.196313
    3      -15.693674
    4      -10.049185
    5       -9.276641
    6       -6.274219
    7       -6.224637
    8       -5.231737
    9       -1.230242
   10        0.718334
   11        1.517228
   12        1.914937
 
  0.4166667E-01  0.8333333E-01  0.0000000E+00  0.4629630E-02
    1      -21.909324
    2      -17.305968
    3      -15.569506
    4      -10.037781
    5       -9.267231
    6       -6.344794
    7       -6.213077
    8       -5.289891
    9       -1.157368
   10        0.731383
   11        1.530469
   12        1.928352
 
  0.8333333E-01  0.8333333E-01  0.0000000E+00  0.4629630E-02
    1      -21.880404
    2      -17.565234
    3      -15.266785
    4      -10.003585
    5       -9.239045
    6       -6.492200
    7       -6.240406
    8       -5.452448
    9       -0.950808
   10        0.770540
   11        1.570187
   12        1.968601
 
  0.1250000E+00  0.8333333E-01  0.0000000E+00  0.4629630E-02
    1      -21.832228
    2      -17.883835
    3      -14.876049
    4       -9.946656
    5       -9.192212
    6       -6.698940
    7       -6.317441
    8       -5.692165
    9       -0.638279
   10        0.835832
   11        1.636369
   12        2.035689
 
  0.1666667E+00  0.8333333E-01  0.0000000E+00  0.4629630E-02
    1      -21.764833
    2      -18.219434
    3      -14.440076
    4       -9.867094
    5       -9.126953
    6       -6.961167
    7       -6.437740
    8       -5.980823
    9       -0.248803
   10        0.927294
   11        1.728987
   12        2.129623
 
  0.2083333E+00  0.8333333E-01  0.0000000E+00  0.4629630E-02
    1      -21.678270
    2      -18.554843
    3      -13.976694
    4       -9.765039
    5       -9.043584
    6       -7.274796
    7       -6.592589
    8       -6.296450
    9        0.194508
   10        1.044950
   11        1.848000
   12        2.250407
 
  0.2500000E+00  0.8333333E-01  0.0000000E+00  0.4629630E-02
    1      -21.572611
    2      -18.882359
    3      -13.494460
    4       -9.640684
    5       -8.942530
    6       -7.634807
    7       -6.772931
    8       -6.623843
    9        0.674949
   10        1.188807
   11        1.993343
   12        2.398047
 
  0.2916667E+00  0.8333333E-01  0.0000000E+00  0.4629630E-02
    1      -21.447942
    2      -19.198066
    3      -12.998381
    4       -9.494278
    5       -8.824339
    6       -8.035319
    7       -6.970418
    8       -6.952859
    9        1.180463
   10        1.358854
   11        2.164912
   12        2.572540
 
  0.3333333E+00  0.8333333E-01  0.0000000E+00  0.4629630E-02
    1      -21.304371
    2      -19.499737
    3      -12.492050
    4       -9.326133
    5       -8.689697
    6       -8.469934
    7       -7.276705
    8       -7.177908
    9        1.555058
   10        1.701833
   11        2.362530
   12        2.773884
 
  0.3750000E+00  0.8333333E-01  0.0000000E+00  0.4629630E-02
    1      -21.142031
    2      -19.785988
    3      -11.978530
    4       -9.136646
    5       -8.932179
    6       -8.539456
    7       -7.590743
    8       -7.389548
    9        1.777370
   10        2.231156
   11        2.585850
   12        3.002073
 
  0.4166667E+00  0.8333333E-01  0.0000000E+00  0.4629630E-02
    1      -20.961083
    2      -20.055892
    3      -11.460795
    4       -9.415870
    5       -8.926311
    6       -8.374665
    7       -7.891721
    8       -7.600636
    9        2.025725
   10        2.759564
   11        2.834041
   12        3.257097
 
  0.4583333E+00  0.8333333E-01  0.0000000E+00  0.4629630E-02
    1      -20.761721
    2      -20.308788
    3      -10.941975
    4       -9.915337
    5       -8.695747
    6       -8.196611
    7       -8.177297
    8       -7.807413
    9        2.300040
   10        2.926103
   11        3.104253
   12        3.261567
 
  0.5000000E+00  0.8333333E-01  0.0000000E+00  0.2314815E-02
    1      -20.544190
    2      -20.544190
    3      -10.425522
    4      -10.425522
    5       -8.445741
    6       -8.445741
    7       -8.006877
    8       -8.006877
    9        2.600210
   10        2.600210
   11        3.375039
   12        3.375039
 
  0.0000000E+00  0.1111111E+00  0.0000000E+00  0.2314815E-02
    1      -21.822098
    2      -17.111952
    3      -15.612950
    4       -9.934681
    5       -9.659193
    6       -6.581948
    7       -6.446403
    8       -5.115173
    9       -1.256501
   10        0.849718
   11        1.649781
   12        2.049285
 
  0.4166667E-01  0.1111111E+00  0.0000000E+00  0.4629630E-02
    1      -21.812467
    2      -17.220903
    3      -15.489833
    4       -9.923305
    5       -9.649651
    6       -6.638338
    7       -6.445298
    8       -5.174223
    9       -1.183495
   10        0.862762
   11        1.663016
   12        2.062700
 
  0.8333333E-01  0.1111111E+00  0.0000000E+00  0.4629630E-02
    1      -21.783580
    2      -17.478764
    3      -15.189572
    4       -9.889196
    5       -9.621060
    6       -6.775104
    7       -6.472637
    8       -5.338874
    9       -0.977137
   10        0.901906
   11        1.702716
   12        2.102947
 
  0.1250000E+00  0.1111111E+00  0.0000000E+00  0.4629630E-02
    1      -21.735461
    2      -17.795941
    3      -14.802057
    4       -9.832413
    5       -9.573525
    6       -6.967380
    7       -6.548117
    8       -5.580818
    9       -0.666217
   10        0.967177
   11        1.768868
   12        2.170031
 
  0.1666667E+00  0.1111111E+00  0.0000000E+00  0.4629630E-02
    1      -21.668145
    2      -18.130262
    3      -14.369968
    4       -9.753052
    5       -9.507226
    6       -7.207226
    7       -6.671400
    8       -5.871186
    9       -0.280411
   10        1.058613
   11        1.861446
   12        2.263960
 
  0.2083333E+00  0.1111111E+00  0.0000000E+00  0.4629630E-02
    1      -21.581689
    2      -18.464552
    3      -13.911211
    4       -9.651257
    5       -9.422418
    6       -7.490912
    7       -6.835420
    8       -6.187857
    9        0.157022
   10        1.176243
   11        1.980411
   12        2.384743
 
  0.2500000E+00  0.1111111E+00  0.0000000E+00  0.4629630E-02
    1      -21.476162
    2      -18.791096
    3      -13.434482
    4       -9.527219
    5       -9.319445
    6       -7.815980
    7       -7.030176
    8       -6.515718
    9        0.629494
   10        1.320077
   11        2.125704
   12        2.532382
 
  0.2916667E+00  0.1111111E+00  0.0000000E+00  0.4629630E-02
    1      -21.351654
    2      -19.105958
    3      -12.944976
    4       -9.381186
    5       -9.198745
    6       -8.179908
    7       -7.245043
    8       -6.844774
    9        1.125177
   10        1.490105
   11        2.297232
   12        2.706878
 
  0.3333333E+00  0.1111111E+00  0.0000000E+00  0.4629630E-02
    1      -21.208277
    2      -19.406895
    3      -12.446518
    4       -9.213470
    5       -9.060866
    6       -8.579257
    7       -7.470494
    8       -7.168372
    9        1.635187
   10        1.686294
   11        2.494836
   12        2.908229
 
  0.3750000E+00  0.1111111E+00  0.0000000E+00  0.4629630E-02
    1      -21.046164
    2      -19.692510
    3      -11.942457
    4       -9.024462
    5       -9.009471
    6       -8.906487
    7       -7.698951
    8       -7.481978
    9        1.908592
   10        2.152229
   11        2.718207
   12        3.136427
 
  0.4166667E+00  0.1111111E+00  0.0000000E+00  0.4629630E-02
    1      -20.865482
    2      -19.961861
    3      -11.436114
    4       -9.465214
    5       -8.814653
    6       -8.736442
    7       -7.924812
    8       -7.782418
    9        2.156929
   10        2.669265
   11        2.966564
   12        3.391471
 
  0.4583333E+00  0.1111111E+00  0.0000000E+00  0.4629630E-02
    1      -20.666433
    2      -20.214278
    3      -10.931037
    4       -9.940905
    5       -8.584656
    6       -8.551766
    7       -8.144049
    8       -8.067404
    9        2.431218
   10        3.057202
   11        3.174615
   12        3.236800
 
  0.5000000E+00  0.1111111E+00  0.0000000E+00  0.2314815E-02
    1      -20.449263
    2      -20.449263
    3      -10.431160
    4      -10.431160
    5       -8.353753
    6       -8.353753
    7       -8.335244
    8       -8.335244
    9        2.731353
   10        2.731353
   11        3.486555
   12        3.486555
 
  0.0000000E+00  0.1388889E+00  0.0000000E+00  0.2314815E-02
    1      -21.697697
    2      -17.003540
    3      -15.511337
    4      -10.109094
    5       -9.787906
    6       -7.003285
    7       -6.663566
    8       -4.965575
    9       -1.299836
   10        1.018619
   11        1.820108
   12        2.222020
 
  0.4166667E-01  0.1388889E+00  0.0000000E+00  0.4629630E-02
    1      -21.688080
    2      -17.111648
    3      -15.389563
    4      -10.099325
    5       -9.776569
    6       -7.048947
    7       -6.668730
    8       -5.025925
    9       -1.226572
   10        1.031655
   11        1.833333
   12        2.235433
 
  0.8333333E-01  0.1388889E+00  0.0000000E+00  0.4629630E-02
    1      -21.659236
    2      -17.367785
    3      -15.092548
    4      -10.070037
    5       -9.742578
    6       -7.171710
    7       -6.697286
    8       -5.193582
    9       -1.020332
   10        1.070775
   11        1.873003
   12        2.275675
 
  0.1250000E+00  0.1388889E+00  0.0000000E+00  0.4629630E-02
    1      -21.611190
    2      -17.683166
    3      -14.709433
    4      -10.021291
    5       -9.685991
    6       -7.349915
    7       -6.767348
    8       -5.438662
    9       -0.711486
   10        1.136007
   11        1.939105
   12        2.342751
 
  0.1666667E+00  0.1388889E+00  0.0000000E+00  0.4629630E-02
    1      -21.543979
    2      -18.015848
    3      -14.282776
    4       -9.953190
    5       -9.606906
    6       -7.570107
    7       -6.886344
    8       -5.731388
    9       -0.330621
   10        1.227391
   11        2.031616
   12        2.436671
 
  0.2083333E+00  0.1388889E+00  0.0000000E+00  0.4629630E-02
    1      -21.457660
    2      -18.348692
    3      -13.830610
    4       -9.865873
    5       -9.505466
    6       -7.825183
    7       -7.052934
    8       -6.049457
    9        0.098839
   10        1.344962
   11        2.150499
   12        2.557444
 
  0.2500000E+00  0.1388889E+00  0.0000000E+00  0.4629630E-02
    1      -21.352303
    2      -18.673974
    3      -13.361868
    4       -9.759523
    5       -9.381862
    6       -8.111898
    7       -7.259935
    8       -6.377909
    9        0.560501
   10        1.488736
   11        2.295702
   12        2.705075
 
  0.2916667E+00  0.1388889E+00  0.0000000E+00  0.4629630E-02
    1      -21.228004
    2      -18.987737
    3      -12.882066
    4       -9.634356
    5       -9.236340
    6       -8.429496
    7       -7.496408
    8       -6.706969
    9        1.042853
   10        1.658709
   11        2.467147
   12        2.879568
 
  0.3333333E+00  0.1388889E+00  0.0000000E+00  0.4629630E-02
    1      -21.084876
    2      -19.287721
    3      -12.395448
    4       -9.490626
    5       -9.069210
    6       -8.778398
    7       -7.749825
    8       -7.030179
    9        1.537405
   10        1.854847
   11        2.664703
   12        3.080920
 
  0.3750000E+00  0.1388889E+00  0.0000000E+00  0.4629630E-02
    1      -20.923058
    2      -19.572507
    3      -11.905905
    4       -9.328624
    5       -9.158632
    6       -8.880862
    7       -8.008375
    8       -7.343154
    9        2.037427
   10        2.077091
   11        2.888124
   12        3.309123
 
  0.4166667E+00  0.1388889E+00  0.0000000E+00  0.4629630E-02
    1      -20.742722
    2      -19.841139
    3      -11.417435
    4       -9.568563
    5       -9.148696
    6       -8.671779
    7       -8.262768
    8       -7.642827
    9        2.325368
   10        2.537082
   11        3.136755
   12        3.564186
 
  0.4583333E+00  0.1388889E+00  0.0000000E+00  0.4629630E-02
    1      -20.544077
    2      -20.092932
    3      -10.934407
    4      -10.004575
    5       -8.951271
    6       -8.506827
    7       -8.442564
    8       -7.926981
    9        2.599581
   10        3.030224
   11        3.225336
   12        3.407031
 
  0.5000000E+00  0.1388889E+00  0.0000000E+00  0.2314815E-02
    1      -20.327376
    2      -20.327376
    3      -10.461681
    4      -10.461681
    5       -8.736969
    6       -8.736969
    7       -8.193976
    8       -8.193976
    9        2.899617
   10        2.899617
   11        3.494746
   12        3.494747
 
  0.0000000E+00  0.1666667E+00  0.0000000E+00  0.2314815E-02
    1      -21.545878
    2      -16.871117
    3      -15.391136
    4      -10.605526
    5       -9.609210
    6       -7.471267
    7       -6.922416
    8       -4.783154
    9       -1.367183
   10        1.225012
   11        2.028122
   12        2.433141
 
  0.4166667E-01  0.1666667E+00  0.0000000E+00  0.4629630E-02
    1      -21.536279
    2      -16.978305
    3      -15.271005
    4      -10.595367
    5       -9.597926
    6       -7.514791
    7       -6.924750
    8       -4.845368
    9       -1.293403
   10        1.238036
   11        2.041330
   12        2.446552
 
  0.8333333E-01  0.1666667E+00  0.0000000E+00  0.4629630E-02
    1      -21.507489
    2      -17.232469
    3      -14.978163
    4      -10.564881
    5       -9.564090
    6       -7.633662
    7       -6.942854
    8       -5.017264
    9       -1.086968
   10        1.277121
   11        2.080951
   12        2.486786
 
  0.1250000E+00  0.1666667E+00  0.0000000E+00  0.4629630E-02
    1      -21.459532
    2      -17.545713
    3      -14.600980
    4      -10.514040
    5       -9.507762
    6       -7.806780
    7       -6.995860
    8       -5.266653
    9       -0.780546
   10        1.342292
   11        2.146970
   12        2.553849
 
  0.1666667E+00  0.1666667E+00  0.0000000E+00  0.4629630E-02
    1      -21.392449
    2      -17.876399
    3      -14.181903
    4      -10.442791
    5       -9.429041
    6       -8.018047
    7       -7.096120
    8       -5.562516
    9       -0.405943
   10        1.433592
   11        2.239366
   12        2.647750
 
  0.2083333E+00  0.1666667E+00  0.0000000E+00  0.4629630E-02
    1      -21.306296
    2      -18.207461
    3      -13.739197
    4      -10.351033
    5       -9.328068
    6       -8.257458
    7       -7.247734
    8       -5.882370
    9        0.013280
   10        1.551061
   11        2.358103
   12        2.768500
 
  0.2500000E+00  0.1666667E+00  0.0000000E+00  0.4629630E-02
    1      -21.201151
    2      -18.531178
    3      -13.282222
    4      -10.238594
    5       -9.205037
    6       -8.519245
    7       -7.448390
    8       -6.211507
    9        0.461067
   10        1.694726
   11        2.503133
   12        2.916111
 
  0.2916667E+00  0.1666667E+00  0.0000000E+00  0.4629630E-02
    1      -21.077108
    2      -18.843577
    3      -12.817117
    4      -10.105202
    5       -9.060190
    6       -8.800769
    7       -7.690863
    8       -6.540475
    9        0.926374
   10        1.864591
   11        2.674391
   12        3.090588
 
  0.3333333E+00  0.1666667E+00  0.0000000E+00  0.4629630E-02
    1      -20.934287
    2      -19.142375
    3      -12.348963
    4       -9.950432
    5       -9.102014
    6       -8.893839
    7       -7.964245
    8       -6.863086
    9        1.401212
   10        2.060624
   11        2.871785
   12        3.291930
 
  0.3750000E+00  0.1666667E+00  0.0000000E+00  0.4629630E-02
    1      -20.772833
    2      -19.426130
    3      -11.882744
    4       -9.773687
    5       -9.425070
    6       -8.706368
    7       -8.255254
    8       -7.175156
    9        1.879416
   10        2.282765
   11        3.095166
   12        3.520131
 
  0.4166667E+00  0.1666667E+00  0.0000000E+00  0.4629630E-02
    1      -20.592927
    2      -19.693868
    3      -11.423793
    4       -9.773074
    5       -9.574206
    6       -8.549969
    7       -8.498254
    8       -7.473756
    9        2.355925
   10        2.530930
   11        3.344189
   12        3.775908
 
  0.4583333E+00  0.1666667E+00  0.0000000E+00  0.4629630E-02
    1      -20.394781
    2      -19.944887
    3      -10.977919
    4      -10.148432
    5       -9.351263
    6       -8.836049
    7       -8.270089
    8       -7.756768
    9        2.805009
   10        2.826314
   11        3.430371
   12        3.613250
 
  0.5000000E+00  0.1666667E+00  0.0000000E+00  0.2314815E-02
    1      -20.178661
    2      -20.178661
    3      -10.551071
    4      -10.551071
    5       -9.104705
    6       -9.104705
    7       -8.022614
    8       -8.022614
    9        3.104874
   10        3.104874
   11        3.286241
   12        3.286241
 