       N       E                     dE             d eps       ncg     rms          rms(c)
DAV:   1     0.186708999722E+03    0.18671E+03   -0.10615E+04  5928   0.275E+03
DAV:   2    -0.918921590885E+01   -0.19590E+03   -0.17351E+03 10272   0.258E+02
DAV:   3    -0.380272957665E+02   -0.28838E+02   -0.28142E+02  7436   0.119E+02    0.703E+00
RMM:   4    -0.375270717921E+02    0.50022E+00   -0.94208E+00  5928   0.265E+01    0.407E+00
RMM:   5    -0.368358939861E+02    0.69118E+00   -0.25701E+00  5930   0.110E+01    0.684E-01
RMM:   6    -0.368377149492E+02   -0.18210E-02   -0.78548E-02  6375   0.200E+00    0.491E-01
RMM:   7    -0.368289483861E+02    0.87666E-02   -0.29556E-02  5946   0.150E+00    0.315E-01
RMM:   8    -0.368245377233E+02    0.44107E-02   -0.55537E-03  5930   0.497E-01    0.136E-01
RMM:   9    -0.368242692979E+02    0.26843E-03   -0.18826E-02  5928   0.811E-01    0.144E-01
RMM:  10    -0.368242108442E+02    0.58454E-04   -0.17322E-03  5928   0.304E-01    0.259E-02
RMM:  11    -0.368264076470E+02   -0.21968E-02   -0.67502E-04  5929   0.177E-01    0.401E-02
RMM:  12    -0.368269302669E+02   -0.52262E-03   -0.19375E-04  5946   0.925E-02    0.426E-03
RMM:  13    -0.368271969122E+02   -0.26665E-03   -0.43898E-05  6067   0.319E-02    0.246E-03
RMM:  14    -0.368272800195E+02   -0.83107E-04   -0.10425E-05  6018   0.131E-02    0.892E-04
RMM:  15    -0.368272938530E+02   -0.13834E-04   -0.18501E-06  5940   0.738E-03    0.249E-03
RMM:  16    -0.368273077627E+02   -0.13910E-04   -0.23085E-06  5928   0.101E-02    0.148E-03
RMM:  17    -0.368273139308E+02   -0.61681E-05   -0.27139E-07  5928   0.319E-03    0.370E-04
RMM:  18    -0.368273150504E+02   -0.11196E-05   -0.18182E-08  5992   0.112E-03    0.807E-05
RMM:  19    -0.368273157518E+02   -0.70140E-06   -0.94531E-09  5082   0.397E-04    0.130E-05
RMM:  20    -0.368273157822E+02   -0.30401E-07   -0.51469E-10  4523   0.122E-04    0.186E-05
RMM:  21    -0.368273157925E+02   -0.10266E-07   -0.16106E-10  4273   0.744E-05    0.921E-06
RMM:  22    -0.368273157924E+02    0.88107E-10   -0.18896E-11  3880   0.499E-05
   1 F= -.36827316E+02 E0= -.36827316E+02  d E =-.368273E+02
       N       E                     dE             d eps       ncg     rms          rms(c)
DAV:   1    -0.368273153328E+02    0.45964E-06   -0.45900E-05  6504   0.633E-02    0.125E-03
RMM:   2    -0.368273153579E+02   -0.25043E-07   -0.73664E-07  5969   0.754E-03    0.910E-04
RMM:   3    -0.368273153289E+02    0.28999E-07   -0.12293E-07  5978   0.281E-03    0.247E-04
RMM:   4    -0.368273153287E+02    0.21009E-09   -0.86386E-09  6111   0.732E-04    0.712E-05
RMM:   5    -0.368273153272E+02    0.14364E-08   -0.59259E-10  4707   0.173E-04    0.300E-05
RMM:   6    -0.368273153273E+02   -0.79240E-10   -0.68447E-11  3784   0.793E-05
   2 F= -.36827315E+02 E0= -.36827315E+02  d E =0.465078E-06
       N       E                     dE             d eps       ncg     rms          rms(c)
DAV:   1    -0.368273158071E+02   -0.47982E-06   -0.28034E-05  6824   0.495E-02    0.986E-04
RMM:   2    -0.368273158318E+02   -0.24752E-07   -0.43532E-07  5965   0.588E-03    0.712E-04
RMM:   3    -0.368273158288E+02    0.29809E-08   -0.74246E-08  5976   0.219E-03    0.187E-04
RMM:   4    -0.368273158259E+02    0.29517E-08   -0.50393E-09  6076   0.563E-04    0.552E-05
RMM:   5    -0.368273158268E+02   -0.89392E-09   -0.35634E-10  4280   0.137E-04    0.237E-05
RMM:   6    -0.368273158267E+02    0.71282E-10   -0.43268E-11  3723   0.675E-05
   3 F= -.36827316E+02 E0= -.36827316E+02  d E =-.499380E-06
       N       E                     dE             d eps       ncg     rms          rms(c)
DAV:   1    -0.368273158261E+02    0.62141E-09    0.51945E-09  5176   0.100E-04    0.331E-06
RMM:   2    -0.368273158267E+02   -0.53478E-09    0.24498E-12  2925   0.291E-05    0.204E-06
RMM:   3    -0.368273158267E+02   -0.10800E-10   -0.44860E-12  2848   0.311E-05    0.202E-07
RMM:   4    -0.368273158267E+02    0.57980E-11   -0.36614E-12  2569   0.282E-05    0.177E-07
RMM:   5    -0.368273158267E+02    0.92086E-11   -0.17265E-12  2365   0.254E-05
   4 F= -.36827316E+02 E0= -.36827316E+02  d E =0.195541E-10
       N       E                     dE             d eps       ncg     rms          rms(c)
DAV:   1    -0.368273158262E+02    0.53205E-09    0.52662E-09  4948   0.589E-05    0.508E-07
RMM:   2    -0.368273158266E+02   -0.48510E-09   -0.57008E-13  1690   0.162E-05    0.313E-07
RMM:   3    -0.368273158266E+02   -0.63665E-11   -0.68453E-13  1561   0.161E-05    0.198E-08
RMM:   4    -0.368273158267E+02   -0.93223E-11   -0.11150E-12  1503   0.162E-05    0.228E-08
RMM:   5    -0.368273158267E+02   -0.34106E-12    0.20368E-13  1466   0.158E-05
   5 F= -.36827316E+02 E0= -.36827316E+02  d E =0.217142E-10
