<?xml version="1.0" encoding="ISO-8859-1"?>
<modeling>
 <generator>
  <i name="program" type="string">vasp </i>
  <i name="version" type="string">5.3.5  </i>
  <i name="subversion" type="string">31Mar14 (build Mar 02 2015 18:14:16) complex                          parallel </i>
  <i name="platform" type="string">LinuxIFC </i>
  <i name="date" type="string">2018 08 10 </i>
  <i name="time" type="string">14:37:55 </i>
 </generator>
 <incar>
  <i type="string" name="SYSTEM">  gr</i>
  <i type="string" name="PREC">accurate : accuracy</i>
  <i type="string" name="ALGO"> FAST.</i>
  <i type="int" name="NELM">   100</i>
  <i type="int" name="NELMDL">    -3</i>
  <i type="int" name="NELMIN">     5</i>
  <i type="int" name="IBRION">     1</i>
  <i name="EDIFF">      0.00000000</i>
  <i name="EDIFFG">     -0.00000100</i>
  <i type="int" name="NSW">   400</i>
  <i type="int" name="ISIF">     2</i>
  <i name="ENCUT">   2000.00000000</i>
  <i type="int" name="ISMEAR">     0</i>
  <i name="SIGMA">      0.05000000</i>
  <i type="int" name="NWRITE">     2</i>
  <i type="logical" name="LWAVE"> F  </i>
  <i type="logical" name="LCHARG"> F  </i>
  <i type="int" name="NELM">   100</i>
 </incar>
 <kpoints>
  <generation param="Gamma">
   <v type="int" name="divisions">      24       36        1 </v>
   <v name="usershift">      0.00000000       0.00000000       0.00000000 </v>
   <v name="genvec1">      0.04166667       0.00000000       0.00000000 </v>
   <v name="genvec2">      0.00000000       0.02777778       0.00000000 </v>
   <v name="genvec3">      0.00000000       0.00000000       1.00000000 </v>
   <v name="shift">      0.00000000       0.00000000       0.00000000 </v>
  </generation>
  <varray name="kpointlist" >
   <v>       0.00000000       0.00000000       0.00000000 </v>
   <v>       0.04166667       0.00000000       0.00000000 </v>
   <v>       0.08333333       0.00000000       0.00000000 </v>
   <v>       0.12500000       0.00000000       0.00000000 </v>
   <v>       0.16666667       0.00000000       0.00000000 </v>
   <v>       0.20833333       0.00000000       0.00000000 </v>
   <v>       0.25000000       0.00000000       0.00000000 </v>
   <v>       0.29166667       0.00000000       0.00000000 </v>
   <v>       0.33333333       0.00000000       0.00000000 </v>
   <v>       0.37500000       0.00000000       0.00000000 </v>
   <v>       0.41666667       0.00000000       0.00000000 </v>
   <v>       0.45833333       0.00000000       0.00000000 </v>
   <v>       0.50000000       0.00000000       0.00000000 </v>
   <v>       0.00000000       0.02777778       0.00000000 </v>
   <v>       0.04166667       0.02777778       0.00000000 </v>
   <v>       0.08333333       0.02777778       0.00000000 </v>
   <v>       0.12500000       0.02777778       0.00000000 </v>
   <v>       0.16666667       0.02777778       0.00000000 </v>
   <v>       0.20833333       0.02777778       0.00000000 </v>
   <v>       0.25000000       0.02777778       0.00000000 </v>
   <v>       0.29166667       0.02777778       0.00000000 </v>
   <v>       0.33333333       0.02777778       0.00000000 </v>
   <v>       0.37500000       0.02777778       0.00000000 </v>
   <v>       0.41666667       0.02777778       0.00000000 </v>
   <v>       0.45833333       0.02777778       0.00000000 </v>
   <v>       0.50000000       0.02777778       0.00000000 </v>
   <v>       0.00000000       0.05555556       0.00000000 </v>
   <v>       0.04166667       0.05555556       0.00000000 </v>
   <v>       0.08333333       0.05555556       0.00000000 </v>
   <v>       0.12500000       0.05555556       0.00000000 </v>
   <v>       0.16666667       0.05555556       0.00000000 </v>
   <v>       0.20833333       0.05555556       0.00000000 </v>
   <v>       0.25000000       0.05555556       0.00000000 </v>
   <v>       0.29166667       0.05555556       0.00000000 </v>
   <v>       0.33333333       0.05555556       0.00000000 </v>
   <v>       0.37500000       0.05555556       0.00000000 </v>
   <v>       0.41666667       0.05555556       0.00000000 </v>
   <v>       0.45833333       0.05555556       0.00000000 </v>
   <v>       0.50000000       0.05555556       0.00000000 </v>
   <v>       0.00000000       0.08333333       0.00000000 </v>
   <v>       0.04166667       0.08333333       0.00000000 </v>
   <v>       0.08333333       0.08333333       0.00000000 </v>
   <v>       0.12500000       0.08333333       0.00000000 </v>
   <v>       0.16666667       0.08333333       0.00000000 </v>
   <v>       0.20833333       0.08333333       0.00000000 </v>
   <v>       0.25000000       0.08333333       0.00000000 </v>
   <v>       0.29166667       0.08333333       0.00000000 </v>
   <v>       0.33333333       0.08333333       0.00000000 </v>
   <v>       0.37500000       0.08333333       0.00000000 </v>
   <v>       0.41666667       0.08333333       0.00000000 </v>
   <v>       0.45833333       0.08333333       0.00000000 </v>
   <v>       0.50000000       0.08333333       0.00000000 </v>
   <v>       0.00000000       0.11111111       0.00000000 </v>
   <v>       0.04166667       0.11111111       0.00000000 </v>
   <v>       0.08333333       0.11111111       0.00000000 </v>
   <v>       0.12500000       0.11111111       0.00000000 </v>
   <v>       0.16666667       0.11111111       0.00000000 </v>
   <v>       0.20833333       0.11111111       0.00000000 </v>
   <v>       0.25000000       0.11111111       0.00000000 </v>
   <v>       0.29166667       0.11111111       0.00000000 </v>
   <v>       0.33333333       0.11111111       0.00000000 </v>
   <v>       0.37500000       0.11111111       0.00000000 </v>
   <v>       0.41666667       0.11111111       0.00000000 </v>
   <v>       0.45833333       0.11111111       0.00000000 </v>
   <v>       0.50000000       0.11111111       0.00000000 </v>
   <v>       0.00000000       0.13888889       0.00000000 </v>
   <v>       0.04166667       0.13888889       0.00000000 </v>
   <v>       0.08333333       0.13888889       0.00000000 </v>
   <v>       0.12500000       0.13888889       0.00000000 </v>
   <v>       0.16666667       0.13888889       0.00000000 </v>
   <v>       0.20833333       0.13888889       0.00000000 </v>
   <v>       0.25000000       0.13888889       0.00000000 </v>
   <v>       0.29166667       0.13888889       0.00000000 </v>
   <v>       0.33333333       0.13888889       0.00000000 </v>
   <v>       0.37500000       0.13888889       0.00000000 </v>
   <v>       0.41666667       0.13888889       0.00000000 </v>
   <v>       0.45833333       0.13888889       0.00000000 </v>
   <v>       0.50000000       0.13888889       0.00000000 </v>
   <v>       0.00000000       0.16666667       0.00000000 </v>
   <v>       0.04166667       0.16666667       0.00000000 </v>
   <v>       0.08333333       0.16666667       0.00000000 </v>
   <v>       0.12500000       0.16666667       0.00000000 </v>
   <v>       0.16666667       0.16666667       0.00000000 </v>
   <v>       0.20833333       0.16666667       0.00000000 </v>
   <v>       0.25000000       0.16666667       0.00000000 </v>
   <v>       0.29166667       0.16666667       0.00000000 </v>
   <v>       0.33333333       0.16666667       0.00000000 </v>
   <v>       0.37500000       0.16666667       0.00000000 </v>
   <v>       0.41666667       0.16666667       0.00000000 </v>
   <v>       0.45833333       0.16666667       0.00000000 </v>
   <v>       0.50000000       0.16666667       0.00000000 </v>
   <v>       0.00000000       0.19444444       0.00000000 </v>
   <v>       0.04166667       0.19444444       0.00000000 </v>
   <v>       0.08333333       0.19444444       0.00000000 </v>
   <v>       0.12500000       0.19444444       0.00000000 </v>
   <v>       0.16666667       0.19444444       0.00000000 </v>
   <v>       0.20833333       0.19444444       0.00000000 </v>
   <v>       0.25000000       0.19444444       0.00000000 </v>
   <v>       0.29166667       0.19444444       0.00000000 </v>
   <v>       0.33333333       0.19444444       0.00000000 </v>
   <v>       0.37500000       0.19444444       0.00000000 </v>
   <v>       0.41666667       0.19444444       0.00000000 </v>
   <v>       0.45833333       0.19444444       0.00000000 </v>
   <v>       0.50000000       0.19444444       0.00000000 </v>
   <v>       0.00000000       0.22222222       0.00000000 </v>
   <v>       0.04166667       0.22222222       0.00000000 </v>
   <v>       0.08333333       0.22222222       0.00000000 </v>
   <v>       0.12500000       0.22222222       0.00000000 </v>
   <v>       0.16666667       0.22222222       0.00000000 </v>
   <v>       0.20833333       0.22222222       0.00000000 </v>
   <v>       0.25000000       0.22222222       0.00000000 </v>
   <v>       0.29166667       0.22222222       0.00000000 </v>
   <v>       0.33333333       0.22222222       0.00000000 </v>
   <v>       0.37500000       0.22222222       0.00000000 </v>
   <v>       0.41666667       0.22222222       0.00000000 </v>
   <v>       0.45833333       0.22222222       0.00000000 </v>
   <v>       0.50000000       0.22222222       0.00000000 </v>
   <v>       0.00000000       0.25000000       0.00000000 </v>
   <v>       0.04166667       0.25000000       0.00000000 </v>
   <v>       0.08333333       0.25000000       0.00000000 </v>
   <v>       0.12500000       0.25000000       0.00000000 </v>
   <v>       0.16666667       0.25000000       0.00000000 </v>
   <v>       0.20833333       0.25000000       0.00000000 </v>
   <v>       0.25000000       0.25000000       0.00000000 </v>
   <v>       0.29166667       0.25000000       0.00000000 </v>
   <v>       0.33333333       0.25000000       0.00000000 </v>
   <v>       0.37500000       0.25000000       0.00000000 </v>
   <v>       0.41666667       0.25000000       0.00000000 </v>
   <v>       0.45833333       0.25000000       0.00000000 </v>
   <v>       0.50000000       0.25000000       0.00000000 </v>
   <v>       0.00000000       0.27777778       0.00000000 </v>
   <v>       0.04166667       0.27777778       0.00000000 </v>
   <v>       0.08333333       0.27777778       0.00000000 </v>
   <v>       0.12500000       0.27777778       0.00000000 </v>
   <v>       0.16666667       0.27777778       0.00000000 </v>
   <v>       0.20833333       0.27777778       0.00000000 </v>
   <v>       0.25000000       0.27777778       0.00000000 </v>
   <v>       0.29166667       0.27777778       0.00000000 </v>
   <v>       0.33333333       0.27777778       0.00000000 </v>
   <v>       0.37500000       0.27777778       0.00000000 </v>
   <v>       0.41666667       0.27777778       0.00000000 </v>
   <v>       0.45833333       0.27777778       0.00000000 </v>
   <v>       0.50000000       0.27777778       0.00000000 </v>
   <v>       0.00000000       0.30555556       0.00000000 </v>
   <v>       0.04166667       0.30555556       0.00000000 </v>
   <v>       0.08333333       0.30555556       0.00000000 </v>
   <v>       0.12500000       0.30555556       0.00000000 </v>
   <v>       0.16666667       0.30555556       0.00000000 </v>
   <v>       0.20833333       0.30555556       0.00000000 </v>
   <v>       0.25000000       0.30555556       0.00000000 </v>
   <v>       0.29166667       0.30555556       0.00000000 </v>
   <v>       0.33333333       0.30555556       0.00000000 </v>
   <v>       0.37500000       0.30555556       0.00000000 </v>
   <v>       0.41666667       0.30555556       0.00000000 </v>
   <v>       0.45833333       0.30555556       0.00000000 </v>
   <v>       0.50000000       0.30555556       0.00000000 </v>
   <v>       0.00000000       0.33333333       0.00000000 </v>
   <v>       0.04166667       0.33333333       0.00000000 </v>
   <v>       0.08333333       0.33333333       0.00000000 </v>
   <v>       0.12500000       0.33333333       0.00000000 </v>
   <v>       0.16666667       0.33333333       0.00000000 </v>
   <v>       0.20833333       0.33333333       0.00000000 </v>
   <v>       0.25000000       0.33333333       0.00000000 </v>
   <v>       0.29166667       0.33333333       0.00000000 </v>
   <v>       0.33333333       0.33333333       0.00000000 </v>
   <v>       0.37500000       0.33333333       0.00000000 </v>
   <v>       0.41666667       0.33333333       0.00000000 </v>
   <v>       0.45833333       0.33333333       0.00000000 </v>
   <v>       0.50000000       0.33333333       0.00000000 </v>
   <v>       0.00000000       0.36111111       0.00000000 </v>
   <v>       0.04166667       0.36111111       0.00000000 </v>
   <v>       0.08333333       0.36111111       0.00000000 </v>
   <v>       0.12500000       0.36111111       0.00000000 </v>
   <v>       0.16666667       0.36111111       0.00000000 </v>
   <v>       0.20833333       0.36111111       0.00000000 </v>
   <v>       0.25000000       0.36111111       0.00000000 </v>
   <v>       0.29166667       0.36111111       0.00000000 </v>
   <v>       0.33333333       0.36111111       0.00000000 </v>
   <v>       0.37500000       0.36111111       0.00000000 </v>
   <v>       0.41666667       0.36111111       0.00000000 </v>
   <v>       0.45833333       0.36111111       0.00000000 </v>
   <v>       0.50000000       0.36111111       0.00000000 </v>
   <v>       0.00000000       0.38888889       0.00000000 </v>
   <v>       0.04166667       0.38888889       0.00000000 </v>
   <v>       0.08333333       0.38888889       0.00000000 </v>
   <v>       0.12500000       0.38888889       0.00000000 </v>
   <v>       0.16666667       0.38888889       0.00000000 </v>
   <v>       0.20833333       0.38888889       0.00000000 </v>
   <v>       0.25000000       0.38888889       0.00000000 </v>
   <v>       0.29166667       0.38888889       0.00000000 </v>
   <v>       0.33333333       0.38888889       0.00000000 </v>
   <v>       0.37500000       0.38888889       0.00000000 </v>
   <v>       0.41666667       0.38888889       0.00000000 </v>
   <v>       0.45833333       0.38888889       0.00000000 </v>
   <v>       0.50000000       0.38888889       0.00000000 </v>
   <v>       0.00000000       0.41666667       0.00000000 </v>
   <v>       0.04166667       0.41666667       0.00000000 </v>
   <v>       0.08333333       0.41666667       0.00000000 </v>
   <v>       0.12500000       0.41666667       0.00000000 </v>
   <v>       0.16666667       0.41666667       0.00000000 </v>
   <v>       0.20833333       0.41666667       0.00000000 </v>
   <v>       0.25000000       0.41666667       0.00000000 </v>
   <v>       0.29166667       0.41666667       0.00000000 </v>
   <v>       0.33333333       0.41666667       0.00000000 </v>
   <v>       0.37500000       0.41666667       0.00000000 </v>
   <v>       0.41666667       0.41666667       0.00000000 </v>
   <v>       0.45833333       0.41666667       0.00000000 </v>
   <v>       0.50000000       0.41666667       0.00000000 </v>
   <v>       0.00000000       0.44444444       0.00000000 </v>
   <v>       0.04166667       0.44444444       0.00000000 </v>
   <v>       0.08333333       0.44444444       0.00000000 </v>
   <v>       0.12500000       0.44444444       0.00000000 </v>
   <v>       0.16666667       0.44444444       0.00000000 </v>
   <v>       0.20833333       0.44444444       0.00000000 </v>
   <v>       0.25000000       0.44444444       0.00000000 </v>
   <v>       0.29166667       0.44444444       0.00000000 </v>
   <v>       0.33333333       0.44444444       0.00000000 </v>
   <v>       0.37500000       0.44444444       0.00000000 </v>
   <v>       0.41666667       0.44444444       0.00000000 </v>
   <v>       0.45833333       0.44444444       0.00000000 </v>
   <v>       0.50000000       0.44444444       0.00000000 </v>
   <v>       0.00000000       0.47222222       0.00000000 </v>
   <v>       0.04166667       0.47222222       0.00000000 </v>
   <v>       0.08333333       0.47222222       0.00000000 </v>
   <v>       0.12500000       0.47222222       0.00000000 </v>
   <v>       0.16666667       0.47222222       0.00000000 </v>
   <v>       0.20833333       0.47222222       0.00000000 </v>
   <v>       0.25000000       0.47222222       0.00000000 </v>
   <v>       0.29166667       0.47222222       0.00000000 </v>
   <v>       0.33333333       0.47222222       0.00000000 </v>
   <v>       0.37500000       0.47222222       0.00000000 </v>
   <v>       0.41666667       0.47222222       0.00000000 </v>
   <v>       0.45833333       0.47222222       0.00000000 </v>
   <v>       0.50000000       0.47222222       0.00000000 </v>
   <v>       0.00000000       0.50000000       0.00000000 </v>
   <v>       0.04166667       0.50000000       0.00000000 </v>
   <v>       0.08333333       0.50000000       0.00000000 </v>
   <v>       0.12500000       0.50000000       0.00000000 </v>
   <v>       0.16666667       0.50000000       0.00000000 </v>
   <v>       0.20833333       0.50000000       0.00000000 </v>
   <v>       0.25000000       0.50000000       0.00000000 </v>
   <v>       0.29166667       0.50000000       0.00000000 </v>
   <v>       0.33333333       0.50000000       0.00000000 </v>
   <v>       0.37500000       0.50000000       0.00000000 </v>
   <v>       0.41666667       0.50000000       0.00000000 </v>
   <v>       0.45833333       0.50000000       0.00000000 </v>
   <v>       0.50000000       0.50000000       0.00000000 </v>
  </varray>
  <varray name="weights" >
   <v>       0.00115741 </v>
   <v>       0.00231481 </v>
   <v>       0.00231481 </v>
   <v>       0.00231481 </v>
   <v>       0.00231481 </v>
   <v>       0.00231481 </v>
   <v>       0.00231481 </v>
   <v>       0.00231481 </v>
   <v>       0.00231481 </v>
   <v>       0.00231481 </v>
   <v>       0.00231481 </v>
   <v>       0.00231481 </v>
   <v>       0.00115741 </v>
   <v>       0.00231481 </v>
   <v>       0.00462963 </v>
   <v>       0.00462963 </v>
   <v>       0.00462963 </v>
   <v>       0.00462963 </v>
   <v>       0.00462963 </v>
   <v>       0.00462963 </v>
   <v>       0.00462963 </v>
   <v>       0.00462963 </v>
   <v>       0.00462963 </v>
   <v>       0.00462963 </v>
   <v>       0.00462963 </v>
   <v>       0.00231481 </v>
   <v>       0.00231481 </v>
   <v>       0.00462963 </v>
   <v>       0.00462963 </v>
   <v>       0.00462963 </v>
   <v>       0.00462963 </v>
   <v>       0.00462963 </v>
   <v>       0.00462963 </v>
   <v>       0.00462963 </v>
   <v>       0.00462963 </v>
   <v>       0.00462963 </v>
   <v>       0.00462963 </v>
   <v>       0.00462963 </v>
   <v>       0.00231481 </v>
   <v>       0.00231481 </v>
   <v>       0.00462963 </v>
   <v>       0.00462963 </v>
   <v>       0.00462963 </v>
   <v>       0.00462963 </v>
   <v>       0.00462963 </v>
   <v>       0.00462963 </v>
   <v>       0.00462963 </v>
   <v>       0.00462963 </v>
   <v>       0.00462963 </v>
   <v>       0.00462963 </v>
   <v>       0.00462963 </v>
   <v>       0.00231481 </v>
   <v>       0.00231481 </v>
   <v>       0.00462963 </v>
   <v>       0.00462963 </v>
   <v>       0.00462963 </v>
   <v>       0.00462963 </v>
   <v>       0.00462963 </v>
   <v>       0.00462963 </v>
   <v>       0.00462963 </v>
   <v>       0.00462963 </v>
   <v>       0.00462963 </v>
   <v>       0.00462963 </v>
   <v>       0.00462963 </v>
   <v>       0.00231481 </v>
   <v>       0.00231481 </v>
   <v>       0.00462963 </v>
   <v>       0.00462963 </v>
   <v>       0.00462963 </v>
   <v>       0.00462963 </v>
   <v>       0.00462963 </v>
   <v>       0.00462963 </v>
   <v>       0.00462963 </v>
   <v>       0.00462963 </v>
   <v>       0.00462963 </v>
   <v>       0.00462963 </v>
   <v>       0.00462963 </v>
   <v>       0.00231481 </v>
   <v>       0.00231481 </v>
   <v>       0.00462963 </v>
   <v>       0.00462963 </v>
   <v>       0.00462963 </v>
   <v>       0.00462963 </v>
   <v>       0.00462963 </v>
   <v>       0.00462963 </v>
   <v>       0.00462963 </v>
   <v>       0.00462963 </v>
   <v>       0.00462963 </v>
   <v>       0.00462963 </v>
   <v>       0.00462963 </v>
   <v>       0.00231481 </v>
   <v>       0.00231481 </v>
   <v>       0.00462963 </v>
   <v>       0.00462963 </v>
   <v>       0.00462963 </v>
   <v>       0.00462963 </v>
   <v>       0.00462963 </v>
   <v>       0.00462963 </v>
   <v>       0.00462963 </v>
   <v>       0.00462963 </v>
   <v>       0.00462963 </v>
   <v>       0.00462963 </v>
   <v>       0.00462963 </v>
   <v>       0.00231481 </v>
   <v>       0.00231481 </v>
   <v>       0.00462963 </v>
   <v>       0.00462963 </v>
   <v>       0.00462963 </v>
   <v>       0.00462963 </v>
   <v>       0.00462963 </v>
   <v>       0.00462963 </v>
   <v>       0.00462963 </v>
   <v>       0.00462963 </v>
   <v>       0.00462963 </v>
   <v>       0.00462963 </v>
   <v>       0.00462963 </v>
   <v>       0.00231481 </v>
   <v>       0.00231481 </v>
   <v>       0.00462963 </v>
   <v>       0.00462963 </v>
   <v>       0.00462963 </v>
   <v>       0.00462963 </v>
   <v>       0.00462963 </v>
   <v>       0.00462963 </v>
   <v>       0.00462963 </v>
   <v>       0.00462963 </v>
   <v>       0.00462963 </v>
   <v>       0.00462963 </v>
   <v>       0.00462963 </v>
   <v>       0.00231481 </v>
   <v>       0.00231481 </v>
   <v>       0.00462963 </v>
   <v>       0.00462963 </v>
   <v>       0.00462963 </v>
   <v>       0.00462963 </v>
   <v>       0.00462963 </v>
   <v>       0.00462963 </v>
   <v>       0.00462963 </v>
   <v>       0.00462963 </v>
   <v>       0.00462963 </v>
   <v>       0.00462963 </v>
   <v>       0.00462963 </v>
   <v>       0.00231481 </v>
   <v>       0.00231481 </v>
   <v>       0.00462963 </v>
   <v>       0.00462963 </v>
   <v>       0.00462963 </v>
   <v>       0.00462963 </v>
   <v>       0.00462963 </v>
   <v>       0.00462963 </v>
   <v>       0.00462963 </v>
   <v>       0.00462963 </v>
   <v>       0.00462963 </v>
   <v>       0.00462963 </v>
   <v>       0.00462963 </v>
   <v>       0.00231481 </v>
   <v>       0.00231481 </v>
   <v>       0.00462963 </v>
   <v>       0.00462963 </v>
   <v>       0.00462963 </v>
   <v>       0.00462963 </v>
   <v>       0.00462963 </v>
   <v>       0.00462963 </v>
   <v>       0.00462963 </v>
   <v>       0.00462963 </v>
   <v>       0.00462963 </v>
   <v>       0.00462963 </v>
   <v>       0.00462963 </v>
   <v>       0.00231481 </v>
   <v>       0.00231481 </v>
   <v>       0.00462963 </v>
   <v>       0.00462963 </v>
   <v>       0.00462963 </v>
   <v>       0.00462963 </v>
   <v>       0.00462963 </v>
   <v>       0.00462963 </v>
   <v>       0.00462963 </v>
   <v>       0.00462963 </v>
   <v>       0.00462963 </v>
   <v>       0.00462963 </v>
   <v>       0.00462963 </v>
   <v>       0.00231481 </v>
   <v>       0.00231481 </v>
   <v>       0.00462963 </v>
   <v>       0.00462963 </v>
   <v>       0.00462963 </v>
   <v>       0.00462963 </v>
   <v>       0.00462963 </v>
   <v>       0.00462963 </v>
   <v>       0.00462963 </v>
   <v>       0.00462963 </v>
   <v>       0.00462963 </v>
   <v>       0.00462963 </v>
   <v>       0.00462963 </v>
   <v>       0.00231481 </v>
   <v>       0.00231481 </v>
   <v>       0.00462963 </v>
   <v>       0.00462963 </v>
   <v>       0.00462963 </v>
   <v>       0.00462963 </v>
   <v>       0.00462963 </v>
   <v>       0.00462963 </v>
   <v>       0.00462963 </v>
   <v>       0.00462963 </v>
   <v>       0.00462963 </v>
   <v>       0.00462963 </v>
   <v>       0.00462963 </v>
   <v>       0.00231481 </v>
   <v>       0.00231481 </v>
   <v>       0.00462963 </v>
   <v>       0.00462963 </v>
   <v>       0.00462963 </v>
   <v>       0.00462963 </v>
   <v>       0.00462963 </v>
   <v>       0.00462963 </v>
   <v>       0.00462963 </v>
   <v>       0.00462963 </v>
   <v>       0.00462963 </v>
   <v>       0.00462963 </v>
   <v>       0.00462963 </v>
   <v>       0.00231481 </v>
   <v>       0.00231481 </v>
   <v>       0.00462963 </v>
   <v>       0.00462963 </v>
   <v>       0.00462963 </v>
   <v>       0.00462963 </v>
   <v>       0.00462963 </v>
   <v>       0.00462963 </v>
   <v>       0.00462963 </v>
   <v>       0.00462963 </v>
   <v>       0.00462963 </v>
   <v>       0.00462963 </v>
   <v>       0.00462963 </v>
   <v>       0.00231481 </v>
   <v>       0.00115741 </v>
   <v>       0.00231481 </v>
   <v>       0.00231481 </v>
   <v>       0.00231481 </v>
   <v>       0.00231481 </v>
   <v>       0.00231481 </v>
   <v>       0.00231481 </v>
   <v>       0.00231481 </v>
   <v>       0.00231481 </v>
   <v>       0.00231481 </v>
   <v>       0.00231481 </v>
   <v>       0.00231481 </v>
   <v>       0.00115741 </v>
  </varray>
 </kpoints>
 <parameters>
  <separator name="general" >
   <i type="string" name="SYSTEM">gr</i>
   <i type="logical" name="LCOMPAT"> F  </i>
  </separator>
  <separator name="electronic" >
   <i type="string" name="PREC">accura</i>
   <i name="ENMAX">   2000.00000000</i>
   <i name="ENAUG">    644.87300000</i>
   <i name="EDIFF">      0.00000000</i>
   <i type="int" name="IALGO">    68</i>
   <i type="int" name="IWAVPR">    11</i>
   <i type="int" name="NBANDS">    12</i>
   <i name="NELECT">     16.00000000</i>
   <i type="int" name="TURBO">     0</i>
   <i type="int" name="IRESTART">     0</i>
   <i type="int" name="NREBOOT">     0</i>
   <i type="int" name="NMIN">     0</i>
   <i name="EREF">      0.00000000</i>
   <separator name="electronic smearing" >
    <i type="int" name="ISMEAR">     0</i>
    <i name="SIGMA">      0.05000000</i>
    <i name="KSPACING">      0.50000000</i>
    <i type="logical" name="KGAMMA"> T  </i>
   </separator>
   <separator name="electronic projectors" >
    <i type="logical" name="LREAL"> F  </i>
    <v name="ROPT">      0.00000000</v>
    <i type="int" name="LMAXPAW">  -100</i>
    <i type="int" name="LMAXMIX">     2</i>
    <i type="logical" name="NLSPLINE"> F  </i>
   </separator>
   <separator name="electronic startup" >
    <i type="int" name="ISTART">     0</i>
    <i type="int" name="ICHARG">     2</i>
    <i type="int" name="INIWAV">     1</i>
   </separator>
   <separator name="electronic spin" >
    <i type="int" name="ISPIN">     1</i>
    <i type="logical" name="LNONCOLLINEAR"> F  </i>
    <v name="MAGMOM">      1.00000000      1.00000000      1.00000000      1.00000000</v>
    <i name="NUPDOWN">     -1.00000000</i>
    <i type="logical" name="LSORBIT"> F  </i>
    <v name="SAXIS">      0.00000000      0.00000000      1.00000000</v>
    <i type="logical" name="LSPIRAL"> F  </i>
    <v name="QSPIRAL">      0.00000000      0.00000000      0.00000000</v>
    <i type="logical" name="LZEROZ"> F  </i>
   </separator>
   <separator name="electronic exchange-correlation" >
    <i type="logical" name="LASPH"> F  </i>
    <i type="logical" name="LMETAGGA"> F  </i>
   </separator>
   <separator name="electronic convergence" >
    <i type="int" name="NELM">   100</i>
    <i type="int" name="NELMDL">    -3</i>
    <i type="int" name="NELMIN">     5</i>
    <i name="ENINI">   2000.00000000</i>
    <separator name="electronic convergence detail" >
     <i type="logical" name="LDIAG"> T  </i>
     <i type="logical" name="LSUBROT"> F  </i>
     <i name="WEIMIN">      0.00100000</i>
     <i name="EBREAK">      0.00000000</i>
     <i name="DEPER">      0.30000000</i>
     <i type="int" name="NRMM">     4</i>
     <i name="TIME">      0.40000000</i>
    </separator>
   </separator>
   <separator name="electronic mixer" >
    <i name="AMIX">      0.40000000</i>
    <i name="BMIX">      1.00000000</i>
    <i name="AMIN">      0.10000000</i>
    <i name="AMIX_MAG">      1.60000000</i>
    <i name="BMIX_MAG">      1.00000000</i>
    <separator name="electronic mixer details" >
     <i type="int" name="IMIX">     4</i>
     <i type="int" name="MAXMIX">   -45</i>
     <i name="WC">    100.00000000</i>
     <i type="int" name="INIMIX">     1</i>
     <i type="int" name="MIXPRE">     1</i>
     <i type="int" name="MREMOVE">     5</i>
    </separator>
   </separator>
   <separator name="electronic dipolcorrection" >
    <i type="logical" name="LDIPOL"> F  </i>
    <i type="logical" name="LMONO"> F  </i>
    <i type="int" name="IDIPOL">     0</i>
    <i name="EPSILON">      1.00000000</i>
    <v name="DIPOL">   -100.00000000   -100.00000000   -100.00000000</v>
    <i name="EFIELD">      0.00000000</i>
   </separator>
  </separator>
  <separator name="grids" >
   <i type="int" name="NGX">    64</i>
   <i type="int" name="NGY">    36</i>
   <i type="int" name="NGZ">   288</i>
   <i type="int" name="NGXF">   128</i>
   <i type="int" name="NGYF">    72</i>
   <i type="int" name="NGZF">   576</i>
   <i type="logical" name="ADDGRID"> F  </i>
  </separator>
  <separator name="ionic" >
   <i type="int" name="NSW">   400</i>
   <i type="int" name="IBRION">     1</i>
   <i type="int" name="ISIF">     2</i>
   <i name="PSTRESS">      0.00000000</i>
   <i name="EDIFFG">     -0.00000100</i>
   <i type="int" name="NFREE">     0</i>
   <i name="POTIM">      0.50000000</i>
   <i name="SMASS">     -3.00000000</i>
   <i name="SCALEE">      1.00000000</i>
  </separator>
  <separator name="ionic md" >
   <i name="TEBEG">      0.00010000</i>
   <i name="TEEND">      0.00010000</i>
   <i type="int" name="NBLOCK">     1</i>
   <i type="int" name="KBLOCK">   400</i>
   <i type="int" name="NPACO">   256</i>
   <i name="APACO">     16.00000000</i>
  </separator>
  <separator name="symmetry" >
   <i type="int" name="ISYM">     2</i>
   <i name="SYMPREC">      0.00001000</i>
  </separator>
  <separator name="dos" >
   <i type="logical" name="LORBIT"> F  </i>
   <v name="RWIGS">     -1.00000000</v>
   <i type="int" name="NEDOS">   301</i>
   <i name="EMIN">     10.00000000</i>
   <i name="EMAX">    -10.00000000</i>
   <i name="EFERMI">      0.00000000</i>
  </separator>
  <separator name="writing" >
   <i type="int" name="NWRITE">     2</i>
   <i type="logical" name="LWAVE"> F  </i>
   <i type="logical" name="LCHARG"> F  </i>
   <i type="logical" name="LPARD"> F  </i>
   <i type="logical" name="LVTOT"> F  </i>
   <i type="logical" name="LVHAR"> F  </i>
   <i type="logical" name="LELF"> F  </i>
   <i type="logical" name="LOPTICS"> F  </i>
   <v name="STM">      0.00000000      0.00000000      0.00000000      0.00000000      0.00000000      0.00000000      0.00000000</v>
  </separator>
  <separator name="performance" >
   <i type="int" name="NPAR">     4</i>
   <i type="int" name="NSIM">     4</i>
   <i type="int" name="NBLK">    -1</i>
   <i type="logical" name="LPLANE"> T  </i>
   <i type="logical" name="LSCALAPACK"> F  </i>
   <i type="logical" name="LSCAAWARE"> F  </i>
   <i type="logical" name="LSCALU"> F  </i>
   <i type="logical" name="LASYNC"> F  </i>
   <i type="logical" name="LORBITALREAL"> F  </i>
  </separator>
  <separator name="miscellaneous" >
   <i type="int" name="IDIOT">     3</i>
   <i type="logical" name="LMUSIC"> F  </i>
   <v name="POMASS">     12.01100000</v>
   <v name="DARWINR">      0.00000000</v>
   <v name="DARWINV">      1.00000000</v>
   <i type="logical" name="LCORR"> T  </i>
  </separator>
  <i type="logical" name="GGA_COMPAT"> T  </i>
  <i type="logical" name="LBERRY"> F  </i>
  <i type="int" name="ICORELEVEL">     0</i>
  <i type="logical" name="LDAU"> F  </i>
  <i type="int" name="I_CONSTRAINED_M">     0</i>
  <separator name="electronic exchange-correlation" >
   <i type="string" name="GGA">--</i>
   <i type="int" name="VOSKOWN">     0</i>
   <i type="logical" name="LHFCALC"> F  </i>
   <i type="string" name="PRECFOCK"></i>
   <i type="logical" name="LSYMGRAD"> F  </i>
   <i type="logical" name="LHFONE"> F  </i>
   <i type="logical" name="LRHFCALC"> F  </i>
   <i type="logical" name="LTHOMAS"> F  </i>
   <i type="logical" name="LMODELHF"> F  </i>
   <i name="ENCUT4O">     -1.00000000</i>
   <i type="int" name="EXXOEP">     0</i>
   <i type="int" name="FOURORBIT">     0</i>
   <i name="AEXX">      0.00000000</i>
   <i name="HFALPHA">      0.00000000</i>
   <i name="MCALPHA">      0.00000000</i>
   <i name="ALDAX">      1.00000000</i>
   <i name="AGGAX">      1.00000000</i>
   <i name="ALDAC">      1.00000000</i>
   <i name="AGGAC">      1.00000000</i>
   <i type="int" name="NKREDX">     1</i>
   <i type="int" name="NKREDY">     1</i>
   <i type="int" name="NKREDZ">     1</i>
   <i type="logical" name="SHIFTRED"> F  </i>
   <i type="logical" name="ODDONLY"> F  </i>
   <i type="logical" name="EVENONLY"> F  </i>
   <i type="int" name="LMAXFOCK">     0</i>
   <i type="int" name="NMAXFOCKAE">     0</i>
   <i type="logical" name="LFOCKAEDFT"> F  </i>
   <i name="HFSCREEN">      0.00000000</i>
   <i name="HFSCREENC">      0.00000000</i>
   <i type="int" name="NBANDSGWLOW">     0</i>
  </separator>
  <separator name="vdW DFT" >
   <i type="logical" name="LUSE_VDW"> F  </i>
   <i name="Zab_VDW">     -0.84910000</i>
   <i name="PARAM1">      0.12340000</i>
   <i name="PARAM2">      1.00000000</i>
   <i name="PARAM3">      0.00000000</i>
  </separator>
  <separator name="model GW" >
   <i type="int" name="MODEL_GW">     0</i>
   <i name="MODEL_EPS0">     31.62568521</i>
   <i name="MODEL_ALPHA">      1.00000000</i>
  </separator>
  <separator name="linear response parameters" >
   <i type="logical" name="LEPSILON"> F  </i>
   <i type="logical" name="LRPA"> F  </i>
   <i type="logical" name="LNABLA"> F  </i>
   <i type="logical" name="LVEL"> F  </i>
   <i type="int" name="KINTER">     0</i>
   <i name="CSHIFT">      0.10000000</i>
   <i name="OMEGAMAX">     -1.00000000</i>
   <i name="DEG_THRESHOLD">      0.00200000</i>
  </separator>
  <separator name="orbital magnetization" >
   <i type="logical" name="NUCIND"> F  </i>
   <v name="MAGPOS">      0.00000000      0.00000000      0.00000000</v>
   <i type="logical" name="LNICSALL"> T  </i>
   <i type="logical" name="ORBITALMAG"> F  </i>
   <i type="logical" name="LMAGBLOCH"> F  </i>
   <i type="logical" name="LCHIMAG"> F  </i>
   <i type="logical" name="LGAUGE"> T  </i>
   <i type="int" name="MAGATOM">     0</i>
   <v name="MAGDIPOL">      0.00000000      0.00000000      0.00000000</v>
   <v name="AVECCONST">      0.00000000      0.00000000      0.00000000</v>
  </separator>
  <separator name="response functions" >
   <i type="logical" name="LADDER"> F  </i>
   <i type="logical" name="LFXC"> F  </i>
   <i type="logical" name="LHARTREE"> T  </i>
   <i type="int" name="IBSE">     0</i>
   <i type="logical" name="LTCTE"> F  </i>
   <i type="logical" name="LTETE"> F  </i>
   <i type="logical" name="LTRIPLET"> F  </i>
   <i type="logical" name="LFXCEPS"> F  </i>
   <i type="logical" name="LFXHEG"> F  </i>
   <i type="logical" name="L2ORDER"> F  </i>
   <i type="logical" name="LUSEW"> F  </i>
   <i name="ENCUTGW">     -2.00000000</i>
   <i name="ENCUTGWSOFT">     -2.00000000</i>
   <i name="ENCUTLF">     -1.00000000</i>
   <i type="int" name="LMAXMP2">    -1</i>
   <i name="SCISSOR">      0.00000000</i>
   <i type="int" name="NOMEGA">     0</i>
   <i type="int" name="NOMEGAR">     0</i>
   <i type="int" name="NBANDSGW">    -1</i>
   <i type="int" name="NBANDSO">    -1</i>
   <i type="int" name="NBANDSV">    -1</i>
   <i type="int" name="NELM">   100</i>
   <i type="int" name="DIM">     3</i>
   <i type="int" name="ANTIRES">     0</i>
   <i name="OMEGAMAX">    -30.00000000</i>
   <i name="OMEGAMIN">    -30.00000000</i>
   <i name="OMEGATL">   -200.00000000</i>
   <i type="int" name="OMEGAGRID">     0</i>
   <i name="CSHIFT">     -0.10000000</i>
   <i type="logical" name="SELFENERGY"> F  </i>
   <i type="logical" name="LSPECTRAL"> F  </i>
   <i type="logical" name="ODDONLYGW"> F  </i>
   <i type="logical" name="EVENONLYGW"> F  </i>
   <i type="int" name="NKREDLFX">     1</i>
   <i type="int" name="NKREDLFY">     1</i>
   <i type="int" name="NKREDLFZ">     1</i>
   <i type="int" name="MAXMEM">  1800</i>
   <i type="int" name="TELESCOPE">     0</i>
   <i type="int" name="TAUPAR">     1</i>
  </separator>
  <separator name="External order field" >
   <i name="OFIELD_KAPPA">      0.00000000</i>
   <v name="OFIELD_K">      0.00000000      0.00000000      0.00000000</v>
   <i name="OFIELD_Q6_NEAR">      0.00000000</i>
   <i name="OFIELD_Q6_FAR">      0.00000000</i>
   <i name="OFIELD_A">      0.00000000</i>
  </separator>
 </parameters>
 <atominfo>
  <atoms>       4 </atoms>
  <types>       1 </types>
  <array name="atoms" >
   <dimension dim="1">ion</dimension>
   <field type="string">element</field>
   <field type="int">atomtype</field>
   <set>
    <rc><c>C </c><c>   1</c></rc>
    <rc><c>C </c><c>   1</c></rc>
    <rc><c>C </c><c>   1</c></rc>
    <rc><c>C </c><c>   1</c></rc>
   </set>
  </array>
  <array name="atomtypes" >
   <dimension dim="1">type</dimension>
   <field type="int">atomspertype</field>
   <field type="string">element</field>
   <field>mass</field>
   <field>valence</field>
   <field type="string">pseudopotential</field>
   <set>
    <rc><c>   4</c><c>C </c><c>     12.01100000</c><c>      4.00000000</c><c> PAW_PBE C 08Apr2002                    </c></rc>
   </set>
  </array>
 </atominfo>
 <structure name="initialpos" >
  <crystal>
   <varray name="basis" >
    <v>       4.40296116       0.00000000       0.00000000 </v>
    <v>       0.00000000       2.45530033       0.00000000 </v>
    <v>       0.00000000       0.00000000      19.50290065 </v>
   </varray>
   <i name="volume">    210.83790140 </i>
   <varray name="rec_basis" >
    <v>       0.22711988       0.00000000       0.00000000 </v>
    <v>       0.00000000       0.40728215       0.00000000 </v>
    <v>       0.00000000       0.00000000       0.05127442 </v>
   </varray>
  </crystal>
  <varray name="positions" >
   <v>       0.99938979       0.00000000       0.00000000 </v>
   <v>       0.16727688       0.50000000       0.00000000 </v>
   <v>       0.49938979       0.50000000       0.00000000 </v>
   <v>       0.66727688       0.00000000       0.00000000 </v>
  </varray>
 </structure>
 <calculation>
  <scstep>
   <time name="dav">  293.24  294.58</time>
   <time name="total">  295.95  297.42</time>
   <energy>
    <i name="alphaZ">      6.18334092 </i>
    <i name="ewald">   2420.54306042 </i>
    <i name="hartreedc">  -2850.90200367 </i>
    <i name="XCdc">     54.75700746 </i>
    <i name="pawpsdc">    151.32577238 </i>
    <i name="pawaedc">   -155.92769107 </i>
    <i name="eentropy">     -0.00177549 </i>
    <i name="bandstr">    -27.89223814 </i>
    <i name="atom">    588.62352690 </i>
    <i name="e_fr_energy">    186.70899972 </i>
    <i name="e_wo_entrp">    186.71077521 </i>
    <i name="e_0_energy">    186.70988747 </i>
   </energy>
  </scstep>
  <scstep>
   <time name="dav">  439.46  440.05</time>
   <time name="total">  439.46  440.06</time>
   <energy>
    <i name="e_fr_energy">     -9.18921591 </i>
    <i name="e_wo_entrp">     -9.18863985 </i>
    <i name="e_0_energy">     -9.18892788 </i>
   </energy>
  </scstep>
  <scstep>
   <time name="dav">  344.19  344.28</time>
   <time name="total">  375.28  375.39</time>
   <energy>
    <i name="e_fr_energy">    -38.02729577 </i>
    <i name="e_wo_entrp">    -38.02729576 </i>
    <i name="e_0_energy">    -38.02729577 </i>
   </energy>
  </scstep>
  <scstep>
   <time name="diag">   80.36   80.39</time>
   <time name="diis">  339.68  339.82</time>
   <time name="orth">    3.08    3.08</time>
   <time name="total">  456.48  456.75</time>
   <energy>
    <i name="e_fr_energy">    -37.52707179 </i>
    <i name="e_wo_entrp">    -37.52707179 </i>
    <i name="e_0_energy">    -37.52707179 </i>
   </energy>
  </scstep>
  <scstep>
   <time name="diag">   80.49   80.50</time>
   <time name="diis">  337.11  337.41</time>
   <time name="orth">    3.08    3.08</time>
   <time name="total">  454.25  454.60</time>
   <energy>
    <i name="e_fr_energy">    -36.83589399 </i>
    <i name="e_wo_entrp">    -36.83589399 </i>
    <i name="e_0_energy">    -36.83589399 </i>
   </energy>
  </scstep>
  <scstep>
   <time name="diag">   80.36   80.39</time>
   <time name="diis">  375.92  375.99</time>
   <time name="orth">    3.10    3.11</time>
   <time name="total">  492.79  492.93</time>
   <energy>
    <i name="e_fr_energy">    -36.83771495 </i>
    <i name="e_wo_entrp">    -36.83771495 </i>
    <i name="e_0_energy">    -36.83771495 </i>
   </energy>
  </scstep>
  <scstep>
   <time name="diag">   80.43   80.46</time>
   <time name="diis">  337.18  337.44</time>
   <time name="orth">    3.10    3.10</time>
   <time name="total">  454.26  454.60</time>
   <energy>
    <i name="e_fr_energy">    -36.82894839 </i>
    <i name="e_wo_entrp">    -36.82894839 </i>
    <i name="e_0_energy">    -36.82894839 </i>
   </energy>
  </scstep>
  <scstep>
   <time name="diag">   80.40   80.43</time>
   <time name="diis">  337.80  338.58</time>
   <time name="orth">    3.08    3.10</time>
   <time name="total">  454.55  455.68</time>
   <energy>
    <i name="e_fr_energy">    -36.82453772 </i>
    <i name="e_wo_entrp">    -36.82453772 </i>
    <i name="e_0_energy">    -36.82453772 </i>
   </energy>
  </scstep>
  <scstep>
   <time name="diag">   79.99   80.40</time>
   <time name="diis">  324.38  326.19</time>
   <time name="orth">    3.08    3.10</time>
   <time name="total">  440.73  443.31</time>
   <energy>
    <i name="e_fr_energy">    -36.82426930 </i>
    <i name="e_wo_entrp">    -36.82426930 </i>
    <i name="e_0_energy">    -36.82426930 </i>
   </energy>
  </scstep>
  <scstep>
   <time name="diag">   80.03   80.42</time>
   <time name="diis">  326.44  326.78</time>
   <time name="orth">    3.08    3.08</time>
   <time name="total">  443.08  443.81</time>
   <energy>
    <i name="e_fr_energy">    -36.82421084 </i>
    <i name="e_wo_entrp">    -36.82421084 </i>
    <i name="e_0_energy">    -36.82421084 </i>
   </energy>
  </scstep>
  <scstep>
   <time name="diag">   80.39   80.43</time>
   <time name="diis">  328.03  328.37</time>
   <time name="orth">    3.07    3.08</time>
   <time name="total">  445.02  445.44</time>
   <energy>
    <i name="e_fr_energy">    -36.82640765 </i>
    <i name="e_wo_entrp">    -36.82640765 </i>
    <i name="e_0_energy">    -36.82640765 </i>
   </energy>
  </scstep>
  <scstep>
   <time name="diag">   80.37   80.42</time>
   <time name="diis">  328.99  329.08</time>
   <time name="orth">    3.10    3.10</time>
   <time name="total">  446.01  446.18</time>
   <energy>
    <i name="e_fr_energy">    -36.82693027 </i>
    <i name="e_wo_entrp">    -36.82693027 </i>
    <i name="e_0_energy">    -36.82693027 </i>
   </energy>
  </scstep>
  <scstep>
   <time name="diag">   80.39   80.41</time>
   <time name="diis">  338.21  338.29</time>
   <time name="orth">    3.10    3.10</time>
   <time name="total">  455.21  455.44</time>
   <energy>
    <i name="e_fr_energy">    -36.82719691 </i>
    <i name="e_wo_entrp">    -36.82719691 </i>
    <i name="e_0_energy">    -36.82719691 </i>
   </energy>
  </scstep>
  <scstep>
   <time name="diag">   80.25   80.26</time>
   <time name="diis">  334.16  334.27</time>
   <time name="orth">    3.10    3.11</time>
   <time name="total">  450.93  451.11</time>
   <energy>
    <i name="e_fr_energy">    -36.82728002 </i>
    <i name="e_wo_entrp">    -36.82728002 </i>
    <i name="e_0_energy">    -36.82728002 </i>
   </energy>
  </scstep>
  <scstep>
   <time name="diag">   80.28   80.34</time>
   <time name="diis">  326.16  326.28</time>
   <time name="orth">    3.15    3.15</time>
   <time name="total">  443.09  443.31</time>
   <energy>
    <i name="e_fr_energy">    -36.82729385 </i>
    <i name="e_wo_entrp">    -36.82729385 </i>
    <i name="e_0_energy">    -36.82729385 </i>
   </energy>
  </scstep>
  <scstep>
   <time name="diag">   80.23   80.30</time>
   <time name="diis">  326.07  326.15</time>
   <time name="orth">    3.08    3.08</time>
   <time name="total">  442.83  442.99</time>
   <energy>
    <i name="e_fr_energy">    -36.82730776 </i>
    <i name="e_wo_entrp">    -36.82730776 </i>
    <i name="e_0_energy">    -36.82730776 </i>
   </energy>
  </scstep>
  <scstep>
   <time name="diag">   80.32   80.33</time>
   <time name="diis">  325.99  326.09</time>
   <time name="orth">    3.10    3.10</time>
   <time name="total">  442.82  443.10</time>
   <energy>
    <i name="e_fr_energy">    -36.82731393 </i>
    <i name="e_wo_entrp">    -36.82731393 </i>
    <i name="e_0_energy">    -36.82731393 </i>
   </energy>
  </scstep>
  <scstep>
   <time name="diag">   79.79   80.30</time>
   <time name="diis">  330.07  331.96</time>
   <time name="orth">    3.08    3.10</time>
   <time name="total">  446.07  448.90</time>
   <energy>
    <i name="e_fr_energy">    -36.82731505 </i>
    <i name="e_wo_entrp">    -36.82731505 </i>
    <i name="e_0_energy">    -36.82731505 </i>
   </energy>
  </scstep>
  <scstep>
   <time name="diag">   79.40   80.33</time>
   <time name="diis">  290.38  291.68</time>
   <time name="orth">    3.08    3.08</time>
   <time name="total">  406.21  408.83</time>
   <energy>
    <i name="e_fr_energy">    -36.82731575 </i>
    <i name="e_wo_entrp">    -36.82731575 </i>
    <i name="e_0_energy">    -36.82731575 </i>
   </energy>
  </scstep>
  <scstep>
   <time name="diag">   79.75   80.38</time>
   <time name="diis">  255.73  257.62</time>
   <time name="orth">    3.08    3.08</time>
   <time name="total">  371.82  375.33</time>
   <energy>
    <i name="e_fr_energy">    -36.82731578 </i>
    <i name="e_wo_entrp">    -36.82731578 </i>
    <i name="e_0_energy">    -36.82731578 </i>
   </energy>
  </scstep>
  <scstep>
   <time name="diag">   80.30   80.38</time>
   <time name="diis">  245.74  246.11</time>
   <time name="orth">    3.09    3.10</time>
   <time name="total">  362.55  363.13</time>
   <energy>
    <i name="e_fr_energy">    -36.82731579 </i>
    <i name="e_wo_entrp">    -36.82731579 </i>
    <i name="e_0_energy">    -36.82731579 </i>
   </energy>
  </scstep>
  <scstep>
   <time name="diag">   80.24   80.36</time>
   <time name="diis">  225.39  226.06</time>
   <time name="orth">    3.08    3.10</time>
   <time name="total">  311.23  312.07</time>
   <energy>
    <i name="alphaZ">      6.18334092 </i>
    <i name="ewald">   2420.54306042 </i>
    <i name="hartreedc">  -2914.89844474 </i>
    <i name="XCdc">     57.06005469 </i>
    <i name="pawpsdc">    267.09073399 </i>
    <i name="pawaedc">   -272.19447688 </i>
    <i name="eentropy">     -0.00000000 </i>
    <i name="bandstr">   -189.23511110 </i>
    <i name="atom">    588.62352690 </i>
    <i name="e_fr_energy">    -36.82731579 </i>
    <i name="e_wo_entrp">    -36.82731579 </i>
    <i name="e_0_energy">    -36.82731579 </i>
   </energy>
  </scstep>
  <structure>
   <crystal>
    <varray name="basis" >
     <v>       4.40296116       0.00000000       0.00000000 </v>
     <v>       0.00000000       2.45530033       0.00000000 </v>
     <v>       0.00000000       0.00000000      19.50290065 </v>
    </varray>
    <i name="volume">    210.83790140 </i>
    <varray name="rec_basis" >
     <v>       0.22711988       0.00000000       0.00000000 </v>
     <v>       0.00000000       0.40728215       0.00000000 </v>
     <v>       0.00000000       0.00000000       0.05127442 </v>
    </varray>
   </crystal>
   <varray name="positions" >
    <v>       0.99938979       0.00000000       0.00000000 </v>
    <v>       0.16727688       0.50000000       0.00000000 </v>
    <v>       0.49938979       0.50000000       0.00000000 </v>
    <v>       0.66727688       0.00000000       0.00000000 </v>
   </varray>
  </structure>
  <varray name="forces" >
   <v>      -0.00134024      -0.00000000       0.00000000 </v>
   <v>       0.00134024       0.00000000      -0.00000000 </v>
   <v>      -0.00134024       0.00000000       0.00000000 </v>
   <v>       0.00134024      -0.00000000      -0.00000000 </v>
  </varray>
  <varray name="stress" >
   <v>     -49.59985779       0.00000000       0.00000000 </v>
   <v>       0.00000000       0.01392876       0.00000000 </v>
   <v>       0.00000000       0.00000000      -0.01034974 </v>
  </varray>
  <energy>
   <i name="e_fr_energy">    -36.82731579 </i>
   <i name="e_wo_entrp">    -36.82731579 </i>
   <i name="e_0_energy">     -0.00000000 </i>
  </energy>
  <time name="totalsc"> 9431.97 9452.66</time>
 </calculation>
 <calculation>
  <scstep>
   <time name="dav">  309.67  311.11</time>
   <time name="total">  343.12  344.71</time>
   <energy>
    <i name="alphaZ">      6.18334092 </i>
    <i name="ewald">   2420.54138693 </i>
    <i name="hartreedc">  -2914.89769563 </i>
    <i name="XCdc">     57.06000636 </i>
    <i name="pawpsdc">    267.09073294 </i>
    <i name="pawaedc">   -272.19447564 </i>
    <i name="eentropy">     -0.00000000 </i>
    <i name="bandstr">   -189.23413812 </i>
    <i name="atom">    588.62352690 </i>
    <i name="e_fr_energy">    -36.82731533 </i>
    <i name="e_wo_entrp">    -36.82731533 </i>
    <i name="e_0_energy">    -36.82731533 </i>
   </energy>
  </scstep>
  <scstep>
   <time name="diag">   80.30   80.52</time>
   <time name="diis">  328.19  328.51</time>
   <time name="orth">    3.10    3.10</time>
   <time name="total">  445.05  445.71</time>
   <energy>
    <i name="e_fr_energy">    -36.82731536 </i>
    <i name="e_wo_entrp">    -36.82731536 </i>
    <i name="e_0_energy">    -36.82731536 </i>
   </energy>
  </scstep>
  <scstep>
   <time name="diag">   80.05   80.53</time>
   <time name="diis">  328.88  331.90</time>
   <time name="orth">    3.11    3.12</time>
   <time name="total">  445.39  449.11</time>
   <energy>
    <i name="e_fr_energy">    -36.82731533 </i>
    <i name="e_wo_entrp">    -36.82731533 </i>
    <i name="e_0_energy">    -36.82731533 </i>
   </energy>
  </scstep>
  <scstep>
   <time name="diag">   80.15   80.56</time>
   <time name="diis">  338.01  340.68</time>
   <time name="orth">    3.08    3.08</time>
   <time name="total">  454.49  457.92</time>
   <energy>
    <i name="e_fr_energy">    -36.82731533 </i>
    <i name="e_wo_entrp">    -36.82731533 </i>
    <i name="e_0_energy">    -36.82731533 </i>
   </energy>
  </scstep>
  <scstep>
   <time name="diag">   79.70   80.50</time>
   <time name="diis">  264.46  267.61</time>
   <time name="orth">    3.08    3.08</time>
   <time name="total">  380.49  384.85</time>
   <energy>
    <i name="e_fr_energy">    -36.82731533 </i>
    <i name="e_wo_entrp">    -36.82731533 </i>
    <i name="e_0_energy">    -36.82731533 </i>
   </energy>
  </scstep>
  <scstep>
   <time name="diag">   79.64   80.45</time>
   <time name="diis">  218.14  219.73</time>
   <time name="orth">    3.10    3.11</time>
   <time name="total">  303.42  305.85</time>
   <energy>
    <i name="alphaZ">      6.18334092 </i>
    <i name="ewald">   2420.54138693 </i>
    <i name="hartreedc">  -2914.89710136 </i>
    <i name="XCdc">     57.05998042 </i>
    <i name="pawpsdc">    267.08794801 </i>
    <i name="pawaedc">   -272.19167893 </i>
    <i name="eentropy">     -0.00000000 </i>
    <i name="bandstr">   -189.23471823 </i>
    <i name="atom">    588.62352690 </i>
    <i name="e_fr_energy">    -36.82731533 </i>
    <i name="e_wo_entrp">    -36.82731533 </i>
    <i name="e_0_energy">    -36.82731533 </i>
   </energy>
  </scstep>
  <structure>
   <crystal>
    <varray name="basis" >
     <v>       4.40296116       0.00000000       0.00000000 </v>
     <v>       0.00000000       2.45530033       0.00000000 </v>
     <v>       0.00000000       0.00000000      19.50290065 </v>
    </varray>
    <i name="volume">    210.83790140 </i>
    <varray name="rec_basis" >
     <v>       0.22711988       0.00000000       0.00000000 </v>
     <v>       0.00000000       0.40728215       0.00000000 </v>
     <v>       0.00000000       0.00000000       0.05127442 </v>
    </varray>
   </crystal>
   <varray name="positions" >
    <v>       0.99937510      -0.00000000       0.00000000 </v>
    <v>       0.16729157       0.50000000      -0.00000000 </v>
    <v>       0.49937510       0.50000000       0.00000000 </v>
    <v>       0.66729157      -0.00000000      -0.00000000 </v>
   </varray>
  </structure>
  <varray name="forces" >
   <v>       0.00479461      -0.00000000       0.00000000 </v>
   <v>      -0.00479461       0.00000000       0.00000000 </v>
   <v>       0.00479461       0.00000000       0.00000000 </v>
   <v>      -0.00479461      -0.00000000       0.00000000 </v>
  </varray>
  <varray name="stress" >
   <v>     -49.59260765       0.00000000       0.00000000 </v>
   <v>       0.00000000      -0.00614439       0.00000000 </v>
   <v>       0.00000000       0.00000000      -0.01025686 </v>
  </varray>
  <energy>
   <i name="e_fr_energy">    -36.82731533 </i>
   <i name="e_wo_entrp">    -36.82731533 </i>
   <i name="e_0_energy">     -0.00000000 </i>
  </energy>
  <time name="totalsc"> 2474.99 2491.58</time>
 </calculation>
 <calculation>
  <scstep>
   <time name="dav">  321.74  324.09</time>
   <time name="total">  354.85  357.55</time>
   <energy>
    <i name="alphaZ">      6.18334092 </i>
    <i name="ewald">   2420.54269433 </i>
    <i name="hartreedc">  -2914.89764998 </i>
    <i name="XCdc">     57.06001713 </i>
    <i name="pawpsdc">    267.08793844 </i>
    <i name="pawaedc">   -272.19166919 </i>
    <i name="eentropy">     -0.00000000 </i>
    <i name="bandstr">   -189.23551437 </i>
    <i name="atom">    588.62352690 </i>
    <i name="e_fr_energy">    -36.82731581 </i>
    <i name="e_wo_entrp">    -36.82731581 </i>
    <i name="e_0_energy">    -36.82731581 </i>
   </energy>
  </scstep>
  <scstep>
   <time name="diag">   79.64   80.42</time>
   <time name="diis">  327.02  329.67</time>
   <time name="orth">    3.09    3.10</time>
   <time name="total">  443.03  446.78</time>
   <energy>
    <i name="e_fr_energy">    -36.82731583 </i>
    <i name="e_wo_entrp">    -36.82731583 </i>
    <i name="e_0_energy">    -36.82731583 </i>
   </energy>
  </scstep>
  <scstep>
   <time name="diag">   79.95   80.43</time>
   <time name="diis">  331.80  331.98</time>
   <time name="orth">    3.09    3.10</time>
   <time name="total">  448.25  449.20</time>
   <energy>
    <i name="e_fr_energy">    -36.82731583 </i>
    <i name="e_wo_entrp">    -36.82731583 </i>
    <i name="e_0_energy">    -36.82731583 </i>
   </energy>
  </scstep>
  <scstep>
   <time name="diag">   80.12   80.46</time>
   <time name="diis">  336.86  339.10</time>
   <time name="orth">    3.08    3.08</time>
   <time name="total">  453.40  456.22</time>
   <energy>
    <i name="e_fr_energy">    -36.82731583 </i>
    <i name="e_wo_entrp">    -36.82731583 </i>
    <i name="e_0_energy">    -36.82731583 </i>
   </energy>
  </scstep>
  <scstep>
   <time name="diag">   79.83   80.41</time>
   <time name="diis">  246.15  248.07</time>
   <time name="orth">    3.08    3.08</time>
   <time name="total">  362.25  365.10</time>
   <energy>
    <i name="e_fr_energy">    -36.82731583 </i>
    <i name="e_wo_entrp">    -36.82731583 </i>
    <i name="e_0_energy">    -36.82731583 </i>
   </energy>
  </scstep>
  <scstep>
   <time name="diag">   79.89   80.44</time>
   <time name="diis">  219.07  219.46</time>
   <time name="orth">    3.10    3.11</time>
   <time name="total">  304.55  305.54</time>
   <energy>
    <i name="alphaZ">      6.18334092 </i>
    <i name="ewald">   2420.54269433 </i>
    <i name="hartreedc">  -2914.89810318 </i>
    <i name="XCdc">     57.06003814 </i>
    <i name="pawpsdc">    267.09013608 </i>
    <i name="pawaedc">   -272.19387648 </i>
    <i name="eentropy">     -0.00000000 </i>
    <i name="bandstr">   -189.23507254 </i>
    <i name="atom">    588.62352690 </i>
    <i name="e_fr_energy">    -36.82731583 </i>
    <i name="e_wo_entrp">    -36.82731583 </i>
    <i name="e_0_energy">    -36.82731583 </i>
   </energy>
  </scstep>
  <structure>
   <crystal>
    <varray name="basis" >
     <v>       4.40296116       0.00000000       0.00000000 </v>
     <v>       0.00000000       2.45530033       0.00000000 </v>
     <v>       0.00000000       0.00000000      19.50290065 </v>
    </varray>
    <i name="volume">    210.83790140 </i>
    <varray name="rec_basis" >
     <v>       0.22711988       0.00000000       0.00000000 </v>
     <v>       0.00000000       0.40728215       0.00000000 </v>
     <v>       0.00000000       0.00000000       0.05127442 </v>
    </varray>
   </crystal>
   <varray name="positions" >
    <v>       0.99938658      -0.00000000       0.00000000 </v>
    <v>       0.16728009       0.50000000      -0.00000000 </v>
    <v>       0.49938658       0.50000000       0.00000000 </v>
    <v>       0.66728009      -0.00000000      -0.00000000 </v>
   </varray>
  </structure>
  <varray name="forces" >
   <v>       0.00001046       0.00000000       0.00000000 </v>
   <v>      -0.00001046      -0.00000000      -0.00000000 </v>
   <v>       0.00001046      -0.00000000       0.00000000 </v>
   <v>      -0.00001046       0.00000000      -0.00000000 </v>
  </varray>
  <varray name="stress" >
   <v>     -49.59811181       0.00000000       0.00000000 </v>
   <v>       0.00000000       0.00941103       0.00000000 </v>
   <v>       0.00000000       0.00000000      -0.01007110 </v>
  </varray>
  <energy>
   <i name="e_fr_energy">    -36.82731583 </i>
   <i name="e_wo_entrp">    -36.82731583 </i>
   <i name="e_0_energy">     -0.00000000 </i>
  </energy>
  <time name="totalsc"> 2469.31 2483.89</time>
 </calculation>
 <calculation>
  <scstep>
   <time name="dav">  270.07  270.65</time>
   <time name="total">  303.65  304.26</time>
   <energy>
    <i name="alphaZ">      6.18334092 </i>
    <i name="ewald">   2420.54269720 </i>
    <i name="hartreedc">  -2914.89811994 </i>
    <i name="XCdc">     57.06003868 </i>
    <i name="pawpsdc">    267.09014390 </i>
    <i name="pawaedc">   -272.19388446 </i>
    <i name="eentropy">     -0.00000000 </i>
    <i name="bandstr">   -189.23505902 </i>
    <i name="atom">    588.62352690 </i>
    <i name="e_fr_energy">    -36.82731583 </i>
    <i name="e_wo_entrp">    -36.82731583 </i>
    <i name="e_0_energy">    -36.82731583 </i>
   </energy>
  </scstep>
  <scstep>
   <time name="diag">   80.18   80.51</time>
   <time name="diis">  194.72  196.09</time>
   <time name="orth">    3.08    3.10</time>
   <time name="total">  311.14  313.17</time>
   <energy>
    <i name="e_fr_energy">    -36.82731583 </i>
    <i name="e_wo_entrp">    -36.82731583 </i>
    <i name="e_0_energy">    -36.82731583 </i>
   </energy>
  </scstep>
  <scstep>
   <time name="diag">   80.11   80.42</time>
   <time name="diis">  193.26  193.91</time>
   <time name="orth">    3.09    3.10</time>
   <time name="total">  309.64  310.99</time>
   <energy>
    <i name="e_fr_energy">    -36.82731583 </i>
    <i name="e_wo_entrp">    -36.82731583 </i>
    <i name="e_0_energy">    -36.82731583 </i>
   </energy>
  </scstep>
  <scstep>
   <time name="diag">   79.81   80.52</time>
   <time name="diis">  183.77  185.40</time>
   <time name="orth">    3.08    3.08</time>
   <time name="total">  299.91  302.53</time>
   <energy>
    <i name="e_fr_energy">    -36.82731583 </i>
    <i name="e_wo_entrp">    -36.82731583 </i>
    <i name="e_0_energy">    -36.82731583 </i>
   </energy>
  </scstep>
  <scstep>
   <time name="diag">   80.44   80.46</time>
   <time name="diis">  180.48  180.55</time>
   <time name="orth">    3.09    3.09</time>
   <time name="total">  266.51  266.66</time>
   <energy>
    <i name="alphaZ">      6.18334092 </i>
    <i name="ewald">   2420.54269720 </i>
    <i name="hartreedc">  -2914.89814295 </i>
    <i name="XCdc">     57.06003879 </i>
    <i name="pawpsdc">    267.09014769 </i>
    <i name="pawaedc">   -272.19388817 </i>
    <i name="eentropy">     -0.00000000 </i>
    <i name="bandstr">   -189.23503620 </i>
    <i name="atom">    588.62352690 </i>
    <i name="e_fr_energy">    -36.82731583 </i>
    <i name="e_wo_entrp">    -36.82731583 </i>
    <i name="e_0_energy">    -36.82731583 </i>
   </energy>
  </scstep>
  <structure>
   <crystal>
    <varray name="basis" >
     <v>       4.40296116       0.00000000       0.00000000 </v>
     <v>       0.00000000       2.45530033       0.00000000 </v>
     <v>       0.00000000       0.00000000      19.50290065 </v>
    </varray>
    <i name="volume">    210.83790140 </i>
    <varray name="rec_basis" >
     <v>       0.22711988       0.00000000       0.00000000 </v>
     <v>       0.00000000       0.40728215       0.00000000 </v>
     <v>       0.00000000       0.00000000       0.05127442 </v>
    </varray>
   </crystal>
   <varray name="positions" >
    <v>       0.99938660       0.00000000       0.00000000 </v>
    <v>       0.16728006       0.50000000      -0.00000000 </v>
    <v>       0.49938660       0.50000000       0.00000000 </v>
    <v>       0.66728006       0.00000000      -0.00000000 </v>
   </varray>
  </structure>
  <varray name="forces" >
   <v>      -0.00001363      -0.00000000      -0.00000000 </v>
   <v>       0.00001363      -0.00000000       0.00000000 </v>
   <v>      -0.00001363      -0.00000000      -0.00000000 </v>
   <v>       0.00001363       0.00000000       0.00000000 </v>
  </varray>
  <varray name="stress" >
   <v>     -49.59828925       0.00000000       0.00000000 </v>
   <v>       0.00000000       0.00960361       0.00000000 </v>
   <v>       0.00000000       0.00000000      -0.01013986 </v>
  </varray>
  <energy>
   <i name="e_fr_energy">    -36.82731583 </i>
   <i name="e_wo_entrp">    -36.82731583 </i>
   <i name="e_0_energy">     -0.00000000 </i>
  </energy>
  <time name="totalsc"> 1593.67 1601.02</time>
 </calculation>
 <calculation>
  <scstep>
   <time name="dav">  263.32  263.42</time>
   <time name="total">  296.70  296.95</time>
   <energy>
    <i name="alphaZ">      6.18334092 </i>
    <i name="ewald">   2420.54269558 </i>
    <i name="hartreedc">  -2914.89814419 </i>
    <i name="XCdc">     57.06003877 </i>
    <i name="pawpsdc">    267.09014775 </i>
    <i name="pawaedc">   -272.19388824 </i>
    <i name="eentropy">     -0.00000000 </i>
    <i name="bandstr">   -189.23503332 </i>
    <i name="atom">    588.62352690 </i>
    <i name="e_fr_energy">    -36.82731583 </i>
    <i name="e_wo_entrp">    -36.82731583 </i>
    <i name="e_0_energy">    -36.82731583 </i>
   </energy>
  </scstep>
  <scstep>
   <time name="diag">   80.03   80.46</time>
   <time name="diis">  157.63  158.38</time>
   <time name="orth">    3.08    3.10</time>
   <time name="total">  274.15  275.53</time>
   <energy>
    <i name="e_fr_energy">    -36.82731583 </i>
    <i name="e_wo_entrp">    -36.82731583 </i>
    <i name="e_0_energy">    -36.82731583 </i>
   </energy>
  </scstep>
  <scstep>
   <time name="diag">   80.08   80.50</time>
   <time name="diis">  154.01  154.69</time>
   <time name="orth">    3.08    3.10</time>
   <time name="total">  270.48  271.84</time>
   <energy>
    <i name="e_fr_energy">    -36.82731583 </i>
    <i name="e_wo_entrp">    -36.82731583 </i>
    <i name="e_0_energy">    -36.82731583 </i>
   </energy>
  </scstep>
  <scstep>
   <time name="diag">   80.38   80.41</time>
   <time name="diis">  152.95  153.01</time>
   <time name="orth">    3.10    3.10</time>
   <time name="total">  269.91  270.04</time>
   <energy>
    <i name="e_fr_energy">    -36.82731583 </i>
    <i name="e_wo_entrp">    -36.82731583 </i>
    <i name="e_0_energy">    -36.82731583 </i>
   </energy>
  </scstep>
  <scstep>
   <time name="diag">   80.43   80.45</time>
   <time name="diis">  151.73  151.78</time>
   <time name="orth">    3.10    3.10</time>
   <time name="total">  237.77  237.99</time>
   <energy>
    <i name="alphaZ">      6.18334092 </i>
    <i name="ewald">   2420.54269558 </i>
    <i name="hartreedc">  -2914.89814280 </i>
    <i name="XCdc">     57.06003868 </i>
    <i name="pawpsdc">    267.09014479 </i>
    <i name="pawaedc">   -272.19388525 </i>
    <i name="eentropy">     -0.00000000 </i>
    <i name="bandstr">   -189.23503465 </i>
    <i name="atom">    588.62352690 </i>
    <i name="e_fr_energy">    -36.82731583 </i>
    <i name="e_wo_entrp">    -36.82731583 </i>
    <i name="e_0_energy">    -36.82731583 </i>
   </energy>
  </scstep>
  <structure>
   <crystal>
    <varray name="basis" >
     <v>       4.40296116       0.00000000       0.00000000 </v>
     <v>       0.00000000       2.45530033       0.00000000 </v>
     <v>       0.00000000       0.00000000      19.50290065 </v>
    </varray>
    <i name="volume">    210.83790140 </i>
    <varray name="rec_basis" >
     <v>       0.22711988       0.00000000       0.00000000 </v>
     <v>       0.00000000       0.40728215       0.00000000 </v>
     <v>       0.00000000       0.00000000       0.05127442 </v>
    </varray>
   </crystal>
   <varray name="positions" >
    <v>       0.99938659       0.00000000       0.00000000 </v>
    <v>       0.16728008       0.50000000      -0.00000000 </v>
    <v>       0.49938659       0.50000000       0.00000000 </v>
    <v>       0.66728008       0.00000000      -0.00000000 </v>
   </varray>
  </structure>
  <varray name="forces" >
   <v>      -0.00000081       0.00000000       0.00000000 </v>
   <v>       0.00000081      -0.00000000      -0.00000000 </v>
   <v>      -0.00000081       0.00000000       0.00000000 </v>
   <v>       0.00000081      -0.00000000      -0.00000000 </v>
  </varray>
  <varray name="stress" >
   <v>     -49.59824000       0.00000000       0.00000000 </v>
   <v>       0.00000000       0.00954447       0.00000000 </v>
   <v>       0.00000000       0.00000000      -0.01015208 </v>
  </varray>
  <energy>
   <i name="e_fr_energy">    -36.82731583 </i>
   <i name="e_wo_entrp">    -36.82731583 </i>
   <i name="e_0_energy">     -0.00000000 </i>
  </energy>
  <time name="totalsc"> 1444.93 1449.00</time>
  <eigenvalues>
   <array>
    <dimension dim="1">band</dimension>
    <dimension dim="2">kpoint</dimension>
    <dimension dim="3">spin</dimension>
    <field>eigene</field>
    <field>occ</field>
    <set>
     <set comment="spin 1">
      <set comment="kpoint 1">
       <r>  -22.0437    1.0000 </r>
       <r>  -17.3048    1.0000 </r>
       <r>  -15.7993    1.0000 </r>
       <r>  -10.1968    1.0000 </r>
       <r>   -8.7332    1.0000 </r>
       <r>   -6.0488    1.0000 </r>
       <r>   -5.7172    1.0000 </r>
       <r>   -5.3819    1.0000 </r>
       <r>   -1.2061    0.0000 </r>
       <r>    0.5494    0.0000 </r>
       <r>    1.3467    0.0000 </r>
       <r>    1.7422    0.0000 </r>
      </set>
      <set comment="kpoint 2">
       <r>  -22.0340    1.0000 </r>
       <r>  -17.4154    1.0000 </r>
       <r>  -15.6738    1.0000 </r>
       <r>  -10.1854    1.0000 </r>
       <r>   -8.7240    1.0000 </r>
       <r>   -6.0934    1.0000 </r>
       <r>   -5.7367    1.0000 </r>
       <r>   -5.4390    1.0000 </r>
       <r>   -1.1333    0.0000 </r>
       <r>    0.5624    0.0000 </r>
       <r>    1.3600    0.0000 </r>
       <r>    1.7556    0.0000 </r>
      </set>
      <set comment="kpoint 3">
       <r>  -22.0050    1.0000 </r>
       <r>  -17.6766    1.0000 </r>
       <r>  -15.3680    1.0000 </r>
       <r>  -10.1511    1.0000 </r>
       <r>   -8.6961    1.0000 </r>
       <r>   -6.2250    1.0000 </r>
       <r>   -5.7944    1.0000 </r>
       <r>   -5.5991    1.0000 </r>
       <r>   -0.9264    0.0000 </r>
       <r>    0.6016    0.0000 </r>
       <r>    1.3997    0.0000 </r>
       <r>    1.7959    0.0000 </r>
      </set>
      <set comment="kpoint 4">
       <r>  -21.9568    1.0000 </r>
       <r>  -17.9971    1.0000 </r>
       <r>  -14.9733    1.0000 </r>
       <r>  -10.0940    1.0000 </r>
       <r>   -8.6499    1.0000 </r>
       <r>   -6.4376    1.0000 </r>
       <r>   -5.8873    1.0000 </r>
       <r>   -5.8362    1.0000 </r>
       <r>   -0.6119    0.0000 </r>
       <r>    0.6669    0.0000 </r>
       <r>    1.4659    0.0000 </r>
       <r>    1.8630    0.0000 </r>
      </set>
      <set comment="kpoint 5">
       <r>  -21.8893    1.0000 </r>
       <r>  -18.3343    1.0000 </r>
       <r>  -14.5326    1.0000 </r>
       <r>  -10.0142    1.0000 </r>
       <r>   -8.5856    1.0000 </r>
       <r>   -6.7221    1.0000 </r>
       <r>   -6.1228    1.0000 </r>
       <r>   -6.0111    1.0000 </r>
       <r>   -0.2180    0.0000 </r>
       <r>    0.7584    0.0000 </r>
       <r>    1.5586    0.0000 </r>
       <r>    1.9569    0.0000 </r>
      </set>
      <set comment="kpoint 6">
       <r>  -21.8026    1.0000 </r>
       <r>  -18.6711    1.0000 </r>
       <r>  -14.0638    1.0000 </r>
       <r>   -9.9118    1.0000 </r>
       <r>   -8.5036    1.0000 </r>
       <r>   -7.0682    1.0000 </r>
       <r>   -6.4372    1.0000 </r>
       <r>   -6.1607    1.0000 </r>
       <r>    0.2324    0.0000 </r>
       <r>    0.8760    0.0000 </r>
       <r>    1.6776    0.0000 </r>
       <r>    2.0777    0.0000 </r>
      </set>
      <set comment="kpoint 7">
       <r>  -21.6968    1.0000 </r>
       <r>  -18.9999    1.0000 </r>
       <r>  -13.5751    1.0000 </r>
       <r>   -9.7871    1.0000 </r>
       <r>   -8.4043    1.0000 </r>
       <r>   -7.4653    1.0000 </r>
       <r>   -6.7640    1.0000 </r>
       <r>   -6.3305    1.0000 </r>
       <r>    0.7224    0.0000 </r>
       <r>    1.0199    0.0000 </r>
       <r>    1.8230    0.0000 </r>
       <r>    2.2253    0.0000 </r>
      </set>
      <set comment="kpoint 8">
       <r>  -21.5719    1.0000 </r>
       <r>  -19.3167    1.0000 </r>
       <r>  -13.0715    1.0000 </r>
       <r>   -9.6402    1.0000 </r>
       <r>   -8.2884    1.0000 </r>
       <r>   -7.9034    1.0000 </r>
       <r>   -7.0929    1.0000 </r>
       <r>   -6.5150    1.0000 </r>
       <r>    1.1899    0.0000 </r>
       <r>    1.2397    0.0000 </r>
       <r>    1.9946    0.0000 </r>
       <r>    2.3998    0.0000 </r>
      </set>
      <set comment="kpoint 9">
       <r>  -21.4281    1.0000 </r>
       <r>  -19.6193    1.0000 </r>
       <r>  -12.5562    1.0000 </r>
       <r>   -9.4716    1.0000 </r>
       <r>   -8.3734    1.0000 </r>
       <r>   -8.1566    1.0000 </r>
       <r>   -7.4170    1.0000 </r>
       <r>   -6.7089    1.0000 </r>
       <r>    1.3861    0.0000 </r>
       <r>    1.7745    0.0000 </r>
       <r>    2.1922    0.0000 </r>
       <r>    2.6011    0.0000 </r>
      </set>
      <set comment="kpoint 10">
       <r>  -21.2654    1.0000 </r>
       <r>  -19.9063    1.0000 </r>
       <r>  -12.0322    1.0000 </r>
       <r>   -9.2815    1.0000 </r>
       <r>   -8.8677    1.0000 </r>
       <r>   -8.0101    1.0000 </r>
       <r>   -7.7315    1.0000 </r>
       <r>   -6.9077    1.0000 </r>
       <r>    1.6084    0.0000 </r>
       <r>    2.3178    0.0000 </r>
       <r>    2.4155    0.0000 </r>
       <r>    2.8293    0.0000 </r>
      </set>
      <set comment="kpoint 11">
       <r>  -21.0841    1.0000 </r>
       <r>  -20.1770    1.0000 </r>
       <r>  -11.5019    1.0000 </r>
       <r>   -9.3796    1.0000 </r>
       <r>   -9.0705    1.0000 </r>
       <r>   -8.0331    1.0000 </r>
       <r>   -7.8500    1.0000 </r>
       <r>   -7.1072    1.0000 </r>
       <r>    1.8567    0.0000 </r>
       <r>    2.6635    0.0000 </r>
       <r>    2.8558    0.0000 </r>
       <r>    3.0843    0.0000 </r>
      </set>
      <set comment="kpoint 12">
       <r>  -20.8844    1.0000 </r>
       <r>  -20.4305    1.0000 </r>
       <r>  -10.9683    1.0000 </r>
       <r>   -9.9033    1.0000 </r>
       <r>   -8.8393    1.0000 </r>
       <r>   -8.3194    1.0000 </r>
       <r>   -7.6777    1.0000 </r>
       <r>   -7.3040    1.0000 </r>
       <r>    2.1310    0.0000 </r>
       <r>    2.7569    0.0000 </r>
       <r>    2.9337    0.0000 </r>
       <r>    3.3083    0.0000 </r>
      </set>
      <set comment="kpoint 13">
       <r>  -20.6664    1.0000 </r>
       <r>  -20.6664    1.0000 </r>
       <r>  -10.4342    1.0000 </r>
       <r>  -10.4342    1.0000 </r>
       <r>   -8.5886    1.0000 </r>
       <r>   -8.5886    1.0000 </r>
       <r>   -7.4950    1.0000 </r>
       <r>   -7.4950    1.0000 </r>
       <r>    2.4311    0.0000 </r>
       <r>    2.4311    0.0000 </r>
       <r>    3.2129    0.0000 </r>
       <r>    3.2129    0.0000 </r>
      </set>
      <set comment="kpoint 14">
       <r>  -22.0298    1.0000 </r>
       <r>  -17.2928    1.0000 </r>
       <r>  -15.7875    1.0000 </r>
       <r>  -10.1804    1.0000 </r>
       <r>   -8.7969    1.0000 </r>
       <r>   -6.0740    1.0000 </r>
       <r>   -5.7767    1.0000 </r>
       <r>   -5.3652    1.0000 </r>
       <r>   -1.2082    0.0000 </r>
       <r>    0.5682    0.0000 </r>
       <r>    1.3657    0.0000 </r>
       <r>    1.7614    0.0000 </r>
      </set>
      <set comment="kpoint 15">
       <r>  -22.0201    1.0000 </r>
       <r>  -17.4033    1.0000 </r>
       <r>  -15.6621    1.0000 </r>
       <r>  -10.1690    1.0000 </r>
       <r>   -8.7876    1.0000 </r>
       <r>   -6.1191    1.0000 </r>
       <r>   -5.7952    1.0000 </r>
       <r>   -5.4224    1.0000 </r>
       <r>   -1.1355    0.0000 </r>
       <r>    0.5812    0.0000 </r>
       <r>    1.3789    0.0000 </r>
       <r>    1.7748    0.0000 </r>
      </set>
      <set comment="kpoint 16">
       <r>  -21.9912    1.0000 </r>
       <r>  -17.6642    1.0000 </r>
       <r>  -15.3566    1.0000 </r>
       <r>  -10.1347    1.0000 </r>
       <r>   -8.7598    1.0000 </r>
       <r>   -6.2511    1.0000 </r>
       <r>   -5.8508    1.0000 </r>
       <r>   -5.5828    1.0000 </r>
       <r>   -0.9286    0.0000 </r>
       <r>    0.6204    0.0000 </r>
       <r>    1.4186    0.0000 </r>
       <r>    1.8151    0.0000 </r>
      </set>
      <set comment="kpoint 17">
       <r>  -21.9429    1.0000 </r>
       <r>  -17.9845    1.0000 </r>
       <r>  -14.9624    1.0000 </r>
       <r>  -10.0776    1.0000 </r>
       <r>   -8.7135    1.0000 </r>
       <r>   -6.4628    1.0000 </r>
       <r>   -5.9421    1.0000 </r>
       <r>   -5.8202    1.0000 </r>
       <r>   -0.6143    0.0000 </r>
       <r>    0.6857    0.0000 </r>
       <r>    1.4849    0.0000 </r>
       <r>    1.8822    0.0000 </r>
      </set>
      <set comment="kpoint 18">
       <r>  -21.8755    1.0000 </r>
       <r>  -18.3215    1.0000 </r>
       <r>  -14.5222    1.0000 </r>
       <r>   -9.9978    1.0000 </r>
       <r>   -8.6491    1.0000 </r>
       <r>   -6.7450    1.0000 </r>
       <r>   -6.1070    1.0000 </r>
       <r>   -6.0653    1.0000 </r>
       <r>   -0.2209    0.0000 </r>
       <r>    0.7772    0.0000 </r>
       <r>    1.5775    0.0000 </r>
       <r>    1.9761    0.0000 </r>
      </set>
      <set comment="kpoint 19">
       <r>  -21.7888    1.0000 </r>
       <r>  -18.6582    1.0000 </r>
       <r>  -14.0540    1.0000 </r>
       <r>   -9.8955    1.0000 </r>
       <r>   -8.5669    1.0000 </r>
       <r>   -7.0879    1.0000 </r>
       <r>   -6.4215    1.0000 </r>
       <r>   -6.2151    1.0000 </r>
       <r>    0.2288    0.0000 </r>
       <r>    0.8948    0.0000 </r>
       <r>    1.6966    0.0000 </r>
       <r>    2.0969    0.0000 </r>
      </set>
      <set comment="kpoint 20">
       <r>  -21.6830    1.0000 </r>
       <r>  -18.9868    1.0000 </r>
       <r>  -13.5660    1.0000 </r>
       <r>   -9.7708    1.0000 </r>
       <r>   -8.4675    1.0000 </r>
       <r>   -7.4813    1.0000 </r>
       <r>   -6.7483    1.0000 </r>
       <r>   -6.3856    1.0000 </r>
       <r>    0.7178    0.0000 </r>
       <r>    1.0387    0.0000 </r>
       <r>    1.8419    0.0000 </r>
       <r>    2.2445    0.0000 </r>
      </set>
      <set comment="kpoint 21">
       <r>  -21.5581    1.0000 </r>
       <r>  -19.3035    1.0000 </r>
       <r>  -13.0632    1.0000 </r>
       <r>   -9.6240    1.0000 </r>
       <r>   -8.3514    1.0000 </r>
       <r>   -7.9157    1.0000 </r>
       <r>   -7.0773    1.0000 </r>
       <r>   -6.5710    1.0000 </r>
       <r>    1.2087    0.0000 </r>
       <r>    1.2338    0.0000 </r>
       <r>    2.0135    0.0000 </r>
       <r>    2.4190    0.0000 </r>
      </set>
      <set comment="kpoint 22">
       <r>  -21.4143    1.0000 </r>
       <r>  -19.6060    1.0000 </r>
       <r>  -12.5488    1.0000 </r>
       <r>   -9.4554    1.0000 </r>
       <r>   -8.3823    1.0000 </r>
       <r>   -8.2194    1.0000 </r>
       <r>   -7.4014    1.0000 </r>
       <r>   -6.7661    1.0000 </r>
       <r>    1.4049    0.0000 </r>
       <r>    1.7672    0.0000 </r>
       <r>    2.2112    0.0000 </r>
       <r>    2.6203    0.0000 </r>
      </set>
      <set comment="kpoint 23">
       <r>  -21.2517    1.0000 </r>
       <r>  -19.8930    1.0000 </r>
       <r>  -12.0259    1.0000 </r>
       <r>   -9.2654    1.0000 </r>
       <r>   -8.8734    1.0000 </r>
       <r>   -8.0725    1.0000 </r>
       <r>   -7.7158    1.0000 </r>
       <r>   -6.9659    1.0000 </r>
       <r>    1.6272    0.0000 </r>
       <r>    2.3091    0.0000 </r>
       <r>    2.4344    0.0000 </r>
       <r>    2.8485    0.0000 </r>
      </set>
      <set comment="kpoint 24">
       <r>  -21.0705    1.0000 </r>
       <r>  -20.1635    1.0000 </r>
       <r>  -11.4969    1.0000 </r>
       <r>   -9.3825    1.0000 </r>
       <r>   -9.0545    1.0000 </r>
       <r>   -8.0174    1.0000 </r>
       <r>   -7.9119    1.0000 </r>
       <r>   -7.1664    1.0000 </r>
       <r>    1.8755    0.0000 </r>
       <r>    2.6825    0.0000 </r>
       <r>    2.8464    0.0000 </r>
       <r>    3.1035    0.0000 </r>
      </set>
      <set comment="kpoint 25">
       <r>  -20.8708    1.0000 </r>
       <r>  -20.4169    1.0000 </r>
       <r>  -10.9648    1.0000 </r>
       <r>   -9.9038    1.0000 </r>
       <r>   -8.8233    1.0000 </r>
       <r>   -8.3036    1.0000 </r>
       <r>   -7.7391    1.0000 </r>
       <r>   -7.3641    1.0000 </r>
       <r>    2.1498    0.0000 </r>
       <r>    2.7757    0.0000 </r>
       <r>    2.9527    0.0000 </r>
       <r>    3.3080    0.0000 </r>
      </set>
      <set comment="kpoint 26">
       <r>  -20.6528    1.0000 </r>
       <r>  -20.6528    1.0000 </r>
       <r>  -10.4326    1.0000 </r>
       <r>  -10.4326    1.0000 </r>
       <r>   -8.5727    1.0000 </r>
       <r>   -8.5727    1.0000 </r>
       <r>   -7.5558    1.0000 </r>
       <r>   -7.5558    1.0000 </r>
       <r>    2.4499    0.0000 </r>
       <r>    2.4499    0.0000 </r>
       <r>    3.2312    0.0000 </r>
       <r>    3.2312    0.0000 </r>
      </set>
      <set comment="kpoint 27">
       <r>  -21.9882    1.0000 </r>
       <r>  -17.2566    1.0000 </r>
       <r>  -15.7521    1.0000 </r>
       <r>  -10.1312    1.0000 </r>
       <r>   -8.9827    1.0000 </r>
       <r>   -6.1495    1.0000 </r>
       <r>   -5.9502    1.0000 </r>
       <r>   -5.3151    1.0000 </r>
       <r>   -1.2155    0.0000 </r>
       <r>    0.6245    0.0000 </r>
       <r>    1.4225    0.0000 </r>
       <r>    1.8190    0.0000 </r>
      </set>
      <set comment="kpoint 28">
       <r>  -21.9786    1.0000 </r>
       <r>  -17.3668    1.0000 </r>
       <r>  -15.6272    1.0000 </r>
       <r>  -10.1197    1.0000 </r>
       <r>   -8.9734    1.0000 </r>
       <r>   -6.1977    1.0000 </r>
       <r>   -5.9639    1.0000 </r>
       <r>   -5.3727    1.0000 </r>
       <r>   -1.1427    0.0000 </r>
       <r>    0.6375    0.0000 </r>
       <r>    1.4358    0.0000 </r>
       <r>    1.8324    0.0000 </r>
      </set>
      <set comment="kpoint 29">
       <r>  -21.9496    1.0000 </r>
       <r>  -17.6271    1.0000 </r>
       <r>  -15.3227    1.0000 </r>
       <r>  -10.0855    1.0000 </r>
       <r>   -8.9454    1.0000 </r>
       <r>   -6.3332    1.0000 </r>
       <r>   -6.0111    1.0000 </r>
       <r>   -5.5339    1.0000 </r>
       <r>   -0.9359    0.0000 </r>
       <r>    0.6767    0.0000 </r>
       <r>    1.4755    0.0000 </r>
       <r>    1.8726    0.0000 </r>
      </set>
      <set comment="kpoint 30">
       <r>  -21.9014    1.0000 </r>
       <r>  -17.9467    1.0000 </r>
       <r>  -14.9298    1.0000 </r>
       <r>  -10.0284    1.0000 </r>
       <r>   -8.8990    1.0000 </r>
       <r>   -6.5432    1.0000 </r>
       <r>   -6.0968    1.0000 </r>
       <r>   -5.7721    1.0000 </r>
       <r>   -0.6223    0.0000 </r>
       <r>    0.7420    0.0000 </r>
       <r>    1.5417    0.0000 </r>
[...]
       <r>   -9.3826    1.0000 </r>
       <r>   -5.4962    1.0000 </r>
       <r>   -5.4962    1.0000 </r>
       <r>   -0.5096    0.0000 </r>
       <r>   -0.5096    0.0000 </r>
       <r>    3.9967    0.0000 </r>
       <r>    3.9967    0.0000 </r>
      </set>
      <set comment="kpoint 209">
       <r>  -18.5774    1.0000 </r>
       <r>  -16.7557    1.0000 </r>
       <r>  -14.2486    1.0000 </r>
       <r>  -12.5743    1.0000 </r>
       <r>  -12.2705    1.0000 </r>
       <r>  -10.7617    1.0000 </r>
       <r>   -6.2457    1.0000 </r>
       <r>   -4.3717    1.0000 </r>
       <r>   -1.2501    0.0000 </r>
       <r>    0.9067    0.0000 </r>
       <r>    5.3277    0.0000 </r>
       <r>    6.0935    0.0000 </r>
      </set>
      <set comment="kpoint 210">
       <r>  -18.5682    1.0000 </r>
       <r>  -16.7487    1.0000 </r>
       <r>  -14.3122    1.0000 </r>
       <r>  -12.6343    1.0000 </r>
       <r>  -12.1993    1.0000 </r>
       <r>  -10.7043    1.0000 </r>
       <r>   -6.2375    1.0000 </r>
       <r>   -4.3759    1.0000 </r>
       <r>   -1.2558    0.0000 </r>
       <r>    0.8846    0.0000 </r>
       <r>    5.3405    0.0000 </r>
       <r>    6.1085    0.0000 </r>
      </set>
      <set comment="kpoint 211">
       <r>  -18.5409    1.0000 </r>
       <r>  -16.7280    1.0000 </r>
       <r>  -14.4790    1.0000 </r>
       <r>  -12.7940    1.0000 </r>
       <r>  -12.0094    1.0000 </r>
       <r>  -10.5529    1.0000 </r>
       <r>   -6.2130    1.0000 </r>
       <r>   -4.3891    1.0000 </r>
       <r>   -1.2714    0.0000 </r>
       <r>    0.8199    0.0000 </r>
       <r>    5.3786    0.0000 </r>
       <r>    6.1530    0.0000 </r>
      </set>
      <set comment="kpoint 212">
       <r>  -18.4955    1.0000 </r>
       <r>  -16.6951    1.0000 </r>
       <r>  -14.7046    1.0000 </r>
       <r>  -13.0152    1.0000 </r>
       <r>  -11.7453    1.0000 </r>
       <r>  -10.3475    1.0000 </r>
       <r>   -6.1725    1.0000 </r>
       <r>   -4.4123    1.0000 </r>
       <r>   -1.2931    0.0000 </r>
       <r>    0.7168    0.0000 </r>
       <r>    5.4409    0.0000 </r>
       <r>    6.2265    0.0000 </r>
      </set>
      <set comment="kpoint 213">
       <r>  -18.4321    1.0000 </r>
       <r>  -16.6530    1.0000 </r>
       <r>  -14.9533    1.0000 </r>
       <r>  -13.2683    1.0000 </r>
       <r>  -11.4418    1.0000 </r>
       <r>  -10.1212    1.0000 </r>
       <r>   -6.1163    1.0000 </r>
       <r>   -4.4475    1.0000 </r>
       <r>   -1.3148    0.0000 </r>
       <r>    0.5812    0.0000 </r>
       <r>    5.5127    0.0000 </r>
       <r>    5.7194    0.0000 </r>
      </set>
      <set comment="kpoint 214">
       <r>  -18.3508    1.0000 </r>
       <r>  -16.6079    1.0000 </r>
       <r>  -15.1998    1.0000 </r>
       <r>  -13.5351    1.0000 </r>
       <r>  -11.1209    1.0000 </r>
       <r>   -9.8961    1.0000 </r>
       <r>   -6.0453    1.0000 </r>
       <r>   -4.4966    1.0000 </r>
       <r>   -1.3297    0.0000 </r>
       <r>    0.4202    0.0000 </r>
       <r>    5.2030    0.0000 </r>
       <r>    5.6639    0.0000 </r>
      </set>
      <set comment="kpoint 215">
       <r>  -18.2520    1.0000 </r>
       <r>  -16.5724    1.0000 </r>
       <r>  -15.4209    1.0000 </r>
       <r>  -13.8052    1.0000 </r>
       <r>  -10.7972    1.0000 </r>
       <r>   -9.6882    1.0000 </r>
       <r>   -5.9601    1.0000 </r>
       <r>   -4.5612    1.0000 </r>
       <r>   -1.3309    0.0000 </r>
       <r>    0.2414    0.0000 </r>
       <r>    4.7831    0.0000 </r>
       <r>    5.8005    0.0000 </r>
      </set>
      <set comment="kpoint 216">
       <r>  -18.1361    1.0000 </r>
       <r>  -16.5705    1.0000 </r>
       <r>  -15.5865    1.0000 </r>
       <r>  -14.0719    1.0000 </r>
       <r>  -10.4820    1.0000 </r>
       <r>   -9.5100    1.0000 </r>
       <r>   -5.8619    1.0000 </r>
       <r>   -4.6421    1.0000 </r>
       <r>   -1.3127    0.0000 </r>
       <r>    0.0516    0.0000 </r>
       <r>    4.4245    0.0000 </r>
       <r>    5.3796    0.0000 </r>
      </set>
      <set comment="kpoint 217">
       <r>  -18.0035    1.0000 </r>
       <r>  -16.6325    1.0000 </r>
       <r>  -15.6625    1.0000 </r>
       <r>  -14.3308    1.0000 </r>
       <r>  -10.1850    1.0000 </r>
       <r>   -9.3718    1.0000 </r>
       <r>   -5.7521    1.0000 </r>
       <r>   -4.7388    1.0000 </r>
       <r>   -1.2711    0.0000 </r>
       <r>   -0.1425    0.0000 </r>
       <r>    4.1392    0.0000 </r>
       <r>    4.9430    0.0000 </r>
      </set>
      <set comment="kpoint 218">
       <r>  -17.8550    1.0000 </r>
       <r>  -16.7644    1.0000 </r>
       <r>  -15.6408    1.0000 </r>
       <r>  -14.5788    1.0000 </r>
       <r>   -9.9151    1.0000 </r>
       <r>   -9.2820    1.0000 </r>
       <r>   -5.6324    1.0000 </r>
       <r>   -4.8497    1.0000 </r>
       <r>   -1.2040    0.0000 </r>
       <r>   -0.3350    0.0000 </r>
       <r>    3.9355    0.0000 </r>
       <r>    4.5638    0.0000 </r>
      </set>
      <set comment="kpoint 219">
       <r>  -17.6915    1.0000 </r>
       <r>  -16.9401    1.0000 </r>
       <r>  -15.5459    1.0000 </r>
       <r>  -14.8131    1.0000 </r>
       <r>   -9.6812    1.0000 </r>
       <r>   -9.2471    1.0000 </r>
       <r>   -5.5049    1.0000 </r>
       <r>   -4.9719    1.0000 </r>
       <r>   -1.1111    0.0000 </r>
       <r>   -0.5208    0.0000 </r>
       <r>    3.8194    0.0000 </r>
       <r>    4.2514    0.0000 </r>
      </set>
      <set comment="kpoint 220">
       <r>  -17.5147    1.0000 </r>
       <r>  -17.1328    1.0000 </r>
       <r>  -15.4037    1.0000 </r>
       <r>  -15.0310    1.0000 </r>
       <r>   -9.4914    1.0000 </r>
       <r>   -9.2705    1.0000 </r>
       <r>   -5.3720    1.0000 </r>
       <r>   -5.1021    1.0000 </r>
       <r>   -0.9937    0.0000 </r>
       <r>   -0.6952    0.0000 </r>
       <r>    3.7942    0.0000 </r>
       <r>    4.0143    0.0000 </r>
      </set>
      <set comment="kpoint 221">
       <r>  -17.3271    1.0000 </r>
       <r>  -17.3271    1.0000 </r>
       <r>  -15.2295    1.0000 </r>
       <r>  -15.2295    1.0000 </r>
       <r>   -9.3528    1.0000 </r>
       <r>   -9.3528    1.0000 </r>
       <r>   -5.2367    1.0000 </r>
       <r>   -5.2367    1.0000 </r>
       <r>   -0.8540    0.0000 </r>
       <r>   -0.8540    0.0000 </r>
       <r>    3.8601    0.0000 </r>
       <r>    3.8601    0.0000 </r>
      </set>
      <set comment="kpoint 222">
       <r>  -18.1476    1.0000 </r>
       <r>  -17.2330    1.0000 </r>
       <r>  -13.8611    1.0000 </r>
       <r>  -13.0232    1.0000 </r>
       <r>  -11.9239    1.0000 </r>
       <r>  -11.1644    1.0000 </r>
       <r>   -5.7871    1.0000 </r>
       <r>   -4.8442    1.0000 </r>
       <r>   -0.7429    0.0000 </r>
       <r>    0.3377    0.0000 </r>
       <r>    5.9352    0.0000 </r>
       <r>    6.6543    0.0000 </r>
      </set>
      <set comment="kpoint 223">
       <r>  -18.1386    1.0000 </r>
       <r>  -17.2248    1.0000 </r>
       <r>  -13.9252    1.0000 </r>
       <r>  -13.0849    1.0000 </r>
       <r>  -11.8549    1.0000 </r>
       <r>  -11.1025    1.0000 </r>
       <r>   -5.7802    1.0000 </r>
       <r>   -4.8427    1.0000 </r>
       <r>   -0.7557    0.0000 </r>
       <r>    0.3177    0.0000 </r>
       <r>    5.9479    0.0000 </r>
       <r>    6.6702    0.0000 </r>
      </set>
      <set comment="kpoint 224">
       <r>  -18.1118    1.0000 </r>
       <r>  -17.2004    1.0000 </r>
       <r>  -14.0940    1.0000 </r>
       <r>  -13.2488    1.0000 </r>
       <r>  -11.6718    1.0000 </r>
       <r>  -10.9391    1.0000 </r>
       <r>   -5.7597    1.0000 </r>
       <r>   -4.8383    1.0000 </r>
       <r>   -0.7926    0.0000 </r>
       <r>    0.2590    0.0000 </r>
       <r>    5.9857    0.0000 </r>
       <r>    6.7173    0.0000 </r>
      </set>
      <set comment="kpoint 225">
       <r>  -18.0672    1.0000 </r>
       <r>  -17.1603    1.0000 </r>
       <r>  -14.3245    1.0000 </r>
       <r>  -13.4748    1.0000 </r>
       <r>  -11.4186    1.0000 </r>
       <r>  -10.7156    1.0000 </r>
       <r>   -5.7259    1.0000 </r>
       <r>   -4.8322    1.0000 </r>
       <r>   -0.8495    0.0000 </r>
       <r>    0.1659    0.0000 </r>
       <r>    6.0458    0.0000 </r>
       <r>    6.5242    0.0000 </r>
      </set>
      <set comment="kpoint 226">
       <r>  -18.0051    1.0000 </r>
       <r>  -17.1053    1.0000 </r>
       <r>  -14.5834    1.0000 </r>
       <r>  -13.7320    1.0000 </r>
       <r>  -11.1301    1.0000 </r>
       <r>  -10.4658    1.0000 </r>
       <r>   -5.6796    1.0000 </r>
       <r>   -4.8260    1.0000 </r>
       <r>   -0.9201    0.0000 </r>
       <r>    0.0442    0.0000 </r>
       <r>    5.9488    0.0000 </r>
       <r>    6.1636    0.0000 </r>
      </set>
      <set comment="kpoint 227">
       <r>  -17.9257    1.0000 </r>
       <r>  -17.0371    1.0000 </r>
       <r>  -14.8503    1.0000 </r>
       <r>  -14.0020    1.0000 </r>
       <r>  -10.8283    1.0000 </r>
       <r>  -10.2121    1.0000 </r>
       <r>   -5.6218    1.0000 </r>
       <r>   -4.8219    1.0000 </r>
       <r>   -0.9966    0.0000 </r>
       <r>   -0.0987    0.0000 </r>
       <r>    5.4558    0.0000 </r>
       <r>    6.0494    0.0000 </r>
      </set>
      <set comment="kpoint 228">
       <r>  -17.8295    1.0000 </r>
       <r>  -16.9587    1.0000 </r>
       <r>  -15.1118    1.0000 </r>
       <r>  -14.2738    1.0000 </r>
       <r>  -10.5283    1.0000 </r>
       <r>   -9.9701    1.0000 </r>
       <r>   -5.5538    1.0000 </r>
       <r>   -4.8227    1.0000 </r>
       <r>   -1.0706    0.0000 </r>
       <r>   -0.2552    0.0000 </r>
       <r>    4.9999    0.0000 </r>
       <r>    5.5433    0.0000 </r>
      </set>
      <set comment="kpoint 229">
       <r>  -17.7172    1.0000 </r>
       <r>  -16.8757    1.0000 </r>
       <r>  -15.3561    1.0000 </r>
       <r>  -14.5407    1.0000 </r>
       <r>  -10.2417    1.0000 </r>
       <r>   -9.7521    1.0000 </r>
       <r>   -5.4772    1.0000 </r>
       <r>   -4.8313    1.0000 </r>
       <r>   -1.1339    0.0000 </r>
       <r>   -0.4177    0.0000 </r>
       <r>    4.6019    0.0000 </r>
       <r>    5.0825    0.0000 </r>
      </set>
      <set comment="kpoint 230">
       <r>  -17.5898    1.0000 </r>
       <r>  -16.7994    1.0000 </r>
       <r>  -15.5682    1.0000 </r>
       <r>  -14.7979    1.0000 </r>
       <r>   -9.9785    1.0000 </r>
       <r>   -9.5686    1.0000 </r>
       <r>   -5.3944    1.0000 </r>
       <r>   -4.8504    1.0000 </r>
       <r>   -1.1790    0.0000 </r>
       <r>   -0.5789    0.0000 </r>
       <r>    4.2717    0.0000 </r>
       <r>    4.6765    0.0000 </r>
      </set>
      <set comment="kpoint 231">
       <r>  -17.4488    1.0000 </r>
       <r>  -16.7518    1.0000 </r>
       <r>  -15.7237    1.0000 </r>
       <r>  -15.0413    1.0000 </r>
       <r>   -9.7481    1.0000 </r>
       <r>   -9.4286    1.0000 </r>
       <r>   -5.3078    1.0000 </r>
       <r>   -4.8821    1.0000 </r>
       <r>   -1.1998    0.0000 </r>
       <r>   -0.7323    0.0000 </r>
       <r>    4.0180    0.0000 </r>
       <r>    4.3346    0.0000 </r>
      </set>
      <set comment="kpoint 232">
       <r>  -17.2969    1.0000 </r>
       <r>  -16.7640    1.0000 </r>
       <r>  -15.7901    1.0000 </r>
       <r>  -15.2668    1.0000 </r>
       <r>   -9.5591    1.0000 </r>
       <r>   -9.3399    1.0000 </r>
       <r>   -5.2203    1.0000 </r>
       <r>   -4.9274    1.0000 </r>
       <r>   -1.1923    0.0000 </r>
       <r>   -0.8716    0.0000 </r>
       <r>    3.8479    0.0000 </r>
       <r>    4.0658    0.0000 </r>
      </set>
      <set comment="kpoint 233">
       <r>  -17.1388    1.0000 </r>
       <r>  -16.8489    1.0000 </r>
       <r>  -15.7536    1.0000 </r>
       <r>  -15.4684    1.0000 </r>
       <r>   -9.4191    1.0000 </r>
       <r>   -9.3075    1.0000 </r>
       <r>   -5.1352    1.0000 </r>
       <r>   -4.9859    1.0000 </r>
       <r>   -1.1546    0.0000 </r>
       <r>   -0.9913    0.0000 </r>
       <r>    3.7668    0.0000 </r>
       <r>    3.8779    0.0000 </r>
      </set>
      <set comment="kpoint 234">
       <r>  -16.9836    1.0000 </r>
       <r>  -16.9836    1.0000 </r>
       <r>  -15.6367    1.0000 </r>
       <r>  -15.6367    1.0000 </r>
       <r>   -9.3341    1.0000 </r>
       <r>   -9.3341    1.0000 </r>
       <r>   -5.0560    1.0000 </r>
       <r>   -5.0560    1.0000 </r>
       <r>   -1.0869    0.0000 </r>
       <r>   -1.0869    0.0000 </r>
       <r>    3.7770    0.0000 </r>
       <r>    3.7770    0.0000 </r>
      </set>
      <set comment="kpoint 235">
       <r>  -17.6985    1.0000 </r>
       <r>  -17.6985    1.0000 </r>
       <r>  -13.4524    1.0000 </r>
       <r>  -13.4524    1.0000 </r>
       <r>  -11.5532    1.0000 </r>
       <r>  -11.5532    1.0000 </r>
       <r>   -5.3182    1.0000 </r>
       <r>   -5.3182    1.0000 </r>
       <r>   -0.2130    0.0000 </r>
       <r>   -0.2130    0.0000 </r>
       <r>    6.5751    0.0000 </r>
       <r>    6.5751    0.0000 </r>
      </set>
      <set comment="kpoint 236">
       <r>  -17.6898    1.0000 </r>
       <r>  -17.6898    1.0000 </r>
       <r>  -13.5156    1.0000 </r>
       <r>  -13.5156    1.0000 </r>
       <r>  -11.4876    1.0000 </r>
       <r>  -11.4876    1.0000 </r>
       <r>   -5.3133    1.0000 </r>
       <r>   -5.3133    1.0000 </r>
       <r>   -0.2301    0.0000 </r>
       <r>   -0.2301    0.0000 </r>
       <r>    6.5877    0.0000 </r>
       <r>    6.5877    0.0000 </r>
      </set>
      <set comment="kpoint 237">
       <r>  -17.6638    1.0000 </r>
       <r>  -17.6638    1.0000 </r>
       <r>  -13.6828    1.0000 </r>
       <r>  -13.6828    1.0000 </r>
       <r>  -11.3134    1.0000 </r>
       <r>  -11.3134    1.0000 </r>
       <r>   -5.2989    1.0000 </r>
       <r>   -5.2989    1.0000 </r>
       <r>   -0.2801    0.0000 </r>
       <r>   -0.2801    0.0000 </r>
       <r>    6.6247    0.0000 </r>
       <r>    6.6247    0.0000 </r>
      </set>
      <set comment="kpoint 238">
       <r>  -17.6207    1.0000 </r>
       <r>  -17.6207    1.0000 </r>
       <r>  -13.9123    1.0000 </r>
       <r>  -13.9123    1.0000 </r>
       <r>  -11.0739    1.0000 </r>
       <r>  -11.0739    1.0000 </r>
       <r>   -5.2757    1.0000 </r>
       <r>   -5.2757    1.0000 </r>
       <r>   -0.3589    0.0000 </r>
       <r>   -0.3589    0.0000 </r>
       <r>    6.6726    0.0000 </r>
       <r>    6.6727    0.0000 </r>
      </set>
      <set comment="kpoint 239">
       <r>  -17.5609    1.0000 </r>
       <r>  -17.5609    1.0000 </r>
       <r>  -14.1721    1.0000 </r>
       <r>  -14.1721    1.0000 </r>
       <r>  -10.8034    1.0000 </r>
       <r>  -10.8034    1.0000 </r>
       <r>   -5.2447    1.0000 </r>
       <r>   -5.2447    1.0000 </r>
       <r>   -0.4603    0.0000 </r>
       <r>   -0.4603    0.0000 </r>
       <r>    6.2627    0.0000 </r>
       <r>    6.2627    0.0000 </r>
      </set>
      <set comment="kpoint 240">
       <r>  -17.4849    1.0000 </r>
       <r>  -17.4849    1.0000 </r>
       <r>  -14.4430    1.0000 </r>
       <r>  -14.4430    1.0000 </r>
       <r>  -10.5241    1.0000 </r>
       <r>  -10.5241    1.0000 </r>
       <r>   -5.2075    1.0000 </r>
       <r>   -5.2075    1.0000 </r>
       <r>   -0.5768    0.0000 </r>
       <r>   -0.5768    0.0000 </r>
       <r>    5.7382    0.0000 </r>
       <r>    5.7382    0.0000 </r>
      </set>
      <set comment="kpoint 241">
       <r>  -17.3939    1.0000 </r>
       <r>  -17.3939    1.0000 </r>
       <r>  -14.7138    1.0000 </r>
       <r>  -14.7138    1.0000 </r>
       <r>  -10.2513    1.0000 </r>
       <r>  -10.2513    1.0000 </r>
       <r>   -5.1662    1.0000 </r>
       <r>   -5.1662    1.0000 </r>
       <r>   -0.7004    0.0000 </r>
       <r>   -0.7004    0.0000 </r>
       <r>    5.2542    0.0000 </r>
       <r>    5.2542    0.0000 </r>
      </set>
      <set comment="kpoint 242">
       <r>  -17.2893    1.0000 </r>
       <r>  -17.2893    1.0000 </r>
       <r>  -14.9765    1.0000 </r>
       <r>  -14.9765    1.0000 </r>
       <r>   -9.9971    1.0000 </r>
       <r>   -9.9971    1.0000 </r>
       <r>   -5.1234    1.0000 </r>
       <r>   -5.1234    1.0000 </r>
       <r>   -0.8228    0.0000 </r>
       <r>   -0.8228    0.0000 </r>
       <r>    4.8222    0.0000 </r>
       <r>    4.8222    0.0000 </r>
      </set>
      <set comment="kpoint 243">
       <r>  -17.1739    1.0000 </r>
       <r>  -17.1739    1.0000 </r>
       <r>  -15.2248    1.0000 </r>
       <r>  -15.2248    1.0000 </r>
       <r>   -9.7719    1.0000 </r>
       <r>   -9.7719    1.0000 </r>
       <r>   -5.0819    1.0000 </r>
       <r>   -5.0819    1.0000 </r>
       <r>   -0.9361    0.0000 </r>
       <r>   -0.9361    0.0000 </r>
       <r>    4.4517    0.0000 </r>
       <r>    4.4517    0.0000 </r>
      </set>
      <set comment="kpoint 244">
       <r>  -17.0530    1.0000 </r>
       <r>  -17.0530    1.0000 </r>
       <r>  -15.4510    1.0000 </r>
       <r>  -15.4510    1.0000 </r>
       <r>   -9.5849    1.0000 </r>
       <r>   -9.5849    1.0000 </r>
       <r>   -5.0449    1.0000 </r>
       <r>   -5.0449    1.0000 </r>
       <r>   -1.0331    0.0000 </r>
       <r>   -1.0331    0.0000 </r>
       <r>    4.1517    0.0000 </r>
       <r>    4.1517    0.0000 </r>
      </set>
      <set comment="kpoint 245">
       <r>  -16.9366    1.0000 </r>
       <r>  -16.9366    1.0000 </r>
       <r>  -15.6436    1.0000 </r>
       <r>  -15.6436    1.0000 </r>
       <r>   -9.4445    1.0000 </r>
       <r>   -9.4445    1.0000 </r>
       <r>   -5.0156    1.0000 </r>
       <r>   -5.0156    1.0000 </r>
       <r>   -1.1075    0.0000 </r>
       <r>   -1.1075    0.0000 </r>
       <r>    3.9306    0.0000 </r>
       <r>    3.9306    0.0000 </r>
      </set>
      <set comment="kpoint 246">
       <r>  -16.8447    1.0000 </r>
       <r>  -16.8447    1.0000 </r>
       <r>  -15.7815    1.0000 </r>
       <r>  -15.7815    1.0000 </r>
       <r>   -9.3573    1.0000 </r>
       <r>   -9.3573    1.0000 </r>
       <r>   -4.9968    1.0000 </r>
       <r>   -4.9968    1.0000 </r>
       <r>   -1.1542    0.0000 </r>
       <r>   -1.1542    0.0000 </r>
       <r>    3.7949    0.0000 </r>
       <r>    3.7949    0.0000 </r>
      </set>
      <set comment="kpoint 247">
       <r>  -16.8079    1.0000 </r>
       <r>  -16.8079    1.0000 </r>
       <r>  -15.8338    1.0000 </r>
       <r>  -15.8338    1.0000 </r>
       <r>   -9.3277    1.0000 </r>
       <r>   -9.3277    1.0000 </r>
       <r>   -4.9903    1.0000 </r>
       <r>   -4.9903    1.0000 </r>
       <r>   -1.1702    0.0000 </r>
       <r>   -1.1702    0.0000 </r>
       <r>    3.7492    0.0000 </r>
       <r>    3.7492    0.0000 </r>
      </set>
     </set>
    </set>
   </array>
  </eigenvalues>
  <separator name="orbital magnetization" >
   <v name="MAGDIPOLOUT">      0.00000000      0.00000000      0.00000000</v>
  </separator>
 </calculation>
 <structure name="finalpos" >
  <crystal>
   <varray name="basis" >
    <v>       4.40296116       0.00000000       0.00000000 </v>
    <v>       0.00000000       2.45530033       0.00000000 </v>
    <v>       0.00000000       0.00000000      19.50290065 </v>
   </varray>
   <i name="volume">    210.83790140 </i>
   <varray name="rec_basis" >
    <v>       0.22711988       0.00000000       0.00000000 </v>
    <v>       0.00000000       0.40728215       0.00000000 </v>
    <v>       0.00000000       0.00000000       0.05127442 </v>
   </varray>
  </crystal>
  <varray name="positions" >
   <v>       0.99938659       0.00000000       0.00000000 </v>
   <v>       0.16728008       0.50000000      -0.00000000 </v>
   <v>       0.49938659       0.50000000       0.00000000 </v>
   <v>       0.66728008       0.00000000      -0.00000000 </v>
  </varray>
 </structure>
</modeling>
