gr                                      
           1
     4.402961    0.000000    0.000000
     0.000000    2.455300    0.000000
     0.000000    0.000000   19.502901
   C 
   4
Direct configuration=     1
   0.99938979  0.00000000  0.00000000
   0.16727688  0.50000000  0.00000000
   0.49938979  0.50000000  0.00000000
   0.66727688  0.00000000  0.00000000
Direct configuration=     2
   0.99937510 -0.00000000  0.00000000
   0.16729157  0.50000000 -0.00000000
   0.49937510  0.50000000  0.00000000
   0.66729157 -0.00000000 -0.00000000
Direct configuration=     3
   0.99938658 -0.00000000  0.00000000
   0.16728009  0.50000000 -0.00000000
   0.49938658  0.50000000  0.00000000
   0.66728009 -0.00000000 -0.00000000
Direct configuration=     4
   0.99938660  0.00000000  0.00000000
   0.16728006  0.50000000 -0.00000000
   0.49938660  0.50000000  0.00000000
   0.66728006  0.00000000 -0.00000000
Direct configuration=     5
   0.99938659  0.00000000  0.00000000
   0.16728008  0.50000000 -0.00000000
   0.49938659  0.50000000  0.00000000
   0.66728008  0.00000000 -0.00000000
