    4    4  400    1
  0.5270948E+02  0.4401038E-09  0.2455481E-09  0.1950999E-08  0.5000000E-15
  1.000000000000000E-004
  CAR 
 gr                                      
     16    247     12
 
  0.0000000E+00  0.0000000E+00  0.0000000E+00  0.1157407E-02
    1      -22.046668
    2      -17.300773
    3      -15.802108
    4      -10.199164
    5       -8.739312
    6       -6.045277
    7       -5.718092
    8       -5.377908
    9       -1.204495
   10        0.549041
   11        1.346508
   12        1.742210
 
  0.4166667E-01  0.0000000E+00  0.0000000E+00  0.2314815E-02
    1      -22.037003
    2      -17.412005
    3      -15.675951
    4      -10.187713
    5       -8.730009
    6       -6.089861
    7       -5.737685
    8       -5.435169
    9       -1.131587
   10        0.562104
   11        1.359768
   12        1.755638
 
  0.8333333E-01  0.0000000E+00  0.0000000E+00  0.2314815E-02
    1      -22.008015
    2      -17.674170
    3      -15.369088
    4      -10.153377
    5       -8.702151
    6       -6.221430
    7       -5.795463
    8       -5.595649
    9       -0.924318
   10        0.601304
   11        1.399541
   12        1.795924
 
  0.1250000E+00  0.0000000E+00  0.0000000E+00  0.2314815E-02
    1      -21.959725
    2      -17.995468
    3      -14.973541
    4      -10.096216
    5       -8.655890
    6       -6.433865
    7       -5.888561
    8       -5.833213
    9       -0.609292
   10        0.666665
   11        1.465813
   12        1.863072
 
  0.1666667E+00  0.0000000E+00  0.0000000E+00  0.2314815E-02
    1      -21.892166
    2      -18.333361
    3      -14.532228
    4      -10.016327
    5       -8.591486
    6       -6.718253
    7       -6.120321
    8       -6.012670
    9       -0.214837
   10        0.758216
   11        1.558556
   12        1.957087
 
  0.2083333E+00  0.0000000E+00  0.0000000E+00  0.2314815E-02
    1      -21.805392
    2      -18.670719
    3      -14.062825
    4       -9.913853
    5       -8.509311
    6       -7.064251
    7       -6.435160
    8       -6.162579
    9        0.236087
   10        0.875978
   11        1.677723
   12        2.077975
 
  0.2500000E+00  0.0000000E+00  0.0000000E+00  0.2314815E-02
    1      -21.699467
    2      -18.999910
    3      -13.573694
    4       -9.788987
    5       -8.409865
    6       -7.461276
    7       -6.762421
    8       -6.332700
    9        0.726628
   10        1.019955
   11        1.823244
   12        2.225736
 
  0.2916667E+00  0.0000000E+00  0.0000000E+00  0.2314815E-02
    1      -21.574479
    2      -19.317067
    3      -13.069633
    4       -9.641978
    5       -8.293789
    6       -7.899332
    7       -7.091786
    8       -6.517502
    9        1.190134
   10        1.244423
   11        1.995005
   12        2.400370
 
  0.3333333E+00  0.0000000E+00  0.0000000E+00  0.2314815E-02
    1      -21.430532
    2      -19.620005
    3      -12.553993
    4       -9.473143
    5       -8.369444
    6       -8.161883
    7       -7.416304
    8       -6.711805
    9        1.386486
   10        1.779735
   11        2.192809
   12        2.601873
 
  0.3750000E+00  0.0000000E+00  0.0000000E+00  0.2314815E-02
    1      -21.267754
    2      -19.907367
    3      -12.029563
    4       -9.282880
    5       -8.863813
    6       -8.015134
    7       -7.731212
    8       -6.910940
    9        1.608962
   10        2.323443
   11        2.416279
   12        2.830236
 
  0.4166667E+00  0.0000000E+00  0.0000000E+00  0.2314815E-02
    1      -21.086299
    2      -20.178247
    3      -11.498998
    4       -9.375775
    5       -9.071690
    6       -8.033166
    7       -7.854746
    8       -7.110812
    9        1.857501
   10        2.664558
   11        2.861825
   12        3.085449
 
  0.4583333E+00  0.0000000E+00  0.0000000E+00  0.2314815E-02
    1      -20.886356
    2      -20.432001
    3      -10.965062
    4       -9.899692
    5       -8.840202
    6       -8.319760
    7       -7.682178
    8       -7.307894
    9        2.132015
   10        2.758478
   11        2.935081
   12        3.313360
 
  0.5000000E+00  0.0000000E+00  0.0000000E+00  0.1157407E-02
    1      -20.668161
    2      -20.668161
    3      -10.430802
    4      -10.430802
    5       -8.589217
    6       -8.589217
    7       -7.499190
    8       -7.499190
    9        2.432393
   10        2.432393
   11        3.214812
   12        3.214812
 
  0.0000000E+00  0.2777778E-01  0.0000000E+00  0.2314815E-02
    1      -22.032810
    2      -17.288718
    3      -15.790278
    4      -10.182737
    5       -8.802947
    6       -6.070617
    7       -5.777547
    8       -5.361213
    9       -1.206669
   10        0.567809
   11        1.365457
   12        1.761400
 
  0.4166667E-01  0.2777778E-01  0.0000000E+00  0.4629630E-02
    1      -22.023147
    2      -17.399839
    3      -15.664275
    4      -10.171289
    5       -8.793633
    6       -6.115647
    7       -5.796103
    8       -5.418582
    9       -1.133752
   10        0.580872
   11        1.378716
   12        1.774828
 
  0.8333333E-01  0.2777778E-01  0.0000000E+00  0.4629630E-02
    1      -21.994163
    2      -17.661791
    3      -15.357756
    4      -10.136965
    5       -8.765743
    6       -6.247626
    7       -5.851799
    8       -5.579319
    9       -0.926524
   10        0.620072
   11        1.418488
   12        1.815113
 
  0.1250000E+00  0.2777778E-01  0.0000000E+00  0.4629630E-02
    1      -21.945880
    2      -17.982880
    3      -14.962640
    4      -10.079822
    5       -8.719425
    6       -6.459220
    7       -5.943269
    8       -5.817162
    9       -0.611715
   10        0.685433
   11        1.484757
   12        1.882261
 
  0.1666667E+00  0.2777778E-01  0.0000000E+00  0.4629630E-02
    1      -21.878333
    2      -18.320589
    3      -14.521831
    4       -9.999960
    5       -8.654935
    6       -6.741344
    7       -6.104491
    8       -6.066724
    9       -0.217737
   10        0.776986
   11        1.577495
   12        1.976278
 
  0.2083333E+00  0.2777778E-01  0.0000000E+00  0.4629630E-02
    1      -21.791573
    2      -18.657788
    3      -14.053015
    4       -9.897520
    5       -8.572642
    6       -7.084106
    7       -6.419469
    8       -6.216815
    9        0.232429
   10        0.894751
   11        1.696658
   12        2.097166
 
  0.2500000E+00  0.2777778E-01  0.0000000E+00  0.4629630E-02
    1      -21.685668
    2      -18.986841
    3      -13.564568
    4       -9.772696
    5       -8.473037
    6       -7.477453
    7       -6.746796
    8       -6.387657
    9        0.721943
   10        1.038732
   11        1.842175
   12        2.244929
 
  0.2916667E+00  0.2777778E-01  0.0000000E+00  0.4629630E-02
    1      -21.560703
    2      -19.303880
    3      -13.061307
    4       -9.625735
    5       -8.356751
    6       -7.911788
    7       -7.076173
    8       -6.573461
    9        1.208916
   10        1.238479
   11        2.013932
   12        2.419565
 
  0.3333333E+00  0.2777778E-01  0.0000000E+00  0.4629630E-02
    1      -21.416783
    2      -19.606714
    3      -12.546608
    4       -9.456956
    5       -8.378381
    6       -8.224577
    7       -7.400665
    8       -6.768861
    9        1.405274
   10        1.772363
   11        2.211736
   12        2.621071
 
  0.3750000E+00  0.2777778E-01  0.0000000E+00  0.4629630E-02
    1      -21.254037
    2      -19.893987
    3      -12.023284
    4       -9.266755
    5       -8.869556
    6       -8.077488
    7       -7.715521
    8       -6.969076
    9        1.627759
   10        2.314642
   11        2.435213
   12        2.849439
 
  0.4166667E+00  0.2777778E-01  0.0000000E+00  0.4629630E-02
    1      -21.072620
    2      -20.164788
    3      -11.494021
    4       -9.378695
    5       -9.055633
    6       -8.017409
    7       -7.916675
    8       -7.169943
    9        1.876306
   10        2.683508
   11        2.852342
   12        3.104661
 
  0.4583333E+00  0.2777778E-01  0.0000000E+00  0.4629630E-02
    1      -20.872721
    2      -20.418476
    3      -10.961618
    4       -9.900159
    5       -8.824218
    6       -8.303928
    7       -7.743583
    8       -7.367906
    9        2.150831
   10        2.777333
   11        2.954032
   12        3.313421
 
  0.5000000E+00  0.2777778E-01  0.0000000E+00  0.2314815E-02
    1      -20.654576
    2      -20.654576
    3      -10.429160
    4      -10.429160
    5       -8.573309
    6       -8.573309
    7       -7.559960
    8       -7.559960
    9        2.451224
   10        2.451224
   11        3.233195
   12        3.233195
 
  0.0000000E+00  0.5555556E-01  0.0000000E+00  0.2314815E-02
    1      -21.991246
    2      -17.252557
    3      -15.754927
    4      -10.133489
    5       -8.988679
    6       -6.146304
    7       -5.950995
    8       -5.311150
    9       -1.213991
   10        0.624112
   11        1.422297
   12        1.818968
 
  0.4166667E-01  0.5555556E-01  0.0000000E+00  0.4629630E-02
    1      -21.981587
    2      -17.363350
    3      -15.629385
    4      -10.122053
    5       -8.979329
    6       -6.194600
    7       -5.964537
    8       -5.368852
    9       -1.141043
   10        0.637175
   11        1.435553
   12        1.832396
 
  0.8333333E-01  0.5555556E-01  0.0000000E+00  0.4629630E-02
    1      -21.952617
    2      -17.624668
    3      -15.323901
    4      -10.087763
    5       -8.951328
    6       -6.330208
    7       -6.011670
    8       -5.530380
    9       -0.933932
   10        0.676373
   11        1.475319
   12        1.872682
 
  0.1250000E+00  0.5555556E-01  0.0000000E+00  0.4629630E-02
    1      -21.904358
    2      -17.945132
    3      -14.930091
    4      -10.030678
    5       -8.904818
    6       -6.540152
    7       -6.097466
    8       -5.769079
    9       -0.619785
   10        0.741734
   11        1.541578
   12        1.939831
 
  0.1666667E+00  0.5555556E-01  0.0000000E+00  0.4629630E-02
    1      -21.836845
    2      -18.282290
    3      -14.490815
    4       -9.950897
    5       -8.840042
    6       -6.815431
    7       -6.219069
    8       -6.057082
    9       -0.227265
   10        0.833288
   11        1.634304
   12        2.033848
 
  0.2083333E+00  0.5555556E-01  0.0000000E+00  0.4629630E-02
    1      -21.750130
    2      -18.619012
    3      -14.023789
    4       -9.848561
    5       -8.757351
    6       -7.148038
    7       -6.372482
    8       -6.370184
    9        0.220580
   10        0.951056
   11        1.753452
   12        2.154739
 
  0.2500000E+00  0.5555556E-01  0.0000000E+00  0.4629630E-02
    1      -21.644281
    2      -18.947652
    3      -13.537438
    4       -9.723862
    5       -8.657215
    6       -7.529752
    7       -6.700010
    8       -6.543794
    9        0.706953
   10        1.095045
   11        1.898954
   12        2.302505
 
  0.2916667E+00  0.5555556E-01  0.0000000E+00  0.4629630E-02
    1      -21.519386
    2      -19.264333
    3      -13.036638
    4       -9.577050
    5       -8.540235
    6       -7.952297
    7       -7.029419
    8       -6.733211
    9        1.219628
   10        1.265240
   11        2.070701
   12        2.477147
 
  0.3333333E+00  0.5555556E-01  0.0000000E+00  0.4629630E-02
    1      -21.375548
    2      -19.566858
    3      -12.524836
    4       -9.408441
    5       -8.407745
    6       -8.407169
    7       -7.353826
    8       -6.932461
    9        1.461612
   10        1.749115
   11        2.268506
   12        2.678661
 
  0.3750000E+00  0.5555556E-01  0.0000000E+00  0.4629630E-02
    1      -21.212898
    2      -19.853861
    3      -12.004930
    4       -9.218430
    5       -8.888827
    6       -8.258951
    7       -7.668523
    8       -7.136392
    9        1.684113
   10        2.286911
   11        2.492003
   12        2.907038
 
  0.4166667E+00  0.5555556E-01  0.0000000E+00  0.4629630E-02
    1      -21.031594
    2      -20.124428
    3      -11.479703
    4       -9.389070
    5       -9.007515
    6       -8.096729
    7       -7.970207
    8       -7.340643
    9        1.932679
   10        2.740349
   11        2.821927
   12        3.162271
 
  0.4583333E+00  0.5555556E-01  0.0000000E+00  0.4629630E-02
    1      -20.831827
    2      -20.377912
    3      -10.952066
    4       -9.902828
    5       -8.776323
    6       -8.256499
    7       -7.921898
    8       -7.541573
    9        2.207227
   10        2.833806
   11        3.010878
   12        3.305174
 
  0.5000000E+00  0.5555556E-01  0.0000000E+00  0.2314815E-02
    1      -20.613836
    2      -20.613836
    3      -10.425228
    4      -10.425228
    5       -8.525645
    6       -8.525645
    7       -7.736158
    8       -7.736158
    9        2.507650
   10        2.507650
   11        3.287969
   12        3.287982
 
  0.0000000E+00  0.8333333E-01  0.0000000E+00  0.2314815E-02
    1      -21.922009
    2      -17.192302
    3      -15.696494
    4      -10.051529
    5       -9.282460
    6       -6.271324
    7       -6.225226
    8       -5.227784
    9       -1.228865
   10        0.717947
   11        1.517004
   12        1.914917
 
  0.4166667E-01  0.8333333E-01  0.0000000E+00  0.4629630E-02
    1      -21.912358
    2      -17.302565
    3      -15.571714
    4      -10.040112
    5       -9.273037
    6       -6.342893
    7       -6.212679
    8       -5.286075
    9       -1.155849
   10        0.731008
   11        1.530257
   12        1.928345
 
  0.8333333E-01  0.8333333E-01  0.0000000E+00  0.4629630E-02
    1      -21.883412
    2      -17.562845
    3      -15.267967
    4      -10.005882
    5       -9.244809
    6       -6.490437
    7       -6.239894
    8       -5.448991
    9       -0.948919
   10        0.770201
   11        1.570011
   12        1.968630
 
  0.1250000E+00  0.8333333E-01  0.0000000E+00  0.4629630E-02
    1      -21.835193
    2      -17.882278
    3      -14.876380
    4       -9.948896
    5       -9.197907
    6       -6.697060
    7       -6.317099
    8       -5.689182
    9       -0.635898
   10        0.835555
   11        1.636252
   12        2.035777
 
  0.1666667E+00  0.8333333E-01  0.0000000E+00  0.4629630E-02
    1      -21.767738
    2      -18.218518
    3      -14.439742
    4       -9.869253
    5       -9.132550
    6       -6.959055
    7       -6.437725
    8       -5.978346
    9       -0.245893
   10        0.927101
   11        1.728953
   12        2.129794
 
  0.2083333E+00  0.8333333E-01  0.0000000E+00  0.4629630E-02
    1      -21.681098
    2      -18.554443
    3      -13.975817
    4       -9.767094
    5       -9.049055
    6       -7.272398
    7       -6.593011
    8       -6.294468
    9        0.197941
   10        1.044864
   11        1.848073
   12        2.250686
 
  0.2500000E+00  0.8333333E-01  0.0000000E+00  0.4629630E-02
    1      -21.575344
    2      -18.882392
    3      -13.493120
    4       -9.642613
    5       -8.947846
    6       -7.632123
    7       -6.773853
    8       -6.622331
    9        0.678880
   10        1.188852
   11        1.993548
   12        2.398456
 
  0.2916667E+00  0.8333333E-01  0.0000000E+00  0.4629630E-02
    1      -21.450563
    2      -19.198475
    3      -12.996637
    4       -9.496056
    5       -8.829471
    6       -8.032389
    7       -6.971863
    8       -6.951784
    9        1.184862
   10        1.359051
   11        2.165273
   12        2.573104
 
  0.3333333E+00  0.8333333E-01  0.0000000E+00  0.4629630E-02
    1      -21.306862
    2      -19.500480
    3      -12.489949
    4       -9.327738
    5       -8.694613
    6       -8.466823
    7       -7.276036
    8       -7.179871
    9        1.555431
   10        1.706669
   11        2.363074
   12        2.774627
 
  0.3750000E+00  0.8333333E-01  0.0000000E+00  0.4629630E-02
    1      -21.144375
    2      -19.787031
    3      -11.976116
    4       -9.138054
    5       -8.928965
    6       -8.544126
    7       -7.590451
    8       -7.392005
    9        1.777942
   10        2.236397
   11        2.586608
   12        3.003017
 
  0.4166667E+00  0.8333333E-01  0.0000000E+00  0.4629630E-02
    1      -20.963260
    2      -20.057207
    3      -11.458111
    4       -9.412630
    5       -8.927497
    6       -8.379055
    7       -7.891777
    8       -7.603553
    9        2.026518
   10        2.765177
   11        2.835051
   12        3.258266
 
  0.4583333E+00  0.8333333E-01  0.0000000E+00  0.4629630E-02
    1      -20.763714
    2      -20.310351
    3      -10.939068
    4       -9.912145
    5       -8.696689
    6       -8.200687
    7       -8.177674
    8       -7.810755
    9        2.301075
   10        2.927690
   11        3.105594
   12        3.267347
 
  0.5000000E+00  0.8333333E-01  0.0000000E+00  0.2314815E-02
    1      -20.545978
    2      -20.545978
    3      -10.422443
    4      -10.422443
    5       -8.446413
    6       -8.446413
    7       -8.010604
    8       -8.010604
    9        2.601511
   10        2.601511
   11        3.377220
   12        3.377220
 
  0.0000000E+00  0.1111111E+00  0.0000000E+00  0.2314815E-02
    1      -21.825161
    2      -17.107975
    3      -15.615801
    4       -9.937037
    5       -9.664842
    6       -6.582339
    7       -6.443923
    8       -5.111227
    9       -1.255303
   10        0.849307
   11        1.649538
   12        2.049246
 
  0.4166667E-01  0.1111111E+00  0.0000000E+00  0.4629630E-02
    1      -21.815521
    2      -17.217529
    3      -15.492077
    4       -9.925649
    5       -9.655285
    6       -6.638404
    7       -6.443144
    8       -5.170418
    9       -1.182153
   10        0.862364
   11        1.662785
   12        2.062673
 
  0.8333333E-01  0.1111111E+00  0.0000000E+00  0.4629630E-02
    1      -21.786609
    2      -17.476401
    3      -15.190797
    4       -9.891506
    5       -9.626651
    6       -6.774908
    7       -6.470755
    8       -5.335438
    9       -0.975421
   10        0.901544
   11        1.702521
   12        2.102955
 
  0.1250000E+00  0.1111111E+00  0.0000000E+00  0.4629630E-02
    1      -21.738446
    2      -17.794408
    3      -14.802440
    4       -9.834665
    5       -9.579042
    6       -6.967006
    7       -6.546442
    8       -5.577863
    9       -0.664012
   10        0.966876
   11        1.768731
   12        2.170099
 
  0.1666667E+00  0.1111111E+00  0.0000000E+00  0.4629630E-02
    1      -21.671070
    2      -18.129368
    3      -14.369694
    4       -9.755224
    5       -9.512639
    6       -7.206625
    7       -6.670018
    8       -5.868741
    9       -0.277687
   10        1.058397
   11        1.861392
   12        2.264113
 
  0.2083333E+00  0.1111111E+00  0.0000000E+00  0.4629630E-02
    1      -21.584537
    2      -18.464173
    3      -13.910406
    4       -9.653326
    5       -9.427697
    6       -7.489992
    7       -6.834474
    8       -6.185908
    9        0.160252
   10        1.176134
   11        1.980464
   12        2.385002
 
  0.2500000E+00  0.1111111E+00  0.0000000E+00  0.4629630E-02
    1      -21.478916
    2      -18.791149
    3      -13.433231
    4       -9.529161
    5       -9.324556
    6       -7.814667
    7       -7.029802
    8       -6.514237
    9        0.633201
   10        1.320099
   11        2.125888
   12        2.532772
 
  0.2916667E+00  0.1111111E+00  0.0000000E+00  0.4629630E-02
    1      -21.354295
    2      -19.106387
    3      -12.943342
    4       -9.382979
    5       -9.203655
    6       -8.178177
    7       -7.245330
    8       -6.843729
    9        1.129325
   10        1.490281
   11        2.297572
   12        2.707424
 
  0.3333333E+00  0.1111111E+00  0.0000000E+00  0.4629630E-02
    1      -21.210788
    2      -19.407658
    3      -12.444555
    4       -9.215090
    5       -9.065538
    6       -8.577145
    7       -7.471469
    8       -7.167731
    9        1.639741
   10        1.686646
   11        2.495358
   12        2.908952
 
  0.3750000E+00  0.1111111E+00  0.0000000E+00  0.4629630E-02
    1      -21.048528
    2      -19.693573
    3      -11.940218
    4       -9.025886
    5       -9.007059
    6       -8.910881
    7       -7.700591
    8       -7.481711
    9        1.909143
   10        2.157157
   11        2.718941
   12        3.137352
 
  0.4166667E+00  0.1111111E+00  0.0000000E+00  0.4629630E-02
    1      -20.867679
    2      -19.963196
    3      -11.433655
    4       -9.462602
    5       -8.815857
    6       -8.740516
    7       -7.927063
    8       -7.782497
    9        2.157701
   10        2.674537
   11        2.967549
   12        3.392615
 
  0.4583333E+00  0.1111111E+00  0.0000000E+00  0.4629630E-02
    1      -20.668445
    2      -20.215860
    3      -10.928420
    4       -9.938199
    5       -8.585616
    6       -8.555471
    7       -8.146848
    8       -8.067802
    9        2.432233
   10        3.058772
   11        3.180185
   12        3.238132
 
  0.5000000E+00  0.1111111E+00  0.0000000E+00  0.2314815E-02
    1      -20.451070
    2      -20.451070
    3      -10.428457
    4      -10.428457
    5       -8.357035
    6       -8.357035
    7       -8.335935
    8       -8.335935
    9        2.732634
   10        2.732634
   11        3.489428
   12        3.489429
 
  0.0000000E+00  0.1388889E+00  0.0000000E+00  0.2314815E-02
    1      -21.700786
    2      -16.999605
    3      -15.514233
    4      -10.114545
    5       -9.790276
    6       -7.003456
    7       -6.661569
    8       -4.961638
    9       -1.298872
   10        1.018179
   11        1.819840
   12        2.221956
 
  0.4166667E-01  0.1388889E+00  0.0000000E+00  0.4629630E-02
    1      -21.691160
    2      -17.108314
    3      -15.391858
    4      -10.104760
    5       -9.778928
    6       -7.049147
    7       -6.666700
    8       -5.022136
    9       -1.225459
   10        1.031227
   11        1.833077
   12        2.235381
 
  0.8333333E-01  0.1388889E+00  0.0000000E+00  0.4629630E-02
    1      -21.662291
    2      -17.365455
    3      -15.093834
    4      -10.075424
    5       -9.744903
    6       -7.171997
    7       -6.695163
    8       -5.190175
    9       -1.018841
   10        1.070383
   11        1.872782
   12        2.275659
 
  0.1250000E+00  0.1388889E+00  0.0000000E+00  0.4629630E-02
    1      -21.614201
    2      -17.681663
    3      -14.709887
    4      -10.026598
    5       -9.688259
    6       -7.350303
    7       -6.765131
    8       -5.435746
    9       -0.709508
   10        1.135677
   11        1.938943
   12        2.342795
 
  0.1666667E+00  0.1388889E+00  0.0000000E+00  0.4629630E-02
    1      -21.546931
    2      -18.014983
    3      -14.282589
    4       -9.958382
    5       -9.609094
    6       -7.570544
    7       -6.884112
    8       -5.728987
    9       -0.328136
   10        1.227146
   11        2.031536
   12        2.436799
 
  0.2083333E+00  0.1388889E+00  0.0000000E+00  0.4629630E-02
    1      -21.460534
    2      -18.348340
    3      -13.829912
    4       -9.870916
    5       -9.507552
    6       -7.825568
    7       -7.050835
    8       -6.047553
    9        0.101808
   10        1.344824
   11        2.150526
   12        2.557679
 
  0.2500000E+00  0.1388889E+00  0.0000000E+00  0.4629630E-02
    1      -21.355083
    2      -18.674054
    3      -13.360750
    4       -9.764376
    5       -9.383822
    6       -8.112093
    7       -7.258164
    8       -6.376471
    9        0.563917
   10        1.488731
   11        2.295860
   12        2.705441
 
  0.2916667E+00  0.1388889E+00  0.0000000E+00  0.4629630E-02
    1      -21.230671
    2      -18.988192
    3      -12.880601
    4       -9.638977
    5       -9.238151
    6       -8.429358
    7       -7.495175
    8       -6.705965
    9        1.046677
   10        1.658858
   11        2.467459
   12        2.880089
 
  0.3333333E+00  0.1388889E+00  0.0000000E+00  0.4629630E-02
    1      -21.087413
    2      -19.288509
    3      -12.393705
    4       -9.494966
    5       -9.070850
    6       -8.777817
    7       -7.749306
    8       -7.029576
    9        1.541597
   10        1.855172
   11        2.665195
   12        3.081619
 
  0.3750000E+00  0.1388889E+00  0.0000000E+00  0.4629630E-02
    1      -20.925447
    2      -19.573595
    3      -11.903953
    4       -9.332628
    5       -9.157570
    6       -8.882306
    7       -8.008669
    8       -7.342922
    9        2.041951
   10        2.077616
   11        2.888826
   12        3.310024
 
  0.4166667E+00  0.1388889E+00  0.0000000E+00  0.4629630E-02
    1      -20.744945
    2      -19.842499
    3      -11.415355
    4       -9.567063
    5       -9.152297
    6       -8.673005
    7       -8.263885
    8       -7.642937
    9        2.326114
   10        2.541907
   11        3.137707
   12        3.565318
 
  0.4583333E+00  0.1388889E+00  0.0000000E+00  0.4629630E-02
    1      -20.546114
    2      -20.094540
    3      -10.932292
    4      -10.002742
    5       -8.954392
    6       -8.508707
    7       -8.443548
    8       -7.927409
    9        2.600572
   10        3.035329
   11        3.226883
   12        3.408364
 
  0.5000000E+00  0.1388889E+00  0.0000000E+00  0.2314815E-02
    1      -20.329208
    2      -20.329208
    3      -10.459644
    4      -10.459644
    5       -8.739519
    6       -8.739519
    7       -8.194694
    8       -8.194694
    9        2.900874
   10        2.900874
   11        3.499927
   12        3.499928
 
  0.0000000E+00  0.1666667E+00  0.0000000E+00  0.2314815E-02
    1      -21.548999
    2      -16.867235
    3      -15.394092
    4      -10.610755
    5       -9.611599
    6       -7.471208
    7       -6.920940
    8       -4.779227
    9       -1.366505
   10        1.224536
   11        2.027824
   12        2.433047
 
  0.4166667E-01  0.1666667E+00  0.0000000E+00  0.4629630E-02
    1      -21.539392
    2      -16.975019
    3      -15.273367
    4      -10.600577
    5       -9.600303
    6       -7.514833
    7       -6.923164
    8       -4.841599
    9       -1.292571
   10        1.237573
   11        2.041044
   12        2.446470
 
  0.8333333E-01  0.1666667E+00  0.0000000E+00  0.4629630E-02
    1      -21.510576
    2      -17.230183
    3      -14.979529
    4      -10.570037
    5       -9.566433
    6       -7.633944
    7       -6.941010
    8       -5.013896
    9       -1.085748
   10        1.276694
   11        2.080700
   12        2.486739
 
  0.1250000E+00  0.1666667E+00  0.0000000E+00  0.4629630E-02
    1      -21.462576
    2      -17.544249
    3      -14.601532
    4      -10.519104
    5       -9.510049
    6       -7.807340
    7       -6.993725
    8       -5.263790
    9       -0.778841
   10        1.341926
   11        2.146778
   12        2.553862
 
  0.1666667E+00  0.1666667E+00  0.0000000E+00  0.4629630E-02
    1      -21.395433
    2      -17.875571
    3      -14.181839
    4      -10.447721
    5       -9.431248
    6       -8.018859
    7       -7.093737
    8       -5.560174
    9       -0.403747
   10        1.433311
   11        2.239255
   12        2.647847
 
  0.2083333E+00  0.1666667E+00  0.0000000E+00  0.4629630E-02
    1      -21.309202
    2      -18.207144
    3      -13.738656
    4      -10.355784
    5       -9.330174
    6       -8.258462
    7       -7.245204
    8       -5.880526
    9        0.015934
   10        1.550888
   11        2.358098
   12        2.768705
 
  0.2500000E+00  0.1666667E+00  0.0000000E+00  0.4629630E-02
    1      -21.203962
    2      -18.531291
    3      -13.281309
    4      -10.243115
    5       -9.207017
    6       -8.520348
    7       -7.445859
    8       -6.210127
    9        0.464133
   10        1.694686
   11        2.503257
   12        2.916447
 
  0.2916667E+00  0.1666667E+00  0.0000000E+00  0.4629630E-02
    1      -21.079806
    2      -18.844065
    3      -12.815924
    4      -10.109431
    5       -9.062023
    6       -8.801850
    7       -7.688518
    8       -6.539523
    9        0.929807
   10        1.864705
   11        2.674668
   12        3.091079
 
  0.3333333E+00  0.1666667E+00  0.0000000E+00  0.4629630E-02
    1      -20.936855
    2      -19.143195
    3      -12.347585
    4       -9.954297
    5       -9.102922
    6       -8.895502
    7       -7.962302
    8       -6.862531
    9        1.404968
   10        2.060916
   11        2.872238
   12        3.292600
 
  0.3750000E+00  0.1666667E+00  0.0000000E+00  0.4629630E-02
    1      -20.775253
    2      -19.427250
    3      -11.881287
    4       -9.777095
    5       -9.425647
    6       -8.707838
    7       -8.253938
    8       -7.174968
    9        1.883457
   10        2.283258
   11        3.095823
   12        3.521003
 
  0.4166667E+00  0.1666667E+00  0.0000000E+00  0.4629630E-02
    1      -20.595181
    2      -19.695259
    3      -11.422385
    4       -9.773189
    5       -9.577048
    6       -8.549468
    7       -8.499507
    8       -7.473907
    9        2.360218
   10        2.531645
   11        3.345086
   12        3.776335
 
  0.4583333E+00  0.1666667E+00  0.0000000E+00  0.4629630E-02
    1      -20.396850
    2      -19.946526
    3      -10.976705
    4      -10.148033
    5       -9.353411
    6       -8.836465
    7       -8.271103
    8       -7.757231
    9        2.805969
   10        2.830833
   11        3.431890
   12        3.614816
 
  0.5000000E+00  0.1666667E+00  0.0000000E+00  0.2314815E-02
    1      -20.180525
    2      -20.180525
    3      -10.550204
    4      -10.550204
    5       -9.106031
    6       -9.106031
    7       -8.023365
    8       -8.023365
    9        3.106103
   10        3.106103
   11        3.290979
   12        3.290979
 