       N       E                     dE             d eps       ncg     rms          rms(c)
DAV:   1     0.186044595242E+03    0.18604E+03   -0.10589E+04  5928   0.274E+03
DAV:   2    -0.995532923633E+01   -0.19600E+03   -0.17437E+03 10496   0.262E+02
DAV:   3    -0.380696016199E+02   -0.28114E+02   -0.27600E+02  7420   0.118E+02    0.705E+00
RMM:   4    -0.375278225500E+02    0.54178E+00   -0.91088E+00  5929   0.261E+01    0.407E+00
RMM:   5    -0.368383865356E+02    0.68944E+00   -0.25879E+00  5930   0.110E+01    0.688E-01
RMM:   6    -0.368406609143E+02   -0.22744E-02   -0.82666E-02  6386   0.202E+00    0.496E-01
RMM:   7    -0.368320035814E+02    0.86573E-02   -0.30587E-02  5949   0.152E+00    0.321E-01
RMM:   8    -0.368274088873E+02    0.45947E-02   -0.57299E-03  5930   0.505E-01    0.139E-01
RMM:   9    -0.368271405399E+02    0.26835E-03   -0.19634E-02  5928   0.829E-01    0.147E-01
RMM:  10    -0.368270220839E+02    0.11846E-03   -0.17954E-03  5928   0.309E-01    0.262E-02
RMM:  11    -0.368292499484E+02   -0.22279E-02   -0.74140E-04  5928   0.185E-01    0.417E-02
RMM:  12    -0.368297469258E+02   -0.49698E-03   -0.18905E-04  5948   0.918E-02    0.561E-03
RMM:  13    -0.368300255175E+02   -0.27859E-03   -0.50506E-05  6039   0.361E-02    0.258E-03
RMM:  14    -0.368301086035E+02   -0.83086E-04   -0.10550E-05  6003   0.137E-02    0.872E-04
RMM:  15    -0.368301229834E+02   -0.14380E-04   -0.20491E-06  5942   0.778E-03    0.256E-03
RMM:  16    -0.368301369279E+02   -0.13945E-04   -0.24842E-06  5928   0.104E-02    0.151E-03
RMM:  17    -0.368301430328E+02   -0.61049E-05   -0.25960E-07  5928   0.313E-03    0.477E-04
RMM:  18    -0.368301441979E+02   -0.11651E-05   -0.28179E-08  5997   0.136E-03    0.837E-05
RMM:  19    -0.368301449184E+02   -0.72048E-06   -0.95440E-09  5294   0.420E-04    0.121E-05
RMM:  20    -0.368301449559E+02   -0.37563E-07   -0.57528E-10  4483   0.124E-04    0.198E-05
RMM:  21    -0.368301449671E+02   -0.11173E-07   -0.17090E-10  4293   0.784E-05    0.821E-06
RMM:  22    -0.368301449669E+02    0.24932E-09   -0.20416E-11  3881   0.495E-05    0.476E-07
RMM:  23    -0.368301449674E+02   -0.51989E-09   -0.18173E-11  3632   0.391E-05    0.154E-06
RMM:  24    -0.368301449674E+02   -0.31491E-10   -0.86527E-12  3207   0.300E-05
   1 F= -.36830145E+02 E0= -.36830145E+02  d E =-.368301E+02
       N       E                     dE             d eps       ncg     rms          rms(c)
DAV:   1    -0.368301446693E+02    0.29806E-06   -0.29677E-05  6336   0.509E-02    0.101E-03
RMM:   2    -0.368301446971E+02   -0.27772E-07   -0.47462E-07  5965   0.606E-03    0.732E-04
RMM:   3    -0.368301446933E+02    0.38381E-08   -0.79307E-08  5979   0.226E-03    0.198E-04
RMM:   4    -0.368301446897E+02    0.35263E-08   -0.55656E-09  6097   0.586E-04    0.572E-05
RMM:   5    -0.368301446912E+02   -0.14896E-08   -0.36155E-10  4342   0.139E-04    0.237E-05
RMM:   6    -0.368301446909E+02    0.33072E-09   -0.42024E-11  3757   0.678E-05    0.381E-06
RMM:   7    -0.368301446908E+02    0.13756E-09   -0.25652E-11  3748   0.553E-05    0.399E-06
RMM:   8    -0.368301446910E+02   -0.23306E-09   -0.13270E-11  3260   0.367E-05    0.161E-06
RMM:   9    -0.368301446909E+02    0.77080E-10   -0.52605E-12  2976   0.285E-05
   2 F= -.36830145E+02 E0= -.36830145E+02  d E =0.276505E-06
       N       E                     dE             d eps       ncg     rms          rms(c)
DAV:   1    -0.368301450016E+02   -0.31058E-06   -0.18135E-05  6880   0.398E-02    0.790E-04
RMM:   2    -0.368301450086E+02   -0.70625E-08   -0.28134E-07  5958   0.473E-03    0.571E-04
RMM:   3    -0.368301449951E+02    0.13543E-07   -0.47647E-08  5971   0.175E-03    0.150E-04
RMM:   4    -0.368301449955E+02   -0.43451E-09   -0.32507E-09  6073   0.452E-04    0.444E-05
RMM:   5    -0.368301449948E+02    0.67826E-09   -0.20814E-10  4053   0.109E-04    0.185E-05
RMM:   6    -0.368301449948E+02    0.55707E-11   -0.22624E-11  3700   0.586E-05
   3 F= -.36830145E+02 E0= -.36830145E+02  d E =-.303926E-06
       N       E                     dE             d eps       ncg     rms          rms(c)
DAV:   1    -0.368301449944E+02    0.40382E-09    0.52624E-09  4788   0.664E-05    0.388E-06
RMM:   2    -0.368301449949E+02   -0.47044E-09    0.25550E-13  2509   0.232E-05    0.240E-06
RMM:   3    -0.368301449949E+02   -0.33197E-10   -0.37192E-12  2699   0.260E-05    0.170E-07
RMM:   4    -0.368301449949E+02    0.24556E-10   -0.10191E-12  2372   0.242E-05    0.128E-07
RMM:   5    -0.368301449949E+02    0.21373E-10   -0.62403E-13  2209   0.221E-05
   4 F= -.36830145E+02 E0= -.36830145E+02  d E =-.594582E-10
       N       E                     dE             d eps       ncg     rms          rms(c)
DAV:   1    -0.368301449943E+02    0.63164E-09    0.52894E-09  4544   0.406E-05    0.418E-07
RMM:   2    -0.368301449948E+02   -0.50068E-09    0.32871E-13  1443   0.123E-05    0.260E-07
RMM:   3    -0.368301449948E+02    0.36152E-10    0.79443E-14  1423   0.126E-05    0.197E-08
RMM:   4    -0.368301449947E+02    0.10004E-10   -0.22628E-13  1387   0.127E-05    0.130E-08
RMM:   5    -0.368301449947E+02   -0.26148E-11   -0.44569E-13  1375   0.125E-05
   5 F= -.36830145E+02 E0= -.36830145E+02  d E =0.153136E-09
