gr                                      
           1
     4.401038    0.000000    0.000000
     0.000000    2.455481    0.000000
     0.000000    0.000000   19.509990
   C 
   4
Direct configuration=     1
   0.99938979  0.00000000  0.00000000
   0.16727688  0.50000000  0.00000000
   0.49938979  0.50000000  0.00000000
   0.66727688  0.00000000  0.00000000
Direct configuration=     2
   0.99940160  0.00000000  0.00000000
   0.16726507  0.50000000 -0.00000000
   0.49940160  0.50000000  0.00000000
   0.66726507 -0.00000000 -0.00000000
Direct configuration=     3
   0.99939236  0.00000000  0.00000000
   0.16727431  0.50000000 -0.00000000
   0.49939236  0.50000000  0.00000000
   0.66727431 -0.00000000 -0.00000000
Direct configuration=     4
   0.99939234  0.00000000  0.00000000
   0.16727432  0.50000000 -0.00000000
   0.49939234  0.50000000  0.00000000
   0.66727432 -0.00000000 -0.00000000
Direct configuration=     5
   0.99939235  0.00000000  0.00000000
   0.16727431  0.50000000 -0.00000000
   0.49939235  0.50000000  0.00000000
   0.66727431  0.00000000 -0.00000000
