    4    4  400    1
  0.5270948E+02  0.4381165E-09  0.2457075E-09  0.1958577E-08  0.5000000E-15
  1.000000000000000E-004
  CAR 
 gr                                      
     16    247     12
 
  0.0000000E+00  0.0000000E+00  0.0000000E+00  0.1157407E-02
    1      -22.078915
    2      -17.259849
    3      -15.831027
    4      -10.224034
    5       -8.801205
    6       -6.008618
    7       -5.726596
    8       -5.337627
    9       -1.186969
   10        0.545004
   11        1.343026
   12        1.736447
 
  0.4166667E-01  0.0000000E+00  0.0000000E+00  0.2314815E-02
    1      -22.069162
    2      -17.377645
    3      -15.698253
    4      -10.212462
    5       -8.791768
    6       -6.052922
    7       -5.746638
    8       -5.396264
    9       -1.112619
   10        0.558194
   11        1.356410
   12        1.749999
 
  0.8333333E-01  0.0000000E+00  0.0000000E+00  0.2314815E-02
    1      -22.039908
    2      -17.650485
    3      -15.380559
    4      -10.177766
    5       -8.763505
    6       -6.183719
    7       -5.805724
    8       -5.560353
    9       -0.901544
   10        0.597774
   11        1.396556
   12        1.790657
 
  0.1250000E+00  0.0000000E+00  0.0000000E+00  0.2314815E-02
    1      -21.991174
    2      -17.980372
    3      -14.976167
    4      -10.120002
    5       -8.716569
    6       -6.395070
    7       -5.900890
    8       -5.802721
    9       -0.581392
   10        0.663765
   11        1.463451
   12        1.858426
 
  0.1666667E+00  0.0000000E+00  0.0000000E+00  0.2314815E-02
    1      -21.922994
    2      -18.324843
    3      -14.527930
    4      -10.039271
    5       -8.651221
    6       -6.678300
    7       -6.095002
    8       -6.027689
    9       -0.181332
   10        0.756190
   11        1.557066
   12        1.953309
 
  0.2083333E+00  0.0000000E+00  0.0000000E+00  0.2314815E-02
    1      -21.835420
    2      -18.667485
    3      -14.052822
    4       -9.935713
    5       -8.567833
    6       -7.023289
    7       -6.414942
    8       -6.180748
    9        0.275225
   10        0.875066
   11        1.677359
   12        2.075310
 
  0.2500000E+00  0.0000000E+00  0.0000000E+00  0.2314815E-02
    1      -21.728517
    2      -19.001120
    3      -13.558764
    4       -9.809521
    5       -8.466908
    6       -7.419633
    7       -6.747054
    8       -6.354326
    9        0.771227
   10        1.020395
   11        1.824263
   12        2.224430
 
  0.2916667E+00  0.0000000E+00  0.0000000E+00  0.2314815E-02
    1      -21.602369
    2      -19.322142
    3      -13.050317
    4       -9.660942
    5       -8.349087
    6       -7.857450
    7       -7.080964
    8       -6.542755
    9        1.192161
   10        1.294235
   11        1.997670
   12        2.400668
 
  0.3333333E+00  0.0000000E+00  0.0000000E+00  0.2314815E-02
    1      -21.457080
    2      -19.628514
    3      -12.530709
    4       -9.490293
    5       -8.327824
    6       -8.215172
    7       -7.409713
    8       -6.740741
    9        1.390334
   10        1.834481
   11        2.197398
   12        2.604020
 
  0.3750000E+00  0.0000000E+00  0.0000000E+00  0.2314815E-02
    1      -21.292774
    2      -19.918967
    3      -12.002669
    4       -9.297970
    5       -8.822967
    6       -8.066155
    7       -7.728546
    8       -6.943526
    9        1.614866
   10        2.382799
   11        2.423101
   12        2.834478
 
  0.4166667E+00  0.0000000E+00  0.0000000E+00  0.2314815E-02
    1      -21.109602
    2      -20.192651
    3      -11.468833
    4       -9.336203
    5       -9.084470
    6       -8.034133
    7       -7.903247
    8       -7.146946
    9        1.865693
   10        2.674008
   11        2.925075
   12        3.092031
 
  0.4583333E+00  0.0000000E+00  0.0000000E+00  0.2314815E-02
    1      -20.907750
    2      -20.448958
    3      -10.931968
    4       -9.861861
    5       -8.850421
    6       -8.324078
    7       -7.727915
    8       -7.347424
    9        2.142728
   10        2.774916
   11        2.947853
   12        3.368320
 
  0.5000000E+00  0.0000000E+00  0.0000000E+00  0.1157407E-02
    1      -20.687442
    2      -20.687442
    3      -10.395143
    4      -10.395143
    5       -8.596617
    6       -8.596617
    7       -7.541931
    8       -7.541931
    9        2.445856
   10        2.445856
   11        3.233578
   12        3.233578
 
  0.0000000E+00  0.2777778E-01  0.0000000E+00  0.2314815E-02
    1      -22.065084
    2      -17.247842
    3      -15.819233
    4      -10.207620
    5       -8.864542
    6       -6.034671
    7       -5.785677
    8       -5.320940
    9       -1.189394
   10        0.563741
   11        1.361952
   12        1.755611
 
  0.4166667E-01  0.2777778E-01  0.0000000E+00  0.4629630E-02
    1      -22.055332
    2      -17.365520
    3      -15.686622
    4      -10.196052
    5       -8.855093
    6       -6.079678
    7       -5.804411
    8       -5.379689
    9       -1.115032
   10        0.576931
   11        1.375335
   12        1.769163
 
  0.8333333E-01  0.2777778E-01  0.0000000E+00  0.4629630E-02
    1      -22.026083
    2      -17.638139
    3      -15.369283
    4      -10.161367
    5       -8.826795
    6       -6.211297
    7       -5.860970
    8       -5.544047
    9       -0.903995
   10        0.616512
   11        1.415480
   12        1.809822
 
  0.1250000E+00  0.2777778E-01  0.0000000E+00  0.4629630E-02
    1      -21.977356
    2      -17.967813
    3      -14.965331
    4      -10.103623
    5       -8.779799
    6       -6.422008
    7       -5.954259
    8       -5.786704
    9       -0.584065
   10        0.682503
   11        1.482371
   12        1.877591
 
  0.1666667E+00  0.2777778E-01  0.0000000E+00  0.4629630E-02
    1      -21.909188
    2      -18.312099
    3      -14.517608
    4      -10.022919
    5       -8.714359
    6       -6.702954
    7       -6.080364
    8       -6.079210
    9       -0.184495
   10        0.774930
   11        1.575982
   12        1.972474
 
  0.2083333E+00  0.2777778E-01  0.0000000E+00  0.4629630E-02
    1      -21.821629
    2      -18.654581
    3      -14.043100
    4       -9.919396
    5       -8.630845
    6       -7.044564
    7       -6.399290
    8       -6.233685
    9        0.271280
   10        0.893810
   11        1.696270
   12        2.094476
 
  0.2500000E+00  0.2777778E-01  0.0000000E+00  0.4629630E-02
    1      -21.714744
    2      -18.988078
    3      -13.549743
    4       -9.793246
    5       -8.529749
    6       -7.437039
    7       -6.731469
    8       -6.408115
    9        0.766224
   10        1.039143
   11        1.843169
   12        2.243598
 
  0.2916667E+00  0.2777778E-01  0.0000000E+00  0.4629630E-02
    1      -21.588619
    2      -19.308981
    3      -13.042118
    4       -9.644717
    5       -8.411703
    6       -7.870939
    7       -7.065388
    8       -6.597687
    9        1.210915
   10        1.287936
   11        2.016572
   12        2.419839
 
  0.3333333E+00  0.2777778E-01  0.0000000E+00  0.4629630E-02
    1      -21.443357
    2      -19.615249
    3      -12.523478
    4       -9.474124
    5       -8.337612
    6       -8.277500
    7       -7.394108
    8       -6.796906
    9        1.409095
   10        1.826712
   11        2.216299
   12        2.623194
 
  0.3750000E+00  0.2777778E-01  0.0000000E+00  0.4629630E-02
    1      -21.279083
    2      -19.905613
    3      -11.996580
    4       -9.281864
    5       -8.829402
    6       -8.128117
    7       -7.712886
    8       -7.000888
    9        1.633636
   10        2.373564
   11        2.442009
   12        2.853657
 
  0.4166667E+00  0.2777778E-01  0.0000000E+00  0.4629630E-02
    1      -21.095949
    2      -20.179218
    3      -11.464090
    4       -9.339681
    5       -9.068434
    6       -8.018404
    7       -7.964750
    8       -7.205404
    9        1.884473
   10        2.692931
   11        2.915188
   12        3.111215
 
  0.4583333E+00  0.2777778E-01  0.0000000E+00  0.4629630E-02
    1      -20.894140
    2      -20.435459
    3      -10.928815
    4       -9.862777
    5       -8.834459
    6       -8.308273
    7       -7.788851
    8       -7.406848
    9        2.161521
   10        2.793752
   11        2.966787
   12        3.370317
 
  0.5000000E+00  0.2777778E-01  0.0000000E+00  0.2314815E-02
    1      -20.673883
    2      -20.673883
    3      -10.393862
    4      -10.393862
    5       -8.580733
    6       -8.580733
    7       -7.602178
    8       -7.602178
    9        2.464666
   10        2.464666
   11        3.252094
   12        3.252094
 
  0.0000000E+00  0.5555556E-01  0.0000000E+00  0.2314815E-02
    1      -22.023601
    2      -17.211824
    3      -15.783993
    4      -10.158414
    5       -9.049419
    6       -6.112441
    7       -5.958055
    8       -5.270897
    9       -1.197474
   10        0.619951
   11        1.418723
   12        1.813105
 
  0.4166667E-01  0.5555556E-01  0.0000000E+00  0.4629630E-02
    1      -22.013853
    2      -17.329153
    3      -15.651867
    4      -10.146857
    5       -9.039931
    6       -6.162299
    7       -5.970161
    8       -5.329997
    9       -1.123072
   10        0.633142
   11        1.432104
   12        1.826658
 
  0.8333333E-01  0.5555556E-01  0.0000000E+00  0.4629630E-02
    1      -21.984618
    2      -17.601116
    3      -15.335595
    4      -10.112208
    5       -9.011515
    6       -6.299195
    7       -6.016415
    8       -5.495180
    9       -0.912143
   10        0.672721
   11        1.472242
   12        1.867316
 
  0.1250000E+00  0.5555556E-01  0.0000000E+00  0.4629630E-02
    1      -21.935915
    2      -17.930156
    3      -14.932978
    4      -10.054523
    5       -8.964313
    6       -6.508686
    7       -6.103462
    8       -5.738722
    9       -0.592887
   10        0.738713
   11        1.539123
   12        1.935086
 
  0.1666667E+00  0.5555556E-01  0.0000000E+00  0.4629630E-02
    1      -21.867781
    2      -18.273885
    3      -14.486822
    4       -9.973900
    5       -8.898568
    6       -6.782514
    7       -6.227816
    8       -6.031917
    9       -0.194818
   10        0.831142
   11        1.632720
   12        2.029970
 
  0.2083333E+00  0.5555556E-01  0.0000000E+00  0.4629630E-02
    1      -21.780266
    2      -18.615886
    3      -14.014145
    4       -9.870482
    5       -8.814629
    6       -7.113373
    7       -6.382576
    8       -6.352425
    9        0.258566
   10        0.950027
   11        1.752992
   12        2.151975
 
  0.2500000E+00  0.5555556E-01  0.0000000E+00  0.4629630E-02
    1      -21.673437
    2      -18.948969
    3      -13.522937
    4       -9.744460
    5       -8.712964
    6       -7.493507
    7       -6.684801
    8       -6.560306
    9        0.750275
   10        1.095370
   11        1.899875
   12        2.301101
 
  0.2916667E+00  0.5555556E-01  0.0000000E+00  0.4629630E-02
    1      -21.547382
    2      -19.269513
    3      -13.017841
    4       -9.596082
    5       -8.594174
    6       -7.914912
    7       -7.018746
    8       -6.754034
    9        1.267156
   10        1.268012
   11        2.073265
   12        2.477348
 
  0.3333333E+00  0.5555556E-01  0.0000000E+00  0.4629630E-02
    1      -21.402201
    2      -19.575470
    3      -12.502186
    4       -9.425663
    5       -8.459014
    6       -8.369801
    7       -7.347373
    8       -6.957599
    9        1.465353
   10        1.802265
   11        2.272990
   12        2.680711
 
  0.3750000E+00  0.5555556E-01  0.0000000E+00  0.4629630E-02
    1      -21.238024
    2      -19.865564
    3      -11.978819
    4       -9.233597
    5       -8.850949
    6       -8.308418
    7       -7.665985
    8       -7.165727
    9        1.689913
   10        2.344512
   11        2.498717
   12        2.911184
 
  0.4166667E+00  0.5555556E-01  0.0000000E+00  0.4629630E-02
    1      -21.055003
    2      -20.138935
    3      -11.450510
    4       -9.351877
    5       -9.020379
    6       -8.143531
    7       -7.971290
    8       -7.373985
    9        1.940772
   10        2.749691
   11        2.883485
   12        3.168764
 
  0.4583333E+00  0.5555556E-01  0.0000000E+00  0.4629630E-02
    1      -20.853325
    2      -20.394973
    3      -10.920185
    4       -9.866898
    5       -8.786631
    6       -8.260925
    7       -7.965751
    8       -7.578686
    9        2.217845
   10        2.850168
   11        3.023583
   12        3.363782
 
  0.5000000E+00  0.5555556E-01  0.0000000E+00  0.2314815E-02
    1      -20.633221
    2      -20.633221
    3      -10.391085
    4      -10.391085
    5       -8.533143
    6       -8.533143
    7       -7.776779
    8       -7.776779
    9        2.521026
   10        2.521026
   11        3.307381
   12        3.307381
 
  0.0000000E+00  0.8333333E-01  0.0000000E+00  0.2314815E-02
    1      -21.954500
    2      -17.151807
    3      -15.725751
    4      -10.076521
    5       -9.341879
    6       -6.240761
    7       -6.230671
    8       -5.187566
    9       -1.213626
   10        0.713634
   11        1.513316
   12        1.908930
 
  0.4166667E-01  0.8333333E-01  0.0000000E+00  0.4629630E-02
    1      -21.944761
    2      -17.268573
    3      -15.594426
    4      -10.064985
    5       -9.332313
    6       -6.325196
    7       -6.205336
    8       -5.247284
    9       -1.139142
   10        0.726822
   11        1.526692
   12        1.922482
 
  0.8333333E-01  0.8333333E-01  0.0000000E+00  0.4629630E-02
    1      -21.915549
    2      -17.539463
    3      -15.279946
    4      -10.030396
    5       -9.303657
    6       -6.473150
    7       -6.232416
    8       -5.413915
    9       -0.928375
   10        0.766397
   11        1.566819
   12        1.963140
 
  0.1250000E+00  0.8333333E-01  0.0000000E+00  0.4629630E-02
    1      -21.866886
    2      -17.867454
    3      -14.879604
    4       -9.972811
    5       -9.256038
    6       -6.678202
    7       -6.311780
    8       -5.659000
    9       -0.610265
   10        0.832382
   11        1.633680
   12        2.030909
 
  0.1666667E+00  0.8333333E-01  0.0000000E+00  0.4629630E-02
    1      -21.798809
    2      -18.210257
    3      -14.436145
    4       -9.892329
    5       -9.189675
    6       -6.937617
    7       -6.436029
    8       -5.953384
    9       -0.214782
   10        0.924806
   11        1.727252
   12        2.125794
 
  0.2083333E+00  0.8333333E-01  0.0000000E+00  0.4629630E-02
    1      -21.711368
    2      -18.551455
    3      -13.966646
    4       -9.789092
    5       -9.104879
    6       -7.247883
    7       -6.596009
    8       -6.274620
    9        0.234469
   10        1.043688
   11        1.847494
   12        2.247800
 
  0.2500000E+00  0.8333333E-01  0.0000000E+00  0.4629630E-02
    1      -21.604634
    2      -18.883843
    3      -13.479191
    4       -9.663291
    5       -9.002070
    6       -7.604538
    7       -6.782180
    8       -6.607325
    9        0.720583
   10        1.189034
   11        1.994345
   12        2.396930
 
  0.2916667E+00  0.8333333E-01  0.0000000E+00  0.4629630E-02
    1      -21.478692
    2      -19.203786
    3      -12.978542
    4       -9.515172
    5       -8.881787
    6       -8.002164
    7       -6.985740
    8       -6.941303
    9        1.231434
   10        1.360827
   11        2.167710
   12        2.573184
 
  0.3333333E+00  0.8333333E-01  0.0000000E+00  0.4629630E-02
    1      -21.333648
    2      -19.509222
    3      -12.468169
    4       -9.345050
    5       -8.744707
    6       -8.434660
    7       -7.269761
    8       -7.199211
    9        1.559037
   10        1.757788
   11        2.367426
   12        2.776556
 
  0.3750000E+00  0.8333333E-01  0.0000000E+00  0.4629630E-02
    1      -21.169632
    2      -19.798864
    3      -11.951094
    4       -9.153317
    5       -8.895682
    6       -8.591669
    7       -7.588075
    8       -7.416533
    9        1.783611
   10        2.291746
   11        2.593183
   12        3.007042
 
  0.4166667E+00  0.8333333E-01  0.0000000E+00  0.4629630E-02
    1      -20.986799
    2      -20.071844
    3      -11.430291
    4       -9.379055
    5       -8.940465
    6       -8.423707
    7       -7.893009
    8       -7.632902
    9        2.034485
   10        2.824397
   11        2.844253
   12        3.264632
 
  0.4583333E+00  0.8333333E-01  0.0000000E+00  0.4629630E-02
    1      -20.785341
    2      -20.327540
    3      -10.908929
    4       -9.879050
    5       -8.707111
    6       -8.242091
    7       -8.182235
    8       -7.844522
    9        2.311574
   10        2.943950
   11        3.118222
   12        3.327980
 
  0.5000000E+00  0.8333333E-01  0.0000000E+00  0.2314815E-02
    1      -20.565493
    2      -20.565493
    3      -10.390521
    4      -10.390521
    5       -8.454035
    6       -8.454035
    7       -8.048386
    8       -8.048386
    9        2.614774
   10        2.614774
   11        3.398125
   12        3.398125
 
  0.0000000E+00  0.1111111E+00  0.0000000E+00  0.2314815E-02
    1      -21.857843
    2      -17.067812
    3      -15.645343
    4       -9.962123
    5       -9.722585
    6       -6.585794
    7       -6.417641
    8       -5.071056
    9       -1.241880
   10        0.844785
   11        1.645691
   12        2.043086
 
  0.4166667E-01  0.1111111E+00  0.0000000E+00  0.4629630E-02
    1      -21.848114
    2      -17.183829
    3      -15.515127
    4       -9.950616
    5       -9.712878
    6       -6.638999
    7       -6.419748
    8       -5.131719
    9       -1.167238
   10        0.857968
   11        1.659061
   12        2.056637
 
  0.8333333E-01  0.1111111E+00  0.0000000E+00  0.4629630E-02
    1      -21.818936
    2      -17.453264
    3      -15.203191
    4       -9.916115
    5       -9.683790
    6       -6.772937
    7       -6.450046
    8       -5.300546
    9       -0.956638
   10        0.897530
   11        1.699168
   12        2.097293
 
  0.1250000E+00  0.1111111E+00  0.0000000E+00  0.4629630E-02
    1      -21.770329
    2      -17.779804
    3      -14.806159
    4       -9.858677
    5       -9.635424
    6       -6.963264
    7       -6.527849
    8       -5.547941
    9       -0.640165
   10        0.963494
   11        1.765997
   12        2.165058
 
  0.1666667E+00  0.1111111E+00  0.0000000E+00  0.4629630E-02
    1      -21.702331
    2      -18.121313
    3      -14.366690
    4       -9.778401
    5       -9.567951
    6       -7.200645
    7       -6.654395
    8       -5.844077
    9       -0.248466
   10        1.055894
   11        1.859525
   12        2.259940
 
  0.2083333E+00  0.1111111E+00  0.0000000E+00  0.4629630E-02
    1      -21.614996
    2      -18.461382
    3      -13.901954
    4       -9.675429
    5       -9.481616
    6       -7.480826
    7       -6.823302
    8       -6.166367
    9        0.194717
   10        1.174754
   11        1.979716
   12        2.381945
 
  0.2500000E+00  0.1111111E+00  0.0000000E+00  0.4629630E-02
    1      -21.508394
    2      -18.792791
    3      -13.420188
    4       -9.549950
    5       -9.376747
    6       -7.801480
    7       -7.024550
    8       -6.499528
    9        0.672608
   10        1.320081
   11        2.126512
   12        2.531076
 
  0.2916667E+00  0.1111111E+00  0.0000000E+00  0.4629630E-02
    1      -21.382612
    2      -19.111885
    3      -12.926355
    4       -9.402213
    5       -9.253763
    6       -8.160644
    7       -7.246991
    8       -6.833527
    9        1.173324
   10        1.491862
   11        2.299827
   12        2.707334
 
  0.3333333E+00  0.1111111E+00  0.0000000E+00  0.4629630E-02
    1      -21.237760
    2      -19.416585
    3      -12.424177
    4       -9.232528
    5       -9.113185
    6       -8.555580
    7       -7.480378
    8       -7.161712
    9        1.687975
   10        1.690063
   11        2.499519
   12        2.910714
 
  0.3750000E+00  0.1111111E+00  0.0000000E+00  0.4629630E-02
    1      -21.073970
    2      -19.705588
    3      -11.916989
    4       -9.041285
    5       -8.982277
    6       -8.955653
    7       -7.716517
    8       -7.479569
    9        1.914629
   10        2.209288
   11        2.725313
   12        3.141210
 
  0.4166667E+00  0.1111111E+00  0.0000000E+00  0.4629630E-02
    1      -20.891403
    2      -19.978014
    3      -11.408150
    4       -9.435672
    5       -8.828972
    6       -8.781958
    7       -7.949439
    8       -7.783941
    9        2.165492
   10        2.730262
   11        2.976541
   12        3.398815
 
  0.4583333E+00  0.1111111E+00  0.0000000E+00  0.4629630E-02
    1      -20.690256
    2      -20.233232
    3      -10.901289
    4       -9.910225
    5       -8.596198
    6       -8.593073
    7       -8.174978
    8       -8.072556
    9        2.442563
   10        3.074881
   11        3.238975
   12        3.250672
 
  0.5000000E+00  0.1111111E+00  0.0000000E+00  0.2314815E-02
    1      -20.470767
    2      -20.470767
    3      -10.400460
    4      -10.400460
    5       -8.390223
    6       -8.390223
    7       -8.343732
    8       -8.343732
    9        2.745737
   10        2.745737
   11        3.516683
   12        3.516683
 
  0.0000000E+00  0.1388889E+00  0.0000000E+00  0.2314815E-02
    1      -21.733714
    2      -16.959870
    3      -15.544175
    4      -10.170344
    5       -9.815479
    6       -7.004702
    7       -6.640261
    8       -4.921524
    9       -1.287817
   10        1.013391
   11        1.815788
   12        2.215574
 
  0.4166667E-01  0.1388889E+00  0.0000000E+00  0.4629630E-02
    1      -21.724000
    2      -17.074995
    3      -15.415369
    4      -10.160396
    5       -9.804013
    6       -7.050689
    7       -6.645072
    8       -4.983560
    9       -1.212872
   10        1.026566
   11        1.829148
   12        2.229124
 
  0.8333333E-01  0.1388889E+00  0.0000000E+00  0.4629630E-02
    1      -21.694864
    2      -17.342646
    3      -15.106794
    4      -10.130568
    5       -9.769632
    6       -7.174436
    7       -6.672612
    8       -5.155540
    9       -1.002331
   10        1.066103
   11        1.869223
   12        2.269775
 
  0.1250000E+00  0.1388889E+00  0.0000000E+00  0.4629630E-02
    1      -21.646329
    2      -17.667355
    3      -14.714294
    4      -10.080912
    5       -9.712394
    6       -7.353809
    7       -6.741616
    8       -5.406188
    9       -0.687962
   10        1.132029
   11        1.936001
   12        2.337533
 
  0.1666667E+00  0.1388889E+00  0.0000000E+00  0.4629630E-02
    1      -21.578436
    2      -18.007202
    3      -14.280428
    4      -10.011515
    5       -9.632399
    6       -7.574656
    7       -6.860398
    8       -5.704737
    9       -0.301354
   10        1.224379
   11        2.029458
   12        2.432406
 
  0.2083333E+00  0.1388889E+00  0.0000000E+00  0.4629630E-02
    1      -21.491237
    2      -18.345810
    3      -13.822512
    4       -9.922496
    5       -9.529787
    6       -7.829295
    7       -7.028390
    8       -6.028434
    9        0.133604
   10        1.343184
   11        2.149560
   12        2.554403
 
  0.2500000E+00  0.1388889E+00  0.0000000E+00  0.4629630E-02
    1      -21.384804
    2      -18.675946
    3      -13.349041
    4       -9.813999
    5       -9.404751
    6       -8.114076
    7       -7.238955
    8       -6.362167
    9        0.600353
   10        1.488458
   11        2.296257
   12        2.703528
 
  0.2916667E+00  0.1388889E+00  0.0000000E+00  0.4629630E-02
    1      -21.259229
    2      -18.993935
    3      -12.865331
    4       -9.686196
    5       -9.257534
    6       -8.428113
    7       -7.481360
    8       -6.696138
    9        1.087347
   10        1.660191
   11        2.469475
   12        2.879783
 
  0.3333333E+00  0.1388889E+00  0.0000000E+00  0.4629630E-02
    1      -21.114624
    2      -19.297676
    3      -12.375567
    4       -9.539272
    5       -9.088448
    6       -8.772135
    7       -7.742769
    8       -7.023900
    9        1.586103
   10        1.858347
   11        2.669099
   12        3.083166
 
  0.3750000E+00  0.1388889E+00  0.0000000E+00  0.4629630E-02
    1      -20.951128
    2      -19.585847
    3      -11.883682
    4       -9.373431
    5       -9.146939
    6       -8.897879
    7       -8.010549
    8       -7.341091
    9        2.082868
   10        2.089923
   11        2.894915
   12        3.313669
 
  0.4166667E+00  0.1388889E+00  0.0000000E+00  0.4629630E-02
    1      -20.768906
    2      -19.857553
    3      -11.393787
    4       -9.551843
    5       -9.188897
    6       -8.686309
    7       -8.274371
    8       -7.644662
    9        2.333678
   10        2.593029
   11        3.146390
   12        3.571282
 
  0.4583333E+00  0.1388889E+00  0.0000000E+00  0.4629630E-02
    1      -20.568162
    2      -20.112147
    3      -10.910423
    4       -9.983968
    5       -8.985959
    6       -8.527220
    7       -8.454337
    8       -7.932415
    9        2.610683
   10        3.089388
   11        3.242793
   12        3.420874
 
  0.5000000E+00  0.1388889E+00  0.0000000E+00  0.2314815E-02
    1      -20.349141
    2      -20.349141
    3      -10.438655
    4      -10.438655
    5       -8.765086
    6       -8.765086
    7       -8.202720
    8       -8.202720
    9        2.913768
   10        2.913768
   11        3.554092
   12        3.554093
 
  0.0000000E+00  0.1666667E+00  0.0000000E+00  0.2314815E-02
    1      -21.582230
    2      -16.828022
    3      -15.424593
    4      -10.664387
    5       -9.636940
    6       -7.470137
    7       -6.904999
    8       -4.739177
    9       -1.358363
   10        1.219430
   11        2.023524
   12        2.426395
 
  0.4166667E-01  0.1666667E+00  0.0000000E+00  0.4629630E-02
    1      -21.572533
    2      -16.942183
    3      -15.297501
    4      -10.654024
    5       -9.625526
    6       -7.514786
    7       -6.906135
    8       -4.803187
    9       -1.282831
   10        1.232594
   11        2.036867
   12        2.439942
 
  0.8333333E-01  0.1666667E+00  0.0000000E+00  0.4629630E-02
    1      -21.543451
    2      -17.207799
    3      -14.993253
    4      -10.622921
    5       -9.591302
    6       -7.636317
    7       -6.921412
    8       -4.979617
    9       -1.071994
   10        1.272094
   11        2.076890
   12        2.480585
 
  0.1250000E+00  0.1666667E+00  0.0000000E+00  0.4629630E-02
    1      -21.495005
    2      -17.530323
    3      -14.606892
    4      -10.571032
    5       -9.534329
    6       -7.812526
    7       -6.971206
    8       -5.234733
    9       -0.760071
   10        1.337959
   11        2.143581
   12        2.548331
 
  0.1666667E+00  0.1666667E+00  0.0000000E+00  0.4629630E-02
    1      -21.427237
    2      -17.868142
    3      -14.180890
    4      -10.498271
    5       -9.454703
    6       -8.026639
    7       -7.068733
    8       -5.536487
    9       -0.379907
   10        1.430226
   11        2.236916
   12        2.643187
 
  0.2083333E+00  0.1666667E+00  0.0000000E+00  0.4629630E-02
    1      -21.340204
    2      -18.204944
    3      -13.732825
    4      -10.404484
    5       -9.352568
    6       -8.268246
    7       -7.218710
    8       -5.861971
    9        0.044503
   10        1.548933
   11        2.356862
   12        2.765163
 
  0.2500000E+00  0.1666667E+00  0.0000000E+00  0.4629630E-02
    1      -21.233981
    2      -18.533500
    3      -13.271670
    4      -10.289426
    5       -9.228114
    6       -8.531243
    7       -7.419329
    8       -6.196358
    9        0.496975
   10        1.694104
   11        2.503371
   12        2.914270
 
  0.2916667E+00  0.1666667E+00  0.0000000E+00  0.4629630E-02
    1      -21.108661
    2      -18.850113
    3      -12.803426
    4      -10.152712
    5       -9.081587
    6       -8.812655
    7       -7.663813
    8       -6.530188
    9        0.966457
   10        1.865737
   11        2.676379
   12        3.090513
 
  0.3333333E+00  0.1666667E+00  0.0000000E+00  0.4629630E-02
    1      -20.964362
    2      -19.152660
    3      -12.333210
    4       -9.993766
    5       -9.112150
    6       -8.913296
    7       -7.941602
    8       -6.857299
    9        1.444991
   10        2.063798
   11        2.875801
   12        3.293889
 
  0.3750000E+00  0.1666667E+00  0.0000000E+00  0.4629630E-02
    1      -20.801228
    2      -19.439797
    3      -11.866159
    4       -9.811787
    5       -9.431671
    6       -8.723623
    7       -8.239532
    8       -7.173535
    9        1.926459
   10        2.288226
   11        3.101508
   12        3.524391
 
  0.4166667E+00  0.1666667E+00  0.0000000E+00  0.4629630E-02
    1      -20.619434
    2      -19.710606
    3      -11.407841
    4       -9.774614
    5       -9.605787
    6       -8.543346
    7       -8.513044
    8       -7.475988
    9        2.405859
   10        2.538935
   11        3.353253
   12        3.782014
 
  0.4583333E+00  0.1666667E+00  0.0000000E+00  0.4629630E-02
    1      -20.419189
    2      -19.964424
    3      -10.964285
    4      -10.144198
    5       -9.374852
    6       -8.839793
    7       -8.282150
    8       -7.762557
    9        2.815816
   10        2.878851
   11        3.447556
   12        3.628588
 
  0.5000000E+00  0.1666667E+00  0.0000000E+00  0.2314815E-02
    1      -20.200748
    2      -20.200748
    3      -10.541475
    4      -10.541475
    5       -9.118855
    6       -9.118855
    7       -8.031677
    8       -8.031677
    9        3.118741
   10        3.118741
   11        3.341284
   12        3.341284
 