Automatically generated mesh
     247
Reciprocal lattice
    0.00000000000000    0.00000000000000    0.00000000000000             1
    0.04166666666667    0.00000000000000    0.00000000000000             2
    0.08333333333333    0.00000000000000    0.00000000000000             2
    0.12500000000000    0.00000000000000    0.00000000000000             2
    0.16666666666667    0.00000000000000    0.00000000000000             2
    0.20833333333333    0.00000000000000    0.00000000000000             2
    0.25000000000000    0.00000000000000    0.00000000000000             2
    0.29166666666667    0.00000000000000    0.00000000000000             2
    0.33333333333333    0.00000000000000    0.00000000000000             2
    0.37500000000000    0.00000000000000    0.00000000000000             2
    0.41666666666667    0.00000000000000    0.00000000000000             2
    0.45833333333333    0.00000000000000    0.00000000000000             2
    0.50000000000000    0.00000000000000    0.00000000000000             1
    0.00000000000000    0.02777777777778    0.00000000000000             2
    0.04166666666667    0.02777777777778    0.00000000000000             4
    0.08333333333333    0.02777777777778    0.00000000000000             4
    0.12500000000000    0.02777777777778    0.00000000000000             4
    0.16666666666667    0.02777777777778    0.00000000000000             4
    0.20833333333333    0.02777777777778    0.00000000000000             4
    0.25000000000000    0.02777777777778    0.00000000000000             4
    0.29166666666667    0.02777777777778    0.00000000000000             4
    0.33333333333333    0.02777777777778    0.00000000000000             4
    0.37500000000000    0.02777777777778    0.00000000000000             4
    0.41666666666667    0.02777777777778    0.00000000000000             4
    0.45833333333333    0.02777777777778    0.00000000000000             4
    0.50000000000000    0.02777777777778    0.00000000000000             2
    0.00000000000000    0.05555555555556    0.00000000000000             2
    0.04166666666667    0.05555555555556    0.00000000000000             4
    0.08333333333333    0.05555555555556    0.00000000000000             4
    0.12500000000000    0.05555555555556    0.00000000000000             4
    0.16666666666667    0.05555555555556    0.00000000000000             4
    0.20833333333333    0.05555555555556    0.00000000000000             4
    0.25000000000000    0.05555555555556    0.00000000000000             4
    0.29166666666667    0.05555555555556    0.00000000000000             4
    0.33333333333333    0.05555555555556    0.00000000000000             4
    0.37500000000000    0.05555555555556    0.00000000000000             4
    0.41666666666667    0.05555555555556    0.00000000000000             4
    0.45833333333333    0.05555555555556    0.00000000000000             4
    0.50000000000000    0.05555555555556    0.00000000000000             2
    0.00000000000000    0.08333333333333    0.00000000000000             2
    0.04166666666667    0.08333333333333    0.00000000000000             4
    0.08333333333333    0.08333333333333    0.00000000000000             4
    0.12500000000000    0.08333333333333    0.00000000000000             4
    0.16666666666667    0.08333333333333    0.00000000000000             4
    0.20833333333333    0.08333333333333    0.00000000000000             4
    0.25000000000000    0.08333333333333    0.00000000000000             4
    0.29166666666667    0.08333333333333    0.00000000000000             4
    0.33333333333333    0.08333333333333    0.00000000000000             4
    0.37500000000000    0.08333333333333    0.00000000000000             4
    0.41666666666667    0.08333333333333    0.00000000000000             4
    0.45833333333333    0.08333333333333    0.00000000000000             4
    0.50000000000000    0.08333333333333    0.00000000000000             2
    0.00000000000000    0.11111111111111    0.00000000000000             2
    0.04166666666667    0.11111111111111    0.00000000000000             4
    0.08333333333333    0.11111111111111    0.00000000000000             4
    0.12500000000000    0.11111111111111    0.00000000000000             4
    0.16666666666667    0.11111111111111    0.00000000000000             4
    0.20833333333333    0.11111111111111    0.00000000000000             4
    0.25000000000000    0.11111111111111    0.00000000000000             4
    0.29166666666667    0.11111111111111    0.00000000000000             4
    0.33333333333333    0.11111111111111    0.00000000000000             4
    0.37500000000000    0.11111111111111    0.00000000000000             4
    0.41666666666667    0.11111111111111    0.00000000000000             4
    0.45833333333333    0.11111111111111    0.00000000000000             4
    0.50000000000000    0.11111111111111    0.00000000000000             2
    0.00000000000000    0.13888888888889    0.00000000000000             2
    0.04166666666667    0.13888888888889    0.00000000000000             4
    0.08333333333333    0.13888888888889    0.00000000000000             4
    0.12500000000000    0.13888888888889    0.00000000000000             4
    0.16666666666667    0.13888888888889    0.00000000000000             4
    0.20833333333333    0.13888888888889    0.00000000000000             4
    0.25000000000000    0.13888888888889    0.00000000000000             4
    0.29166666666667    0.13888888888889    0.00000000000000             4
    0.33333333333333    0.13888888888889    0.00000000000000             4
    0.37500000000000    0.13888888888889    0.00000000000000             4
    0.41666666666667    0.13888888888889    0.00000000000000             4
    0.45833333333333    0.13888888888889    0.00000000000000             4
    0.50000000000000    0.13888888888889    0.00000000000000             2
    0.00000000000000    0.16666666666667    0.00000000000000             2
    0.04166666666667    0.16666666666667    0.00000000000000             4
    0.08333333333333    0.16666666666667    0.00000000000000             4
    0.12500000000000    0.16666666666667    0.00000000000000             4
    0.16666666666667    0.16666666666667    0.00000000000000             4
    0.20833333333333    0.16666666666667    0.00000000000000             4
    0.25000000000000    0.16666666666667    0.00000000000000             4
    0.29166666666667    0.16666666666667    0.00000000000000             4
    0.33333333333333    0.16666666666667    0.00000000000000             4
    0.37500000000000    0.16666666666667    0.00000000000000             4
    0.41666666666667    0.16666666666667    0.00000000000000             4
    0.45833333333333    0.16666666666667    0.00000000000000             4
    0.50000000000000    0.16666666666667    0.00000000000000             2
    0.00000000000000    0.19444444444444    0.00000000000000             2
    0.04166666666667    0.19444444444444    0.00000000000000             4
    0.08333333333333    0.19444444444444    0.00000000000000             4
    0.12500000000000    0.19444444444444    0.00000000000000             4
    0.16666666666667    0.19444444444444    0.00000000000000             4
    0.20833333333333    0.19444444444444    0.00000000000000             4
    0.25000000000000    0.19444444444444    0.00000000000000             4
    0.29166666666667    0.19444444444444    0.00000000000000             4
    0.33333333333333    0.19444444444444    0.00000000000000             4
    0.37500000000000    0.19444444444444    0.00000000000000             4
    0.41666666666667    0.19444444444444    0.00000000000000             4
    0.45833333333333    0.19444444444444    0.00000000000000             4
    0.50000000000000    0.19444444444444    0.00000000000000             2
    0.00000000000000    0.22222222222222    0.00000000000000             2
    0.04166666666667    0.22222222222222    0.00000000000000             4
    0.08333333333333    0.22222222222222    0.00000000000000             4
    0.12500000000000    0.22222222222222    0.00000000000000             4
    0.16666666666667    0.22222222222222    0.00000000000000             4
    0.20833333333333    0.22222222222222    0.00000000000000             4
    0.25000000000000    0.22222222222222    0.00000000000000             4
    0.29166666666667    0.22222222222222    0.00000000000000             4
    0.33333333333333    0.22222222222222    0.00000000000000             4
    0.37500000000000    0.22222222222222    0.00000000000000             4
    0.41666666666667    0.22222222222222    0.00000000000000             4
    0.45833333333333    0.22222222222222    0.00000000000000             4
    0.50000000000000    0.22222222222222    0.00000000000000             2
    0.00000000000000    0.25000000000000    0.00000000000000             2
    0.04166666666667    0.25000000000000    0.00000000000000             4
    0.08333333333333    0.25000000000000    0.00000000000000             4
    0.12500000000000    0.25000000000000    0.00000000000000             4
    0.16666666666667    0.25000000000000    0.00000000000000             4
    0.20833333333333    0.25000000000000    0.00000000000000             4
    0.25000000000000    0.25000000000000    0.00000000000000             4
    0.29166666666667    0.25000000000000    0.00000000000000             4
    0.33333333333333    0.25000000000000    0.00000000000000             4
    0.37500000000000    0.25000000000000    0.00000000000000             4
    0.41666666666667    0.25000000000000    0.00000000000000             4
    0.45833333333333    0.25000000000000    0.00000000000000             4
    0.50000000000000    0.25000000000000    0.00000000000000             2
    0.00000000000000    0.27777777777778    0.00000000000000             2
    0.04166666666667    0.27777777777778    0.00000000000000             4
    0.08333333333333    0.27777777777778    0.00000000000000             4
    0.12500000000000    0.27777777777778    0.00000000000000             4
    0.16666666666667    0.27777777777778    0.00000000000000             4
    0.20833333333333    0.27777777777778    0.00000000000000             4
    0.25000000000000    0.27777777777778    0.00000000000000             4
    0.29166666666667    0.27777777777778    0.00000000000000             4
    0.33333333333333    0.27777777777778    0.00000000000000             4
    0.37500000000000    0.27777777777778    0.00000000000000             4
    0.41666666666667    0.27777777777778    0.00000000000000             4
    0.45833333333333    0.27777777777778    0.00000000000000             4
    0.50000000000000    0.27777777777778    0.00000000000000             2
    0.00000000000000    0.30555555555556    0.00000000000000             2
    0.04166666666667    0.30555555555556    0.00000000000000             4
    0.08333333333333    0.30555555555556    0.00000000000000             4
    0.12500000000000    0.30555555555556    0.00000000000000             4
    0.16666666666667    0.30555555555556    0.00000000000000             4
    0.20833333333333    0.30555555555556    0.00000000000000             4
    0.25000000000000    0.30555555555556    0.00000000000000             4
    0.29166666666667    0.30555555555556    0.00000000000000             4
    0.33333333333333    0.30555555555556    0.00000000000000             4
    0.37500000000000    0.30555555555556    0.00000000000000             4
    0.41666666666667    0.30555555555556    0.00000000000000             4
    0.45833333333333    0.30555555555556    0.00000000000000             4
    0.50000000000000    0.30555555555556    0.00000000000000             2
    0.00000000000000    0.33333333333333    0.00000000000000             2
    0.04166666666667    0.33333333333333    0.00000000000000             4
    0.08333333333333    0.33333333333333    0.00000000000000             4
    0.12500000000000    0.33333333333333    0.00000000000000             4
    0.16666666666667    0.33333333333333    0.00000000000000             4
    0.20833333333333    0.33333333333333    0.00000000000000             4
    0.25000000000000    0.33333333333333    0.00000000000000             4
    0.29166666666667    0.33333333333333    0.00000000000000             4
    0.33333333333333    0.33333333333333    0.00000000000000             4
    0.37500000000000    0.33333333333333    0.00000000000000             4
    0.41666666666667    0.33333333333333    0.00000000000000             4
    0.45833333333333    0.33333333333333    0.00000000000000             4
    0.50000000000000    0.33333333333333    0.00000000000000             2
    0.00000000000000    0.36111111111111    0.00000000000000             2
    0.04166666666667    0.36111111111111    0.00000000000000             4
    0.08333333333333    0.36111111111111    0.00000000000000             4
    0.12500000000000    0.36111111111111    0.00000000000000             4
    0.16666666666667    0.36111111111111    0.00000000000000             4
    0.20833333333333    0.36111111111111    0.00000000000000             4
    0.25000000000000    0.36111111111111    0.00000000000000             4
    0.29166666666667    0.36111111111111    0.00000000000000             4
    0.33333333333333    0.36111111111111    0.00000000000000             4
    0.37500000000000    0.36111111111111    0.00000000000000             4
    0.41666666666667    0.36111111111111    0.00000000000000             4
    0.45833333333333    0.36111111111111    0.00000000000000             4
    0.50000000000000    0.36111111111111    0.00000000000000             2
    0.00000000000000    0.38888888888889    0.00000000000000             2
    0.04166666666667    0.38888888888889    0.00000000000000             4
    0.08333333333333    0.38888888888889    0.00000000000000             4
    0.12500000000000    0.38888888888889    0.00000000000000             4
    0.16666666666667    0.38888888888889    0.00000000000000             4
    0.20833333333333    0.38888888888889    0.00000000000000             4
    0.25000000000000    0.38888888888889    0.00000000000000             4
    0.29166666666667    0.38888888888889    0.00000000000000             4
    0.33333333333333    0.38888888888889    0.00000000000000             4
    0.37500000000000    0.38888888888889    0.00000000000000             4
    0.41666666666667    0.38888888888889    0.00000000000000             4
    0.45833333333333    0.38888888888889    0.00000000000000             4
    0.50000000000000    0.38888888888889    0.00000000000000             2
    0.00000000000000    0.41666666666667    0.00000000000000             2
    0.04166666666667    0.41666666666667    0.00000000000000             4
    0.08333333333333    0.41666666666667    0.00000000000000             4
    0.12500000000000    0.41666666666667    0.00000000000000             4
    0.16666666666667    0.41666666666667    0.00000000000000             4
    0.20833333333333    0.41666666666667    0.00000000000000             4
    0.25000000000000    0.41666666666667    0.00000000000000             4
    0.29166666666667    0.41666666666667    0.00000000000000             4
    0.33333333333333    0.41666666666667    0.00000000000000             4
    0.37500000000000    0.41666666666667    0.00000000000000             4
    0.41666666666667    0.41666666666667    0.00000000000000             4
    0.45833333333333    0.41666666666667    0.00000000000000             4
    0.50000000000000    0.41666666666667    0.00000000000000             2
    0.00000000000000    0.44444444444444    0.00000000000000             2
    0.04166666666667    0.44444444444444    0.00000000000000             4
    0.08333333333333    0.44444444444444    0.00000000000000             4
    0.12500000000000    0.44444444444444    0.00000000000000             4
    0.16666666666667    0.44444444444444    0.00000000000000             4
    0.20833333333333    0.44444444444444    0.00000000000000             4
    0.25000000000000    0.44444444444444    0.00000000000000             4
    0.29166666666667    0.44444444444444    0.00000000000000             4
    0.33333333333333    0.44444444444444    0.00000000000000             4
    0.37500000000000    0.44444444444444    0.00000000000000             4
    0.41666666666667    0.44444444444444    0.00000000000000             4
    0.45833333333333    0.44444444444444    0.00000000000000             4
    0.50000000000000    0.44444444444444    0.00000000000000             2
    0.00000000000000    0.47222222222222    0.00000000000000             2
    0.04166666666667    0.47222222222222    0.00000000000000             4
    0.08333333333333    0.47222222222222    0.00000000000000             4
    0.12500000000000    0.47222222222222    0.00000000000000             4
    0.16666666666667    0.47222222222222    0.00000000000000             4
    0.20833333333333    0.47222222222222    0.00000000000000             4
    0.25000000000000    0.47222222222222    0.00000000000000             4
    0.29166666666667    0.47222222222222    0.00000000000000             4
    0.33333333333333    0.47222222222222    0.00000000000000             4
    0.37500000000000    0.47222222222222    0.00000000000000             4
    0.41666666666667    0.47222222222222    0.00000000000000             4
    0.45833333333333    0.47222222222222    0.00000000000000             4
    0.50000000000000    0.47222222222222    0.00000000000000             2
    0.00000000000000    0.50000000000000    0.00000000000000             1
    0.04166666666667    0.50000000000000    0.00000000000000             2
    0.08333333333333    0.50000000000000    0.00000000000000             2
    0.12500000000000    0.50000000000000    0.00000000000000             2
    0.16666666666667    0.50000000000000    0.00000000000000             2
    0.20833333333333    0.50000000000000    0.00000000000000             2
    0.25000000000000    0.50000000000000    0.00000000000000             2
    0.29166666666667    0.50000000000000    0.00000000000000             2
    0.33333333333333    0.50000000000000    0.00000000000000             2
    0.37500000000000    0.50000000000000    0.00000000000000             2
    0.41666666666667    0.50000000000000    0.00000000000000             2
    0.45833333333333    0.50000000000000    0.00000000000000             2
    0.50000000000000    0.50000000000000    0.00000000000000             1
