       N       E                     dE             d eps       ncg     rms          rms(c)
DAV:   1     0.186798815484E+03    0.18680E+03   -0.10659E+04  5928   0.275E+03
DAV:   2    -0.940674469721E+01   -0.19621E+03   -0.17441E+03 10408   0.260E+02
DAV:   3    -0.381049140479E+02   -0.28698E+02   -0.28073E+02  7376   0.118E+02    0.708E+00
RMM:   4    -0.375703678369E+02    0.53455E+00   -0.93439E+00  5928   0.263E+01    0.411E+00
RMM:   5    -0.368657794398E+02    0.70459E+00   -0.26390E+00  5932   0.111E+01    0.696E-01
RMM:   6    -0.368679201440E+02   -0.21407E-02   -0.84197E-02  6386   0.202E+00    0.499E-01
RMM:   7    -0.368590701302E+02    0.88500E-02   -0.31098E-02  5941   0.153E+00    0.326E-01
RMM:   8    -0.368542497836E+02    0.48203E-02   -0.62040E-03  5930   0.523E-01    0.137E-01
RMM:   9    -0.368540455953E+02    0.20419E-03   -0.19720E-02  5928   0.832E-01    0.151E-01
RMM:  10    -0.368539222421E+02    0.12335E-03   -0.20146E-03  5928   0.326E-01    0.266E-02
RMM:  11    -0.368562007846E+02   -0.22785E-02   -0.71655E-04  5930   0.180E-01    0.418E-02
RMM:  12    -0.368567047916E+02   -0.50401E-03   -0.19985E-04  5950   0.937E-02    0.487E-03
RMM:  13    -0.368569600455E+02   -0.25525E-03   -0.44859E-05  6041   0.341E-02    0.264E-03
RMM:  14    -0.368570428381E+02   -0.82793E-04   -0.99567E-06  5999   0.135E-02    0.834E-04
RMM:  15    -0.368570564917E+02   -0.13654E-04   -0.18863E-06  5940   0.743E-03    0.237E-03
RMM:  16    -0.368570695880E+02   -0.13096E-04   -0.21734E-06  5928   0.975E-03    0.147E-03
RMM:  17    -0.368570756340E+02   -0.60460E-05   -0.23340E-07  5928   0.296E-03    0.478E-04
RMM:  18    -0.368570766892E+02   -0.10552E-05   -0.26602E-08  5999   0.135E-03    0.847E-05
RMM:  19    -0.368570774405E+02   -0.75130E-06   -0.99301E-09  5344   0.428E-04    0.140E-05
RMM:  20    -0.368570774777E+02   -0.37234E-07   -0.65377E-10  4496   0.135E-04    0.228E-05
RMM:  21    -0.368570774904E+02   -0.12659E-07   -0.18568E-10  4308   0.812E-05    0.881E-06
RMM:  22    -0.368570774904E+02   -0.85834E-10   -0.19914E-11  3897   0.501E-05
   1 F= -.36857077E+02 E0= -.36857077E+02  d E =-.368571E+02
       N       E                     dE             d eps       ncg     rms          rms(c)
DAV:   1    -0.368570772255E+02    0.26485E-06   -0.25646E-05  6540   0.474E-02    0.949E-04
RMM:   2    -0.368570772382E+02   -0.12642E-07   -0.40793E-07  5965   0.564E-03    0.687E-04
RMM:   3    -0.368570772208E+02    0.17321E-07   -0.68765E-08  5979   0.211E-03    0.183E-04
RMM:   4    -0.368570772213E+02   -0.46293E-09   -0.46990E-09  6074   0.543E-04    0.531E-05
RMM:   5    -0.368570772203E+02    0.10161E-08   -0.31900E-10  4254   0.131E-04    0.225E-05
RMM:   6    -0.368570772203E+02    0.75033E-11   -0.38458E-11  3762   0.656E-05
   2 F= -.36857077E+02 E0= -.36857077E+02  d E =0.270179E-06
       N       E                     dE             d eps       ncg     rms          rms(c)
DAV:   1    -0.368570774975E+02   -0.27718E-06   -0.15857E-05  6880   0.373E-02    0.752E-04
RMM:   2    -0.368570775119E+02   -0.14394E-07   -0.24713E-07  5963   0.444E-03    0.542E-04
RMM:   3    -0.368570775104E+02    0.14772E-08   -0.42543E-08  5970   0.166E-03    0.141E-04
RMM:   4    -0.368570775082E+02    0.21668E-08   -0.28596E-09  6045   0.426E-04    0.413E-05
RMM:   5    -0.368570775089E+02   -0.65427E-09   -0.19662E-10  4053   0.104E-04    0.179E-05
RMM:   6    -0.368570775091E+02   -0.19531E-09   -0.23882E-11  3689   0.574E-05    0.306E-06
RMM:   7    -0.368570775091E+02   -0.53205E-10   -0.15252E-11  3637   0.463E-05
   3 F= -.36857078E+02 E0= -.36857078E+02  d E =-.288841E-06
       N       E                     dE             d eps       ncg     rms          rms(c)
DAV:   1    -0.368570775086E+02    0.41382E-09    0.52994E-09  4784   0.831E-05    0.825E-07
RMM:   2    -0.368570775091E+02   -0.41916E-09    0.61965E-13  2941   0.271E-05    0.494E-07
RMM:   3    -0.368570775091E+02    0.18190E-11   -0.57806E-13  2666   0.276E-05    0.107E-07
RMM:   4    -0.368570775091E+02   -0.57867E-10   -0.20954E-12  2365   0.258E-05    0.173E-07
RMM:   5    -0.368570775091E+02    0.11141E-10   -0.17803E-13  2231   0.238E-05
   4 F= -.36857078E+02 E0= -.36857078E+02  d E =0.295586E-11
       N       E                     dE             d eps       ncg     rms          rms(c)
DAV:   1    -0.368570775087E+02    0.42678E-09    0.53517E-09  5100   0.440E-05    0.486E-07
RMM:   2    -0.368570775089E+02   -0.22101E-09    0.53077E-13  1412   0.129E-05    0.299E-07
RMM:   3    -0.368570775088E+02    0.99021E-10    0.45346E-13  1371   0.127E-05    0.266E-08
RMM:   4    -0.368570775090E+02   -0.15132E-09   -0.42468E-13  1364   0.127E-05    0.154E-08
RMM:   5    -0.368570775090E+02   -0.74351E-10    0.13894E-13  1355   0.125E-05
   5 F= -.36857078E+02 E0= -.36857078E+02  d E =0.679847E-10
