<?xml version="1.0" encoding="ISO-8859-1"?>
<modeling>
 <generator>
  <i name="program" type="string">vasp </i>
  <i name="version" type="string">5.3.5  </i>
  <i name="subversion" type="string">31Mar14 (build Mar 02 2015 18:14:16) complex                          parallel </i>
  <i name="platform" type="string">LinuxIFC </i>
  <i name="date" type="string">2018 08 09 </i>
  <i name="time" type="string">14:20:42 </i>
 </generator>
 <incar>
  <i type="string" name="SYSTEM">  gr</i>
  <i type="string" name="PREC">accurate : accuracy</i>
  <i type="string" name="ALGO"> FAST.</i>
  <i type="int" name="NELM">   100</i>
  <i type="int" name="NELMDL">    -3</i>
  <i type="int" name="NELMIN">     5</i>
  <i type="int" name="IBRION">     1</i>
  <i name="EDIFF">      0.00000000</i>
  <i name="EDIFFG">     -0.00000100</i>
  <i type="int" name="NSW">   400</i>
  <i type="int" name="ISIF">     2</i>
  <i name="ENCUT">   2000.00000000</i>
  <i type="int" name="ISMEAR">     0</i>
  <i name="SIGMA">      0.05000000</i>
  <i type="int" name="NWRITE">     2</i>
  <i type="logical" name="LWAVE"> F  </i>
  <i type="logical" name="LCHARG"> F  </i>
  <i type="int" name="NELM">   100</i>
 </incar>
 <kpoints>
  <generation param="Gamma">
   <v type="int" name="divisions">      24       36        1 </v>
   <v name="usershift">      0.00000000       0.00000000       0.00000000 </v>
   <v name="genvec1">      0.04166667       0.00000000       0.00000000 </v>
   <v name="genvec2">      0.00000000       0.02777778       0.00000000 </v>
   <v name="genvec3">      0.00000000       0.00000000       1.00000000 </v>
   <v name="shift">      0.00000000       0.00000000       0.00000000 </v>
  </generation>
  <varray name="kpointlist" >
   <v>       0.00000000       0.00000000       0.00000000 </v>
   <v>       0.04166667       0.00000000       0.00000000 </v>
   <v>       0.08333333       0.00000000       0.00000000 </v>
   <v>       0.12500000       0.00000000       0.00000000 </v>
   <v>       0.16666667       0.00000000       0.00000000 </v>
   <v>       0.20833333       0.00000000       0.00000000 </v>
   <v>       0.25000000       0.00000000       0.00000000 </v>
   <v>       0.29166667       0.00000000       0.00000000 </v>
   <v>       0.33333333       0.00000000       0.00000000 </v>
   <v>       0.37500000       0.00000000       0.00000000 </v>
   <v>       0.41666667       0.00000000       0.00000000 </v>
   <v>       0.45833333       0.00000000       0.00000000 </v>
   <v>       0.50000000       0.00000000       0.00000000 </v>
   <v>       0.00000000       0.02777778       0.00000000 </v>
   <v>       0.04166667       0.02777778       0.00000000 </v>
   <v>       0.08333333       0.02777778       0.00000000 </v>
   <v>       0.12500000       0.02777778       0.00000000 </v>
   <v>       0.16666667       0.02777778       0.00000000 </v>
   <v>       0.20833333       0.02777778       0.00000000 </v>
   <v>       0.25000000       0.02777778       0.00000000 </v>
   <v>       0.29166667       0.02777778       0.00000000 </v>
   <v>       0.33333333       0.02777778       0.00000000 </v>
   <v>       0.37500000       0.02777778       0.00000000 </v>
   <v>       0.41666667       0.02777778       0.00000000 </v>
   <v>       0.45833333       0.02777778       0.00000000 </v>
   <v>       0.50000000       0.02777778       0.00000000 </v>
   <v>       0.00000000       0.05555556       0.00000000 </v>
   <v>       0.04166667       0.05555556       0.00000000 </v>
   <v>       0.08333333       0.05555556       0.00000000 </v>
   <v>       0.12500000       0.05555556       0.00000000 </v>
   <v>       0.16666667       0.05555556       0.00000000 </v>
   <v>       0.20833333       0.05555556       0.00000000 </v>
   <v>       0.25000000       0.05555556       0.00000000 </v>
   <v>       0.29166667       0.05555556       0.00000000 </v>
   <v>       0.33333333       0.05555556       0.00000000 </v>
   <v>       0.37500000       0.05555556       0.00000000 </v>
   <v>       0.41666667       0.05555556       0.00000000 </v>
   <v>       0.45833333       0.05555556       0.00000000 </v>
   <v>       0.50000000       0.05555556       0.00000000 </v>
   <v>       0.00000000       0.08333333       0.00000000 </v>
   <v>       0.04166667       0.08333333       0.00000000 </v>
   <v>       0.08333333       0.08333333       0.00000000 </v>
   <v>       0.12500000       0.08333333       0.00000000 </v>
   <v>       0.16666667       0.08333333       0.00000000 </v>
   <v>       0.20833333       0.08333333       0.00000000 </v>
   <v>       0.25000000       0.08333333       0.00000000 </v>
   <v>       0.29166667       0.08333333       0.00000000 </v>
   <v>       0.33333333       0.08333333       0.00000000 </v>
   <v>       0.37500000       0.08333333       0.00000000 </v>
   <v>       0.41666667       0.08333333       0.00000000 </v>
   <v>       0.45833333       0.08333333       0.00000000 </v>
   <v>       0.50000000       0.08333333       0.00000000 </v>
   <v>       0.00000000       0.11111111       0.00000000 </v>
   <v>       0.04166667       0.11111111       0.00000000 </v>
   <v>       0.08333333       0.11111111       0.00000000 </v>
   <v>       0.12500000       0.11111111       0.00000000 </v>
   <v>       0.16666667       0.11111111       0.00000000 </v>
   <v>       0.20833333       0.11111111       0.00000000 </v>
   <v>       0.25000000       0.11111111       0.00000000 </v>
   <v>       0.29166667       0.11111111       0.00000000 </v>
   <v>       0.33333333       0.11111111       0.00000000 </v>
   <v>       0.37500000       0.11111111       0.00000000 </v>
   <v>       0.41666667       0.11111111       0.00000000 </v>
   <v>       0.45833333       0.11111111       0.00000000 </v>
   <v>       0.50000000       0.11111111       0.00000000 </v>
   <v>       0.00000000       0.13888889       0.00000000 </v>
   <v>       0.04166667       0.13888889       0.00000000 </v>
   <v>       0.08333333       0.13888889       0.00000000 </v>
   <v>       0.12500000       0.13888889       0.00000000 </v>
   <v>       0.16666667       0.13888889       0.00000000 </v>
   <v>       0.20833333       0.13888889       0.00000000 </v>
   <v>       0.25000000       0.13888889       0.00000000 </v>
   <v>       0.29166667       0.13888889       0.00000000 </v>
   <v>       0.33333333       0.13888889       0.00000000 </v>
   <v>       0.37500000       0.13888889       0.00000000 </v>
   <v>       0.41666667       0.13888889       0.00000000 </v>
   <v>       0.45833333       0.13888889       0.00000000 </v>
   <v>       0.50000000       0.13888889       0.00000000 </v>
   <v>       0.00000000       0.16666667       0.00000000 </v>
   <v>       0.04166667       0.16666667       0.00000000 </v>
   <v>       0.08333333       0.16666667       0.00000000 </v>
   <v>       0.12500000       0.16666667       0.00000000 </v>
   <v>       0.16666667       0.16666667       0.00000000 </v>
   <v>       0.20833333       0.16666667       0.00000000 </v>
   <v>       0.25000000       0.16666667       0.00000000 </v>
   <v>       0.29166667       0.16666667       0.00000000 </v>
   <v>       0.33333333       0.16666667       0.00000000 </v>
   <v>       0.37500000       0.16666667       0.00000000 </v>
   <v>       0.41666667       0.16666667       0.00000000 </v>
   <v>       0.45833333       0.16666667       0.00000000 </v>
   <v>       0.50000000       0.16666667       0.00000000 </v>
   <v>       0.00000000       0.19444444       0.00000000 </v>
   <v>       0.04166667       0.19444444       0.00000000 </v>
   <v>       0.08333333       0.19444444       0.00000000 </v>
   <v>       0.12500000       0.19444444       0.00000000 </v>
   <v>       0.16666667       0.19444444       0.00000000 </v>
   <v>       0.20833333       0.19444444       0.00000000 </v>
   <v>       0.25000000       0.19444444       0.00000000 </v>
   <v>       0.29166667       0.19444444       0.00000000 </v>
   <v>       0.33333333       0.19444444       0.00000000 </v>
   <v>       0.37500000       0.19444444       0.00000000 </v>
   <v>       0.41666667       0.19444444       0.00000000 </v>
   <v>       0.45833333       0.19444444       0.00000000 </v>
   <v>       0.50000000       0.19444444       0.00000000 </v>
   <v>       0.00000000       0.22222222       0.00000000 </v>
   <v>       0.04166667       0.22222222       0.00000000 </v>
   <v>       0.08333333       0.22222222       0.00000000 </v>
   <v>       0.12500000       0.22222222       0.00000000 </v>
   <v>       0.16666667       0.22222222       0.00000000 </v>
   <v>       0.20833333       0.22222222       0.00000000 </v>
   <v>       0.25000000       0.22222222       0.00000000 </v>
   <v>       0.29166667       0.22222222       0.00000000 </v>
   <v>       0.33333333       0.22222222       0.00000000 </v>
   <v>       0.37500000       0.22222222       0.00000000 </v>
   <v>       0.41666667       0.22222222       0.00000000 </v>
   <v>       0.45833333       0.22222222       0.00000000 </v>
   <v>       0.50000000       0.22222222       0.00000000 </v>
   <v>       0.00000000       0.25000000       0.00000000 </v>
   <v>       0.04166667       0.25000000       0.00000000 </v>
   <v>       0.08333333       0.25000000       0.00000000 </v>
   <v>       0.12500000       0.25000000       0.00000000 </v>
   <v>       0.16666667       0.25000000       0.00000000 </v>
   <v>       0.20833333       0.25000000       0.00000000 </v>
   <v>       0.25000000       0.25000000       0.00000000 </v>
   <v>       0.29166667       0.25000000       0.00000000 </v>
   <v>       0.33333333       0.25000000       0.00000000 </v>
   <v>       0.37500000       0.25000000       0.00000000 </v>
   <v>       0.41666667       0.25000000       0.00000000 </v>
   <v>       0.45833333       0.25000000       0.00000000 </v>
   <v>       0.50000000       0.25000000       0.00000000 </v>
   <v>       0.00000000       0.27777778       0.00000000 </v>
   <v>       0.04166667       0.27777778       0.00000000 </v>
   <v>       0.08333333       0.27777778       0.00000000 </v>
   <v>       0.12500000       0.27777778       0.00000000 </v>
   <v>       0.16666667       0.27777778       0.00000000 </v>
   <v>       0.20833333       0.27777778       0.00000000 </v>
   <v>       0.25000000       0.27777778       0.00000000 </v>
   <v>       0.29166667       0.27777778       0.00000000 </v>
   <v>       0.33333333       0.27777778       0.00000000 </v>
   <v>       0.37500000       0.27777778       0.00000000 </v>
   <v>       0.41666667       0.27777778       0.00000000 </v>
   <v>       0.45833333       0.27777778       0.00000000 </v>
   <v>       0.50000000       0.27777778       0.00000000 </v>
   <v>       0.00000000       0.30555556       0.00000000 </v>
   <v>       0.04166667       0.30555556       0.00000000 </v>
   <v>       0.08333333       0.30555556       0.00000000 </v>
   <v>       0.12500000       0.30555556       0.00000000 </v>
   <v>       0.16666667       0.30555556       0.00000000 </v>
   <v>       0.20833333       0.30555556       0.00000000 </v>
   <v>       0.25000000       0.30555556       0.00000000 </v>
   <v>       0.29166667       0.30555556       0.00000000 </v>
   <v>       0.33333333       0.30555556       0.00000000 </v>
   <v>       0.37500000       0.30555556       0.00000000 </v>
   <v>       0.41666667       0.30555556       0.00000000 </v>
   <v>       0.45833333       0.30555556       0.00000000 </v>
   <v>       0.50000000       0.30555556       0.00000000 </v>
   <v>       0.00000000       0.33333333       0.00000000 </v>
   <v>       0.04166667       0.33333333       0.00000000 </v>
   <v>       0.08333333       0.33333333       0.00000000 </v>
   <v>       0.12500000       0.33333333       0.00000000 </v>
   <v>       0.16666667       0.33333333       0.00000000 </v>
   <v>       0.20833333       0.33333333       0.00000000 </v>
   <v>       0.25000000       0.33333333       0.00000000 </v>
   <v>       0.29166667       0.33333333       0.00000000 </v>
   <v>       0.33333333       0.33333333       0.00000000 </v>
   <v>       0.37500000       0.33333333       0.00000000 </v>
   <v>       0.41666667       0.33333333       0.00000000 </v>
   <v>       0.45833333       0.33333333       0.00000000 </v>
   <v>       0.50000000       0.33333333       0.00000000 </v>
   <v>       0.00000000       0.36111111       0.00000000 </v>
   <v>       0.04166667       0.36111111       0.00000000 </v>
   <v>       0.08333333       0.36111111       0.00000000 </v>
   <v>       0.12500000       0.36111111       0.00000000 </v>
   <v>       0.16666667       0.36111111       0.00000000 </v>
   <v>       0.20833333       0.36111111       0.00000000 </v>
   <v>       0.25000000       0.36111111       0.00000000 </v>
   <v>       0.29166667       0.36111111       0.00000000 </v>
   <v>       0.33333333       0.36111111       0.00000000 </v>
   <v>       0.37500000       0.36111111       0.00000000 </v>
   <v>       0.41666667       0.36111111       0.00000000 </v>
   <v>       0.45833333       0.36111111       0.00000000 </v>
   <v>       0.50000000       0.36111111       0.00000000 </v>
   <v>       0.00000000       0.38888889       0.00000000 </v>
   <v>       0.04166667       0.38888889       0.00000000 </v>
   <v>       0.08333333       0.38888889       0.00000000 </v>
   <v>       0.12500000       0.38888889       0.00000000 </v>
   <v>       0.16666667       0.38888889       0.00000000 </v>
   <v>       0.20833333       0.38888889       0.00000000 </v>
   <v>       0.25000000       0.38888889       0.00000000 </v>
   <v>       0.29166667       0.38888889       0.00000000 </v>
   <v>       0.33333333       0.38888889       0.00000000 </v>
   <v>       0.37500000       0.38888889       0.00000000 </v>
   <v>       0.41666667       0.38888889       0.00000000 </v>
   <v>       0.45833333       0.38888889       0.00000000 </v>
   <v>       0.50000000       0.38888889       0.00000000 </v>
   <v>       0.00000000       0.41666667       0.00000000 </v>
   <v>       0.04166667       0.41666667       0.00000000 </v>
   <v>       0.08333333       0.41666667       0.00000000 </v>
   <v>       0.12500000       0.41666667       0.00000000 </v>
   <v>       0.16666667       0.41666667       0.00000000 </v>
   <v>       0.20833333       0.41666667       0.00000000 </v>
   <v>       0.25000000       0.41666667       0.00000000 </v>
   <v>       0.29166667       0.41666667       0.00000000 </v>
   <v>       0.33333333       0.41666667       0.00000000 </v>
   <v>       0.37500000       0.41666667       0.00000000 </v>
   <v>       0.41666667       0.41666667       0.00000000 </v>
   <v>       0.45833333       0.41666667       0.00000000 </v>
   <v>       0.50000000       0.41666667       0.00000000 </v>
   <v>       0.00000000       0.44444444       0.00000000 </v>
   <v>       0.04166667       0.44444444       0.00000000 </v>
   <v>       0.08333333       0.44444444       0.00000000 </v>
   <v>       0.12500000       0.44444444       0.00000000 </v>
   <v>       0.16666667       0.44444444       0.00000000 </v>
   <v>       0.20833333       0.44444444       0.00000000 </v>
   <v>       0.25000000       0.44444444       0.00000000 </v>
   <v>       0.29166667       0.44444444       0.00000000 </v>
   <v>       0.33333333       0.44444444       0.00000000 </v>
   <v>       0.37500000       0.44444444       0.00000000 </v>
   <v>       0.41666667       0.44444444       0.00000000 </v>
   <v>       0.45833333       0.44444444       0.00000000 </v>
   <v>       0.50000000       0.44444444       0.00000000 </v>
   <v>       0.00000000       0.47222222       0.00000000 </v>
   <v>       0.04166667       0.47222222       0.00000000 </v>
   <v>       0.08333333       0.47222222       0.00000000 </v>
   <v>       0.12500000       0.47222222       0.00000000 </v>
   <v>       0.16666667       0.47222222       0.00000000 </v>
   <v>       0.20833333       0.47222222       0.00000000 </v>
   <v>       0.25000000       0.47222222       0.00000000 </v>
   <v>       0.29166667       0.47222222       0.00000000 </v>
   <v>       0.33333333       0.47222222       0.00000000 </v>
   <v>       0.37500000       0.47222222       0.00000000 </v>
   <v>       0.41666667       0.47222222       0.00000000 </v>
   <v>       0.45833333       0.47222222       0.00000000 </v>
   <v>       0.50000000       0.47222222       0.00000000 </v>
   <v>       0.00000000       0.50000000       0.00000000 </v>
   <v>       0.04166667       0.50000000       0.00000000 </v>
   <v>       0.08333333       0.50000000       0.00000000 </v>
   <v>       0.12500000       0.50000000       0.00000000 </v>
   <v>       0.16666667       0.50000000       0.00000000 </v>
   <v>       0.20833333       0.50000000       0.00000000 </v>
   <v>       0.25000000       0.50000000       0.00000000 </v>
   <v>       0.29166667       0.50000000       0.00000000 </v>
   <v>       0.33333333       0.50000000       0.00000000 </v>
   <v>       0.37500000       0.50000000       0.00000000 </v>
   <v>       0.41666667       0.50000000       0.00000000 </v>
   <v>       0.45833333       0.50000000       0.00000000 </v>
   <v>       0.50000000       0.50000000       0.00000000 </v>
  </varray>
  <varray name="weights" >
   <v>       0.00115741 </v>
   <v>       0.00231481 </v>
   <v>       0.00231481 </v>
   <v>       0.00231481 </v>
   <v>       0.00231481 </v>
   <v>       0.00231481 </v>
   <v>       0.00231481 </v>
   <v>       0.00231481 </v>
   <v>       0.00231481 </v>
   <v>       0.00231481 </v>
   <v>       0.00231481 </v>
   <v>       0.00231481 </v>
   <v>       0.00115741 </v>
   <v>       0.00231481 </v>
   <v>       0.00462963 </v>
   <v>       0.00462963 </v>
   <v>       0.00462963 </v>
   <v>       0.00462963 </v>
   <v>       0.00462963 </v>
   <v>       0.00462963 </v>
   <v>       0.00462963 </v>
   <v>       0.00462963 </v>
   <v>       0.00462963 </v>
   <v>       0.00462963 </v>
   <v>       0.00462963 </v>
   <v>       0.00231481 </v>
   <v>       0.00231481 </v>
   <v>       0.00462963 </v>
   <v>       0.00462963 </v>
   <v>       0.00462963 </v>
   <v>       0.00462963 </v>
   <v>       0.00462963 </v>
   <v>       0.00462963 </v>
   <v>       0.00462963 </v>
   <v>       0.00462963 </v>
   <v>       0.00462963 </v>
   <v>       0.00462963 </v>
   <v>       0.00462963 </v>
   <v>       0.00231481 </v>
   <v>       0.00231481 </v>
   <v>       0.00462963 </v>
   <v>       0.00462963 </v>
   <v>       0.00462963 </v>
   <v>       0.00462963 </v>
   <v>       0.00462963 </v>
   <v>       0.00462963 </v>
   <v>       0.00462963 </v>
   <v>       0.00462963 </v>
   <v>       0.00462963 </v>
   <v>       0.00462963 </v>
   <v>       0.00462963 </v>
   <v>       0.00231481 </v>
   <v>       0.00231481 </v>
   <v>       0.00462963 </v>
   <v>       0.00462963 </v>
   <v>       0.00462963 </v>
   <v>       0.00462963 </v>
   <v>       0.00462963 </v>
   <v>       0.00462963 </v>
   <v>       0.00462963 </v>
   <v>       0.00462963 </v>
   <v>       0.00462963 </v>
   <v>       0.00462963 </v>
   <v>       0.00462963 </v>
   <v>       0.00231481 </v>
   <v>       0.00231481 </v>
   <v>       0.00462963 </v>
   <v>       0.00462963 </v>
   <v>       0.00462963 </v>
   <v>       0.00462963 </v>
   <v>       0.00462963 </v>
   <v>       0.00462963 </v>
   <v>       0.00462963 </v>
   <v>       0.00462963 </v>
   <v>       0.00462963 </v>
   <v>       0.00462963 </v>
   <v>       0.00462963 </v>
   <v>       0.00231481 </v>
   <v>       0.00231481 </v>
   <v>       0.00462963 </v>
   <v>       0.00462963 </v>
   <v>       0.00462963 </v>
   <v>       0.00462963 </v>
   <v>       0.00462963 </v>
   <v>       0.00462963 </v>
   <v>       0.00462963 </v>
   <v>       0.00462963 </v>
   <v>       0.00462963 </v>
   <v>       0.00462963 </v>
   <v>       0.00462963 </v>
   <v>       0.00231481 </v>
   <v>       0.00231481 </v>
   <v>       0.00462963 </v>
   <v>       0.00462963 </v>
   <v>       0.00462963 </v>
   <v>       0.00462963 </v>
   <v>       0.00462963 </v>
   <v>       0.00462963 </v>
   <v>       0.00462963 </v>
   <v>       0.00462963 </v>
   <v>       0.00462963 </v>
   <v>       0.00462963 </v>
   <v>       0.00462963 </v>
   <v>       0.00231481 </v>
   <v>       0.00231481 </v>
   <v>       0.00462963 </v>
   <v>       0.00462963 </v>
   <v>       0.00462963 </v>
   <v>       0.00462963 </v>
   <v>       0.00462963 </v>
   <v>       0.00462963 </v>
   <v>       0.00462963 </v>
   <v>       0.00462963 </v>
   <v>       0.00462963 </v>
   <v>       0.00462963 </v>
   <v>       0.00462963 </v>
   <v>       0.00231481 </v>
   <v>       0.00231481 </v>
   <v>       0.00462963 </v>
   <v>       0.00462963 </v>
   <v>       0.00462963 </v>
   <v>       0.00462963 </v>
   <v>       0.00462963 </v>
   <v>       0.00462963 </v>
   <v>       0.00462963 </v>
   <v>       0.00462963 </v>
   <v>       0.00462963 </v>
   <v>       0.00462963 </v>
   <v>       0.00462963 </v>
   <v>       0.00231481 </v>
   <v>       0.00231481 </v>
   <v>       0.00462963 </v>
   <v>       0.00462963 </v>
   <v>       0.00462963 </v>
   <v>       0.00462963 </v>
   <v>       0.00462963 </v>
   <v>       0.00462963 </v>
   <v>       0.00462963 </v>
   <v>       0.00462963 </v>
   <v>       0.00462963 </v>
   <v>       0.00462963 </v>
   <v>       0.00462963 </v>
   <v>       0.00231481 </v>
   <v>       0.00231481 </v>
   <v>       0.00462963 </v>
   <v>       0.00462963 </v>
   <v>       0.00462963 </v>
   <v>       0.00462963 </v>
   <v>       0.00462963 </v>
   <v>       0.00462963 </v>
   <v>       0.00462963 </v>
   <v>       0.00462963 </v>
   <v>       0.00462963 </v>
   <v>       0.00462963 </v>
   <v>       0.00462963 </v>
   <v>       0.00231481 </v>
   <v>       0.00231481 </v>
   <v>       0.00462963 </v>
   <v>       0.00462963 </v>
   <v>       0.00462963 </v>
   <v>       0.00462963 </v>
   <v>       0.00462963 </v>
   <v>       0.00462963 </v>
   <v>       0.00462963 </v>
   <v>       0.00462963 </v>
   <v>       0.00462963 </v>
   <v>       0.00462963 </v>
   <v>       0.00462963 </v>
   <v>       0.00231481 </v>
   <v>       0.00231481 </v>
   <v>       0.00462963 </v>
   <v>       0.00462963 </v>
   <v>       0.00462963 </v>
   <v>       0.00462963 </v>
   <v>       0.00462963 </v>
   <v>       0.00462963 </v>
   <v>       0.00462963 </v>
   <v>       0.00462963 </v>
   <v>       0.00462963 </v>
   <v>       0.00462963 </v>
   <v>       0.00462963 </v>
   <v>       0.00231481 </v>
   <v>       0.00231481 </v>
   <v>       0.00462963 </v>
   <v>       0.00462963 </v>
   <v>       0.00462963 </v>
   <v>       0.00462963 </v>
   <v>       0.00462963 </v>
   <v>       0.00462963 </v>
   <v>       0.00462963 </v>
   <v>       0.00462963 </v>
   <v>       0.00462963 </v>
   <v>       0.00462963 </v>
   <v>       0.00462963 </v>
   <v>       0.00231481 </v>
   <v>       0.00231481 </v>
   <v>       0.00462963 </v>
   <v>       0.00462963 </v>
   <v>       0.00462963 </v>
   <v>       0.00462963 </v>
   <v>       0.00462963 </v>
   <v>       0.00462963 </v>
   <v>       0.00462963 </v>
   <v>       0.00462963 </v>
   <v>       0.00462963 </v>
   <v>       0.00462963 </v>
   <v>       0.00462963 </v>
   <v>       0.00231481 </v>
   <v>       0.00231481 </v>
   <v>       0.00462963 </v>
   <v>       0.00462963 </v>
   <v>       0.00462963 </v>
   <v>       0.00462963 </v>
   <v>       0.00462963 </v>
   <v>       0.00462963 </v>
   <v>       0.00462963 </v>
   <v>       0.00462963 </v>
   <v>       0.00462963 </v>
   <v>       0.00462963 </v>
   <v>       0.00462963 </v>
   <v>       0.00231481 </v>
   <v>       0.00231481 </v>
   <v>       0.00462963 </v>
   <v>       0.00462963 </v>
   <v>       0.00462963 </v>
   <v>       0.00462963 </v>
   <v>       0.00462963 </v>
   <v>       0.00462963 </v>
   <v>       0.00462963 </v>
   <v>       0.00462963 </v>
   <v>       0.00462963 </v>
   <v>       0.00462963 </v>
   <v>       0.00462963 </v>
   <v>       0.00231481 </v>
   <v>       0.00115741 </v>
   <v>       0.00231481 </v>
   <v>       0.00231481 </v>
   <v>       0.00231481 </v>
   <v>       0.00231481 </v>
   <v>       0.00231481 </v>
   <v>       0.00231481 </v>
   <v>       0.00231481 </v>
   <v>       0.00231481 </v>
   <v>       0.00231481 </v>
   <v>       0.00231481 </v>
   <v>       0.00231481 </v>
   <v>       0.00115741 </v>
  </varray>
 </kpoints>
 <parameters>
  <separator name="general" >
   <i type="string" name="SYSTEM">gr</i>
   <i type="logical" name="LCOMPAT"> F  </i>
  </separator>
  <separator name="electronic" >
   <i type="string" name="PREC">accura</i>
   <i name="ENMAX">   2000.00000000</i>
   <i name="ENAUG">    644.87300000</i>
   <i name="EDIFF">      0.00000000</i>
   <i type="int" name="IALGO">    68</i>
   <i type="int" name="IWAVPR">    11</i>
   <i type="int" name="NBANDS">    12</i>
   <i name="NELECT">     16.00000000</i>
   <i type="int" name="TURBO">     0</i>
   <i type="int" name="IRESTART">     0</i>
   <i type="int" name="NREBOOT">     0</i>
   <i type="int" name="NMIN">     0</i>
   <i name="EREF">      0.00000000</i>
   <separator name="electronic smearing" >
    <i type="int" name="ISMEAR">     0</i>
    <i name="SIGMA">      0.05000000</i>
    <i name="KSPACING">      0.50000000</i>
    <i type="logical" name="KGAMMA"> T  </i>
   </separator>
   <separator name="electronic projectors" >
    <i type="logical" name="LREAL"> F  </i>
    <v name="ROPT">      0.00000000</v>
    <i type="int" name="LMAXPAW">  -100</i>
    <i type="int" name="LMAXMIX">     2</i>
    <i type="logical" name="NLSPLINE"> F  </i>
   </separator>
   <separator name="electronic startup" >
    <i type="int" name="ISTART">     0</i>
    <i type="int" name="ICHARG">     2</i>
    <i type="int" name="INIWAV">     1</i>
   </separator>
   <separator name="electronic spin" >
    <i type="int" name="ISPIN">     1</i>
    <i type="logical" name="LNONCOLLINEAR"> F  </i>
    <v name="MAGMOM">      1.00000000      1.00000000      1.00000000      1.00000000</v>
    <i name="NUPDOWN">     -1.00000000</i>
    <i type="logical" name="LSORBIT"> F  </i>
    <v name="SAXIS">      0.00000000      0.00000000      1.00000000</v>
    <i type="logical" name="LSPIRAL"> F  </i>
    <v name="QSPIRAL">      0.00000000      0.00000000      0.00000000</v>
    <i type="logical" name="LZEROZ"> F  </i>
   </separator>
   <separator name="electronic exchange-correlation" >
    <i type="logical" name="LASPH"> F  </i>
    <i type="logical" name="LMETAGGA"> F  </i>
   </separator>
   <separator name="electronic convergence" >
    <i type="int" name="NELM">   100</i>
    <i type="int" name="NELMDL">    -3</i>
    <i type="int" name="NELMIN">     5</i>
    <i name="ENINI">   2000.00000000</i>
    <separator name="electronic convergence detail" >
     <i type="logical" name="LDIAG"> T  </i>
     <i type="logical" name="LSUBROT"> F  </i>
     <i name="WEIMIN">      0.00100000</i>
     <i name="EBREAK">      0.00000000</i>
     <i name="DEPER">      0.30000000</i>
     <i type="int" name="NRMM">     4</i>
     <i name="TIME">      0.40000000</i>
    </separator>
   </separator>
   <separator name="electronic mixer" >
    <i name="AMIX">      0.40000000</i>
    <i name="BMIX">      1.00000000</i>
    <i name="AMIN">      0.10000000</i>
    <i name="AMIX_MAG">      1.60000000</i>
    <i name="BMIX_MAG">      1.00000000</i>
    <separator name="electronic mixer details" >
     <i type="int" name="IMIX">     4</i>
     <i type="int" name="MAXMIX">   -45</i>
     <i name="WC">    100.00000000</i>
     <i type="int" name="INIMIX">     1</i>
     <i type="int" name="MIXPRE">     1</i>
     <i type="int" name="MREMOVE">     5</i>
    </separator>
   </separator>
   <separator name="electronic dipolcorrection" >
    <i type="logical" name="LDIPOL"> F  </i>
    <i type="logical" name="LMONO"> F  </i>
    <i type="int" name="IDIPOL">     0</i>
    <i name="EPSILON">      1.00000000</i>
    <v name="DIPOL">   -100.00000000   -100.00000000   -100.00000000</v>
    <i name="EFIELD">      0.00000000</i>
   </separator>
  </separator>
  <separator name="grids" >
   <i type="int" name="NGX">    64</i>
   <i type="int" name="NGY">    36</i>
   <i type="int" name="NGZ">   288</i>
   <i type="int" name="NGXF">   128</i>
   <i type="int" name="NGYF">    72</i>
   <i type="int" name="NGZF">   576</i>
   <i type="logical" name="ADDGRID"> F  </i>
  </separator>
  <separator name="ionic" >
   <i type="int" name="NSW">   400</i>
   <i type="int" name="IBRION">     1</i>
   <i type="int" name="ISIF">     2</i>
   <i name="PSTRESS">      0.00000000</i>
   <i name="EDIFFG">     -0.00000100</i>
   <i type="int" name="NFREE">     0</i>
   <i name="POTIM">      0.50000000</i>
   <i name="SMASS">     -3.00000000</i>
   <i name="SCALEE">      1.00000000</i>
  </separator>
  <separator name="ionic md" >
   <i name="TEBEG">      0.00010000</i>
   <i name="TEEND">      0.00010000</i>
   <i type="int" name="NBLOCK">     1</i>
   <i type="int" name="KBLOCK">   400</i>
   <i type="int" name="NPACO">   256</i>
   <i name="APACO">     16.00000000</i>
  </separator>
  <separator name="symmetry" >
   <i type="int" name="ISYM">     2</i>
   <i name="SYMPREC">      0.00001000</i>
  </separator>
  <separator name="dos" >
   <i type="logical" name="LORBIT"> F  </i>
   <v name="RWIGS">     -1.00000000</v>
   <i type="int" name="NEDOS">   301</i>
   <i name="EMIN">     10.00000000</i>
   <i name="EMAX">    -10.00000000</i>
   <i name="EFERMI">      0.00000000</i>
  </separator>
  <separator name="writing" >
   <i type="int" name="NWRITE">     2</i>
   <i type="logical" name="LWAVE"> F  </i>
   <i type="logical" name="LCHARG"> F  </i>
   <i type="logical" name="LPARD"> F  </i>
   <i type="logical" name="LVTOT"> F  </i>
   <i type="logical" name="LVHAR"> F  </i>
   <i type="logical" name="LELF"> F  </i>
   <i type="logical" name="LOPTICS"> F  </i>
   <v name="STM">      0.00000000      0.00000000      0.00000000      0.00000000      0.00000000      0.00000000      0.00000000</v>
  </separator>
  <separator name="performance" >
   <i type="int" name="NPAR">     4</i>
   <i type="int" name="NSIM">     4</i>
   <i type="int" name="NBLK">    -1</i>
   <i type="logical" name="LPLANE"> T  </i>
   <i type="logical" name="LSCALAPACK"> F  </i>
   <i type="logical" name="LSCAAWARE"> F  </i>
   <i type="logical" name="LSCALU"> F  </i>
   <i type="logical" name="LASYNC"> F  </i>
   <i type="logical" name="LORBITALREAL"> F  </i>
  </separator>
  <separator name="miscellaneous" >
   <i type="int" name="IDIOT">     3</i>
   <i type="logical" name="LMUSIC"> F  </i>
   <v name="POMASS">     12.01100000</v>
   <v name="DARWINR">      0.00000000</v>
   <v name="DARWINV">      1.00000000</v>
   <i type="logical" name="LCORR"> T  </i>
  </separator>
  <i type="logical" name="GGA_COMPAT"> T  </i>
  <i type="logical" name="LBERRY"> F  </i>
  <i type="int" name="ICORELEVEL">     0</i>
  <i type="logical" name="LDAU"> F  </i>
  <i type="int" name="I_CONSTRAINED_M">     0</i>
  <separator name="electronic exchange-correlation" >
   <i type="string" name="GGA">--</i>
   <i type="int" name="VOSKOWN">     0</i>
   <i type="logical" name="LHFCALC"> F  </i>
   <i type="string" name="PRECFOCK"></i>
   <i type="logical" name="LSYMGRAD"> F  </i>
   <i type="logical" name="LHFONE"> F  </i>
   <i type="logical" name="LRHFCALC"> F  </i>
   <i type="logical" name="LTHOMAS"> F  </i>
   <i type="logical" name="LMODELHF"> F  </i>
   <i name="ENCUT4O">     -1.00000000</i>
   <i type="int" name="EXXOEP">     0</i>
   <i type="int" name="FOURORBIT">     0</i>
   <i name="AEXX">      0.00000000</i>
   <i name="HFALPHA">      0.00000000</i>
   <i name="MCALPHA">      0.00000000</i>
   <i name="ALDAX">      1.00000000</i>
   <i name="AGGAX">      1.00000000</i>
   <i name="ALDAC">      1.00000000</i>
   <i name="AGGAC">      1.00000000</i>
   <i type="int" name="NKREDX">     1</i>
   <i type="int" name="NKREDY">     1</i>
   <i type="int" name="NKREDZ">     1</i>
   <i type="logical" name="SHIFTRED"> F  </i>
   <i type="logical" name="ODDONLY"> F  </i>
   <i type="logical" name="EVENONLY"> F  </i>
   <i type="int" name="LMAXFOCK">     0</i>
   <i type="int" name="NMAXFOCKAE">     0</i>
   <i type="logical" name="LFOCKAEDFT"> F  </i>
   <i name="HFSCREEN">      0.00000000</i>
   <i name="HFSCREENC">      0.00000000</i>
   <i type="int" name="NBANDSGWLOW">     0</i>
  </separator>
  <separator name="vdW DFT" >
   <i type="logical" name="LUSE_VDW"> F  </i>
   <i name="Zab_VDW">     -0.84910000</i>
   <i name="PARAM1">      0.12340000</i>
   <i name="PARAM2">      1.00000000</i>
   <i name="PARAM3">      0.00000000</i>
  </separator>
  <separator name="model GW" >
   <i type="int" name="MODEL_GW">     0</i>
   <i name="MODEL_EPS0">     31.62568521</i>
   <i name="MODEL_ALPHA">      1.00000000</i>
  </separator>
  <separator name="linear response parameters" >
   <i type="logical" name="LEPSILON"> F  </i>
   <i type="logical" name="LRPA"> F  </i>
   <i type="logical" name="LNABLA"> F  </i>
   <i type="logical" name="LVEL"> F  </i>
   <i type="int" name="KINTER">     0</i>
   <i name="CSHIFT">      0.10000000</i>
   <i name="OMEGAMAX">     -1.00000000</i>
   <i name="DEG_THRESHOLD">      0.00200000</i>
  </separator>
  <separator name="orbital magnetization" >
   <i type="logical" name="NUCIND"> F  </i>
   <v name="MAGPOS">      0.00000000      0.00000000      0.00000000</v>
   <i type="logical" name="LNICSALL"> T  </i>
   <i type="logical" name="ORBITALMAG"> F  </i>
   <i type="logical" name="LMAGBLOCH"> F  </i>
   <i type="logical" name="LCHIMAG"> F  </i>
   <i type="logical" name="LGAUGE"> T  </i>
   <i type="int" name="MAGATOM">     0</i>
   <v name="MAGDIPOL">      0.00000000      0.00000000      0.00000000</v>
   <v name="AVECCONST">      0.00000000      0.00000000      0.00000000</v>
  </separator>
  <separator name="response functions" >
   <i type="logical" name="LADDER"> F  </i>
   <i type="logical" name="LFXC"> F  </i>
   <i type="logical" name="LHARTREE"> T  </i>
   <i type="int" name="IBSE">     0</i>
   <i type="logical" name="LTCTE"> F  </i>
   <i type="logical" name="LTETE"> F  </i>
   <i type="logical" name="LTRIPLET"> F  </i>
   <i type="logical" name="LFXCEPS"> F  </i>
   <i type="logical" name="LFXHEG"> F  </i>
   <i type="logical" name="L2ORDER"> F  </i>
   <i type="logical" name="LUSEW"> F  </i>
   <i name="ENCUTGW">     -2.00000000</i>
   <i name="ENCUTGWSOFT">     -2.00000000</i>
   <i name="ENCUTLF">     -1.00000000</i>
   <i type="int" name="LMAXMP2">    -1</i>
   <i name="SCISSOR">      0.00000000</i>
   <i type="int" name="NOMEGA">     0</i>
   <i type="int" name="NOMEGAR">     0</i>
   <i type="int" name="NBANDSGW">    -1</i>
   <i type="int" name="NBANDSO">    -1</i>
   <i type="int" name="NBANDSV">    -1</i>
   <i type="int" name="NELM">   100</i>
   <i type="int" name="DIM">     3</i>
   <i type="int" name="ANTIRES">     0</i>
   <i name="OMEGAMAX">    -30.00000000</i>
   <i name="OMEGAMIN">    -30.00000000</i>
   <i name="OMEGATL">   -200.00000000</i>
   <i type="int" name="OMEGAGRID">     0</i>
   <i name="CSHIFT">     -0.10000000</i>
   <i type="logical" name="SELFENERGY"> F  </i>
   <i type="logical" name="LSPECTRAL"> F  </i>
   <i type="logical" name="ODDONLYGW"> F  </i>
   <i type="logical" name="EVENONLYGW"> F  </i>
   <i type="int" name="NKREDLFX">     1</i>
   <i type="int" name="NKREDLFY">     1</i>
   <i type="int" name="NKREDLFZ">     1</i>
   <i type="int" name="MAXMEM">  1800</i>
   <i type="int" name="TELESCOPE">     0</i>
   <i type="int" name="TAUPAR">     1</i>
  </separator>
  <separator name="External order field" >
   <i name="OFIELD_KAPPA">      0.00000000</i>
   <v name="OFIELD_K">      0.00000000      0.00000000      0.00000000</v>
   <i name="OFIELD_Q6_NEAR">      0.00000000</i>
   <i name="OFIELD_Q6_FAR">      0.00000000</i>
   <i name="OFIELD_A">      0.00000000</i>
  </separator>
 </parameters>
 <atominfo>
  <atoms>       4 </atoms>
  <types>       1 </types>
  <array name="atoms" >
   <dimension dim="1">ion</dimension>
   <field type="string">element</field>
   <field type="int">atomtype</field>
   <set>
    <rc><c>C </c><c>   1</c></rc>
    <rc><c>C </c><c>   1</c></rc>
    <rc><c>C </c><c>   1</c></rc>
    <rc><c>C </c><c>   1</c></rc>
   </set>
  </array>
  <array name="atomtypes" >
   <dimension dim="1">type</dimension>
   <field type="int">atomspertype</field>
   <field type="string">element</field>
   <field>mass</field>
   <field>valence</field>
   <field type="string">pseudopotential</field>
   <set>
    <rc><c>   4</c><c>C </c><c>     12.01100000</c><c>      4.00000000</c><c> PAW_PBE C 08Apr2002                    </c></rc>
   </set>
  </array>
 </atominfo>
 <structure name="initialpos" >
  <crystal>
   <varray name="basis" >
    <v>       4.38116538       0.00000000       0.00000000 </v>
    <v>       0.00000000       2.45707485       0.00000000 </v>
    <v>       0.00000000       0.00000000      19.58577001 </v>
   </varray>
   <i name="volume">    210.83790140 </i>
   <varray name="rec_basis" >
    <v>       0.22824977       0.00000000       0.00000000 </v>
    <v>       0.00000000       0.40698801       0.00000000 </v>
    <v>       0.00000000       0.00000000       0.05105748 </v>
   </varray>
  </crystal>
  <varray name="positions" >
   <v>       0.99945869       0.00000000       0.00000000 </v>
   <v>       0.16720798       0.50000000       0.00000000 </v>
   <v>       0.49945869       0.50000000       0.00000000 </v>
   <v>       0.66720798       0.00000000       0.00000000 </v>
  </varray>
 </structure>
 <calculation>
  <scstep>
   <time name="dav">  298.89  300.44</time>
   <time name="total">  301.50  303.25</time>
   <energy>
    <i name="alphaZ">      6.18334092 </i>
    <i name="ewald">   2447.94055214 </i>
    <i name="hartreedc">  -2877.47962753 </i>
    <i name="XCdc">     54.81397287 </i>
    <i name="pawpsdc">    151.32577238 </i>
    <i name="pawaedc">   -155.92769107 </i>
    <i name="eentropy">     -0.00156794 </i>
    <i name="bandstr">    -28.67946318 </i>
    <i name="atom">    588.62352690 </i>
    <i name="e_fr_energy">    186.79881548 </i>
    <i name="e_wo_entrp">    186.80038343 </i>
    <i name="e_0_energy">    186.79959946 </i>
   </energy>
  </scstep>
  <scstep>
   <time name="dav">  449.47  452.40</time>
   <time name="total">  449.47  452.84</time>
   <energy>
    <i name="e_fr_energy">     -9.40674470 </i>
    <i name="e_wo_entrp">     -9.40616008 </i>
    <i name="e_0_energy">     -9.40645239 </i>
   </energy>
  </scstep>
  <scstep>
   <time name="dav">  344.19  347.04</time>
   <time name="total">  375.00  378.15</time>
   <energy>
    <i name="e_fr_energy">    -38.10491405 </i>
    <i name="e_wo_entrp">    -38.10491396 </i>
    <i name="e_0_energy">    -38.10491401 </i>
   </energy>
  </scstep>
  <scstep>
   <time name="diag">   80.21   80.58</time>
   <time name="diis">  342.31  344.81</time>
   <time name="orth">    3.08    3.09</time>
   <time name="total">  458.90  461.86</time>
   <energy>
    <i name="e_fr_energy">    -37.57036784 </i>
    <i name="e_wo_entrp">    -37.57036783 </i>
    <i name="e_0_energy">    -37.57036783 </i>
   </energy>
  </scstep>
  <scstep>
   <time name="diag">   80.09   80.64</time>
   <time name="diis">  332.46  334.76</time>
   <time name="orth">    3.09    3.10</time>
   <time name="total">  448.79  451.88</time>
   <energy>
    <i name="e_fr_energy">    -36.86577944 </i>
    <i name="e_wo_entrp">    -36.86577942 </i>
    <i name="e_0_energy">    -36.86577943 </i>
   </energy>
  </scstep>
  <scstep>
   <time name="diag">   79.97   80.52</time>
   <time name="diis">  368.89  372.06</time>
   <time name="orth">    3.08    3.08</time>
   <time name="total">  485.27  489.25</time>
   <energy>
    <i name="e_fr_energy">    -36.86792014 </i>
    <i name="e_wo_entrp">    -36.86792013 </i>
    <i name="e_0_energy">    -36.86792013 </i>
   </energy>
  </scstep>
  <scstep>
   <time name="diag">   80.54   80.63</time>
   <time name="diis">  336.00  336.56</time>
   <time name="orth">    3.08    3.08</time>
   <time name="total">  453.00  453.78</time>
   <energy>
    <i name="e_fr_energy">    -36.85907013 </i>
    <i name="e_wo_entrp">    -36.85907012 </i>
    <i name="e_0_energy">    -36.85907012 </i>
   </energy>
  </scstep>
  <scstep>
   <time name="diag">   80.23   80.60</time>
   <time name="diis">  336.62  337.79</time>
   <time name="orth">    3.08    3.08</time>
   <time name="total">  453.21  454.85</time>
   <energy>
    <i name="e_fr_energy">    -36.85424978 </i>
    <i name="e_wo_entrp">    -36.85424977 </i>
    <i name="e_0_energy">    -36.85424978 </i>
   </energy>
  </scstep>
  <scstep>
   <time name="diag">   80.35   80.58</time>
   <time name="diis">  326.04  326.79</time>
   <time name="orth">    3.10    3.10</time>
   <time name="total">  442.81  444.08</time>
   <energy>
    <i name="e_fr_energy">    -36.85404560 </i>
    <i name="e_wo_entrp">    -36.85404558 </i>
    <i name="e_0_energy">    -36.85404559 </i>
   </energy>
  </scstep>
  <scstep>
   <time name="diag">   80.45   80.62</time>
   <time name="diis">  326.92  327.29</time>
   <time name="orth">    3.09    3.10</time>
   <time name="total">  443.61  444.46</time>
   <energy>
    <i name="e_fr_energy">    -36.85392224 </i>
    <i name="e_wo_entrp">    -36.85392223 </i>
    <i name="e_0_energy">    -36.85392223 </i>
   </energy>
  </scstep>
  <scstep>
   <time name="diag">   79.63   80.54</time>
   <time name="diis">  327.16  328.86</time>
   <time name="orth">    3.09    3.11</time>
   <time name="total">  443.19  445.95</time>
   <energy>
    <i name="e_fr_energy">    -36.85620078 </i>
    <i name="e_wo_entrp">    -36.85620077 </i>
    <i name="e_0_energy">    -36.85620078 </i>
   </energy>
  </scstep>
  <scstep>
   <time name="diag">   79.90   80.57</time>
   <time name="diis">  327.66  329.73</time>
   <time name="orth">    3.08    3.08</time>
   <time name="total">  443.71  446.93</time>
   <energy>
    <i name="e_fr_energy">    -36.85670479 </i>
    <i name="e_wo_entrp">    -36.85670478 </i>
    <i name="e_0_energy">    -36.85670478 </i>
   </energy>
  </scstep>
  <scstep>
   <time name="diag">   79.72   80.57</time>
   <time name="diis">  331.84  335.52</time>
   <time name="orth">    3.09    3.10</time>
   <time name="total">  447.82  452.78</time>
   <energy>
    <i name="e_fr_energy">    -36.85696005 </i>
    <i name="e_wo_entrp">    -36.85696003 </i>
    <i name="e_0_energy">    -36.85696004 </i>
   </energy>
  </scstep>
  <scstep>
   <time name="diag">   80.40   80.59</time>
   <time name="diis">  334.01  336.22</time>
   <time name="orth">    3.08    3.10</time>
   <time name="total">  450.92  453.43</time>
   <energy>
    <i name="e_fr_energy">    -36.85704284 </i>
    <i name="e_wo_entrp">    -36.85704282 </i>
    <i name="e_0_energy">    -36.85704283 </i>
   </energy>
  </scstep>
  <scstep>
   <time name="diag">   80.06   80.55</time>
   <time name="diis">  326.74  329.40</time>
   <time name="orth">    3.06    3.10</time>
   <time name="total">  443.02  446.61</time>
   <energy>
    <i name="e_fr_energy">    -36.85705649 </i>
    <i name="e_wo_entrp">    -36.85705648 </i>
    <i name="e_0_energy">    -36.85705648 </i>
   </energy>
  </scstep>
  <scstep>
   <time name="diag">   79.81   80.57</time>
   <time name="diis">  326.60  328.71</time>
   <time name="orth">    3.07    3.07</time>
   <time name="total">  443.02  445.96</time>
   <energy>
    <i name="e_fr_energy">    -36.85706959 </i>
    <i name="e_wo_entrp">    -36.85706957 </i>
    <i name="e_0_energy">    -36.85706958 </i>
   </energy>
  </scstep>
  <scstep>
   <time name="diag">   80.28   80.60</time>
   <time name="diis">  326.76  329.05</time>
   <time name="orth">    3.07    3.07</time>
   <time name="total">  443.41  446.33</time>
   <energy>
    <i name="e_fr_energy">    -36.85707563 </i>
    <i name="e_wo_entrp">    -36.85707562 </i>
    <i name="e_0_energy">    -36.85707563 </i>
   </energy>
  </scstep>
  <scstep>
   <time name="diag">   79.84   80.60</time>
   <time name="diis">  331.01  334.56</time>
   <time name="orth">    3.07    3.09</time>
   <time name="total">  447.09  451.81</time>
   <energy>
    <i name="e_fr_energy">    -36.85707669 </i>
    <i name="e_wo_entrp">    -36.85707667 </i>
    <i name="e_0_energy">    -36.85707668 </i>
   </energy>
  </scstep>
  <scstep>
   <time name="diag">   79.58   80.57</time>
   <time name="diis">  299.44  302.63</time>
   <time name="orth">    3.08    3.10</time>
   <time name="total">  415.50  419.83</time>
   <energy>
    <i name="e_fr_energy">    -36.85707744 </i>
    <i name="e_wo_entrp">    -36.85707743 </i>
    <i name="e_0_energy">    -36.85707743 </i>
   </energy>
  </scstep>
  <scstep>
   <time name="diag">   80.29   80.48</time>
   <time name="diis">  249.51  250.72</time>
   <time name="orth">    3.07    3.07</time>
   <time name="total">  366.15  367.79</time>
   <energy>
    <i name="e_fr_energy">    -36.85707748 </i>
    <i name="e_wo_entrp">    -36.85707746 </i>
    <i name="e_0_energy">    -36.85707747 </i>
   </energy>
  </scstep>
  <scstep>
   <time name="diag">   80.04   80.50</time>
   <time name="diis">  242.30  243.99</time>
   <time name="orth">    3.09    3.11</time>
   <time name="total">  358.67  361.10</time>
   <energy>
    <i name="e_fr_energy">    -36.85707749 </i>
    <i name="e_wo_entrp">    -36.85707748 </i>
    <i name="e_0_energy">    -36.85707748 </i>
   </energy>
  </scstep>
  <scstep>
   <time name="diag">   79.90   80.47</time>
   <time name="diis">  223.29  225.64</time>
   <time name="orth">    3.07    3.09</time>
   <time name="total">  308.71  311.70</time>
   <energy>
    <i name="alphaZ">      6.18334092 </i>
    <i name="ewald">   2447.94055214 </i>
    <i name="hartreedc">  -2942.22930700 </i>
    <i name="XCdc">     57.13741129 </i>
    <i name="pawpsdc">    268.73006397 </i>
    <i name="pawaedc">   -273.84115457 </i>
    <i name="eentropy">     -0.00000001 </i>
    <i name="bandstr">   -189.40151114 </i>
    <i name="atom">    588.62352690 </i>
    <i name="e_fr_energy">    -36.85707749 </i>
    <i name="e_wo_entrp">    -36.85707748 </i>
    <i name="e_0_energy">    -36.85707748 </i>
   </energy>
  </scstep>
  <structure>
   <crystal>
    <varray name="basis" >
     <v>       4.38116538       0.00000000       0.00000000 </v>
     <v>       0.00000000       2.45707485       0.00000000 </v>
     <v>       0.00000000       0.00000000      19.58577001 </v>
    </varray>
    <i name="volume">    210.83790140 </i>
    <varray name="rec_basis" >
     <v>       0.22824977       0.00000000       0.00000000 </v>
     <v>       0.00000000       0.40698801       0.00000000 </v>
     <v>       0.00000000       0.00000000       0.05105748 </v>
    </varray>
   </crystal>
   <varray name="positions" >
    <v>       0.99945869       0.00000000       0.00000000 </v>
    <v>       0.16720798       0.50000000       0.00000000 </v>
    <v>       0.49945869       0.50000000       0.00000000 </v>
    <v>       0.66720798       0.00000000       0.00000000 </v>
   </varray>
  </structure>
  <varray name="forces" >
   <v>      -0.00100005       0.00000000       0.00000000 </v>
   <v>       0.00100005       0.00000000       0.00000000 </v>
   <v>      -0.00100005       0.00000000       0.00000000 </v>
   <v>       0.00100005      -0.00000000       0.00000000 </v>
  </varray>
  <varray name="stress" >
   <v>     -41.53973758       0.00000000       0.00000000 </v>
   <v>       0.00000000       0.00813310       0.00000000 </v>
   <v>       0.00000000       0.00000000      -0.01030510 </v>
  </varray>
  <energy>
   <i name="e_fr_energy">    -36.85707749 </i>
   <i name="e_wo_entrp">    -36.85707748 </i>
   <i name="e_0_energy">     -0.00000001 </i>
  </energy>
  <time name="totalsc"> 9423.42 9486.13</time>
 </calculation>
 <calculation>
  <scstep>
   <time name="dav">  317.41  317.57</time>
   <time name="total">  350.89  351.06</time>
   <energy>
    <i name="alphaZ">      6.18334092 </i>
    <i name="ewald">   2447.93951117 </i>
    <i name="hartreedc">  -2942.22884373 </i>
    <i name="XCdc">     57.13738131 </i>
    <i name="pawpsdc">    268.73007351 </i>
    <i name="pawaedc">   -273.84116400 </i>
    <i name="eentropy">     -0.00000002 </i>
    <i name="bandstr">   -189.40090329 </i>
    <i name="atom">    588.62352690 </i>
    <i name="e_fr_energy">    -36.85707723 </i>
    <i name="e_wo_entrp">    -36.85707721 </i>
    <i name="e_0_energy">    -36.85707722 </i>
   </energy>
  </scstep>
  <scstep>
   <time name="diag">   80.64   80.66</time>
   <time name="diis">  327.60  327.69</time>
   <time name="orth">    3.07    3.08</time>
   <time name="total">  444.91  445.04</time>
   <energy>
    <i name="e_fr_energy">    -36.85707724 </i>
    <i name="e_wo_entrp">    -36.85707722 </i>
    <i name="e_0_energy">    -36.85707723 </i>
   </energy>
  </scstep>
  <scstep>
   <time name="diag">   80.66   80.72</time>
   <time name="diis">  330.73  330.82</time>
   <time name="orth">    3.09    3.09</time>
   <time name="total">  447.90  448.32</time>
   <energy>
    <i name="e_fr_energy">    -36.85707722 </i>
    <i name="e_wo_entrp">    -36.85707720 </i>
    <i name="e_0_energy">    -36.85707721 </i>
   </energy>
  </scstep>
  <scstep>
   <time name="diag">   80.63   80.66</time>
   <time name="diis">  335.93  336.05</time>
   <time name="orth">    3.09    3.09</time>
   <time name="total">  453.11  453.54</time>
   <energy>
    <i name="e_fr_energy">    -36.85707722 </i>
    <i name="e_wo_entrp">    -36.85707721 </i>
    <i name="e_0_energy">    -36.85707721 </i>
   </energy>
  </scstep>
  <scstep>
   <time name="diag">   80.63   80.70</time>
   <time name="diis">  244.34  244.56</time>
   <time name="orth">    3.07    3.08</time>
   <time name="total">  361.52  361.85</time>
   <energy>
    <i name="e_fr_energy">    -36.85707722 </i>
    <i name="e_wo_entrp">    -36.85707720 </i>
    <i name="e_0_energy">    -36.85707721 </i>
   </energy>
  </scstep>
  <scstep>
   <time name="diag">   80.60   80.63</time>
   <time name="diis">  217.21  217.27</time>
   <time name="orth">    3.09    3.09</time>
   <time name="total">  303.34  303.56</time>
   <energy>
    <i name="alphaZ">      6.18334092 </i>
    <i name="ewald">   2447.93951117 </i>
    <i name="hartreedc">  -2942.22848097 </i>
    <i name="XCdc">     57.13736550 </i>
    <i name="pawpsdc">    268.72833888 </i>
    <i name="pawaedc">   -273.83942219 </i>
    <i name="eentropy">     -0.00000002 </i>
    <i name="bandstr">   -189.40125742 </i>
    <i name="atom">    588.62352690 </i>
    <i name="e_fr_energy">    -36.85707722 </i>
    <i name="e_wo_entrp">    -36.85707720 </i>
    <i name="e_0_energy">    -36.85707721 </i>
   </energy>
  </scstep>
  <structure>
   <crystal>
    <varray name="basis" >
     <v>       4.38116538       0.00000000       0.00000000 </v>
     <v>       0.00000000       2.45707485       0.00000000 </v>
     <v>       0.00000000       0.00000000      19.58577001 </v>
    </varray>
    <i name="volume">    210.83790140 </i>
    <varray name="rec_basis" >
     <v>       0.22824977       0.00000000       0.00000000 </v>
     <v>       0.00000000       0.40698801       0.00000000 </v>
     <v>       0.00000000       0.00000000       0.05105748 </v>
    </varray>
   </crystal>
   <varray name="positions" >
    <v>       0.99944768       0.00000000       0.00000000 </v>
    <v>       0.16721899       0.50000000       0.00000000 </v>
    <v>       0.49944768       0.50000000       0.00000000 </v>
    <v>       0.66721899      -0.00000000       0.00000000 </v>
   </varray>
  </structure>
  <varray name="forces" >
   <v>       0.00368136       0.00000000       0.00000000 </v>
   <v>      -0.00368136       0.00000000      -0.00000000 </v>
   <v>       0.00368136      -0.00000000       0.00000000 </v>
   <v>      -0.00368136       0.00000000      -0.00000000 </v>
  </varray>
  <varray name="stress" >
   <v>     -41.53237648       0.00000000       0.00000000 </v>
   <v>       0.00000000      -0.00720487       0.00000000 </v>
   <v>       0.00000000       0.00000000      -0.01020904 </v>
  </varray>
  <energy>
   <i name="e_fr_energy">    -36.85707722 </i>
   <i name="e_wo_entrp">    -36.85707721 </i>
   <i name="e_0_energy">     -0.00000002 </i>
  </energy>
  <time name="totalsc"> 2463.40 2465.36</time>
 </calculation>
 <calculation>
  <scstep>
   <time name="dav">  326.98  327.13</time>
   <time name="total">  360.09  360.25</time>
   <energy>
    <i name="alphaZ">      6.18334092 </i>
    <i name="ewald">   2447.94032950 </i>
    <i name="hartreedc">  -2942.22882372 </i>
    <i name="XCdc">     57.13738845 </i>
    <i name="pawpsdc">    268.72833285 </i>
    <i name="pawaedc">   -273.83941605 </i>
    <i name="eentropy">     -0.00000002 </i>
    <i name="bandstr">   -189.40175633 </i>
    <i name="atom">    588.62352690 </i>
    <i name="e_fr_energy">    -36.85707750 </i>
    <i name="e_wo_entrp">    -36.85707748 </i>
    <i name="e_0_energy">    -36.85707749 </i>
   </energy>
  </scstep>
  <scstep>
   <time name="diag">   80.64   80.67</time>
   <time name="diis">  329.30  329.41</time>
   <time name="orth">    3.10    3.10</time>
   <time name="total">  446.11  446.27</time>
   <energy>
    <i name="e_fr_energy">    -36.85707751 </i>
    <i name="e_wo_entrp">    -36.85707750 </i>
    <i name="e_0_energy">    -36.85707750 </i>
   </energy>
  </scstep>
  <scstep>
   <time name="diag">   80.66   80.68</time>
   <time name="diis">  331.09  331.20</time>
   <time name="orth">    3.08    3.08</time>
   <time name="total">  447.82  447.98</time>
   <energy>
    <i name="e_fr_energy">    -36.85707751 </i>
    <i name="e_wo_entrp">    -36.85707750 </i>
    <i name="e_0_energy">    -36.85707750 </i>
   </energy>
  </scstep>
  <scstep>
   <time name="diag">   79.90   80.66</time>
   <time name="diis">  333.68  337.56</time>
   <time name="orth">    3.08    3.08</time>
   <time name="total">  448.87  453.98</time>
   <energy>
    <i name="e_fr_energy">    -36.85707751 </i>
    <i name="e_wo_entrp">    -36.85707749 </i>
    <i name="e_0_energy">    -36.85707750 </i>
   </energy>
  </scstep>
  <scstep>
   <time name="diag">   80.14   80.70</time>
   <time name="diis">  234.11  234.58</time>
   <time name="orth">    3.08    3.08</time>
   <time name="total">  350.53  351.65</time>
   <energy>
    <i name="e_fr_energy">    -36.85707751 </i>
    <i name="e_wo_entrp">    -36.85707749 </i>
    <i name="e_0_energy">    -36.85707750 </i>
   </energy>
  </scstep>
  <scstep>
   <time name="diag">   80.48   80.65</time>
   <time name="diis">  215.13  216.74</time>
   <time name="orth">    3.08    3.08</time>
   <time name="total">  331.73  333.74</time>
   <energy>
    <i name="e_fr_energy">    -36.85707751 </i>
    <i name="e_wo_entrp">    -36.85707749 </i>
    <i name="e_0_energy">    -36.85707750 </i>
   </energy>
  </scstep>
  <scstep>
   <time name="diag">   80.18   80.64</time>
   <time name="diis">  215.15  215.85</time>
   <time name="orth">    3.09    3.09</time>
   <time name="total">  300.83  302.06</time>
   <energy>
    <i name="alphaZ">      6.18334092 </i>
    <i name="ewald">   2447.94032950 </i>
    <i name="hartreedc">  -2942.22911588 </i>
    <i name="XCdc">     57.13740190 </i>
    <i name="pawpsdc">    268.72972077 </i>
    <i name="pawaedc">   -273.84081014 </i>
    <i name="eentropy">     -0.00000002 </i>
    <i name="bandstr">   -189.40147147 </i>
    <i name="atom">    588.62352690 </i>
    <i name="e_fr_energy">    -36.85707751 </i>
    <i name="e_wo_entrp">    -36.85707749 </i>
    <i name="e_0_energy">    -36.85707750 </i>
   </energy>
  </scstep>
  <structure>
   <crystal>
    <varray name="basis" >
     <v>       4.38116538       0.00000000       0.00000000 </v>
     <v>       0.00000000       2.45707485       0.00000000 </v>
     <v>       0.00000000       0.00000000      19.58577001 </v>
    </varray>
    <i name="volume">    210.83790140 </i>
    <varray name="rec_basis" >
     <v>       0.22824977       0.00000000       0.00000000 </v>
     <v>       0.00000000       0.40698801       0.00000000 </v>
     <v>       0.00000000       0.00000000       0.05105748 </v>
    </varray>
   </crystal>
   <varray name="positions" >
    <v>       0.99945634       0.00000000       0.00000000 </v>
    <v>       0.16721033       0.50000000      -0.00000000 </v>
    <v>       0.49945634       0.50000000       0.00000000 </v>
    <v>       0.66721033      -0.00000000      -0.00000000 </v>
   </varray>
  </structure>
  <varray name="forces" >
   <v>       0.00000789       0.00000000      -0.00000000 </v>
   <v>      -0.00000789      -0.00000000       0.00000000 </v>
   <v>       0.00000789       0.00000000      -0.00000000 </v>
   <v>      -0.00000789      -0.00000000       0.00000000 </v>
  </varray>
  <varray name="stress" >
   <v>     -41.53809103       0.00000000       0.00000000 </v>
   <v>       0.00000000       0.00480756       0.00000000 </v>
   <v>       0.00000000       0.00000000      -0.01010444 </v>
  </varray>
  <energy>
   <i name="e_fr_energy">    -36.85707751 </i>
   <i name="e_wo_entrp">    -36.85707750 </i>
   <i name="e_0_energy">     -0.00000002 </i>
  </energy>
  <time name="totalsc"> 2788.47 2799.81</time>
 </calculation>
 <calculation>
  <scstep>
   <time name="dav">  254.92  256.28</time>
   <time name="total">  287.68  289.25</time>
   <energy>
    <i name="alphaZ">      6.18334092 </i>
    <i name="ewald">   2447.94033126 </i>
    <i name="hartreedc">  -2942.22912383 </i>
    <i name="XCdc">     57.13740205 </i>
    <i name="pawpsdc">    268.72972456 </i>
    <i name="pawaedc">   -273.84081392 </i>
    <i name="eentropy">     -0.00000002 </i>
    <i name="bandstr">   -189.40146543 </i>
    <i name="atom">    588.62352690 </i>
    <i name="e_fr_energy">    -36.85707751 </i>
    <i name="e_wo_entrp">    -36.85707749 </i>
    <i name="e_0_energy">    -36.85707750 </i>
   </energy>
  </scstep>
  <scstep>
   <time name="diag">   80.48   80.65</time>
   <time name="diis">  195.19  195.52</time>
   <time name="orth">    3.09    3.10</time>
   <time name="total">  311.82  312.39</time>
   <energy>
    <i name="e_fr_energy">    -36.85707751 </i>
    <i name="e_wo_entrp">    -36.85707749 </i>
    <i name="e_0_energy">    -36.85707750 </i>
   </energy>
  </scstep>
  <scstep>
   <time name="diag">   80.47   80.66</time>
   <time name="diis">  187.26  187.50</time>
   <time name="orth">    3.08    3.08</time>
   <time name="total">  303.74  304.25</time>
   <energy>
    <i name="e_fr_energy">    -36.85707751 </i>
    <i name="e_wo_entrp">    -36.85707749 </i>
    <i name="e_0_energy">    -36.85707750 </i>
   </energy>
  </scstep>
  <scstep>
   <time name="diag">   80.45   80.65</time>
   <time name="diis">  177.20  177.52</time>
   <time name="orth">    3.08    3.08</time>
   <time name="total">  293.74  294.39</time>
   <energy>
    <i name="e_fr_energy">    -36.85707751 </i>
    <i name="e_wo_entrp">    -36.85707749 </i>
    <i name="e_0_energy">    -36.85707750 </i>
   </energy>
  </scstep>
  <scstep>
   <time name="diag">   80.44   80.67</time>
   <time name="diis">  173.53  173.93</time>
   <time name="orth">    3.08    3.10</time>
   <time name="total">  259.47  266.79</time>
   <energy>
    <i name="alphaZ">      6.18334092 </i>
    <i name="ewald">   2447.94033126 </i>
    <i name="hartreedc">  -2942.22912712 </i>
    <i name="XCdc">     57.13740200 </i>
    <i name="pawpsdc">    268.72972364 </i>
    <i name="pawaedc">   -273.84081297 </i>
    <i name="eentropy">     -0.00000002 </i>
    <i name="bandstr">   -189.40146213 </i>
    <i name="atom">    588.62352690 </i>
    <i name="e_fr_energy">    -36.85707751 </i>
    <i name="e_wo_entrp">    -36.85707749 </i>
    <i name="e_0_energy">    -36.85707750 </i>
   </energy>
  </scstep>
  <structure>
   <crystal>
    <varray name="basis" >
     <v>       4.38116538       0.00000000       0.00000000 </v>
     <v>       0.00000000       2.45707485       0.00000000 </v>
     <v>       0.00000000       0.00000000      19.58577001 </v>
    </varray>
    <i name="volume">    210.83790140 </i>
    <varray name="rec_basis" >
     <v>       0.22824977       0.00000000       0.00000000 </v>
     <v>       0.00000000       0.40698801       0.00000000 </v>
     <v>       0.00000000       0.00000000       0.05105748 </v>
    </varray>
   </crystal>
   <varray name="positions" >
    <v>       0.99945636       0.00000000      -0.00000000 </v>
    <v>       0.16721031       0.50000000       0.00000000 </v>
    <v>       0.49945636       0.50000000      -0.00000000 </v>
    <v>       0.66721031      -0.00000000       0.00000000 </v>
   </varray>
  </structure>
  <varray name="forces" >
   <v>      -0.00000957      -0.00000000       0.00000000 </v>
   <v>       0.00000957      -0.00000000      -0.00000000 </v>
   <v>      -0.00000957       0.00000000       0.00000000 </v>
   <v>       0.00000957      -0.00000000      -0.00000000 </v>
  </varray>
  <varray name="stress" >
   <v>     -41.53815650       0.00000000       0.00000000 </v>
   <v>       0.00000000       0.00489517       0.00000000 </v>
   <v>       0.00000000       0.00000000      -0.01013731 </v>
  </varray>
  <energy>
   <i name="e_fr_energy">    -36.85707751 </i>
   <i name="e_wo_entrp">    -36.85707750 </i>
   <i name="e_0_energy">     -0.00000002 </i>
  </energy>
  <time name="totalsc"> 1559.36 1570.60</time>
 </calculation>
 <calculation>
  <scstep>
   <time name="dav">  266.19  267.14</time>
   <time name="total">  299.22  300.49</time>
   <energy>
    <i name="alphaZ">      6.18334092 </i>
    <i name="ewald">   2447.94033029 </i>
    <i name="hartreedc">  -2942.22912802 </i>
    <i name="XCdc">     57.13740198 </i>
    <i name="pawpsdc">    268.72972372 </i>
    <i name="pawaedc">   -273.84081305 </i>
    <i name="eentropy">     -0.00000002 </i>
    <i name="bandstr">   -189.40146024 </i>
    <i name="atom">    588.62352690 </i>
    <i name="e_fr_energy">    -36.85707751 </i>
    <i name="e_wo_entrp">    -36.85707749 </i>
    <i name="e_0_energy">    -36.85707750 </i>
   </energy>
  </scstep>
  <scstep>
   <time name="diag">   80.40   80.72</time>
   <time name="diis">  148.59  149.09</time>
   <time name="orth">    3.10    3.10</time>
   <time name="total">  265.04  265.96</time>
   <energy>
    <i name="e_fr_energy">    -36.85707751 </i>
    <i name="e_wo_entrp">    -36.85707749 </i>
    <i name="e_0_energy">    -36.85707750 </i>
   </energy>
  </scstep>
  <scstep>
   <time name="diag">   80.44   80.68</time>
   <time name="diis">  147.34  147.70</time>
   <time name="orth">    3.08    3.09</time>
   <time name="total">  263.95  264.91</time>
   <energy>
    <i name="e_fr_energy">    -36.85707751 </i>
    <i name="e_wo_entrp">    -36.85707749 </i>
    <i name="e_0_energy">    -36.85707750 </i>
   </energy>
  </scstep>
  <scstep>
   <time name="diag">   79.90   80.67</time>
   <time name="diis">  146.94  148.00</time>
   <time name="orth">    3.09    3.10</time>
   <time name="total">  262.87  265.05</time>
   <energy>
    <i name="e_fr_energy">    -36.85707751 </i>
    <i name="e_wo_entrp">    -36.85707749 </i>
    <i name="e_0_energy">    -36.85707750 </i>
   </energy>
  </scstep>
  <scstep>
   <time name="diag">   80.01   80.69</time>
   <time name="diis">  147.09  148.09</time>
   <time name="orth">    3.08    3.10</time>
   <time name="total">  232.63  234.47</time>
   <energy>
    <i name="alphaZ">      6.18334092 </i>
    <i name="ewald">   2447.94033029 </i>
    <i name="hartreedc">  -2942.22913332 </i>
    <i name="XCdc">     57.13740203 </i>
    <i name="pawpsdc">    268.72972341 </i>
    <i name="pawaedc">   -273.84081274 </i>
    <i name="eentropy">     -0.00000002 </i>
    <i name="bandstr">   -189.40145500 </i>
    <i name="atom">    588.62352690 </i>
    <i name="e_fr_energy">    -36.85707751 </i>
    <i name="e_wo_entrp">    -36.85707749 </i>
    <i name="e_0_energy">    -36.85707750 </i>
   </energy>
  </scstep>
  <structure>
   <crystal>
    <varray name="basis" >
     <v>       4.38116538       0.00000000       0.00000000 </v>
     <v>       0.00000000       2.45707485       0.00000000 </v>
     <v>       0.00000000       0.00000000      19.58577001 </v>
    </varray>
    <i name="volume">    210.83790140 </i>
    <varray name="rec_basis" >
     <v>       0.22824977       0.00000000       0.00000000 </v>
     <v>       0.00000000       0.40698801       0.00000000 </v>
     <v>       0.00000000       0.00000000       0.05105748 </v>
    </varray>
   </crystal>
   <varray name="positions" >
    <v>       0.99945635       0.00000000       0.00000000 </v>
    <v>       0.16721032       0.50000000      -0.00000000 </v>
    <v>       0.49945635       0.50000000       0.00000000 </v>
    <v>       0.66721032      -0.00000000      -0.00000000 </v>
   </varray>
  </structure>
  <varray name="forces" >
   <v>      -0.00000029       0.00000000      -0.00000000 </v>
   <v>       0.00000029      -0.00000000       0.00000000 </v>
   <v>      -0.00000029      -0.00000000      -0.00000000 </v>
   <v>       0.00000029       0.00000000       0.00000000 </v>
  </varray>
  <varray name="stress" >
   <v>     -41.53813044       0.00000000       0.00000000 </v>
   <v>       0.00000000       0.00485493       0.00000000 </v>
   <v>       0.00000000       0.00000000      -0.01013337 </v>
  </varray>
  <energy>
   <i name="e_fr_energy">    -36.85707751 </i>
   <i name="e_wo_entrp">    -36.85707750 </i>
   <i name="e_0_energy">     -0.00000002 </i>
  </energy>
  <time name="totalsc"> 1418.90 1426.83</time>
  <eigenvalues>
   <array>
    <dimension dim="1">band</dimension>
    <dimension dim="2">kpoint</dimension>
    <dimension dim="3">spin</dimension>
    <field>eigene</field>
    <field>occ</field>
    <set>
     <set comment="spin 1">
      <set comment="kpoint 1">
       <r>  -22.0789    1.0000 </r>
       <r>  -17.2598    1.0000 </r>
       <r>  -15.8310    1.0000 </r>
       <r>  -10.2240    1.0000 </r>
       <r>   -8.8012    1.0000 </r>
       <r>   -6.0086    1.0000 </r>
       <r>   -5.7266    1.0000 </r>
       <r>   -5.3376    1.0000 </r>
       <r>   -1.1870    0.0000 </r>
       <r>    0.5450    0.0000 </r>
       <r>    1.3430    0.0000 </r>
       <r>    1.7364    0.0000 </r>
      </set>
      <set comment="kpoint 2">
       <r>  -22.0692    1.0000 </r>
       <r>  -17.3776    1.0000 </r>
       <r>  -15.6983    1.0000 </r>
       <r>  -10.2125    1.0000 </r>
       <r>   -8.7918    1.0000 </r>
       <r>   -6.0529    1.0000 </r>
       <r>   -5.7466    1.0000 </r>
       <r>   -5.3963    1.0000 </r>
       <r>   -1.1126    0.0000 </r>
       <r>    0.5582    0.0000 </r>
       <r>    1.3564    0.0000 </r>
       <r>    1.7500    0.0000 </r>
      </set>
      <set comment="kpoint 3">
       <r>  -22.0399    1.0000 </r>
       <r>  -17.6505    1.0000 </r>
       <r>  -15.3806    1.0000 </r>
       <r>  -10.1778    1.0000 </r>
       <r>   -8.7635    1.0000 </r>
       <r>   -6.1837    1.0000 </r>
       <r>   -5.8057    1.0000 </r>
       <r>   -5.5604    1.0000 </r>
       <r>   -0.9015    0.0000 </r>
       <r>    0.5978    0.0000 </r>
       <r>    1.3966    0.0000 </r>
       <r>    1.7907    0.0000 </r>
      </set>
      <set comment="kpoint 4">
       <r>  -21.9912    1.0000 </r>
       <r>  -17.9804    1.0000 </r>
       <r>  -14.9762    1.0000 </r>
       <r>  -10.1200    1.0000 </r>
       <r>   -8.7166    1.0000 </r>
       <r>   -6.3951    1.0000 </r>
       <r>   -5.9009    1.0000 </r>
       <r>   -5.8027    1.0000 </r>
       <r>   -0.5814    0.0000 </r>
       <r>    0.6638    0.0000 </r>
       <r>    1.4635    0.0000 </r>
       <r>    1.8584    0.0000 </r>
      </set>
      <set comment="kpoint 5">
       <r>  -21.9230    1.0000 </r>
       <r>  -18.3248    1.0000 </r>
       <r>  -14.5279    1.0000 </r>
       <r>  -10.0393    1.0000 </r>
       <r>   -8.6512    1.0000 </r>
       <r>   -6.6783    1.0000 </r>
       <r>   -6.0950    1.0000 </r>
       <r>   -6.0277    1.0000 </r>
       <r>   -0.1813    0.0000 </r>
       <r>    0.7562    0.0000 </r>
       <r>    1.5571    0.0000 </r>
       <r>    1.9533    0.0000 </r>
      </set>
      <set comment="kpoint 6">
       <r>  -21.8354    1.0000 </r>
       <r>  -18.6675    1.0000 </r>
       <r>  -14.0528    1.0000 </r>
       <r>   -9.9357    1.0000 </r>
       <r>   -8.5678    1.0000 </r>
       <r>   -7.0233    1.0000 </r>
       <r>   -6.4149    1.0000 </r>
       <r>   -6.1807    1.0000 </r>
       <r>    0.2752    0.0000 </r>
       <r>    0.8751    0.0000 </r>
       <r>    1.6774    0.0000 </r>
       <r>    2.0753    0.0000 </r>
      </set>
      <set comment="kpoint 7">
       <r>  -21.7285    1.0000 </r>
       <r>  -19.0011    1.0000 </r>
       <r>  -13.5588    1.0000 </r>
       <r>   -9.8095    1.0000 </r>
       <r>   -8.4669    1.0000 </r>
       <r>   -7.4196    1.0000 </r>
       <r>   -6.7471    1.0000 </r>
       <r>   -6.3543    1.0000 </r>
       <r>    0.7712    0.0000 </r>
       <r>    1.0204    0.0000 </r>
       <r>    1.8243    0.0000 </r>
       <r>    2.2244    0.0000 </r>
      </set>
      <set comment="kpoint 8">
       <r>  -21.6024    1.0000 </r>
       <r>  -19.3221    1.0000 </r>
       <r>  -13.0503    1.0000 </r>
       <r>   -9.6609    1.0000 </r>
       <r>   -8.3491    1.0000 </r>
       <r>   -7.8574    1.0000 </r>
       <r>   -7.0810    1.0000 </r>
       <r>   -6.5428    1.0000 </r>
       <r>    1.1922    0.0000 </r>
       <r>    1.2942    0.0000 </r>
       <r>    1.9977    0.0000 </r>
       <r>    2.4007    0.0000 </r>
      </set>
      <set comment="kpoint 9">
       <r>  -21.4571    1.0000 </r>
       <r>  -19.6285    1.0000 </r>
       <r>  -12.5307    1.0000 </r>
       <r>   -9.4903    1.0000 </r>
       <r>   -8.3278    1.0000 </r>
       <r>   -8.2152    1.0000 </r>
       <r>   -7.4097    1.0000 </r>
       <r>   -6.7407    1.0000 </r>
       <r>    1.3903    0.0000 </r>
       <r>    1.8345    0.0000 </r>
       <r>    2.1974    0.0000 </r>
       <r>    2.6040    0.0000 </r>
      </set>
      <set comment="kpoint 10">
       <r>  -21.2928    1.0000 </r>
       <r>  -19.9190    1.0000 </r>
       <r>  -12.0027    1.0000 </r>
       <r>   -9.2980    1.0000 </r>
       <r>   -8.8230    1.0000 </r>
       <r>   -8.0662    1.0000 </r>
       <r>   -7.7285    1.0000 </r>
       <r>   -6.9435    1.0000 </r>
       <r>    1.6149    0.0000 </r>
       <r>    2.3828    0.0000 </r>
       <r>    2.4231    0.0000 </r>
       <r>    2.8345    0.0000 </r>
      </set>
      <set comment="kpoint 11">
       <r>  -21.1096    1.0000 </r>
       <r>  -20.1927    1.0000 </r>
       <r>  -11.4688    1.0000 </r>
       <r>   -9.3362    1.0000 </r>
       <r>   -9.0845    1.0000 </r>
       <r>   -8.0341    1.0000 </r>
       <r>   -7.9032    1.0000 </r>
       <r>   -7.1469    1.0000 </r>
       <r>    1.8657    0.0000 </r>
       <r>    2.6740    0.0000 </r>
       <r>    2.9251    0.0000 </r>
       <r>    3.0920    0.0000 </r>
      </set>
      <set comment="kpoint 12">
       <r>  -20.9077    1.0000 </r>
       <r>  -20.4490    1.0000 </r>
       <r>  -10.9320    1.0000 </r>
       <r>   -9.8619    1.0000 </r>
       <r>   -8.8504    1.0000 </r>
       <r>   -8.3241    1.0000 </r>
       <r>   -7.7279    1.0000 </r>
       <r>   -7.3474    1.0000 </r>
       <r>    2.1427    0.0000 </r>
       <r>    2.7749    0.0000 </r>
       <r>    2.9479    0.0000 </r>
       <r>    3.3683    0.0000 </r>
      </set>
      <set comment="kpoint 13">
       <r>  -20.6874    1.0000 </r>
       <r>  -20.6874    1.0000 </r>
       <r>  -10.3951    1.0000 </r>
       <r>  -10.3951    1.0000 </r>
       <r>   -8.5966    1.0000 </r>
       <r>   -8.5966    1.0000 </r>
       <r>   -7.5419    1.0000 </r>
       <r>   -7.5419    1.0000 </r>
       <r>    2.4459    0.0000 </r>
       <r>    2.4459    0.0000 </r>
       <r>    3.2336    0.0000 </r>
       <r>    3.2336    0.0000 </r>
      </set>
      <set comment="kpoint 14">
       <r>  -22.0651    1.0000 </r>
       <r>  -17.2478    1.0000 </r>
       <r>  -15.8192    1.0000 </r>
       <r>  -10.2076    1.0000 </r>
       <r>   -8.8645    1.0000 </r>
       <r>   -6.0347    1.0000 </r>
       <r>   -5.7857    1.0000 </r>
       <r>   -5.3209    1.0000 </r>
       <r>   -1.1894    0.0000 </r>
       <r>    0.5637    0.0000 </r>
       <r>    1.3620    0.0000 </r>
       <r>    1.7556    0.0000 </r>
      </set>
      <set comment="kpoint 15">
       <r>  -22.0553    1.0000 </r>
       <r>  -17.3655    1.0000 </r>
       <r>  -15.6866    1.0000 </r>
       <r>  -10.1961    1.0000 </r>
       <r>   -8.8551    1.0000 </r>
       <r>   -6.0797    1.0000 </r>
       <r>   -5.8044    1.0000 </r>
       <r>   -5.3797    1.0000 </r>
       <r>   -1.1150    0.0000 </r>
       <r>    0.5769    0.0000 </r>
       <r>    1.3753    0.0000 </r>
       <r>    1.7692    0.0000 </r>
      </set>
      <set comment="kpoint 16">
       <r>  -22.0261    1.0000 </r>
       <r>  -17.6381    1.0000 </r>
       <r>  -15.3693    1.0000 </r>
       <r>  -10.1614    1.0000 </r>
       <r>   -8.8268    1.0000 </r>
       <r>   -6.2113    1.0000 </r>
       <r>   -5.8610    1.0000 </r>
       <r>   -5.5440    1.0000 </r>
       <r>   -0.9040    0.0000 </r>
       <r>    0.6165    0.0000 </r>
       <r>    1.4155    0.0000 </r>
       <r>    1.8098    0.0000 </r>
      </set>
      <set comment="kpoint 17">
       <r>  -21.9774    1.0000 </r>
       <r>  -17.9678    1.0000 </r>
       <r>  -14.9653    1.0000 </r>
       <r>  -10.1036    1.0000 </r>
       <r>   -8.7798    1.0000 </r>
       <r>   -6.4220    1.0000 </r>
       <r>   -5.9543    1.0000 </r>
       <r>   -5.7867    1.0000 </r>
       <r>   -0.5841    0.0000 </r>
       <r>    0.6825    0.0000 </r>
       <r>    1.4824    0.0000 </r>
       <r>    1.8776    0.0000 </r>
      </set>
      <set comment="kpoint 18">
       <r>  -21.9092    1.0000 </r>
       <r>  -18.3121    1.0000 </r>
       <r>  -14.5176    1.0000 </r>
       <r>  -10.0229    1.0000 </r>
       <r>   -8.7144    1.0000 </r>
       <r>   -6.7030    1.0000 </r>
       <r>   -6.0804    1.0000 </r>
       <r>   -6.0792    1.0000 </r>
       <r>   -0.1845    0.0000 </r>
       <r>    0.7749    0.0000 </r>
       <r>    1.5760    0.0000 </r>
       <r>    1.9725    0.0000 </r>
      </set>
      <set comment="kpoint 19">
       <r>  -21.8216    1.0000 </r>
       <r>  -18.6546    1.0000 </r>
       <r>  -14.0431    1.0000 </r>
       <r>   -9.9194    1.0000 </r>
       <r>   -8.6308    1.0000 </r>
       <r>   -7.0446    1.0000 </r>
       <r>   -6.3993    1.0000 </r>
       <r>   -6.2337    1.0000 </r>
       <r>    0.2713    0.0000 </r>
       <r>    0.8938    0.0000 </r>
       <r>    1.6963    0.0000 </r>
       <r>    2.0945    0.0000 </r>
      </set>
      <set comment="kpoint 20">
       <r>  -21.7147    1.0000 </r>
       <r>  -18.9881    1.0000 </r>
       <r>  -13.5497    1.0000 </r>
       <r>   -9.7932    1.0000 </r>
       <r>   -8.5297    1.0000 </r>
       <r>   -7.4370    1.0000 </r>
       <r>   -6.7315    1.0000 </r>
       <r>   -6.4081    1.0000 </r>
       <r>    0.7662    0.0000 </r>
       <r>    1.0391    0.0000 </r>
       <r>    1.8432    0.0000 </r>
       <r>    2.2436    0.0000 </r>
      </set>
      <set comment="kpoint 21">
       <r>  -21.5886    1.0000 </r>
       <r>  -19.3090    1.0000 </r>
       <r>  -13.0421    1.0000 </r>
       <r>   -9.6447    1.0000 </r>
       <r>   -8.4117    1.0000 </r>
       <r>   -7.8709    1.0000 </r>
       <r>   -7.0654    1.0000 </r>
       <r>   -6.5977    1.0000 </r>
       <r>    1.2109    0.0000 </r>
       <r>    1.2879    0.0000 </r>
       <r>    2.0166    0.0000 </r>
       <r>    2.4198    0.0000 </r>
      </set>
      <set comment="kpoint 22">
       <r>  -21.4434    1.0000 </r>
       <r>  -19.6152    1.0000 </r>
       <r>  -12.5235    1.0000 </r>
       <r>   -9.4741    1.0000 </r>
       <r>   -8.3376    1.0000 </r>
       <r>   -8.2775    1.0000 </r>
       <r>   -7.3941    1.0000 </r>
       <r>   -6.7969    1.0000 </r>
       <r>    1.4091    0.0000 </r>
       <r>    1.8267    0.0000 </r>
       <r>    2.2163    0.0000 </r>
       <r>    2.6232    0.0000 </r>
      </set>
      <set comment="kpoint 23">
       <r>  -21.2791    1.0000 </r>
       <r>  -19.9056    1.0000 </r>
       <r>  -11.9966    1.0000 </r>
       <r>   -9.2819    1.0000 </r>
       <r>   -8.8294    1.0000 </r>
       <r>   -8.1281    1.0000 </r>
       <r>   -7.7129    1.0000 </r>
       <r>   -7.0009    1.0000 </r>
       <r>    1.6336    0.0000 </r>
       <r>    2.3736    0.0000 </r>
       <r>    2.4420    0.0000 </r>
       <r>    2.8537    0.0000 </r>
      </set>
      <set comment="kpoint 24">
       <r>  -21.0959    1.0000 </r>
       <r>  -20.1792    1.0000 </r>
       <r>  -11.4641    1.0000 </r>
       <r>   -9.3397    1.0000 </r>
       <r>   -9.0684    1.0000 </r>
       <r>   -8.0184    1.0000 </r>
       <r>   -7.9648    1.0000 </r>
       <r>   -7.2054    1.0000 </r>
       <r>    1.8845    0.0000 </r>
       <r>    2.6929    0.0000 </r>
       <r>    2.9152    0.0000 </r>
       <r>    3.1112    0.0000 </r>
      </set>
      <set comment="kpoint 25">
       <r>  -20.8941    1.0000 </r>
       <r>  -20.4355    1.0000 </r>
       <r>  -10.9288    1.0000 </r>
       <r>   -9.8628    1.0000 </r>
       <r>   -8.8345    1.0000 </r>
       <r>   -8.3083    1.0000 </r>
       <r>   -7.7889    1.0000 </r>
       <r>   -7.4068    1.0000 </r>
       <r>    2.1615    0.0000 </r>
       <r>    2.7938    0.0000 </r>
       <r>    2.9668    0.0000 </r>
       <r>    3.3703    0.0000 </r>
      </set>
      <set comment="kpoint 26">
       <r>  -20.6739    1.0000 </r>
       <r>  -20.6739    1.0000 </r>
       <r>  -10.3939    1.0000 </r>
       <r>  -10.3939    1.0000 </r>
       <r>   -8.5807    1.0000 </r>
       <r>   -8.5807    1.0000 </r>
       <r>   -7.6022    1.0000 </r>
       <r>   -7.6022    1.0000 </r>
       <r>    2.4647    0.0000 </r>
       <r>    2.4647    0.0000 </r>
       <r>    3.2521    0.0000 </r>
       <r>    3.2521    0.0000 </r>
      </set>
      <set comment="kpoint 27">
       <r>  -22.0236    1.0000 </r>
       <r>  -17.2118    1.0000 </r>
       <r>  -15.7840    1.0000 </r>
       <r>  -10.1584    1.0000 </r>
       <r>   -9.0494    1.0000 </r>
       <r>   -6.1124    1.0000 </r>
       <r>   -5.9581    1.0000 </r>
       <r>   -5.2709    1.0000 </r>
       <r>   -1.1975    0.0000 </r>
       <r>    0.6200    0.0000 </r>
       <r>    1.4187    0.0000 </r>
       <r>    1.8131    0.0000 </r>
      </set>
      <set comment="kpoint 28">
       <r>  -22.0139    1.0000 </r>
       <r>  -17.3292    1.0000 </r>
       <r>  -15.6519    1.0000 </r>
       <r>  -10.1469    1.0000 </r>
       <r>   -9.0399    1.0000 </r>
       <r>   -6.1623    1.0000 </r>
       <r>   -5.9702    1.0000 </r>
       <r>   -5.3300    1.0000 </r>
       <r>   -1.1231    0.0000 </r>
       <r>    0.6331    0.0000 </r>
       <r>    1.4321    0.0000 </r>
       <r>    1.8267    0.0000 </r>
      </set>
      <set comment="kpoint 29">
       <r>  -21.9846    1.0000 </r>
       <r>  -17.6011    1.0000 </r>
       <r>  -15.3356    1.0000 </r>
       <r>  -10.1122    1.0000 </r>
       <r>   -9.0115    1.0000 </r>
       <r>   -6.2992    1.0000 </r>
       <r>   -6.0164    1.0000 </r>
       <r>   -5.4952    1.0000 </r>
       <r>   -0.9121    0.0000 </r>
       <r>    0.6727    0.0000 </r>
       <r>    1.4722    0.0000 </r>
       <r>    1.8673    0.0000 </r>
      </set>
      <set comment="kpoint 30">
       <r>  -21.9359    1.0000 </r>
[...]
       <r>   -9.3572    1.0000 </r>
       <r>   -5.5130    1.0000 </r>
       <r>   -5.5130    1.0000 </r>
       <r>   -0.4935    0.0000 </r>
       <r>   -0.4935    0.0000 </r>
       <r>    4.1336    0.0000 </r>
       <r>    4.1336    0.0000 </r>
      </set>
      <set comment="kpoint 209">
       <r>  -18.6207    1.0000 </r>
       <r>  -16.8040    1.0000 </r>
       <r>  -14.2168    1.0000 </r>
       <r>  -12.5497    1.0000 </r>
       <r>  -12.2976    1.0000 </r>
       <r>  -10.7851    1.0000 </r>
       <r>   -6.2746    1.0000 </r>
       <r>   -4.3978    1.0000 </r>
       <r>   -1.2060    0.0000 </r>
       <r>    0.9530    0.0000 </r>
       <r>    5.3153    0.0000 </r>
       <r>    6.0848    0.0000 </r>
      </set>
      <set comment="kpoint 210">
       <r>  -18.6115    1.0000 </r>
       <r>  -16.7969    1.0000 </r>
       <r>  -14.2836    1.0000 </r>
       <r>  -12.6125    1.0000 </r>
       <r>  -12.2231    1.0000 </r>
       <r>  -10.7248    1.0000 </r>
       <r>   -6.2663    1.0000 </r>
       <r>   -4.4018    1.0000 </r>
       <r>   -1.2123    0.0000 </r>
       <r>    0.9304    0.0000 </r>
       <r>    5.3282    0.0000 </r>
       <r>    6.0999    0.0000 </r>
      </set>
      <set comment="kpoint 211">
       <r>  -18.5839    1.0000 </r>
       <r>  -16.7758    1.0000 </r>
       <r>  -14.4577    1.0000 </r>
       <r>  -12.7786    1.0000 </r>
       <r>  -12.0261    1.0000 </r>
       <r>  -10.5669    1.0000 </r>
       <r>   -6.2415    1.0000 </r>
       <r>   -4.4143    1.0000 </r>
       <r>   -1.2298    0.0000 </r>
       <r>    0.8641    0.0000 </r>
       <r>    5.3667    0.0000 </r>
       <r>    6.1449    0.0000 </r>
      </set>
      <set comment="kpoint 212">
       <r>  -18.5380    1.0000 </r>
       <r>  -16.7422    1.0000 </r>
       <r>  -14.6910    1.0000 </r>
       <r>  -13.0068    1.0000 </r>
       <r>  -11.7543    1.0000 </r>
       <r>  -10.3544    1.0000 </r>
       <r>   -6.2005    1.0000 </r>
       <r>   -4.4366    1.0000 </r>
       <r>   -1.2543    0.0000 </r>
       <r>    0.7585    0.0000 </r>
       <r>    5.4300    0.0000 </r>
       <r>    6.2193    0.0000 </r>
      </set>
      <set comment="kpoint 213">
       <r>  -18.4739    1.0000 </r>
       <r>  -16.6991    1.0000 </r>
       <r>  -14.9468    1.0000 </r>
       <r>  -13.2662    1.0000 </r>
       <r>  -11.4438    1.0000 </r>
       <r>  -10.1215    1.0000 </r>
       <r>   -6.1436    1.0000 </r>
       <r>   -4.4705    1.0000 </r>
       <r>   -1.2795    0.0000 </r>
       <r>    0.6198    0.0000 </r>
       <r>    5.5112    0.0000 </r>
       <r>    5.8670    0.0000 </r>
      </set>
      <set comment="kpoint 214">
       <r>  -18.3917    1.0000 </r>
       <r>  -16.6523    1.0000 </r>
       <r>  -15.1999    1.0000 </r>
       <r>  -13.5387    1.0000 </r>
       <r>  -11.1168    1.0000 </r>
       <r>   -9.8907    1.0000 </r>
       <r>   -6.0717    1.0000 </r>
       <r>   -4.5181    1.0000 </r>
       <r>   -1.2983    0.0000 </r>
       <r>    0.4554    0.0000 </r>
       <r>    5.3472    0.0000 </r>
       <r>    5.6638    0.0000 </r>
      </set>
      <set comment="kpoint 215">
       <r>  -18.2919    1.0000 </r>
       <r>  -16.6142    1.0000 </r>
       <r>  -15.4276    1.0000 </r>
       <r>  -13.8136    1.0000 </r>
       <r>  -10.7881    1.0000 </r>
       <r>   -9.6779    1.0000 </r>
       <r>   -5.9855    1.0000 </r>
       <r>   -4.5813    1.0000 </r>
       <r>   -1.3035    0.0000 </r>
       <r>    0.2729    0.0000 </r>
       <r>    4.9304    0.0000 </r>
       <r>    5.7953    0.0000 </r>
      </set>
      <set comment="kpoint 216">
       <r>  -18.1747    1.0000 </r>
       <r>  -16.6082    1.0000 </r>
       <r>  -15.6005    1.0000 </r>
       <r>  -14.0847    1.0000 </r>
       <r>  -10.4685    1.0000 </r>
       <r>   -9.4953    1.0000 </r>
       <r>   -5.8862    1.0000 </r>
       <r>   -4.6610    1.0000 </r>
       <r>   -1.2891    0.0000 </r>
       <r>    0.0796    0.0000 </r>
       <r>    4.5695    0.0000 </r>
       <r>    5.5293    0.0000 </r>
      </set>
      <set comment="kpoint 217">
       <r>  -18.0407    1.0000 </r>
       <r>  -16.6651    1.0000 </r>
       <r>  -15.6841    1.0000 </r>
       <r>  -14.3476    1.0000 </r>
       <r>  -10.1677    1.0000 </r>
       <r>   -9.3535    1.0000 </r>
       <r>   -5.7752    1.0000 </r>
       <r>   -4.7568    1.0000 </r>
       <r>   -1.2506    0.0000 </r>
       <r>   -0.1177    0.0000 </r>
       <r>    4.2818    0.0000 </r>
       <r>    5.0892    0.0000 </r>
      </set>
      <set comment="kpoint 218">
       <r>  -17.8906    1.0000 </r>
       <r>  -16.7936    1.0000 </r>
       <r>  -15.6677    1.0000 </r>
       <r>  -14.5990    1.0000 </r>
       <r>   -9.8948    1.0000 </r>
       <r>   -9.2610    1.0000 </r>
       <r>   -5.6543    1.0000 </r>
       <r>   -4.8672    1.0000 </r>
       <r>   -1.1858    0.0000 </r>
       <r>   -0.3132    0.0000 </r>
       <r>    4.0759    0.0000 </r>
       <r>    4.7070    0.0000 </r>
      </set>
      <set comment="kpoint 219">
       <r>  -17.7255    1.0000 </r>
       <r>  -16.9684    1.0000 </r>
       <r>  -15.5749    1.0000 </r>
       <r>  -14.8363    1.0000 </r>
       <r>   -9.6587    1.0000 </r>
       <r>   -9.2240    1.0000 </r>
       <r>   -5.5255    1.0000 </r>
       <r>   -4.9893    1.0000 </r>
       <r>   -1.0944    0.0000 </r>
       <r>   -0.5014    0.0000 </r>
       <r>    3.9583    0.0000 </r>
       <r>    4.3922    0.0000 </r>
      </set>
      <set comment="kpoint 220">
       <r>  -17.5469    1.0000 </r>
       <r>  -17.1619    1.0000 </r>
       <r>  -15.4327    1.0000 </r>
       <r>  -15.0568    1.0000 </r>
       <r>   -9.4675    1.0000 </r>
       <r>   -9.2463    1.0000 </r>
       <r>   -5.3915    1.0000 </r>
       <r>   -5.1199    1.0000 </r>
       <r>   -0.9775    0.0000 </r>
       <r>   -0.6776    0.0000 </r>
       <r>    3.9323    0.0000 </r>
       <r>    4.1534    0.0000 </r>
      </set>
      <set comment="kpoint 221">
       <r>  -17.3575    1.0000 </r>
       <r>  -17.3575    1.0000 </r>
       <r>  -15.2572    1.0000 </r>
       <r>  -15.2572    1.0000 </r>
       <r>   -9.3283    1.0000 </r>
       <r>   -9.3283    1.0000 </r>
       <r>   -5.2552    1.0000 </r>
       <r>   -5.2552    1.0000 </r>
       <r>   -0.8375    0.0000 </r>
       <r>   -0.8375    0.0000 </r>
       <r>    3.9982    0.0000 </r>
       <r>    3.9982    0.0000 </r>
      </set>
      <set comment="kpoint 222">
       <r>  -18.1921    1.0000 </r>
       <r>  -17.2799    1.0000 </r>
       <r>  -13.8310    1.0000 </r>
       <r>  -12.9966    1.0000 </r>
       <r>  -11.9504    1.0000 </r>
       <r>  -11.1891    1.0000 </r>
       <r>   -5.8156    1.0000 </r>
       <r>   -4.8715    1.0000 </r>
       <r>   -0.6985    0.0000 </r>
       <r>    0.3832    0.0000 </r>
       <r>    5.9217    0.0000 </r>
       <r>    6.6461    0.0000 </r>
      </set>
      <set comment="kpoint 223">
       <r>  -18.1830    1.0000 </r>
       <r>  -17.2716    1.0000 </r>
       <r>  -13.8982    1.0000 </r>
       <r>  -13.0614    1.0000 </r>
       <r>  -11.8783    1.0000 </r>
       <r>  -11.1243    1.0000 </r>
       <r>   -5.8087    1.0000 </r>
       <r>   -4.8698    1.0000 </r>
       <r>   -0.7119    0.0000 </r>
       <r>    0.3626    0.0000 </r>
       <r>    5.9346    0.0000 </r>
       <r>    6.6621    0.0000 </r>
      </set>
      <set comment="kpoint 224">
       <r>  -18.1559    1.0000 </r>
       <r>  -17.2470    1.0000 </r>
       <r>  -14.0741    1.0000 </r>
       <r>  -13.2319    1.0000 </r>
       <r>  -11.6881    1.0000 </r>
       <r>  -10.9541    1.0000 </r>
       <r>   -5.7878    1.0000 </r>
       <r>   -4.8651    1.0000 </r>
       <r>   -0.7504    0.0000 </r>
       <r>    0.3024    0.0000 </r>
       <r>    5.9728    0.0000 </r>
       <r>    6.7097    0.0000 </r>
      </set>
      <set comment="kpoint 225">
       <r>  -18.1108    1.0000 </r>
       <r>  -17.2063    1.0000 </r>
       <r>  -14.3120    1.0000 </r>
       <r>  -13.4650    1.0000 </r>
       <r>  -11.4273    1.0000 </r>
       <r>  -10.7234    1.0000 </r>
       <r>   -5.7536    1.0000 </r>
       <r>   -4.8583    1.0000 </r>
       <r>   -0.8097    0.0000 </r>
       <r>    0.2068    0.0000 </r>
       <r>    6.0346    0.0000 </r>
       <r>    6.6862    0.0000 </r>
      </set>
      <set comment="kpoint 226">
       <r>  -18.0480    1.0000 </r>
       <r>  -17.1506    1.0000 </r>
       <r>  -14.5776    1.0000 </r>
       <r>  -13.7287    1.0000 </r>
       <r>  -11.1319    1.0000 </r>
       <r>  -10.4670    1.0000 </r>
       <r>   -5.7067    1.0000 </r>
       <r>   -4.8513    1.0000 </r>
       <r>   -0.8834    0.0000 </r>
       <r>    0.0821    0.0000 </r>
       <r>    6.0611    0.0000 </r>
       <r>    6.1987    0.0000 </r>
      </set>
      <set comment="kpoint 227">
       <r>  -17.9678    1.0000 </r>
       <r>  -17.0815    1.0000 </r>
       <r>  -14.8504    1.0000 </r>
       <r>  -14.0043    1.0000 </r>
       <r>  -10.8243    1.0000 </r>
       <r>  -10.2075    1.0000 </r>
       <r>   -5.6480    1.0000 </r>
       <r>   -4.8462    1.0000 </r>
       <r>   -0.9635    0.0000 </r>
       <r>   -0.0642    0.0000 </r>
       <r>    5.6079    0.0000 </r>
       <r>    6.2059    0.0000 </r>
      </set>
      <set comment="kpoint 228">
       <r>  -17.8705    1.0000 </r>
       <r>  -17.0019    1.0000 </r>
       <r>  -15.1170    1.0000 </r>
       <r>  -14.2811    1.0000 </r>
       <r>  -10.5192    1.0000 </r>
       <r>   -9.9605    1.0000 </r>
       <r>   -5.5791    1.0000 </r>
       <r>   -4.8460    1.0000 </r>
       <r>   -1.0412    0.0000 </r>
       <r>   -0.2242    0.0000 </r>
       <r>    5.1500    0.0000 </r>
       <r>    5.6962    0.0000 </r>
      </set>
      <set comment="kpoint 229">
       <r>  -17.7570    1.0000 </r>
       <r>  -16.9174    1.0000 </r>
       <r>  -15.3659    1.0000 </r>
       <r>  -14.5523    1.0000 </r>
       <r>  -10.2283    1.0000 </r>
       <r>   -9.7382    1.0000 </r>
       <r>   -5.5015    1.0000 </r>
       <r>   -4.8535    1.0000 </r>
       <r>   -1.1080    0.0000 </r>
       <r>   -0.3902    0.0000 </r>
       <r>    4.7491    0.0000 </r>
       <r>    5.2318    0.0000 </r>
      </set>
      <set comment="kpoint 230">
       <r>  -17.6282    1.0000 </r>
       <r>  -16.8393    1.0000 </r>
       <r>  -15.5823    1.0000 </r>
       <r>  -14.8134    1.0000 </r>
       <r>   -9.9614    1.0000 </r>
       <r>   -9.5511    1.0000 </r>
       <r>   -5.4176    1.0000 </r>
       <r>   -4.8716    1.0000 </r>
       <r>   -1.1563    0.0000 </r>
       <r>   -0.5546    0.0000 </r>
       <r>    4.4160    0.0000 </r>
       <r>    4.8225    0.0000 </r>
      </set>
      <set comment="kpoint 231">
       <r>  -17.4858    1.0000 </r>
       <r>  -16.7893    1.0000 </r>
       <r>  -15.7421    1.0000 </r>
       <r>  -15.0601    1.0000 </r>
       <r>   -9.7281    1.0000 </r>
       <r>   -9.4083    1.0000 </r>
       <r>   -5.3299    1.0000 </r>
       <r>   -4.9025    1.0000 </r>
       <r>   -1.1797    0.0000 </r>
       <r>   -0.7107    0.0000 </r>
       <r>    4.1599    0.0000 </r>
       <r>    4.4779    0.0000 </r>
      </set>
      <set comment="kpoint 232">
       <r>  -17.3324    1.0000 </r>
       <r>  -16.7988    1.0000 </r>
       <r>  -15.8125    1.0000 </r>
       <r>  -15.2884    1.0000 </r>
       <r>   -9.5370    1.0000 </r>
       <r>   -9.3175    1.0000 </r>
       <r>   -5.2415    1.0000 </r>
       <r>   -4.9473    1.0000 </r>
       <r>   -1.1741    0.0000 </r>
       <r>   -0.8522    0.0000 </r>
       <r>    3.9881    0.0000 </r>
       <r>    4.2069    0.0000 </r>
      </set>
      <set comment="kpoint 233">
       <r>  -17.1729    1.0000 </r>
       <r>  -16.8820    1.0000 </r>
       <r>  -15.7784    1.0000 </r>
       <r>  -15.4922    1.0000 </r>
       <r>   -9.3957    1.0000 </r>
       <r>   -9.2839    1.0000 </r>
       <r>   -5.1557    1.0000 </r>
       <r>   -5.0056    1.0000 </r>
       <r>   -1.1373    0.0000 </r>
       <r>   -0.9735    0.0000 </r>
       <r>    3.9060    0.0000 </r>
       <r>    4.0176    0.0000 </r>
      </set>
      <set comment="kpoint 234">
       <r>  -17.0167    1.0000 </r>
       <r>  -17.0167    1.0000 </r>
       <r>  -15.6618    1.0000 </r>
       <r>  -15.6618    1.0000 </r>
       <r>   -9.3102    1.0000 </r>
       <r>   -9.3102    1.0000 </r>
       <r>   -5.0760    1.0000 </r>
       <r>   -5.0760    1.0000 </r>
       <r>   -1.0697    0.0000 </r>
       <r>   -1.0697    0.0000 </r>
       <r>    3.9160    0.0000 </r>
       <r>    3.9160    0.0000 </r>
      </set>
      <set comment="kpoint 235">
       <r>  -17.7441    1.0000 </r>
       <r>  -17.7441    1.0000 </r>
       <r>  -13.4240    1.0000 </r>
       <r>  -13.4240    1.0000 </r>
       <r>  -11.5791    1.0000 </r>
       <r>  -11.5791    1.0000 </r>
       <r>   -5.3462    1.0000 </r>
       <r>   -5.3462    1.0000 </r>
       <r>   -0.1681    0.0000 </r>
       <r>   -0.1681    0.0000 </r>
       <r>    6.5604    0.0000 </r>
       <r>    6.5604    0.0000 </r>
      </set>
      <set comment="kpoint 236">
       <r>  -17.7354    1.0000 </r>
       <r>  -17.7354    1.0000 </r>
       <r>  -13.4903    1.0000 </r>
       <r>  -13.4903    1.0000 </r>
       <r>  -11.5103    1.0000 </r>
       <r>  -11.5103    1.0000 </r>
       <r>   -5.3412    1.0000 </r>
       <r>   -5.3412    1.0000 </r>
       <r>   -0.1858    0.0000 </r>
       <r>   -0.1858    0.0000 </r>
       <r>    6.5731    0.0000 </r>
       <r>    6.5731    0.0000 </r>
      </set>
      <set comment="kpoint 237">
       <r>  -17.7091    1.0000 </r>
       <r>  -17.7091    1.0000 </r>
       <r>  -13.6644    1.0000 </r>
       <r>  -13.6644    1.0000 </r>
       <r>  -11.3292    1.0000 </r>
       <r>  -11.3292    1.0000 </r>
       <r>   -5.3266    1.0000 </r>
       <r>   -5.3266    1.0000 </r>
       <r>   -0.2373    0.0000 </r>
       <r>   -0.2373    0.0000 </r>
       <r>    6.6107    0.0000 </r>
       <r>    6.6107    0.0000 </r>
      </set>
      <set comment="kpoint 238">
       <r>  -17.6655    1.0000 </r>
       <r>  -17.6655    1.0000 </r>
       <r>  -13.9011    1.0000 </r>
       <r>  -13.9011    1.0000 </r>
       <r>  -11.0823    1.0000 </r>
       <r>  -11.0823    1.0000 </r>
       <r>   -5.3028    1.0000 </r>
       <r>   -5.3028    1.0000 </r>
       <r>   -0.3185    0.0000 </r>
       <r>   -0.3185    0.0000 </r>
       <r>    6.6675    0.0000 </r>
       <r>    6.6676    0.0000 </r>
      </set>
      <set comment="kpoint 239">
       <r>  -17.6050    1.0000 </r>
       <r>  -17.6050    1.0000 </r>
       <r>  -14.1675    1.0000 </r>
       <r>  -14.1675    1.0000 </r>
       <r>  -10.8050    1.0000 </r>
       <r>  -10.8050    1.0000 </r>
       <r>   -5.2711    1.0000 </r>
       <r>   -5.2711    1.0000 </r>
       <r>   -0.4229    0.0000 </r>
       <r>   -0.4229    0.0000 </r>
       <r>    6.4173    0.0000 </r>
       <r>    6.4173    0.0000 </r>
      </set>
      <set comment="kpoint 240">
       <r>  -17.5282    1.0000 </r>
       <r>  -17.5282    1.0000 </r>
       <r>  -14.4442    1.0000 </r>
       <r>  -14.4442    1.0000 </r>
       <r>  -10.5199    1.0000 </r>
       <r>  -10.5199    1.0000 </r>
       <r>   -5.2332    1.0000 </r>
       <r>   -5.2332    1.0000 </r>
       <r>   -0.5429    0.0000 </r>
       <r>   -0.5429    0.0000 </r>
       <r>    5.8931    0.0000 </r>
       <r>    5.8931    0.0000 </r>
      </set>
      <set comment="kpoint 241">
       <r>  -17.4361    1.0000 </r>
       <r>  -17.4361    1.0000 </r>
       <r>  -14.7198    1.0000 </r>
       <r>  -14.7198    1.0000 </r>
       <r>  -10.2421    1.0000 </r>
       <r>  -10.2421    1.0000 </r>
       <r>   -5.1909    1.0000 </r>
       <r>   -5.1909    1.0000 </r>
       <r>   -0.6700    0.0000 </r>
       <r>   -0.6700    0.0000 </r>
       <r>    5.4061    0.0000 </r>
       <r>    5.4061    0.0000 </r>
      </set>
      <set comment="kpoint 242">
       <r>  -17.3303    1.0000 </r>
       <r>  -17.3303    1.0000 </r>
       <r>  -14.9870    1.0000 </r>
       <r>  -14.9870    1.0000 </r>
       <r>   -9.9836    1.0000 </r>
       <r>   -9.9836    1.0000 </r>
       <r>   -5.1471    1.0000 </r>
       <r>   -5.1471    1.0000 </r>
       <r>   -0.7958    0.0000 </r>
       <r>   -0.7958    0.0000 </r>
       <r>    4.9707    0.0000 </r>
       <r>    4.9707    0.0000 </r>
      </set>
      <set comment="kpoint 243">
       <r>  -17.2136    1.0000 </r>
       <r>  -17.2136    1.0000 </r>
       <r>  -15.2390    1.0000 </r>
       <r>  -15.2390    1.0000 </r>
       <r>   -9.7548    1.0000 </r>
       <r>   -9.7548    1.0000 </r>
       <r>   -5.1046    1.0000 </r>
       <r>   -5.1046    1.0000 </r>
       <r>   -0.9123    0.0000 </r>
       <r>   -0.9123    0.0000 </r>
       <r>    4.5971    0.0000 </r>
       <r>    4.5971    0.0000 </r>
      </set>
      <set comment="kpoint 244">
       <r>  -17.0913    1.0000 </r>
       <r>  -17.0913    1.0000 </r>
       <r>  -15.4685    1.0000 </r>
       <r>  -15.4685    1.0000 </r>
       <r>   -9.5649    1.0000 </r>
       <r>   -9.5649    1.0000 </r>
       <r>   -5.0668    1.0000 </r>
       <r>   -5.0668    1.0000 </r>
       <r>   -1.0119    0.0000 </r>
       <r>   -1.0119    0.0000 </r>
       <r>    4.2946    0.0000 </r>
       <r>    4.2946    0.0000 </r>
      </set>
      <set comment="kpoint 245">
       <r>  -16.9736    1.0000 </r>
       <r>  -16.9736    1.0000 </r>
       <r>  -15.6636    1.0000 </r>
       <r>  -15.6636    1.0000 </r>
       <r>   -9.4224    1.0000 </r>
       <r>   -9.4224    1.0000 </r>
       <r>   -5.0368    1.0000 </r>
       <r>   -5.0368    1.0000 </r>
       <r>   -1.0883    0.0000 </r>
       <r>   -1.0883    0.0000 </r>
       <r>    4.0715    0.0000 </r>
       <r>    4.0715    0.0000 </r>
      </set>
      <set comment="kpoint 246">
       <r>  -16.8806    1.0000 </r>
       <r>  -16.8806    1.0000 </r>
       <r>  -15.8034    1.0000 </r>
       <r>  -15.8034    1.0000 </r>
       <r>   -9.3340    1.0000 </r>
       <r>   -9.3340    1.0000 </r>
       <r>   -5.0175    1.0000 </r>
       <r>   -5.0175    1.0000 </r>
       <r>   -1.1363    0.0000 </r>
       <r>   -1.1363    0.0000 </r>
       <r>    3.9346    0.0000 </r>
       <r>    3.9346    0.0000 </r>
      </set>
      <set comment="kpoint 247">
       <r>  -16.8434    1.0000 </r>
       <r>  -16.8434    1.0000 </r>
       <r>  -15.8563    1.0000 </r>
       <r>  -15.8563    1.0000 </r>
       <r>   -9.3040    1.0000 </r>
       <r>   -9.3040    1.0000 </r>
       <r>   -5.0109    1.0000 </r>
       <r>   -5.0109    1.0000 </r>
       <r>   -1.1527    0.0000 </r>
       <r>   -1.1527    0.0000 </r>
       <r>    3.8885    0.0000 </r>
       <r>    3.8885    0.0000 </r>
      </set>
     </set>
    </set>
   </array>
  </eigenvalues>
  <separator name="orbital magnetization" >
   <v name="MAGDIPOLOUT">      0.00000000      0.00000000      0.00000000</v>
  </separator>
 </calculation>
 <structure name="finalpos" >
  <crystal>
   <varray name="basis" >
    <v>       4.38116538       0.00000000       0.00000000 </v>
    <v>       0.00000000       2.45707485       0.00000000 </v>
    <v>       0.00000000       0.00000000      19.58577001 </v>
   </varray>
   <i name="volume">    210.83790140 </i>
   <varray name="rec_basis" >
    <v>       0.22824977       0.00000000       0.00000000 </v>
    <v>       0.00000000       0.40698801       0.00000000 </v>
    <v>       0.00000000       0.00000000       0.05105748 </v>
   </varray>
  </crystal>
  <varray name="positions" >
   <v>       0.99945635       0.00000000       0.00000000 </v>
   <v>       0.16721032       0.50000000      -0.00000000 </v>
   <v>       0.49945635       0.50000000       0.00000000 </v>
   <v>       0.66721032      -0.00000000      -0.00000000 </v>
  </varray>
 </structure>
</modeling>
