gr                                      
           1
     4.381165    0.000000    0.000000
     0.000000    2.457075    0.000000
     0.000000    0.000000   19.585770
   C 
   4
Direct configuration=     1
   0.99945869  0.00000000  0.00000000
   0.16720798  0.50000000  0.00000000
   0.49945869  0.50000000  0.00000000
   0.66720798  0.00000000  0.00000000
Direct configuration=     2
   0.99944768  0.00000000  0.00000000
   0.16721899  0.50000000  0.00000000
   0.49944768  0.50000000  0.00000000
   0.66721899 -0.00000000  0.00000000
Direct configuration=     3
   0.99945634  0.00000000  0.00000000
   0.16721033  0.50000000 -0.00000000
   0.49945634  0.50000000  0.00000000
   0.66721033 -0.00000000 -0.00000000
Direct configuration=     4
   0.99945636  0.00000000 -0.00000000
   0.16721031  0.50000000  0.00000000
   0.49945636  0.50000000 -0.00000000
   0.66721031 -0.00000000  0.00000000
Direct configuration=     5
   0.99945635  0.00000000  0.00000000
   0.16721032  0.50000000 -0.00000000
   0.49945635  0.50000000  0.00000000
   0.66721032 -0.00000000 -0.00000000
