    4    4  400    1
  0.5270948E+02  0.4255182E-09  0.2528985E-09  0.1959225E-08  0.5000000E-15
  1.000000000000000E-004
  CAR 
 gr                                      
     16    247     12
 
  0.0000000E+00  0.0000000E+00  0.0000000E+00  0.1157407E-02
    1      -22.081587
    2      -16.704734
    3      -15.864676
    4      -10.226098
    5       -9.473834
    6       -5.990985
    7       -5.742261
    8       -4.904955
    9       -1.142962
   10        0.544683
   11        1.342815
   12        1.736263
 
  0.4166667E-01  0.0000000E+00  0.0000000E+00  0.2314815E-02
    1      -22.071214
    2      -16.900996
    3      -15.653404
    4      -10.213788
    5       -9.463422
    6       -6.014721
    7       -5.782447
    8       -4.975114
    9       -1.058002
   10        0.558737
   11        1.357012
   12        1.750640
 
  0.8333333E-01  0.0000000E+00  0.0000000E+00  0.2314815E-02
    1      -22.040100
    2      -17.267560
    3      -15.241900
    4      -10.176877
    5       -9.432234
    6       -6.084557
    7       -5.901549
    8       -5.168411
    9       -0.820477
   10        0.600898
   11        1.399599
   12        1.793771
 
  0.1250000E+00  0.0000000E+00  0.0000000E+00  0.2314815E-02
    1      -21.988264
    2      -17.660472
    3      -14.774404
    4      -10.115422
    5       -9.380422
    6       -6.196626
    7       -6.095418
    8       -5.447686
    9       -0.468082
   10        0.671161
   11        1.470566
   12        1.865657
 
  0.1666667E+00  0.0000000E+00  0.0000000E+00  0.2314815E-02
    1      -21.915742
    2      -18.050131
    3      -14.280993
    4      -10.029520
    5       -9.308242
    6       -6.357773
    7       -6.345207
    8       -5.777644
    9       -0.037006
   10        0.769517
   11        1.569892
   12        1.966296
 
  0.2083333E+00  0.0000000E+00  0.0000000E+00  0.2314815E-02
    1      -21.822584
    2      -18.428275
    3      -13.770619
    4       -9.919311
    5       -9.216064
    6       -6.680960
    7       -6.523530
    8       -6.133090
    9        0.446296
   10        0.895950
   11        1.697548
   12        2.095686
 
  0.2500000E+00  0.0000000E+00  0.0000000E+00  0.2314815E-02
    1      -21.708852
    2      -18.791630
    3      -13.247472
    4       -9.784983
    5       -9.104385
    6       -7.056694
    7       -6.724534
    8       -6.497770
    9        0.963932
   10        1.050436
   11        1.853490
   12        2.253824
 
  0.2916667E+00  0.0000000E+00  0.0000000E+00  0.2314815E-02
    1      -21.574629
    2      -19.138535
    3      -12.714368
    4       -9.626778
    5       -8.973846
    6       -7.476672
    7       -6.941421
    8       -6.861368
    9        1.232942
   10        1.503539
   11        2.037656
   12        2.440704
 
  0.3333333E+00  0.0000000E+00  0.0000000E+00  0.2314815E-02
    1      -21.420009
    2      -19.467996
    3      -12.173740
    4       -9.445002
    5       -8.825251
    6       -7.932987
    7       -7.217204
    8       -7.168001
    9        1.443422
   10        2.055899
   11        2.249950
   12        2.656317
 
  0.3750000E+00  0.0000000E+00  0.0000000E+00  0.2314815E-02
    1      -21.245108
    2      -19.779339
    3      -11.628009
    4       -9.240038
    5       -8.659599
    6       -8.418382
    7       -7.560812
    8       -7.398841
    9        1.681814
   10        2.490213
   11        2.613167
   12        2.900645
 
  0.4166667E+00  0.0000000E+00  0.0000000E+00  0.2314815E-02
    1      -21.050061
    2      -20.072066
    3      -11.079777
    4       -9.012363
    5       -8.926354
    6       -8.478118
    7       -7.889097
    8       -7.629290
    9        1.948027
   10        2.758134
   11        3.165693
   12        3.173651
 
  0.4583333E+00  0.0000000E+00  0.0000000E+00  0.2314815E-02
    1      -20.835027
    2      -20.345789
    3      -10.531949
    4       -9.451170
    5       -8.762571
    6       -8.282310
    7       -8.199843
    8       -7.855432
    9        2.241926
   10        2.911606
   11        3.052899
   12        3.475448
 
  0.5000000E+00  0.0000000E+00  0.0000000E+00  0.1157407E-02
    1      -20.600196
    2      -20.600196
    3       -9.987819
    4       -9.987819
    5       -8.491413
    6       -8.491413
    7       -8.074006
    8       -8.074006
    9        2.563279
   10        2.563279
   11        3.370847
   12        3.370848
 
  0.0000000E+00  0.2777778E-01  0.0000000E+00  0.2314815E-02
    1      -22.068575
    2      -16.693501
    3      -15.854298
    4      -10.210655
    5       -9.532023
    6       -6.044585
    7       -5.774431
    8       -4.889203
    9       -1.149120
   10        0.562281
   11        1.360669
   12        1.754340
 
  0.4166667E-01  0.2777778E-01  0.0000000E+00  0.4629630E-02
    1      -22.058203
    2      -16.889663
    3      -15.643188
    4      -10.198349
    5       -9.521580
    6       -6.071303
    7       -5.810902
    8       -4.959540
    9       -1.064113
   10        0.576337
   11        1.374865
   12        1.768718
 
  0.8333333E-01  0.2777778E-01  0.0000000E+00  0.4629630E-02
    1      -22.027092
    2      -17.256026
    3      -15.232073
    4      -10.161452
    5       -9.490297
    6       -6.151242
    7       -5.917837
    8       -5.153234
    9       -0.826587
   10        0.618502
   11        1.417449
   12        1.811850
 
  0.1250000E+00  0.2777778E-01  0.0000000E+00  0.4629630E-02
    1      -21.975264
    2      -17.648733
    3      -14.765103
    4      -10.100020
    5       -9.438321
    6       -6.285890
    7       -6.086079
    8       -5.432900
    9       -0.474462
   10        0.688772
   11        1.488410
   12        1.883737
 
  0.1666667E+00  0.2777778E-01  0.0000000E+00  0.4629630E-02
    1      -21.902752
    2      -18.038205
    3      -14.272344
    4      -10.014149
    5       -9.365898
    6       -6.485263
    7       -6.294045
    8       -5.763132
    9       -0.044039
   10        0.787137
   11        1.587728
   12        1.984378
 
  0.2083333E+00  0.2777778E-01  0.0000000E+00  0.4629630E-02
    1      -21.809608
    2      -18.416187
    3      -13.762766
    4       -9.903981
    5       -9.273383
    6       -6.763786
    7       -6.513291
    8       -6.118725
    9        0.438218
   10        0.913582
   11        1.715374
   12        2.113770
 
  0.2500000E+00  0.2777778E-01  0.0000000E+00  0.4629630E-02
    1      -21.695894
    2      -18.779400
    3      -13.240584
    4       -9.769703
    5       -9.161255
    6       -7.113844
    7       -6.736384
    8       -6.483454
    9        0.954451
   10        1.068081
   11        1.871305
   12        2.271911
 
  0.2916667E+00  0.2777778E-01  0.0000000E+00  0.4629630E-02
    1      -21.561692
    2      -19.126183
    3      -12.708654
    4       -9.611558
    5       -9.030126
    6       -7.517771
    7       -6.966064
    8       -6.847032
    9        1.250602
   10        1.492342
   11        2.055458
   12        2.458796
 
  0.3333333E+00  0.2777778E-01  0.0000000E+00  0.4629630E-02
    1      -21.407098
    2      -19.455538
    3      -12.169457
    4       -9.429851
    5       -8.880767
    6       -7.962822
    7       -7.202807
    8       -7.201053
    9        1.461099
   10        2.042740
   11        2.267740
   12        2.674415
 
  0.3750000E+00  0.2777778E-01  0.0000000E+00  0.4629630E-02
    1      -21.232228
    2      -19.766790
    3      -11.625478
    4       -9.224965
    5       -8.714132
    6       -8.439772
    7       -7.546328
    8       -7.437893
    9        1.699509
   10        2.507996
   11        2.597932
   12        2.918751
 
  0.4166667E+00  0.2777778E-01  0.0000000E+00  0.4629630E-02
    1      -21.037217
    2      -20.059440
    3      -11.079400
    4       -8.997375
    5       -8.941199
    6       -8.531392
    7       -7.874513
    8       -7.672819
    9        1.965745
   10        2.775921
   11        3.148859
   12        3.191774
 
  0.4583333E+00  0.2777778E-01  0.0000000E+00  0.4629630E-02
    1      -20.822225
    2      -20.333095
    3      -10.534228
    4       -9.460854
    5       -8.747677
    6       -8.333972
    7       -8.185154
    8       -7.902383
    9        2.259678
   10        2.929558
   11        3.070721
   12        3.493446
 
  0.5000000E+00  0.2777778E-01  0.0000000E+00  0.2314815E-02
    1      -20.587444
    2      -20.587444
    3       -9.993394
    4       -9.993394
    5       -8.476619
    6       -8.476619
    7       -8.123605
    8       -8.123605
    9        2.581094
   10        2.581094
   11        3.388708
   12        3.388806
 
  0.0000000E+00  0.5555556E-01  0.0000000E+00  0.2314815E-02
    1      -22.029547
    2      -16.659807
    3      -15.823375
    4      -10.164358
    5       -9.701791
    6       -6.201215
    7       -5.869909
    8       -4.841965
    9       -1.168376
   10        0.615084
   11        1.414226
   12        1.808574
 
  0.4166667E-01  0.5555556E-01  0.0000000E+00  0.4629630E-02
    1      -22.019179
    2      -16.855690
    3      -15.612736
    4      -10.152067
    5       -9.691249
    6       -6.234214
    7       -5.897968
    8       -4.912853
    9       -1.083219
   10        0.629143
   11        1.428418
   12        1.822952
 
  0.8333333E-01  0.5555556E-01  0.0000000E+00  0.4629630E-02
    1      -21.988082
    2      -17.221458
    3      -15.202796
    4      -10.115210
    5       -9.659662
    6       -6.331204
    7       -5.981830
    8       -5.107772
    9       -0.845672
   10        0.671319
   11        1.470991
   12        1.866087
 
  0.1250000E+00  0.5555556E-01  0.0000000E+00  0.4629630E-02
    1      -21.936275
    2      -17.613548
    3      -14.737437
    4      -10.053847
    5       -9.607158
    6       -6.487609
    7       -6.119377
    8       -5.388636
    9       -0.494358
   10        0.741607
   11        1.541934
   12        1.937978
 
  0.1666667E+00  0.5555556E-01  0.0000000E+00  0.4629630E-02
    1      -21.863796
    2      -18.002461
    3      -14.246692
    4       -9.968073
    5       -9.533952
    6       -6.699178
    7       -6.304544
    8       -5.719702
    9       -0.065919
   10        0.839997
   11        1.641228
   12        2.038623
 
  0.2083333E+00  0.5555556E-01  0.0000000E+00  0.4629630E-02
    1      -21.770693
    2      -18.379950
    3      -13.739579
    4       -9.858029
    5       -9.440349
    6       -6.963855
    7       -6.526542
    8       -6.075741
    9        0.413161
   10        0.966471
   11        1.768842
   12        2.168022
 
  0.2500000E+00  0.5555556E-01  0.0000000E+00  0.4629630E-02
    1      -21.657031
    2      -18.742736
    3      -13.220405
    4       -9.723904
    5       -9.326762
    6       -7.281001
    7       -6.771848
    8       -6.440611
    9        0.925126
   10        1.121005
   11        1.924736
   12        2.326173
 
  0.2916667E+00  0.5555556E-01  0.0000000E+00  0.4629630E-02
    1      -21.522895
    2      -19.089149
    3      -12.692150
    4       -9.565939
    5       -9.193713
    6       -7.648502
    7       -7.028189
    8       -6.804125
    9        1.303564
   10        1.457802
   11        2.108848
   12        2.513068
 
  0.3333333E+00  0.5555556E-01  0.0000000E+00  0.4629630E-02
    1      -21.368378
    2      -19.418187
    3      -12.157461
    4       -9.384441
    5       -9.041854
    6       -8.061070
    7       -7.287075
    8       -7.159705
    9        1.514102
   10        2.002221
   11        2.321091
   12        2.728702
 
  0.3750000E+00  0.5555556E-01  0.0000000E+00  0.4629630E-02
    1      -21.193601
    2      -19.729164
    3      -11.619035
    4       -9.179792
    5       -8.871981
    6       -8.511273
    7       -7.543288
    8       -7.502957
    9        1.752559
   10        2.551022
   11        2.561319
   12        2.973058
 
  0.4166667E+00  0.5555556E-01  0.0000000E+00  0.4629630E-02
    1      -20.998699
    2      -20.021578
    3      -11.079832
    4       -8.991308
    5       -8.952465
    6       -8.685058
    7       -7.830834
    8       -7.793361
    9        2.018853
   10        2.829255
   11        3.096524
   12        3.246116
 
  0.4583333E+00  0.5555556E-01  0.0000000E+00  0.4629630E-02
    1      -20.783835
    2      -20.295030
    3      -10.543217
    4       -9.493999
    5       -8.703053
    6       -8.482237
    7       -8.141154
    8       -8.034634
    9        2.312869
   10        2.983200
   11        3.124164
   12        3.548326
 
  0.5000000E+00  0.5555556E-01  0.0000000E+00  0.2314815E-02
    1      -20.549204
    2      -20.549204
    3      -10.013087
    4      -10.013087
    5       -8.432301
    6       -8.432301
    7       -8.264891
    8       -8.264891
    9        2.634427
   10        2.634427
   11        3.442281
   12        3.442282
 
  0.0000000E+00  0.8333333E-01  0.0000000E+00  0.2314815E-02
    1      -21.964542
    2      -16.603663
    3      -15.772575
    4      -10.087305
    5       -9.970038
    6       -6.449583
    7       -6.025713
    8       -4.763300
    9       -1.203061
   10        0.703116
   11        1.503462
   12        1.898971
 
  0.4166667E-01  0.8333333E-01  0.0000000E+00  0.4629630E-02
    1      -21.954181
    2      -16.799149
    3      -15.562673
    4      -10.075037
    5       -9.959306
    6       -6.488852
    7       -6.044156
    8       -4.835166
    9       -1.117612
   10        0.717179
   11        1.517648
   12        1.913348
 
  0.8333333E-01  0.8333333E-01  0.0000000E+00  0.4629630E-02
    1      -21.923105
    2      -17.163961
    3      -15.154730
    4      -10.038251
    5       -9.927139
    6       -6.600433
    7       -6.103927
    8       -5.032241
    9       -0.879967
   10        0.759364
   11        1.560202
   12        1.956485
 
  0.1250000E+00  0.8333333E-01  0.0000000E+00  0.4629630E-02
    1      -21.871336
    2      -17.555023
    3      -14.692185
    4       -9.977005
    5       -9.873625
    6       -6.771534
    7       -6.212555
    8       -5.315192
    9       -0.530000
   10        0.829670
   11        1.631112
   12        2.028379
 
  0.1666667E+00  0.8333333E-01  0.0000000E+00  0.4629630E-02
    1      -21.798910
    2      -17.942992
    3      -14.204999
    4       -9.891397
    5       -9.798913
    6       -6.990655
    7       -6.373105
    8       -5.647689
    9       -0.104939
   10        0.928086
   11        1.730359
   12        2.129030
 
  0.2083333E+00  0.8333333E-01  0.0000000E+00  0.4629630E-02
    1      -21.705877
    2      -18.319650
    3      -13.702288
    4       -9.781566
    5       -9.703210
    6       -7.250159
    7       -6.582213
    8       -6.004475
    9        0.368713
   10        1.054595
   11        1.857915
   12        2.258438
 
  0.2500000E+00  0.8333333E-01  0.0000000E+00  0.4629630E-02
    1      -21.592305
    2      -18.681713
    3      -13.188542
    4       -9.647703
    5       -9.586785
    6       -7.546302
    7       -6.830916
    8       -6.369569
    9        0.873393
   10        1.209172
   11        2.013737
   12        2.416599
 
  0.2916667E+00  0.8333333E-01  0.0000000E+00  0.4629630E-02
    1      -21.458276
    2      -19.027503
    3      -12.666996
    4       -9.490048
    5       -9.449968
    6       -7.878517
    7       -7.106332
    8       -6.732953
    9        1.391778
   10        1.397172
   11        2.197770
   12        2.603509
 
  0.3333333E+00  0.8333333E-01  0.0000000E+00  0.4629630E-02
    1      -21.303890
    2      -19.356002
    3      -12.140637
    4       -9.308909
    5       -9.293144
    6       -8.247752
    7       -7.394191
    8       -7.088183
    9        1.602368
   10        1.931372
   11        2.409930
   12        2.819161
 
  0.3750000E+00  0.8333333E-01  0.0000000E+00  0.4629630E-02
    1      -21.129267
    2      -19.666517
    3      -11.612618
    4       -9.116755
    5       -9.104666
    6       -8.654029
    7       -7.681933
    8       -7.430958
    9        1.840880
   10        2.469090
   11        2.650094
   12        3.063544
 
  0.4166667E+00  0.8333333E-01  0.0000000E+00  0.4629630E-02
    1      -20.934549
    2      -19.958533
    3      -11.086492
    4       -9.094682
    5       -8.921288
    6       -8.877792
    7       -7.960851
    8       -7.758296
    9        2.107239
   10        2.918030
   11        3.004010
   12        3.336640
 
  0.4583333E+00  0.8333333E-01  0.0000000E+00  0.4629630E-02
    1      -20.719901
    2      -20.231643
    3      -10.566398
    4       -9.564520
    5       -8.707272
    6       -8.628874
    7       -8.226093
    8       -8.068056
    9        2.401342
   10        3.072106
   11        3.213128
   12        3.524994
 
  0.5000000E+00  0.8333333E-01  0.0000000E+00  0.2314815E-02
    1      -20.485522
    2      -20.485522
    3      -10.057191
    4      -10.057191
    5       -8.475295
    6       -8.475295
    7       -8.358650
    8       -8.358650
    9        2.723043
   10        2.723043
   11        3.531519
   12        3.531530
 
  0.0000000E+00  0.1111111E+00  0.0000000E+00  0.2314815E-02
    1      -21.873622
    2      -16.525091
    3      -15.703165
    4      -10.318403
    5       -9.979658
    6       -6.774186
    7       -6.237215
    8       -4.653306
    9       -1.256966
   10        0.826410
   11        1.628342
   12        2.025533
 
  0.4166667E-01  0.1111111E+00  0.0000000E+00  0.4629630E-02
    1      -21.863272
    2      -16.720181
    3      -15.494193
    4      -10.307348
    5       -9.967425
    6       -6.818773
    7       -6.246043
    8       -4.726682
    9       -1.171000
   10        0.840472
   11        1.642518
   12        2.039911
 
  0.8333333E-01  0.1111111E+00  0.0000000E+00  0.4629630E-02
    1      -21.832227
    2      -17.083727
    3      -15.089147
    4      -10.274189
    5       -9.930742
    6       -6.942137
    7       -6.281752
    8       -4.927043
    9       -0.933049
   10        0.882658
   11        1.685039
   12        2.083048
 
  0.1250000E+00  0.1111111E+00  0.0000000E+00  0.4629630E-02
    1      -21.780511
    2      -17.473346
    3      -14.630860
    4      -10.218943
    5       -9.869667
    6       -7.124651
    7       -6.360367
    8       -5.213112
    9       -0.584929
   10        0.952968
   11        1.755896
   12        2.154943
 
  0.1666667E+00  0.1111111E+00  0.0000000E+00  0.4629630E-02
    1      -21.708160
    2      -17.859971
    3      -14.149171
    4      -10.141630
    5       -9.784300
    6       -7.350312
    7       -6.491724
    8       -5.547699
    9       -0.164719
   10        1.051397
   11        1.855067
   12        2.255598
 
  0.2083333E+00  0.1111111E+00  0.0000000E+00  0.4629630E-02
    1      -21.615226
    2      -18.235438
    3      -13.653376
    4      -10.042263
    5       -9.674782
    6       -7.608600
    7       -6.677683
    8       -5.905539
    9        0.301099
   10        1.177929
   11        1.982523
   12        2.385013
 
  0.2500000E+00  0.1111111E+00  0.0000000E+00  0.4629630E-02
    1      -21.501780
    2      -18.596467
    3      -13.148303
    4       -9.920826
    5       -9.541301
    6       -7.893264
    7       -6.913749
    8       -6.270911
    9        0.795281
   10        1.332538
   11        2.138222
   12        2.543184
 
  0.2916667E+00  0.1111111E+00  0.0000000E+00  0.4629630E-02
    1      -21.367903
    2      -18.941363
    3      -12.637674
    4       -9.777249
    5       -9.384101
    6       -8.201518
    7       -7.190622
    8       -6.634058
    9        1.306273
   10        1.515185
   11        2.322110
   12        2.730108
 
  0.3333333E+00  0.1111111E+00  0.0000000E+00  0.4629630E-02
    1      -21.213702
    2      -19.269094
    3      -12.125145
    4       -9.611367
    5       -9.203488
    6       -8.533592
    7       -7.495496
    8       -6.988736
    9        1.725819
   10        1.825789
   11        2.534113
   12        2.945778
 
  0.3750000E+00  0.1111111E+00  0.0000000E+00  0.4629630E-02
    1      -21.039298
    2      -19.578947
    3      -11.614757
    4       -9.422871
    5       -8.999842
    6       -8.892013
    7       -7.813563
    8       -7.330782
    9        1.964378
   10        2.347421
   11        2.774127
   12        3.190185
 
  0.4166667E+00  0.1111111E+00  0.0000000E+00  0.4629630E-02
    1      -20.844839
    2      -19.870395
    3      -11.111208
    4       -9.279965
    5       -9.211282
    6       -8.773632
    7       -8.130199
    8       -7.657308
    9        2.230784
   10        2.865805
   11        3.041988
   12        3.463316
 
  0.4583333E+00  0.1111111E+00  0.0000000E+00  0.4629630E-02
    1      -20.630499
    2      -20.143018
    3      -10.619978
    4       -9.698950
    5       -8.975995
    6       -8.525444
    7       -8.433624
    8       -7.966231
    9        2.524943
   10        3.195959
   11        3.337323
   12        3.375732
 
  0.5000000E+00  0.1111111E+00  0.0000000E+00  0.2314815E-02
    1      -20.396478
    2      -20.396478
    3      -10.147191
    4      -10.147191
    5       -8.716585
    6       -8.716585
    7       -8.256003
    8       -8.256003
    9        2.846728
   10        2.846728
   11        3.656145
   12        3.656215
 
  0.0000000E+00  0.1388889E+00  0.0000000E+00  0.2314815E-02
    1      -21.756881
    2      -16.424122
    3      -15.617305
    4      -10.726383
    5       -9.841655
    6       -7.158383
    7       -6.498570
    8       -4.512122
    9       -1.335135
   10        0.984987
   11        1.788809
   12        2.188270
 
  0.4166667E-01  0.1388889E+00  0.0000000E+00  0.4629630E-02
    1      -21.746544
    2      -16.619016
    3      -15.409338
    4      -10.714790
    5       -9.829468
    6       -7.207480
    7       -6.497941
    8       -4.587725
    9       -1.248269
   10        0.999043
   11        1.802968
   12        2.202647
 
  0.8333333E-01  0.1388889E+00  0.0000000E+00  0.4629630E-02
    1      -21.715539
    2      -16.981071
    3      -15.008266
    4      -10.679972
    5       -9.792925
    6       -7.340814
    7       -6.509439
    8       -4.792838
    9       -1.009539
   10        1.041215
   11        1.845439
   12        2.245781
 
  0.1250000E+00  0.1388889E+00  0.0000000E+00  0.4629630E-02
    1      -21.663891
    2      -17.368822
    3      -14.556163
    4      -10.621805
    5       -9.732084
    6       -7.533201
    7       -6.556307
    8       -5.083285
    9       -0.663647
   10        1.111506
   11        1.916210
   12        2.317674
 
  0.1666667E+00  0.1388889E+00  0.0000000E+00  0.4629630E-02
    1      -21.591639
    2      -17.753669
    3      -14.082690
    4      -10.540058
    5       -9.647045
    6       -7.765325
    7       -6.654085
    8       -5.420704
    9       -0.249804
   10        1.209920
   11        2.015257
   12        2.418327
 
  0.2083333E+00  0.1388889E+00  0.0000000E+00  0.4629630E-02
    1      -21.498835
    2      -18.127554
    3      -13.597488
    4      -10.434349
    5       -9.537950
    6       -8.024874
    7       -6.809037
    8       -5.779898
    9        0.205640
   10        1.336445
   11        2.142547
   12        2.547743
 
  0.2500000E+00  0.1388889E+00  0.0000000E+00  0.4629630E-02
    1      -21.385550
    2      -18.487206
    3      -13.106032
    4      -10.304083
    5       -9.404991
    6       -8.304155
    7       -7.020480
    8       -6.145549
    9        0.685960
   10        1.491060
   11        2.298033
   12        2.705920
 
  0.2916667E+00  0.1388889E+00  0.0000000E+00  0.4629630E-02
    1      -21.251873
    2      -18.830915
    3      -12.612989
    4      -10.148364
    5       -9.248412
    6       -8.598677
    7       -7.282604
    8       -6.508280
    9        1.180160
   10        1.673724
   11        2.481656
   12        2.892854
 
  0.3333333E+00  0.1388889E+00  0.0000000E+00  0.4629630E-02
    1      -21.097912
    2      -19.157625
    3      -12.123286
    4       -9.965908
    5       -9.068518
    6       -8.906602
    7       -7.585771
    8       -6.862128
    9        1.680496
   10        1.884380
   11        2.693336
   12        3.108539
 
  0.3750000E+00  0.1388889E+00  0.0000000E+00  0.4629630E-02
    1      -20.923796
    2      -19.466603
    3      -11.642554
    4       -9.755009
    5       -9.228621
    6       -8.865691
    7       -7.917497
    8       -7.203118
    9        2.122961
   10        2.181110
   11        2.932969
   12        3.352965
 
  0.4166667E+00  0.1388889E+00  0.0000000E+00  0.4629630E-02
    1      -20.729678
    2      -19.757300
    3      -11.177150
    4       -9.567828
    5       -9.513761
    6       -8.640397
    7       -8.263298
    8       -7.528487
    9        2.389384
   10        2.677280
   11        3.200421
   12        3.626124
 
  0.4583333E+00  0.1388889E+00  0.0000000E+00  0.4629630E-02
    1      -20.515739
    2      -20.029280
    3      -10.733556
    4       -9.929019
    5       -9.240841
    6       -8.607874
    7       -8.393213
    8       -7.836233
    9        2.683552
   10        3.164990
   11        3.354603
   12        3.495500
 
  0.5000000E+00  0.1388889E+00  0.0000000E+00  0.2314815E-02
    1      -20.282191
    2      -20.282191
    3      -10.316889
    4      -10.316889
    5       -8.937155
    6       -8.937155
    7       -8.124859
    8       -8.124859
    9        3.005344
   10        3.005344
   11        3.640488
   12        3.640936
 
  0.0000000E+00  0.1666667E+00  0.0000000E+00  0.2314815E-02
    1      -21.614438
    2      -16.300797
    3      -15.518625
    4      -11.173188
    5       -9.673611
    6       -7.586587
    7       -6.803184
    8       -4.339933
    9       -1.443482
   10        1.178851
   11        1.984784
   12        2.387185
 
  0.4166667E-01  0.1666667E+00  0.0000000E+00  0.4629630E-02
    1      -21.604118
    2      -16.496033
    3      -15.311566
    4      -11.160680
    5       -9.661484
    6       -7.639684
    7       -6.793251
    8       -4.418804
    9       -1.355023
   10        1.192896
   11        1.998916
   12        2.401560
 
  0.8333333E-01  0.1666667E+00  0.0000000E+00  0.4629630E-02
    1      -21.573165
    2      -16.856497
    3      -14.915935
    4      -11.123026
    5       -9.625124
    6       -7.781945
    7       -6.780429
    8       -4.630692
    9       -1.114530
   10        1.235035
   11        2.041306
   12        2.444688
 
  0.1250000E+00  0.1666667E+00  0.0000000E+00  0.4629630E-02
    1      -21.521602
    2      -17.241926
    3      -14.472920
    4      -11.059814
    5       -9.564589
    6       -7.983463
    7       -6.794183
    8       -4.927114
    9       -0.770966
   10        1.305279
   11        2.111937
   12        2.516571
 
  0.1666667E+00  0.1666667E+00  0.0000000E+00  0.4629630E-02
    1      -21.449470
    2      -17.624504
    3      -14.011975
    4      -10.970290
    5       -9.479980
    6       -8.222235
    7       -6.855000
    8       -5.268205
    9       -0.364954
   10        1.403639
   11        2.210777
   12        2.617215
 
  0.2083333E+00  0.1666667E+00  0.0000000E+00  0.4629630E-02
    1      -21.356826
    2      -17.996356
    3      -13.543447
    4      -10.853250
    5       -9.371443
    6       -8.484700
    7       -6.973049
    8       -5.629009
    9        0.077542
   10        1.530115
   11        2.337779
   12        2.746623
 
  0.2500000E+00  0.1666667E+00  0.0000000E+00  0.4629630E-02
    1      -21.243744
    2      -18.354238
    3      -13.074082
    4      -10.706904
    5       -9.239170
    6       -8.762372
    7       -7.151052
    8       -5.994838
    9        0.540637
   10        1.684692
   11        2.492876
   12        2.904796
 
  0.2916667E+00  0.1666667E+00  0.0000000E+00  0.4629630E-02
    1      -21.110316
    2      -18.696425
    3      -12.610297
    4      -10.528753
    5       -9.083409
    6       -9.049865
    7       -7.386258
    8       -6.356850
    9        1.014170
   10        1.867331
   11        2.675968
   12        3.091733
 
  0.3333333E+00  0.1666667E+00  0.0000000E+00  0.4629630E-02
    1      -20.956655
    2      -19.021832
    3      -12.159056
    4      -10.315680
    5       -9.344033
    6       -8.904467
    7       -7.671832
    8       -6.709463
    9        1.491159
   10        2.077974
   11        2.886900
   12        3.307427
 
  0.3750000E+00  0.1666667E+00  0.0000000E+00  0.4629630E-02
    1      -20.782899
    2      -19.329695
    3      -11.727606
    4      -10.064608
    5       -9.643686
    6       -8.702725
    7       -7.997972
    8       -7.048953
    9        1.966454
   10        2.316543
   11        3.125377
   12        3.551868
 
  0.4166667E+00  0.1666667E+00  0.0000000E+00  0.4629630E-02
    1      -20.589209
    2      -19.619437
    3      -11.322036
    4       -9.949636
    5       -9.774199
    6       -8.478649
    7       -8.352722
    8       -7.372715
    9        2.435982
   10        2.582945
   11        3.390477
   12        3.825046
 
  0.4583333E+00  0.1666667E+00  0.0000000E+00  0.4629630E-02
    1      -20.375775
    2      -19.890604
    3      -10.945024
    4      -10.264865
    5       -9.447279
    6       -8.722459
    7       -8.232812
    8       -7.678848
    9        2.877073
   10        2.896212
   11        3.547968
   12        3.663981
 
  0.5000000E+00  0.1666667E+00  0.0000000E+00  0.2314815E-02
    1      -20.142820
    2      -20.142820
    3      -10.594509
    4      -10.594509
    5       -9.092333
    6       -9.092333
    7       -7.965918
    8       -7.965918
    9        3.198799
   10        3.198799
   11        3.342925
   12        3.342932
 