       N       E                     dE             d eps       ncg     rms          rms(c)
DAV:   1     0.187820648729E+03    0.18782E+03   -0.10587E+04  5928   0.275E+03
DAV:   2    -0.937846619168E+01   -0.19720E+03   -0.17652E+03 10400   0.258E+02
DAV:   3    -0.381336458197E+02   -0.28755E+02   -0.28364E+02  7308   0.119E+02    0.710E+00
RMM:   4    -0.375704672427E+02    0.56318E+00   -0.91573E+00  5928   0.263E+01    0.410E+00
RMM:   5    -0.368668872423E+02    0.70358E+00   -0.26038E+00  5932   0.110E+01    0.686E-01
RMM:   6    -0.368691989771E+02   -0.23117E-02   -0.82711E-02  6385   0.201E+00    0.496E-01
RMM:   7    -0.368603508765E+02    0.88481E-02   -0.30740E-02  5944   0.152E+00    0.322E-01
RMM:   8    -0.368555475055E+02    0.48034E-02   -0.64480E-03  5931   0.532E-01    0.132E-01
RMM:   9    -0.368554226186E+02    0.12489E-03   -0.19114E-02  5928   0.817E-01    0.152E-01
RMM:  10    -0.368553114198E+02    0.11120E-03   -0.22173E-03  5929   0.339E-01    0.276E-02
RMM:  11    -0.368576031533E+02   -0.22917E-02   -0.65307E-04  5930   0.171E-01    0.424E-02
RMM:  12    -0.368580904797E+02   -0.48733E-03   -0.20108E-04  5944   0.938E-02    0.528E-03
RMM:  13    -0.368583473411E+02   -0.25686E-03   -0.50919E-05  6023   0.383E-02    0.358E-03
RMM:  14    -0.368584277408E+02   -0.80400E-04   -0.10342E-05  5966   0.161E-02    0.124E-03
RMM:  15    -0.368584390215E+02   -0.11281E-04   -0.17873E-06  5965   0.758E-03    0.187E-03
RMM:  16    -0.368584524057E+02   -0.13384E-04   -0.13383E-06  5928   0.751E-03    0.104E-03
RMM:  17    -0.368584582111E+02   -0.58054E-05   -0.88287E-08  6079   0.182E-03    0.722E-04
RMM:  18    -0.368584592761E+02   -0.10650E-05   -0.58280E-08  5929   0.181E-03    0.847E-05
RMM:  19    -0.368584599933E+02   -0.71721E-06   -0.96684E-09  5884   0.452E-04    0.151E-05
RMM:  20    -0.368584600417E+02   -0.48442E-07   -0.81638E-10  4484   0.140E-04    0.206E-05
RMM:  21    -0.368584600547E+02   -0.13028E-07   -0.19243E-10  4322   0.815E-05    0.744E-06
RMM:  22    -0.368584600546E+02    0.14984E-09   -0.15953E-11  3896   0.480E-05    0.117E-06
RMM:  23    -0.368584600553E+02   -0.66325E-09   -0.17414E-11  3524   0.366E-05    0.167E-06
RMM:  24    -0.368584600551E+02    0.10436E-09   -0.43095E-12  3095   0.278E-05    0.505E-07
RMM:  25    -0.368584600551E+02    0.14779E-11   -0.39687E-12  2756   0.242E-05
   1 F= -.36858460E+02 E0= -.36858460E+02  d E =-.368585E+02
       N       E                     dE             d eps       ncg     rms          rms(c)
DAV:   1    -0.368584599763E+02    0.78835E-07   -0.68312E-06  6240   0.246E-02    0.499E-04
RMM:   2    -0.368584599832E+02   -0.68600E-08   -0.11462E-07  5962   0.296E-03    0.367E-04
RMM:   3    -0.368584599846E+02   -0.14290E-08   -0.18270E-08  5983   0.109E-03    0.920E-05
RMM:   4    -0.368584599833E+02    0.13100E-08   -0.11164E-09  5852   0.264E-04    0.266E-05
RMM:   5    -0.368584599840E+02   -0.74328E-09   -0.60742E-11  3841   0.735E-05    0.106E-05
RMM:   6    -0.368584599842E+02   -0.14018E-09   -0.17407E-11  3530   0.473E-05    0.224E-06
RMM:   7    -0.368584599839E+02    0.28535E-09   -0.96854E-12  3322   0.373E-05    0.105E-06
RMM:   8    -0.368584599841E+02   -0.22669E-09   -0.41639E-12  3080   0.317E-05    0.368E-07
RMM:   9    -0.368584599840E+02    0.15348E-09   -0.66514E-12  2852   0.284E-05    0.280E-07
RMM:  10    -0.368584599841E+02   -0.16325E-09   -0.19160E-12  2591   0.251E-05    0.142E-07
RMM:  11    -0.368584599841E+02    0.36380E-10   -0.27366E-12  2408   0.232E-05
   2 F= -.36858460E+02 E0= -.36858460E+02  d E =0.710562E-07
       N       E                     dE             d eps       ncg     rms          rms(c)
DAV:   1    -0.368584600649E+02   -0.80730E-07   -0.43665E-06  6716   0.197E-02    0.402E-04
RMM:   2    -0.368584600669E+02   -0.20003E-08   -0.70123E-08  5949   0.236E-03    0.293E-04
RMM:   3    -0.368584600614E+02    0.54216E-08   -0.11381E-08  5976   0.865E-04    0.692E-05
RMM:   4    -0.368584600617E+02   -0.21691E-09   -0.64357E-10  5406   0.205E-04    0.213E-05
RMM:   5    -0.368584600614E+02    0.25364E-09   -0.32432E-11  3730   0.646E-05    0.866E-06
RMM:   6    -0.368584600616E+02   -0.22180E-09   -0.12158E-11  3380   0.440E-05    0.189E-06
RMM:   7    -0.368584600612E+02    0.42030E-09   -0.61884E-12  3098   0.355E-05    0.141E-06
RMM:   8    -0.368584600615E+02   -0.26819E-09   -0.68130E-12  2818   0.304E-05    0.102E-06
RMM:   9    -0.368584600613E+02    0.17326E-09   -0.30804E-12  2782   0.269E-05    0.256E-07
RMM:  10    -0.368584600615E+02   -0.18827E-09   -0.18717E-12  2505   0.253E-05    0.295E-07
RMM:  11    -0.368584600613E+02    0.20100E-09   -0.24856E-12  2305   0.234E-05    0.326E-07
RMM:  12    -0.368584600611E+02    0.20930E-09   -0.95027E-13  2189   0.217E-05    0.277E-07
RMM:  13    -0.368584600615E+02   -0.38574E-09   -0.62255E-13  2064   0.207E-05    0.216E-07
RMM:  14    -0.368584600613E+02    0.14461E-09    0.14392E-14  1997   0.201E-05    0.832E-08
RMM:  15    -0.368584600613E+02    0.47066E-10   -0.82851E-13  1920   0.192E-05
   3 F= -.36858460E+02 E0= -.36858460E+02  d E =-.771772E-07
