gr                                      
           1
     4.255182    0.000000    0.000000
     0.000000    2.528985    0.000000
     0.000000    0.000000   19.592248
   C 
   4
Direct configuration=     1
   0.00063729  0.00000000  0.00000000
   0.16602938  0.50000000  0.00000000
   0.50063729  0.50000000  0.00000000
   0.66602938  0.00000000  0.00000000
Direct configuration=     2
   0.00063145  0.00000000 -0.00000000
   0.16603522  0.50000000  0.00000000
   0.50063145  0.50000000 -0.00000000
   0.66603522  0.00000000  0.00000000
Direct configuration=     3
   0.00063612 -0.00000000 -0.00000000
   0.16603055  0.50000000  0.00000000
   0.50063612  0.50000000 -0.00000000
   0.66603055 -0.00000000  0.00000000
