    4    4  400    1
  0.5270948E+02  0.4261822E-09  0.2505051E-09  0.1974863E-08  0.5000000E-15
  1.000000000000000E-004
  CAR 
 gr                                      
     16    247     12
 
  0.0000000E+00  0.0000000E+00  0.0000000E+00  0.1157407E-02
    1      -22.148054
    2      -16.825828
    3      -15.905183
    4      -10.277393
    5       -9.359187
    6       -5.918864
    7       -5.753984
    8       -4.983711
    9       -1.113256
   10        0.536507
   11        1.335767
   12        1.724800
 
  0.4166667E-01  0.0000000E+00  0.0000000E+00  0.2314815E-02
    1      -22.137726
    2      -17.009044
    3      -15.706852
    4      -10.265106
    5       -9.348861
    6       -5.942147
    7       -5.795170
    8       -5.052402
    9       -1.029289
   10        0.550507
   11        1.349924
   12        1.739133
 
  0.8333333E-01  0.0000000E+00  0.0000000E+00  0.2314815E-02
    1      -22.106749
    2      -17.364237
    3      -15.306399
    4      -10.228263
    5       -9.317930
    6       -6.010670
    7       -5.917159
    8       -5.242210
    9       -0.793828
   10        0.592506
   11        1.392390
   12        1.782130
 
  0.1250000E+00  0.0000000E+00  0.0000000E+00  0.2314815E-02
    1      -22.055141
    2      -17.751060
    3      -14.844447
    4      -10.166922
    5       -9.266547
    6       -6.120698
    7       -6.115486
    8       -5.517550
    9       -0.442985
   10        0.662501
   11        1.463153
   12        1.853793
 
  0.1666667E+00  0.0000000E+00  0.0000000E+00  0.2314815E-02
    1      -21.982936
    2      -18.136875
    3      -14.354095
    4      -10.081179
    5       -9.194971
    6       -6.383431
    7       -6.266691
    8       -5.844026
    9       -0.012045
   10        0.760489
   11        1.562193
   12        1.954121
 
  0.2083333E+00  0.0000000E+00  0.0000000E+00  0.2314815E-02
    1      -21.890185
    2      -18.512227
    3      -13.845474
    4       -9.971176
    5       -9.103575
    6       -6.712871
    7       -6.442073
    8       -6.196664
    9        0.472762
   10        0.886458
   11        1.689480
   12        2.083113
 
  0.2500000E+00  0.0000000E+00  0.0000000E+00  0.2314815E-02
    1      -21.776951
    2      -18.873351
    3      -13.323229
    4       -9.837101
    5       -8.992861
    6       -7.095086
    7       -6.639955
    8       -6.559143
    9        0.993464
   10        1.040387
   11        1.844967
   12        2.240768
 
  0.2916667E+00  0.0000000E+00  0.0000000E+00  0.2314815E-02
    1      -21.643314
    2      -19.218368
    3      -12.790368
    4       -9.679196
    5       -8.863473
    6       -7.521419
    7       -6.921012
    8       -6.853676
    9        1.222248
   10        1.537514
   11        2.028585
   12        2.427079
 
  0.3333333E+00  0.0000000E+00  0.0000000E+00  0.2314815E-02
    1      -21.489370
    2      -19.546171
    3      -12.249396
    4       -9.497769
    5       -8.716223
    6       -7.983709
    7       -7.275470
    8       -7.077152
    9        1.431996
   10        2.095436
   11        2.240229
   12        2.642041
 
  0.3750000E+00  0.0000000E+00  0.0000000E+00  0.2314815E-02
    1      -21.315235
    2      -19.856027
    3      -11.702754
    4       -9.293206
    5       -8.552113
    6       -8.474528
    7       -7.617957
    8       -7.305017
    9        1.669574
   10        2.479718
   11        2.658872
   12        2.885640
 
  0.4166667E+00  0.0000000E+00  0.0000000E+00  0.2314815E-02
    1      -21.121043
    2      -20.147401
    3      -11.153033
    4       -9.065988
    5       -8.987280
    6       -8.372379
    7       -7.945309
    8       -7.532667
    9        1.934900
   10        2.746688
   11        3.157851
   12        3.216038
 
  0.4583333E+00  0.0000000E+00  0.0000000E+00  0.2314815E-02
    1      -20.906954
    2      -20.419887
    3      -10.603109
    4       -9.516189
    5       -8.816717
    6       -8.255263
    7       -8.178529
    8       -7.756209
    9        2.227857
   10        2.895791
   11        3.040191
   12        3.458627
 
  0.5000000E+00  0.0000000E+00  0.0000000E+00  0.1157407E-02
    1      -20.673160
    2      -20.673160
    3      -10.056244
    4      -10.056244
    5       -8.546152
    6       -8.546152
    7       -7.972396
    8       -7.972396
    9        2.548262
   10        2.548262
   11        3.356152
   12        3.356152
 
  0.0000000E+00  0.2777778E-01  0.0000000E+00  0.2314815E-02
    1      -22.134793
    2      -16.814411
    3      -15.894327
    4      -10.261616
    5       -9.418664
    6       -5.973613
    7       -5.785462
    8       -4.967626
    9       -1.118582
   10        0.554461
   11        1.353973
   12        1.743230
 
  0.4166667E-01  0.2777778E-01  0.0000000E+00  0.4629630E-02
    1      -22.124467
    2      -16.997491
    3      -15.696187
    4      -10.249333
    5       -9.408312
    6       -6.000759
    7       -5.822073
    8       -5.036481
    9       -1.034577
   10        0.568462
   11        1.368128
   12        1.757563
 
  0.8333333E-01  0.2777778E-01  0.0000000E+00  0.4629630E-02
    1      -22.093493
    2      -17.352459
    3      -15.296133
    4      -10.212503
    5       -9.377305
    6       -6.083782
    7       -5.927559
    8       -5.226661
    9       -0.799126
   10        0.610464
   11        1.410591
   12        1.800561
 
  0.1250000E+00  0.2777778E-01  0.0000000E+00  0.4629630E-02
    1      -22.041893
    2      -17.739069
    3      -14.834691
    4      -10.151184
    5       -9.325789
    6       -6.231947
    7       -6.084791
    8       -5.502372
    9       -0.448549
   10        0.680465
   11        1.481349
   12        1.872225
 
  0.1666667E+00  0.2777778E-01  0.0000000E+00  0.4629630E-02
    1      -21.969699
    2      -18.124697
    3      -14.344960
    4      -10.065473
    5       -9.254016
    6       -6.461868
    7       -6.265315
    8       -5.829114
    9       -0.018236
   10        0.778461
   11        1.580382
   12        1.972554
 
  0.2083333E+00  0.2777778E-01  0.0000000E+00  0.4629630E-02
    1      -21.876962
    2      -18.499885
    3      -13.837084
    4       -9.955510
    5       -9.162346
    6       -6.769303
    7       -6.459058
    8       -6.181900
    9        0.465569
   10        0.904440
   11        1.707660
   12        2.101549
 
  0.2500000E+00  0.2777778E-01  0.0000000E+00  0.4629630E-02
    1      -21.763745
    2      -18.860869
    3      -13.315737
    4       -9.821482
    5       -9.051265
    6       -7.137309
    7       -6.667641
    8       -6.544432
    9        0.984923
   10        1.058381
   11        1.863137
   12        2.259206
 
  0.2916667E+00  0.2777778E-01  0.0000000E+00  0.4629630E-02
    1      -21.630130
    2      -19.205766
    3      -12.783958
    4       -9.663635
    5       -8.921396
    6       -7.553166
    7       -6.906289
    8       -6.888646
    9        1.240255
   10        1.527324
   11        2.046744
   12        2.445521
 
  0.3333333E+00  0.2777778E-01  0.0000000E+00  0.4629630E-02
    1      -21.476212
    2      -19.533464
    3      -12.244296
    4       -9.482274
    5       -8.773522
    6       -8.007234
    7       -7.260692
    8       -7.117532
    9        1.450018
   10        2.083368
   11        2.258379
   12        2.660488
 
  0.3750000E+00  0.2777778E-01  0.0000000E+00  0.4629630E-02
    1      -21.302108
    2      -19.843229
    3      -11.699244
    4       -9.277786
    5       -8.608612
    6       -8.491447
    7       -7.603097
    8       -7.349584
    9        1.687613
   10        2.497864
   11        2.644859
   12        2.904094
 
  0.4166667E+00  0.2777778E-01  0.0000000E+00  0.4629630E-02
    1      -21.107951
    2      -20.134526
    3      -11.151457
    4       -9.050651
    5       -8.998846
    6       -8.427857
    7       -7.930356
    8       -7.580529
    9        1.952960
   10        2.764842
   11        3.176316
   12        3.200844
 
  0.4583333E+00  0.2777778E-01  0.0000000E+00  0.4629630E-02
    1      -20.893905
    2      -20.406945
    3      -10.603893
    4       -9.523405
    5       -8.801470
    6       -8.240211
    7       -8.232710
    8       -7.806682
    9        2.245945
   10        2.914015
   11        3.058378
   12        3.477109
 
  0.5000000E+00  0.2777778E-01  0.0000000E+00  0.2314815E-02
    1      -20.660161
    2      -20.660161
    3      -10.059917
    4      -10.059917
    5       -8.531001
    6       -8.531001
    7       -8.024938
    8       -8.024938
    9        2.566397
   10        2.566397
   11        3.374353
   12        3.374354
 
  0.0000000E+00  0.5555556E-01  0.0000000E+00  0.2314815E-02
    1      -22.095023
    2      -16.780161
    3      -15.861943
    4      -10.214317
    5       -9.592252
    6       -6.133571
    7       -5.878975
    8       -4.919390
    9       -1.135366
   10        0.608331
   11        1.408581
   12        1.798520
 
  0.4166667E-01  0.5555556E-01  0.0000000E+00  0.4629630E-02
    1      -22.084701
    2      -16.962853
    3      -15.664370
    4      -10.202047
    5       -9.581819
    6       -6.167565
    7       -5.906667
    8       -4.988754
    9       -1.051238
   10        0.622335
   11        1.422733
   12        1.812853
 
  0.8333333E-01  0.5555556E-01  0.0000000E+00  0.4629630E-02
    1      -22.053740
    2      -17.317154
    3      -15.265520
    4      -10.165258
    5       -9.550564
    6       -6.267945
    7       -5.988942
    8       -5.180078
    9       -0.815804
   10        0.664344
   11        1.465186
   12        1.855853
 
  0.1250000E+00  0.5555556E-01  0.0000000E+00  0.4629630E-02
    1      -22.002161
    2      -17.703126
    3      -14.805637
    4      -10.104006
    5       -9.498617
    6       -6.431287
    7       -6.122301
    8       -5.456929
    9       -0.466025
   10        0.734358
   11        1.535928
   12        1.927520
 
  0.1666667E+00  0.5555556E-01  0.0000000E+00  0.4629630E-02
    1      -21.929999
    2      -18.088190
    3      -14.317809
    4      -10.018388
    5       -9.426203
    6       -6.654631
    7       -6.299074
    8       -5.784482
    9       -0.037622
   10        0.832373
   11        1.634939
   12        2.027853
 
  0.2083333E+00  0.5555556E-01  0.0000000E+00  0.4629630E-02
    1      -21.837304
    2      -18.462887
    3      -13.812237
    4       -9.908545
    5       -9.333644
    6       -6.935869
    7       -6.508190
    8       -6.137714
    9        0.443129
   10        0.958377
   11        1.762189
   12        2.156853
 
  0.2500000E+00  0.5555556E-01  0.0000000E+00  0.4629630E-02
    1      -21.724140
    2      -18.823447
    3      -13.293675
    4       -9.774666
    5       -9.221368
    6       -7.271987
    7       -6.738202
    8       -6.500402
    9        0.958375
   10        1.112349
   11        1.917634
   12        2.314518
 
  0.2916667E+00  0.5555556E-01  0.0000000E+00  0.4629630E-02
    1      -21.590590
    2      -19.167977
    3      -12.765271
    4       -9.616993
    5       -9.089927
    6       -7.657647
    7       -6.979826
    8       -6.862214
    9        1.294257
   10        1.495753
   11        2.101207
   12        2.500843
 
  0.3333333E+00  0.5555556E-01  0.0000000E+00  0.4629630E-02
    1      -21.436750
    2      -19.495361
    3      -12.229712
    4       -9.435835
    5       -8.940009
    6       -8.085659
    7       -7.226312
    8       -7.216444
    9        1.504059
   10        2.046053
   11        2.312811
   12        2.715822
 
  0.3750000E+00  0.5555556E-01  0.0000000E+00  0.4629630E-02
    1      -21.262738
    2      -19.804854
    3      -11.689668
    4       -9.231575
    5       -8.772461
    6       -8.548263
    7       -7.558602
    8       -7.472677
    9        1.741697
   10        2.552279
   11        2.601508
   12        2.959445
 
  0.4166667E+00  0.5555556E-01  0.0000000E+00  0.4629630E-02
    1      -21.068690
    2      -20.095917
    3      -11.148019
    4       -9.038047
    5       -9.004692
    6       -8.588316
    7       -7.885572
    8       -7.715024
    9        2.007095
   10        2.819279
   11        3.153035
   12        3.231694
 
  0.4583333E+00  0.5555556E-01  0.0000000E+00  0.4629630E-02
    1      -20.854771
    2      -20.368134
    3      -10.608004
    4       -9.548349
    5       -8.755786
    6       -8.388828
    7       -8.195123
    8       -7.950178
    9        2.300149
   10        2.968529
   11        3.112924
   12        3.533741
 
  0.5000000E+00  0.5555556E-01  0.0000000E+00  0.2314815E-02
    1      -20.621176
    2      -20.621176
    3      -10.073342
    4      -10.073342
    5       -8.485609
    6       -8.485609
    7       -8.175509
    8       -8.175509
    9        2.620708
   10        2.620708
   11        3.428938
   12        3.428938
 
  0.0000000E+00  0.8333333E-01  0.0000000E+00  0.2314815E-02
    1      -22.028779
    2      -16.723093
    3      -15.808626
    4      -10.135595
    5       -9.866745
    6       -6.387136
    7       -6.031851
    8       -4.839062
    9       -1.166010
   10        0.698137
   11        1.499570
   12        1.890675
 
  0.4166667E-01  0.8333333E-01  0.0000000E+00  0.4629630E-02
    1      -22.018463
    2      -16.905190
    3      -15.611961
    4      -10.123349
    5       -9.856156
    6       -6.426936
    7       -6.050468
    8       -4.909329
    9       -1.081643
   10        0.712142
   11        1.513717
   12        1.905009
 
  0.8333333E-01  0.8333333E-01  0.0000000E+00  0.4629630E-02
    1      -21.987524
    2      -17.258411
    3      -15.215149
    4      -10.086628
    5       -9.824422
    6       -6.539818
    7       -6.110958
    8       -5.102666
    9       -0.846185
   10        0.754156
   11        1.556152
   12        1.948010
 
  0.1250000E+00  0.8333333E-01  0.0000000E+00  0.4629630E-02
    1      -21.935983
    2      -17.643320
    3      -14.757967
    4      -10.025490
    5       -9.771642
    6       -6.713044
    7       -6.220539
    8       -5.381502
    9       -0.497744
   10        0.824182
   11        1.626864
   12        2.019679
 
  0.1666667E+00  0.8333333E-01  0.0000000E+00  0.4629630E-02
    1      -21.863875
    2      -18.027436
    3      -14.273483
    4       -9.940033
    5       -9.697987
    6       -6.935984
    7       -6.381040
    8       -5.710447
    9       -0.072606
   10        0.922216
   11        1.725835
   12        2.120017
 
  0.2083333E+00  0.8333333E-01  0.0000000E+00  0.4629630E-02
    1      -21.771250
    2      -18.401307
    3      -13.771995
    4       -9.830397
    5       -9.603695
    6       -7.202168
    7       -6.587541
    8       -6.064431
    9        0.402909
   10        1.048247
   11        1.853033
   12        2.249024
 
  0.2500000E+00  0.8333333E-01  0.0000000E+00  0.4629630E-02
    1      -21.658175
    2      -18.761152
    3      -13.258418
    4       -9.696772
    5       -9.489082
    6       -7.508781
    7       -6.829808
    8       -6.427369
    9        0.911116
   10        1.202254
   11        2.008415
   12        2.406698
 
  0.2916667E+00  0.8333333E-01  0.0000000E+00  0.4629630E-02
    1      -21.524733
    2      -19.105066
    3      -12.736119
    4       -9.539399
    5       -9.354542
    6       -7.855288
    7       -7.094663
    8       -6.789087
    9        1.384203
   10        1.439884
   11        2.191922
   12        2.593035
 
  0.3333333E+00  0.8333333E-01  0.0000000E+00  0.4629630E-02
    1      -21.371024
    2      -19.431919
    3      -12.208069
    4       -9.358588
    5       -9.200554
    6       -8.241277
    7       -7.369024
    8       -7.143005
    9        1.594051
   10        1.980302
   11        2.403462
   12        2.808030
 
  0.3750000E+00  0.8333333E-01  0.0000000E+00  0.4629630E-02
    1      -21.197165
    2      -19.740954
    3      -11.677308
    4       -9.154720
    5       -9.027691
    6       -8.664476
    7       -7.642530
    8       -7.484723
    9        1.831740
   10        2.525148
   11        2.642888
   12        3.051674
 
  0.4166667E+00  0.8333333E-01  0.0000000E+00  0.4629630E-02
    1      -21.003300
    2      -20.031624
    3      -11.147198
    4       -9.120261
    5       -8.928273
    6       -8.836620
    7       -7.908406
    8       -7.811188
    9        2.097195
   10        2.909915
   11        3.067313
   12        3.323954
 
  0.4583333E+00  0.8333333E-01  0.0000000E+00  0.4629630E-02
    1      -20.789596
    2      -20.303502
    3      -10.621589
    4       -9.602549
    5       -8.679841
    6       -8.628120
    7       -8.162701
    8       -8.120210
    9        2.390320
   10        3.059002
   11        3.203757
   12        3.585881
 
  0.5000000E+00  0.8333333E-01  0.0000000E+00  0.2314815E-02
    1      -20.556251
    2      -20.556251
    3      -10.104968
    4      -10.104968
    5       -8.410170
    6       -8.410170
    7       -8.403107
    8       -8.403107
    9        2.710987
   10        2.710987
   11        3.519841
   12        3.519841
 
  0.0000000E+00  0.1111111E+00  0.0000000E+00  0.2314815E-02
    1      -21.936123
    2      -16.643226
    3      -15.735498
    4      -10.223667
    5      -10.025618
    6       -6.718397
    7       -6.239894
    8       -4.726742
    9       -1.214449
   10        0.823902
   11        1.626904
   12        2.019700
 
  0.4166667E-01  0.1111111E+00  0.0000000E+00  0.4629630E-02
    1      -21.925818
    2      -16.824611
    3      -15.540033
    4      -10.212809
    5      -10.013404
    6       -6.762742
    7       -6.249743
    8       -4.798399
    9       -1.129656
   10        0.837905
   11        1.641041
   12        2.034033
 
  0.8333333E-01  0.1111111E+00  0.0000000E+00  0.4629630E-02
    1      -21.894910
    2      -17.176389
    3      -15.146152
    4      -10.180250
    5       -9.976784
    6       -6.885323
    7       -6.288470
    8       -4.994802
    9       -0.894026
   10        0.879916
   11        1.683447
   12        2.077034
 
  0.1250000E+00  0.1111111E+00  0.0000000E+00  0.4629630E-02
    1      -21.843422
    2      -17.559815
    3      -14.693015
    4      -10.126029
    5       -9.915813
    6       -7.066874
    7       -6.371455
    8       -5.276605
    9       -0.547443
   10        0.949939
   11        1.754111
   12        2.148703
 
  0.1666667E+00  0.1111111E+00  0.0000000E+00  0.4629630E-02
    1      -21.771388
    2      -17.942587
    3      -14.213639
    4      -10.050212
    5       -9.830590
    6       -7.292183
    7       -6.507344
    8       -5.607588
    9       -0.127021
   10        1.047976
   11        1.853014
   12        2.249043
 
  0.2083333E+00  0.1111111E+00  0.0000000E+00  0.4629630E-02
    1      -21.678863
    2      -18.315280
    3      -13.718495
    4       -9.952880
    5       -9.721257
    6       -7.551583
    7       -6.696707
    8       -5.962639
    9        0.340898
   10        1.174020
   11        1.980124
   12        2.378055
 
  0.2500000E+00  0.1111111E+00  0.0000000E+00  0.4629630E-02
    1      -21.565914
    2      -18.674106
    3      -13.212789
    4       -9.834120
    5       -9.588002
    6       -7.839686
    7       -6.933790
    8       -6.325900
    9        0.838904
   10        1.328050
   11        2.135400
   12        2.535737
 
  0.2916667E+00  0.1111111E+00  0.0000000E+00  0.4629630E-02
    1      -21.432624
    2      -19.017141
    3      -12.700295
    4       -9.694005
    5       -9.431071
    6       -8.154574
    7       -7.208120
    8       -6.687438
    9        1.355212
   10        1.510032
   11        2.318786
   12        2.722086
 
  0.3333333E+00  0.1111111E+00  0.0000000E+00  0.4629630E-02
    1      -21.279098
    2      -19.343237
    3      -12.184539
    4       -9.532577
    5       -9.250768
    6       -8.497127
    7       -7.506048
    8       -7.040862
    9        1.719917
   10        1.881302
   11        2.530201
   12        2.937097
 
  0.3750000E+00  0.1111111E+00  0.0000000E+00  0.4629630E-02
    1      -21.105458
    2      -19.651621
    3      -11.669293
    4       -9.349810
    5       -9.047477
    6       -8.869762
    7       -7.812776
    8       -7.381907
    9        1.957644
   10        2.410504
   11        2.769525
   12        3.180761
 
  0.4166667E+00  0.1111111E+00  0.0000000E+00  0.4629630E-02
    1      -20.911851
    2      -19.941730
    3      -11.158868
    4       -9.274326
    5       -9.145588
    6       -8.821671
    7       -8.114997
    8       -7.707609
    9        2.223138
   10        2.937059
   11        3.036546
   12        3.453068
 
  0.4583333E+00  0.1111111E+00  0.0000000E+00  0.4629630E-02
    1      -20.698451
    2      -20.213127
    3      -10.658290
    4       -9.710095
    5       -8.919724
    6       -8.573938
    7       -8.403178
    8       -8.015839
    9        2.516307
   10        3.185151
   11        3.330689
   12        3.454028
 
  0.5000000E+00  0.1111111E+00  0.0000000E+00  0.2314815E-02
    1      -20.465462
    2      -20.465462
    3      -10.173310
    4      -10.173310
    5       -8.672105
    6       -8.672105
    7       -8.305016
    8       -8.305016
    9        2.837032
   10        2.837032
   11        3.646719
   12        3.646719
 
  0.0000000E+00  0.1388889E+00  0.0000000E+00  0.2314815E-02
    1      -21.817147
    2      -16.540591
    3      -15.644475
    4      -10.642471
    5       -9.884625
    6       -7.110309
    7       -6.497731
    8       -4.582572
    9       -1.285971
   10        0.985642
   11        1.790526
   12        2.185599
 
  0.4166667E-01  0.1388889E+00  0.0000000E+00  0.4629630E-02
    1      -21.806855
    2      -16.721295
    3      -15.450422
    4      -10.631162
    5       -9.872457
    6       -7.158456
    7       -6.498884
    8       -4.656272
    9       -1.200429
   10        0.999638
   11        1.804648
   12        2.199931
 
  0.8333333E-01  0.1388889E+00  0.0000000E+00  0.4629630E-02
    1      -21.775988
    2      -17.071346
    3      -15.060505
    4      -10.597213
    5       -9.835972
    6       -7.289375
    7       -6.515188
    8       -4.857101
    9       -0.964255
   10        1.041630
   11        1.847008
   12        2.242929
 
  0.1250000E+00  0.1388889E+00  0.0000000E+00  0.4629630E-02
    1      -21.724567
    2      -17.452867
    3      -14.613153
    4      -10.540548
    5       -9.775229
    6       -7.478799
    7       -6.568689
    8       -5.143074
    9       -0.619958
   10        1.111629
   11        1.917595
   12        2.314594
 
  0.1666667E+00  0.1388889E+00  0.0000000E+00  0.4629630E-02
    1      -21.652632
    2      -17.833878
    3      -14.141302
    4      -10.461029
    5       -9.690325
    6       -7.708213
    7       -6.673707
    8       -5.476830
    9       -0.205773
   10        1.209642
   11        2.016387
   12        2.414931
 
  0.2083333E+00  0.1388889E+00  0.0000000E+00  0.4629630E-02
    1      -21.560236
    2      -18.205016
    3      -13.655733
    4      -10.358416
    5       -9.581404
    6       -7.965880
    7       -6.835465
    8       -5.833265
    9        0.252019
   10        1.335669
   11        2.143351
   12        2.543943
 
  0.2500000E+00  0.1388889E+00  0.0000000E+00  0.4629630E-02
    1      -21.447448
    2      -18.562494
    3      -13.162199
    4      -10.232324
    5       -9.448656
    6       -8.244592
    7       -7.052352
    8       -6.196875
    9        0.736459
   10        1.489693
   11        2.298444
   12        2.701628
 
  0.2916667E+00  0.1388889E+00  0.0000000E+00  0.4629630E-02
    1      -21.314358
    2      -18.904368
    3      -12.665268
    4      -10.082155
    5       -9.292325
    6       -8.540392
    7       -7.317674
    8       -6.558082
    9        1.236272
   10        1.671680
   11        2.481608
   12        2.887985
 
  0.3333333E+00  0.1388889E+00  0.0000000E+00  0.4629630E-02
    1      -21.161070
    2      -19.229465
    3      -12.169544
    4       -9.907021
    5       -9.112720
    6       -8.852104
    7       -7.620904
    8       -6.910761
    9        1.743450
   10        1.881577
   11        2.692767
   12        3.103008
 
  0.3750000E+00  0.1388889E+00  0.0000000E+00  0.4629630E-02
    1      -20.987715
    2      -19.536990
    3      -11.680203
    4       -9.705680
    5       -9.181174
    6       -8.910219
    7       -7.948688
    8       -7.250830
    9        2.119317
   10        2.251890
   11        2.931823
   12        3.346689
 
  0.4166667E+00  0.1388889E+00  0.0000000E+00  0.4629630E-02
    1      -20.794446
    2      -19.826362
    3      -11.203192
    4       -9.531268
    5       -9.476607
    6       -8.685295
    7       -8.285944
    8       -7.575447
    9        2.384818
   10        2.756628
   11        3.198643
   12        3.619017
 
  0.4583333E+00  0.1388889E+00  0.0000000E+00  0.4629630E-02
    1      -20.581443
    2      -20.097127
    3      -10.744990
    4       -9.907000
    5       -9.218429
    6       -8.617592
    7       -8.438529
    8       -7.882562
    9        2.677985
   10        3.253389
   11        3.346810
   12        3.493013
 
  0.5000000E+00  0.1388889E+00  0.0000000E+00  0.2314815E-02
    1      -20.348920
    2      -20.348920
    3      -10.311635
    4      -10.311635
    5       -8.931060
    6       -8.931060
    7       -8.170646
    8       -8.170646
    9        2.998699
   10        2.998699
   11        3.736864
   12        3.737037
 
  0.0000000E+00  0.1666667E+00  0.0000000E+00  0.2314815E-02
    1      -21.671970
    2      -16.415227
    3      -15.538780
    4      -11.102486
    5       -9.712940
    6       -7.546938
    7       -6.799199
    8       -4.406740
    9       -1.386870
   10        1.183356
   11        1.990357
   12        2.388376
 
  0.4166667E-01  0.1666667E+00  0.0000000E+00  0.4629630E-02
    1      -21.661695
    2      -16.595527
    3      -15.346246
    4      -11.090408
    5       -9.700831
    6       -7.598521
    7       -6.791632
    8       -4.483426
    9       -1.299990
   10        1.197340
   11        2.004454
   12        2.402706
 
  0.8333333E-01  0.1666667E+00  0.0000000E+00  0.4629630E-02
    1      -21.630878
    2      -16.943689
    3      -14.961643
    4      -11.054072
    5       -9.664524
    6       -7.737169
    7       -6.784886
    8       -4.690550
    9       -1.062447
   10        1.239298
   11        2.046741
   12        2.445697
 
  0.1250000E+00  0.1666667E+00  0.0000000E+00  0.4629630E-02
    1      -21.579543
    2      -17.322875
    3      -14.522628
    4      -10.993172
    5       -9.604078
    6       -7.934413
    7       -6.806725
    8       -4.982224
    9       -0.720626
   10        1.309244
   11        2.117202
   12        2.517354
 
  0.1666667E+00  0.1666667E+00  0.0000000E+00  0.4629630E-02
    1      -21.507728
    2      -17.701664
    3      -14.062056
    4      -10.907134
    5       -9.519593
    6       -8.169094
    7       -6.876390
    8       -5.319595
    9       -0.314175
   10        1.407195
   11        2.215809
   12        2.617680
 
  0.2083333E+00  0.1666667E+00  0.0000000E+00  0.4629630E-02
    1      -21.415491
    2      -18.070828
    3      -13.591323
    4      -10.795041
    5       -9.411214
    6       -8.428062
    7       -7.003165
    8       -5.677705
    9        0.130886
   10        1.533161
   11        2.342521
   12        2.746682
 
  0.2500000E+00  0.1666667E+00  0.0000000E+00  0.4629630E-02
    1      -21.302904
    2      -18.426589
    3      -13.117277
    4      -10.655500
    5       -9.279133
    6       -8.703080
    7       -7.189051
    8       -6.041606
    9        0.598335
   10        1.687134
   11        2.497279
   12        2.904362
 
  0.2916667E+00  0.1666667E+00  0.0000000E+00  0.4629630E-02
    1      -21.170059
    2      -18.766985
    3      -12.646039
    4      -10.486513
    5       -9.123597
    6       -8.988999
    7       -7.430667
    8       -6.402219
    9        1.077663
   10        1.869083
   11        2.680002
   12        3.090720
 
  0.3333333E+00  0.1666667E+00  0.0000000E+00  0.4629630E-02
    1      -21.017070
    2      -19.090815
    3      -12.184171
    4      -10.285426
    5       -9.282983
    6       -8.944913
    7       -7.720596
    8       -6.753785
    9        1.561576
   10        2.078953
   11        2.890574
   12        3.305749
 
  0.3750000E+00  0.1666667E+00  0.0000000E+00  0.4629630E-02
    1      -20.844070
    2      -19.397254
    3      -11.738839
    4      -10.049248
    5       -9.584298
    6       -8.743462
    7       -8.048438
    8       -7.092463
    9        2.044653
   10        2.316669
   11        3.128807
   12        3.549441
 
  0.4166667E+00  0.1666667E+00  0.0000000E+00  0.4629630E-02
    1      -20.651222
    2      -19.685696
    3      -11.316949
    4       -9.894393
    5       -9.775783
    6       -8.519712
    7       -8.401563
    8       -7.415570
    9        2.522587
   10        2.582139
   11        3.394269
   12        3.821785
 
  0.4583333E+00  0.1666667E+00  0.0000000E+00  0.4629630E-02
    1      -20.438717
    2      -19.955665
    3      -10.923168
    4      -10.217015
    5       -9.465805
    6       -8.765625
    7       -8.274240
    8       -7.721157
    9        2.875254
   10        2.991692
   11        3.543885
   12        3.682620
 
  0.5000000E+00  0.1666667E+00  0.0000000E+00  0.2314815E-02
    1      -20.206777
    2      -20.206777
    3      -10.557871
    4      -10.557871
    5       -9.125278
    6       -9.125278
    7       -8.007758
    8       -8.007758
    9        3.195888
   10        3.195888
   11        3.447942
   12        3.447943
 