 running on    8 total cores
 distrk:  each k-point on    8 cores,    1 groups
 distr:  one band on    2 cores,    4 groups
 using from now: INCAR     
 vasp.5.3.5 31Mar14 (build Mar 02 2015 18:14:16) complex                        
  
 POSCAR found type information on POSCAR  C 
 POSCAR found :  1 types and       4 ions
 LDA part: xc-table for Pade appr. of Perdew
 POSCAR, INCAR and KPOINTS ok, starting setup
 WARNING: small aliasing (wrap around) errors must be expected
 FFT: planning ...
 WAVECAR not read
 entering main loop
       N       E                     dE             d eps       ncg     rms          rms(c)
DAV:   1     0.188367475548E+03    0.18837E+03   -0.10593E+04  5928   0.274E+03
DAV:   2    -0.954989995339E+01   -0.19792E+03   -0.17686E+03 10452   0.262E+02
DAV:   3    -0.382523364996E+02   -0.28702E+02   -0.28198E+02  7228   0.119E+02    0.720E+00
RMM:   4    -0.376387820087E+02    0.61355E+00   -0.92521E+00  5928   0.264E+01    0.416E+00
RMM:   5    -0.369093033660E+02    0.72948E+00   -0.27148E+00  5934   0.113E+01    0.705E-01
RMM:   6    -0.369114330032E+02   -0.21296E-02   -0.84023E-02  6375   0.202E+00    0.508E-01
RMM:   7    -0.369021707537E+02    0.92622E-02   -0.31329E-02  5943   0.154E+00    0.328E-01
RMM:   8    -0.368970421129E+02    0.51286E-02   -0.69805E-03  5930   0.553E-01    0.131E-01
RMM:   9    -0.368968083084E+02    0.23380E-03   -0.19404E-02  5928   0.822E-01    0.153E-01
RMM:  10    -0.368967495493E+02    0.58759E-04   -0.24929E-03  5928   0.360E-01    0.306E-02
RMM:  11    -0.368991646040E+02   -0.24151E-02   -0.63804E-04  5931   0.165E-01    0.440E-02
RMM:  12    -0.368996261693E+02   -0.46157E-03   -0.22438E-04  5940   0.987E-02    0.454E-03
RMM:  13    -0.368998741840E+02   -0.24801E-03   -0.49178E-05  6024   0.387E-02    0.432E-03
RMM:  14    -0.368999557230E+02   -0.81539E-04   -0.11601E-05  5950   0.190E-02    0.202E-03
RMM:  15    -0.368999640293E+02   -0.83063E-05   -0.14678E-06  5988   0.727E-03    0.112E-03
RMM:  16    -0.368999767122E+02   -0.12683E-04   -0.58346E-07  5937   0.476E-03    0.649E-04
RMM:  17    -0.368999813535E+02   -0.46413E-05   -0.39066E-08  6117   0.139E-03    0.715E-04
RMM:  18    -0.368999825576E+02   -0.12041E-05   -0.55840E-08  5928   0.174E-03    0.807E-05
RMM:  19    -0.368999832590E+02   -0.70139E-06   -0.95490E-09  5962   0.462E-04    0.182E-05
RMM:  20    -0.368999833068E+02   -0.47789E-07   -0.66479E-10  4458   0.122E-04    0.211E-05
RMM:  21    -0.368999833238E+02   -0.16998E-07   -0.23030E-10  4364   0.895E-05    0.438E-06
RMM:  22    -0.368999833237E+02    0.77762E-10   -0.91783E-12  3870   0.417E-05
   1 F= -.36899983E+02 E0= -.36899981E+02  d E =-.369000E+02
 BRION: g(F)=  0.168E-05 g(S)=  0.000E+00
 bond charge predicted
       N       E                     dE             d eps       ncg     rms          rms(c)
DAV:   1    -0.368999806999E+02    0.26238E-05   -0.22563E-04  6560   0.141E-01    0.291E-03
RMM:   2    -0.368999808524E+02   -0.15242E-06   -0.37639E-06  5940   0.170E-02    0.212E-03
RMM:   3    -0.368999807295E+02    0.12285E-06   -0.61735E-07  5969   0.635E-03    0.544E-04
RMM:   4    -0.368999807214E+02    0.81119E-08   -0.38376E-08  6067   0.155E-03    0.154E-04
RMM:   5    -0.368999807195E+02    0.19029E-08   -0.30406E-09  6091   0.394E-04    0.705E-05
RMM:   6    -0.368999807194E+02    0.47521E-10   -0.43239E-10  5114   0.165E-04
   2 F= -.36899981E+02 E0= -.36899978E+02  d E =0.260426E-05
 BRION: g(F)=  0.279E-04 g(S)=  0.000E+00 retain N=  1 mean eig= 0.20
 eig:   0.197
 bond charge predicted
       N       E                     dE             d eps       ncg     rms          rms(c)
DAV:   1    -0.368999834571E+02   -0.27376E-05   -0.14534E-04  6768   0.114E-01    0.235E-03
RMM:   2    -0.368999835483E+02   -0.91189E-07   -0.23153E-06  5949   0.136E-02    0.170E-03
RMM:   3    -0.368999834931E+02    0.55206E-07   -0.38986E-07  5970   0.505E-03    0.414E-04
RMM:   4    -0.368999834845E+02    0.85970E-08   -0.23460E-08  6046   0.122E-03    0.123E-04
RMM:   5    -0.368999834864E+02   -0.19563E-08   -0.19580E-09  5929   0.316E-04    0.585E-05
RMM:   6    -0.368999834860E+02    0.42905E-09   -0.29236E-10  4373   0.139E-04    0.553E-06
RMM:   7    -0.368999834862E+02   -0.19020E-09   -0.18601E-11  3732   0.573E-05    0.292E-06
RMM:   8    -0.368999834859E+02    0.26409E-09   -0.15086E-11  3380   0.428E-05    0.139E-06
RMM:   9    -0.368999834861E+02   -0.17815E-09   -0.70520E-12  3074   0.316E-05    0.793E-07
RMM:  10    -0.368999834859E+02    0.22760E-09   -0.36367E-12  2836   0.281E-05    0.138E-06
RMM:  11    -0.368999834859E+02   -0.44110E-10   -0.27095E-12  2520   0.255E-05
   3 F= -.36899983E+02 E0= -.36899981E+02  d E =-.276649E-05
 BRION: g(F)=  0.833E-12 g(S)=  0.000E+00 retain N=  1 mean eig= 0.20
 eig:   0.197
 bond charge predicted
       N       E                     dE             d eps       ncg     rms          rms(c)
DAV:   1    -0.368999834857E+02    0.15564E-09    0.61225E-09  4672   0.302E-05    0.638E-07
RMM:   2    -0.368999834862E+02   -0.48624E-09    0.67865E-13  1543   0.115E-05    0.394E-07
RMM:   3    -0.368999834863E+02   -0.59458E-10   -0.26209E-13  1500   0.116E-05    0.183E-08
RMM:   4    -0.368999834862E+02    0.74806E-10   -0.12665E-14  1486   0.115E-05    0.107E-08
RMM:   5    -0.368999834861E+02    0.67757E-10   -0.25001E-13  1467   0.114E-05
   4 F= -.36899983E+02 E0= -.36899981E+02  d E =-.203386E-09
 BRION: g(F)=  0.582E-13 g(S)=  0.000E+00 retain N=  1 mean eig= 0.16
 eig:   0.156
 reached required accuracy - stopping structural energy minimisation
