<?xml version="1.0" encoding="ISO-8859-1"?>
<modeling>
 <generator>
  <i name="program" type="string">vasp </i>
  <i name="version" type="string">5.3.5  </i>
  <i name="subversion" type="string">31Mar14 (build Mar 02 2015 18:14:16) complex                          parallel </i>
  <i name="platform" type="string">LinuxIFC </i>
  <i name="date" type="string">2018 08 09 </i>
  <i name="time" type="string">20:11:00 </i>
 </generator>
 <incar>
  <i type="string" name="SYSTEM">  gr</i>
  <i type="string" name="PREC">accurate : accuracy</i>
  <i type="string" name="ALGO"> FAST.</i>
  <i type="int" name="NELM">   100</i>
  <i type="int" name="NELMDL">    -3</i>
  <i type="int" name="NELMIN">     5</i>
  <i type="int" name="IBRION">     1</i>
  <i name="EDIFF">      0.00000000</i>
  <i name="EDIFFG">     -0.00000100</i>
  <i type="int" name="NSW">   400</i>
  <i type="int" name="ISIF">     2</i>
  <i name="ENCUT">   2000.00000000</i>
  <i type="int" name="ISMEAR">     0</i>
  <i name="SIGMA">      0.05000000</i>
  <i type="int" name="NWRITE">     2</i>
  <i type="logical" name="LWAVE"> F  </i>
  <i type="logical" name="LCHARG"> F  </i>
  <i type="int" name="NELM">   100</i>
 </incar>
 <kpoints>
  <generation param="Gamma">
   <v type="int" name="divisions">      24       36        1 </v>
   <v name="usershift">      0.00000000       0.00000000       0.00000000 </v>
   <v name="genvec1">      0.04166667       0.00000000       0.00000000 </v>
   <v name="genvec2">      0.00000000       0.02777778       0.00000000 </v>
   <v name="genvec3">      0.00000000       0.00000000       1.00000000 </v>
   <v name="shift">      0.00000000       0.00000000       0.00000000 </v>
  </generation>
  <varray name="kpointlist" >
   <v>       0.00000000       0.00000000       0.00000000 </v>
   <v>       0.04166667       0.00000000       0.00000000 </v>
   <v>       0.08333333       0.00000000       0.00000000 </v>
   <v>       0.12500000       0.00000000       0.00000000 </v>
   <v>       0.16666667       0.00000000       0.00000000 </v>
   <v>       0.20833333       0.00000000       0.00000000 </v>
   <v>       0.25000000       0.00000000       0.00000000 </v>
   <v>       0.29166667       0.00000000       0.00000000 </v>
   <v>       0.33333333       0.00000000       0.00000000 </v>
   <v>       0.37500000       0.00000000       0.00000000 </v>
   <v>       0.41666667       0.00000000       0.00000000 </v>
   <v>       0.45833333       0.00000000       0.00000000 </v>
   <v>       0.50000000       0.00000000       0.00000000 </v>
   <v>       0.00000000       0.02777778       0.00000000 </v>
   <v>       0.04166667       0.02777778       0.00000000 </v>
   <v>       0.08333333       0.02777778       0.00000000 </v>
   <v>       0.12500000       0.02777778       0.00000000 </v>
   <v>       0.16666667       0.02777778       0.00000000 </v>
   <v>       0.20833333       0.02777778       0.00000000 </v>
   <v>       0.25000000       0.02777778       0.00000000 </v>
   <v>       0.29166667       0.02777778       0.00000000 </v>
   <v>       0.33333333       0.02777778       0.00000000 </v>
   <v>       0.37500000       0.02777778       0.00000000 </v>
   <v>       0.41666667       0.02777778       0.00000000 </v>
   <v>       0.45833333       0.02777778       0.00000000 </v>
   <v>       0.50000000       0.02777778       0.00000000 </v>
   <v>       0.00000000       0.05555556       0.00000000 </v>
   <v>       0.04166667       0.05555556       0.00000000 </v>
   <v>       0.08333333       0.05555556       0.00000000 </v>
   <v>       0.12500000       0.05555556       0.00000000 </v>
   <v>       0.16666667       0.05555556       0.00000000 </v>
   <v>       0.20833333       0.05555556       0.00000000 </v>
   <v>       0.25000000       0.05555556       0.00000000 </v>
   <v>       0.29166667       0.05555556       0.00000000 </v>
   <v>       0.33333333       0.05555556       0.00000000 </v>
   <v>       0.37500000       0.05555556       0.00000000 </v>
   <v>       0.41666667       0.05555556       0.00000000 </v>
   <v>       0.45833333       0.05555556       0.00000000 </v>
   <v>       0.50000000       0.05555556       0.00000000 </v>
   <v>       0.00000000       0.08333333       0.00000000 </v>
   <v>       0.04166667       0.08333333       0.00000000 </v>
   <v>       0.08333333       0.08333333       0.00000000 </v>
   <v>       0.12500000       0.08333333       0.00000000 </v>
   <v>       0.16666667       0.08333333       0.00000000 </v>
   <v>       0.20833333       0.08333333       0.00000000 </v>
   <v>       0.25000000       0.08333333       0.00000000 </v>
   <v>       0.29166667       0.08333333       0.00000000 </v>
   <v>       0.33333333       0.08333333       0.00000000 </v>
   <v>       0.37500000       0.08333333       0.00000000 </v>
   <v>       0.41666667       0.08333333       0.00000000 </v>
   <v>       0.45833333       0.08333333       0.00000000 </v>
   <v>       0.50000000       0.08333333       0.00000000 </v>
   <v>       0.00000000       0.11111111       0.00000000 </v>
   <v>       0.04166667       0.11111111       0.00000000 </v>
   <v>       0.08333333       0.11111111       0.00000000 </v>
   <v>       0.12500000       0.11111111       0.00000000 </v>
   <v>       0.16666667       0.11111111       0.00000000 </v>
   <v>       0.20833333       0.11111111       0.00000000 </v>
   <v>       0.25000000       0.11111111       0.00000000 </v>
   <v>       0.29166667       0.11111111       0.00000000 </v>
   <v>       0.33333333       0.11111111       0.00000000 </v>
   <v>       0.37500000       0.11111111       0.00000000 </v>
   <v>       0.41666667       0.11111111       0.00000000 </v>
   <v>       0.45833333       0.11111111       0.00000000 </v>
   <v>       0.50000000       0.11111111       0.00000000 </v>
   <v>       0.00000000       0.13888889       0.00000000 </v>
   <v>       0.04166667       0.13888889       0.00000000 </v>
   <v>       0.08333333       0.13888889       0.00000000 </v>
   <v>       0.12500000       0.13888889       0.00000000 </v>
   <v>       0.16666667       0.13888889       0.00000000 </v>
   <v>       0.20833333       0.13888889       0.00000000 </v>
   <v>       0.25000000       0.13888889       0.00000000 </v>
   <v>       0.29166667       0.13888889       0.00000000 </v>
   <v>       0.33333333       0.13888889       0.00000000 </v>
   <v>       0.37500000       0.13888889       0.00000000 </v>
   <v>       0.41666667       0.13888889       0.00000000 </v>
   <v>       0.45833333       0.13888889       0.00000000 </v>
   <v>       0.50000000       0.13888889       0.00000000 </v>
   <v>       0.00000000       0.16666667       0.00000000 </v>
   <v>       0.04166667       0.16666667       0.00000000 </v>
   <v>       0.08333333       0.16666667       0.00000000 </v>
   <v>       0.12500000       0.16666667       0.00000000 </v>
   <v>       0.16666667       0.16666667       0.00000000 </v>
   <v>       0.20833333       0.16666667       0.00000000 </v>
   <v>       0.25000000       0.16666667       0.00000000 </v>
   <v>       0.29166667       0.16666667       0.00000000 </v>
   <v>       0.33333333       0.16666667       0.00000000 </v>
   <v>       0.37500000       0.16666667       0.00000000 </v>
   <v>       0.41666667       0.16666667       0.00000000 </v>
   <v>       0.45833333       0.16666667       0.00000000 </v>
   <v>       0.50000000       0.16666667       0.00000000 </v>
   <v>       0.00000000       0.19444444       0.00000000 </v>
   <v>       0.04166667       0.19444444       0.00000000 </v>
   <v>       0.08333333       0.19444444       0.00000000 </v>
   <v>       0.12500000       0.19444444       0.00000000 </v>
   <v>       0.16666667       0.19444444       0.00000000 </v>
   <v>       0.20833333       0.19444444       0.00000000 </v>
   <v>       0.25000000       0.19444444       0.00000000 </v>
   <v>       0.29166667       0.19444444       0.00000000 </v>
   <v>       0.33333333       0.19444444       0.00000000 </v>
   <v>       0.37500000       0.19444444       0.00000000 </v>
   <v>       0.41666667       0.19444444       0.00000000 </v>
   <v>       0.45833333       0.19444444       0.00000000 </v>
   <v>       0.50000000       0.19444444       0.00000000 </v>
   <v>       0.00000000       0.22222222       0.00000000 </v>
   <v>       0.04166667       0.22222222       0.00000000 </v>
   <v>       0.08333333       0.22222222       0.00000000 </v>
   <v>       0.12500000       0.22222222       0.00000000 </v>
   <v>       0.16666667       0.22222222       0.00000000 </v>
   <v>       0.20833333       0.22222222       0.00000000 </v>
   <v>       0.25000000       0.22222222       0.00000000 </v>
   <v>       0.29166667       0.22222222       0.00000000 </v>
   <v>       0.33333333       0.22222222       0.00000000 </v>
   <v>       0.37500000       0.22222222       0.00000000 </v>
   <v>       0.41666667       0.22222222       0.00000000 </v>
   <v>       0.45833333       0.22222222       0.00000000 </v>
   <v>       0.50000000       0.22222222       0.00000000 </v>
   <v>       0.00000000       0.25000000       0.00000000 </v>
   <v>       0.04166667       0.25000000       0.00000000 </v>
   <v>       0.08333333       0.25000000       0.00000000 </v>
   <v>       0.12500000       0.25000000       0.00000000 </v>
   <v>       0.16666667       0.25000000       0.00000000 </v>
   <v>       0.20833333       0.25000000       0.00000000 </v>
   <v>       0.25000000       0.25000000       0.00000000 </v>
   <v>       0.29166667       0.25000000       0.00000000 </v>
   <v>       0.33333333       0.25000000       0.00000000 </v>
   <v>       0.37500000       0.25000000       0.00000000 </v>
   <v>       0.41666667       0.25000000       0.00000000 </v>
   <v>       0.45833333       0.25000000       0.00000000 </v>
   <v>       0.50000000       0.25000000       0.00000000 </v>
   <v>       0.00000000       0.27777778       0.00000000 </v>
   <v>       0.04166667       0.27777778       0.00000000 </v>
   <v>       0.08333333       0.27777778       0.00000000 </v>
   <v>       0.12500000       0.27777778       0.00000000 </v>
   <v>       0.16666667       0.27777778       0.00000000 </v>
   <v>       0.20833333       0.27777778       0.00000000 </v>
   <v>       0.25000000       0.27777778       0.00000000 </v>
   <v>       0.29166667       0.27777778       0.00000000 </v>
   <v>       0.33333333       0.27777778       0.00000000 </v>
   <v>       0.37500000       0.27777778       0.00000000 </v>
   <v>       0.41666667       0.27777778       0.00000000 </v>
   <v>       0.45833333       0.27777778       0.00000000 </v>
   <v>       0.50000000       0.27777778       0.00000000 </v>
   <v>       0.00000000       0.30555556       0.00000000 </v>
   <v>       0.04166667       0.30555556       0.00000000 </v>
   <v>       0.08333333       0.30555556       0.00000000 </v>
   <v>       0.12500000       0.30555556       0.00000000 </v>
   <v>       0.16666667       0.30555556       0.00000000 </v>
   <v>       0.20833333       0.30555556       0.00000000 </v>
   <v>       0.25000000       0.30555556       0.00000000 </v>
   <v>       0.29166667       0.30555556       0.00000000 </v>
   <v>       0.33333333       0.30555556       0.00000000 </v>
   <v>       0.37500000       0.30555556       0.00000000 </v>
   <v>       0.41666667       0.30555556       0.00000000 </v>
   <v>       0.45833333       0.30555556       0.00000000 </v>
   <v>       0.50000000       0.30555556       0.00000000 </v>
   <v>       0.00000000       0.33333333       0.00000000 </v>
   <v>       0.04166667       0.33333333       0.00000000 </v>
   <v>       0.08333333       0.33333333       0.00000000 </v>
   <v>       0.12500000       0.33333333       0.00000000 </v>
   <v>       0.16666667       0.33333333       0.00000000 </v>
   <v>       0.20833333       0.33333333       0.00000000 </v>
   <v>       0.25000000       0.33333333       0.00000000 </v>
   <v>       0.29166667       0.33333333       0.00000000 </v>
   <v>       0.33333333       0.33333333       0.00000000 </v>
   <v>       0.37500000       0.33333333       0.00000000 </v>
   <v>       0.41666667       0.33333333       0.00000000 </v>
   <v>       0.45833333       0.33333333       0.00000000 </v>
   <v>       0.50000000       0.33333333       0.00000000 </v>
   <v>       0.00000000       0.36111111       0.00000000 </v>
   <v>       0.04166667       0.36111111       0.00000000 </v>
   <v>       0.08333333       0.36111111       0.00000000 </v>
   <v>       0.12500000       0.36111111       0.00000000 </v>
   <v>       0.16666667       0.36111111       0.00000000 </v>
   <v>       0.20833333       0.36111111       0.00000000 </v>
   <v>       0.25000000       0.36111111       0.00000000 </v>
   <v>       0.29166667       0.36111111       0.00000000 </v>
   <v>       0.33333333       0.36111111       0.00000000 </v>
   <v>       0.37500000       0.36111111       0.00000000 </v>
   <v>       0.41666667       0.36111111       0.00000000 </v>
   <v>       0.45833333       0.36111111       0.00000000 </v>
   <v>       0.50000000       0.36111111       0.00000000 </v>
   <v>       0.00000000       0.38888889       0.00000000 </v>
   <v>       0.04166667       0.38888889       0.00000000 </v>
   <v>       0.08333333       0.38888889       0.00000000 </v>
   <v>       0.12500000       0.38888889       0.00000000 </v>
   <v>       0.16666667       0.38888889       0.00000000 </v>
   <v>       0.20833333       0.38888889       0.00000000 </v>
   <v>       0.25000000       0.38888889       0.00000000 </v>
   <v>       0.29166667       0.38888889       0.00000000 </v>
   <v>       0.33333333       0.38888889       0.00000000 </v>
   <v>       0.37500000       0.38888889       0.00000000 </v>
   <v>       0.41666667       0.38888889       0.00000000 </v>
   <v>       0.45833333       0.38888889       0.00000000 </v>
   <v>       0.50000000       0.38888889       0.00000000 </v>
   <v>       0.00000000       0.41666667       0.00000000 </v>
   <v>       0.04166667       0.41666667       0.00000000 </v>
   <v>       0.08333333       0.41666667       0.00000000 </v>
   <v>       0.12500000       0.41666667       0.00000000 </v>
   <v>       0.16666667       0.41666667       0.00000000 </v>
   <v>       0.20833333       0.41666667       0.00000000 </v>
   <v>       0.25000000       0.41666667       0.00000000 </v>
   <v>       0.29166667       0.41666667       0.00000000 </v>
   <v>       0.33333333       0.41666667       0.00000000 </v>
   <v>       0.37500000       0.41666667       0.00000000 </v>
   <v>       0.41666667       0.41666667       0.00000000 </v>
   <v>       0.45833333       0.41666667       0.00000000 </v>
   <v>       0.50000000       0.41666667       0.00000000 </v>
   <v>       0.00000000       0.44444444       0.00000000 </v>
   <v>       0.04166667       0.44444444       0.00000000 </v>
   <v>       0.08333333       0.44444444       0.00000000 </v>
   <v>       0.12500000       0.44444444       0.00000000 </v>
   <v>       0.16666667       0.44444444       0.00000000 </v>
   <v>       0.20833333       0.44444444       0.00000000 </v>
   <v>       0.25000000       0.44444444       0.00000000 </v>
   <v>       0.29166667       0.44444444       0.00000000 </v>
   <v>       0.33333333       0.44444444       0.00000000 </v>
   <v>       0.37500000       0.44444444       0.00000000 </v>
   <v>       0.41666667       0.44444444       0.00000000 </v>
   <v>       0.45833333       0.44444444       0.00000000 </v>
   <v>       0.50000000       0.44444444       0.00000000 </v>
   <v>       0.00000000       0.47222222       0.00000000 </v>
   <v>       0.04166667       0.47222222       0.00000000 </v>
   <v>       0.08333333       0.47222222       0.00000000 </v>
   <v>       0.12500000       0.47222222       0.00000000 </v>
   <v>       0.16666667       0.47222222       0.00000000 </v>
   <v>       0.20833333       0.47222222       0.00000000 </v>
   <v>       0.25000000       0.47222222       0.00000000 </v>
   <v>       0.29166667       0.47222222       0.00000000 </v>
   <v>       0.33333333       0.47222222       0.00000000 </v>
   <v>       0.37500000       0.47222222       0.00000000 </v>
   <v>       0.41666667       0.47222222       0.00000000 </v>
   <v>       0.45833333       0.47222222       0.00000000 </v>
   <v>       0.50000000       0.47222222       0.00000000 </v>
   <v>       0.00000000       0.50000000       0.00000000 </v>
   <v>       0.04166667       0.50000000       0.00000000 </v>
   <v>       0.08333333       0.50000000       0.00000000 </v>
   <v>       0.12500000       0.50000000       0.00000000 </v>
   <v>       0.16666667       0.50000000       0.00000000 </v>
   <v>       0.20833333       0.50000000       0.00000000 </v>
   <v>       0.25000000       0.50000000       0.00000000 </v>
   <v>       0.29166667       0.50000000       0.00000000 </v>
   <v>       0.33333333       0.50000000       0.00000000 </v>
   <v>       0.37500000       0.50000000       0.00000000 </v>
   <v>       0.41666667       0.50000000       0.00000000 </v>
   <v>       0.45833333       0.50000000       0.00000000 </v>
   <v>       0.50000000       0.50000000       0.00000000 </v>
  </varray>
  <varray name="weights" >
   <v>       0.00115741 </v>
   <v>       0.00231481 </v>
   <v>       0.00231481 </v>
   <v>       0.00231481 </v>
   <v>       0.00231481 </v>
   <v>       0.00231481 </v>
   <v>       0.00231481 </v>
   <v>       0.00231481 </v>
   <v>       0.00231481 </v>
   <v>       0.00231481 </v>
   <v>       0.00231481 </v>
   <v>       0.00231481 </v>
   <v>       0.00115741 </v>
   <v>       0.00231481 </v>
   <v>       0.00462963 </v>
   <v>       0.00462963 </v>
   <v>       0.00462963 </v>
   <v>       0.00462963 </v>
   <v>       0.00462963 </v>
   <v>       0.00462963 </v>
   <v>       0.00462963 </v>
   <v>       0.00462963 </v>
   <v>       0.00462963 </v>
   <v>       0.00462963 </v>
   <v>       0.00462963 </v>
   <v>       0.00231481 </v>
   <v>       0.00231481 </v>
   <v>       0.00462963 </v>
   <v>       0.00462963 </v>
   <v>       0.00462963 </v>
   <v>       0.00462963 </v>
   <v>       0.00462963 </v>
   <v>       0.00462963 </v>
   <v>       0.00462963 </v>
   <v>       0.00462963 </v>
   <v>       0.00462963 </v>
   <v>       0.00462963 </v>
   <v>       0.00462963 </v>
   <v>       0.00231481 </v>
   <v>       0.00231481 </v>
   <v>       0.00462963 </v>
   <v>       0.00462963 </v>
   <v>       0.00462963 </v>
   <v>       0.00462963 </v>
   <v>       0.00462963 </v>
   <v>       0.00462963 </v>
   <v>       0.00462963 </v>
   <v>       0.00462963 </v>
   <v>       0.00462963 </v>
   <v>       0.00462963 </v>
   <v>       0.00462963 </v>
   <v>       0.00231481 </v>
   <v>       0.00231481 </v>
   <v>       0.00462963 </v>
   <v>       0.00462963 </v>
   <v>       0.00462963 </v>
   <v>       0.00462963 </v>
   <v>       0.00462963 </v>
   <v>       0.00462963 </v>
   <v>       0.00462963 </v>
   <v>       0.00462963 </v>
   <v>       0.00462963 </v>
   <v>       0.00462963 </v>
   <v>       0.00462963 </v>
   <v>       0.00231481 </v>
   <v>       0.00231481 </v>
   <v>       0.00462963 </v>
   <v>       0.00462963 </v>
   <v>       0.00462963 </v>
   <v>       0.00462963 </v>
   <v>       0.00462963 </v>
   <v>       0.00462963 </v>
   <v>       0.00462963 </v>
   <v>       0.00462963 </v>
   <v>       0.00462963 </v>
   <v>       0.00462963 </v>
   <v>       0.00462963 </v>
   <v>       0.00231481 </v>
   <v>       0.00231481 </v>
   <v>       0.00462963 </v>
   <v>       0.00462963 </v>
   <v>       0.00462963 </v>
   <v>       0.00462963 </v>
   <v>       0.00462963 </v>
   <v>       0.00462963 </v>
   <v>       0.00462963 </v>
   <v>       0.00462963 </v>
   <v>       0.00462963 </v>
   <v>       0.00462963 </v>
   <v>       0.00462963 </v>
   <v>       0.00231481 </v>
   <v>       0.00231481 </v>
   <v>       0.00462963 </v>
   <v>       0.00462963 </v>
   <v>       0.00462963 </v>
   <v>       0.00462963 </v>
   <v>       0.00462963 </v>
   <v>       0.00462963 </v>
   <v>       0.00462963 </v>
   <v>       0.00462963 </v>
   <v>       0.00462963 </v>
   <v>       0.00462963 </v>
   <v>       0.00462963 </v>
   <v>       0.00231481 </v>
   <v>       0.00231481 </v>
   <v>       0.00462963 </v>
   <v>       0.00462963 </v>
   <v>       0.00462963 </v>
   <v>       0.00462963 </v>
   <v>       0.00462963 </v>
   <v>       0.00462963 </v>
   <v>       0.00462963 </v>
   <v>       0.00462963 </v>
   <v>       0.00462963 </v>
   <v>       0.00462963 </v>
   <v>       0.00462963 </v>
   <v>       0.00231481 </v>
   <v>       0.00231481 </v>
   <v>       0.00462963 </v>
   <v>       0.00462963 </v>
   <v>       0.00462963 </v>
   <v>       0.00462963 </v>
   <v>       0.00462963 </v>
   <v>       0.00462963 </v>
   <v>       0.00462963 </v>
   <v>       0.00462963 </v>
   <v>       0.00462963 </v>
   <v>       0.00462963 </v>
   <v>       0.00462963 </v>
   <v>       0.00231481 </v>
   <v>       0.00231481 </v>
   <v>       0.00462963 </v>
   <v>       0.00462963 </v>
   <v>       0.00462963 </v>
   <v>       0.00462963 </v>
   <v>       0.00462963 </v>
   <v>       0.00462963 </v>
   <v>       0.00462963 </v>
   <v>       0.00462963 </v>
   <v>       0.00462963 </v>
   <v>       0.00462963 </v>
   <v>       0.00462963 </v>
   <v>       0.00231481 </v>
   <v>       0.00231481 </v>
   <v>       0.00462963 </v>
   <v>       0.00462963 </v>
   <v>       0.00462963 </v>
   <v>       0.00462963 </v>
   <v>       0.00462963 </v>
   <v>       0.00462963 </v>
   <v>       0.00462963 </v>
   <v>       0.00462963 </v>
   <v>       0.00462963 </v>
   <v>       0.00462963 </v>
   <v>       0.00462963 </v>
   <v>       0.00231481 </v>
   <v>       0.00231481 </v>
   <v>       0.00462963 </v>
   <v>       0.00462963 </v>
   <v>       0.00462963 </v>
   <v>       0.00462963 </v>
   <v>       0.00462963 </v>
   <v>       0.00462963 </v>
   <v>       0.00462963 </v>
   <v>       0.00462963 </v>
   <v>       0.00462963 </v>
   <v>       0.00462963 </v>
   <v>       0.00462963 </v>
   <v>       0.00231481 </v>
   <v>       0.00231481 </v>
   <v>       0.00462963 </v>
   <v>       0.00462963 </v>
   <v>       0.00462963 </v>
   <v>       0.00462963 </v>
   <v>       0.00462963 </v>
   <v>       0.00462963 </v>
   <v>       0.00462963 </v>
   <v>       0.00462963 </v>
   <v>       0.00462963 </v>
   <v>       0.00462963 </v>
   <v>       0.00462963 </v>
   <v>       0.00231481 </v>
   <v>       0.00231481 </v>
   <v>       0.00462963 </v>
   <v>       0.00462963 </v>
   <v>       0.00462963 </v>
   <v>       0.00462963 </v>
   <v>       0.00462963 </v>
   <v>       0.00462963 </v>
   <v>       0.00462963 </v>
   <v>       0.00462963 </v>
   <v>       0.00462963 </v>
   <v>       0.00462963 </v>
   <v>       0.00462963 </v>
   <v>       0.00231481 </v>
   <v>       0.00231481 </v>
   <v>       0.00462963 </v>
   <v>       0.00462963 </v>
   <v>       0.00462963 </v>
   <v>       0.00462963 </v>
   <v>       0.00462963 </v>
   <v>       0.00462963 </v>
   <v>       0.00462963 </v>
   <v>       0.00462963 </v>
   <v>       0.00462963 </v>
   <v>       0.00462963 </v>
   <v>       0.00462963 </v>
   <v>       0.00231481 </v>
   <v>       0.00231481 </v>
   <v>       0.00462963 </v>
   <v>       0.00462963 </v>
   <v>       0.00462963 </v>
   <v>       0.00462963 </v>
   <v>       0.00462963 </v>
   <v>       0.00462963 </v>
   <v>       0.00462963 </v>
   <v>       0.00462963 </v>
   <v>       0.00462963 </v>
   <v>       0.00462963 </v>
   <v>       0.00462963 </v>
   <v>       0.00231481 </v>
   <v>       0.00231481 </v>
   <v>       0.00462963 </v>
   <v>       0.00462963 </v>
   <v>       0.00462963 </v>
   <v>       0.00462963 </v>
   <v>       0.00462963 </v>
   <v>       0.00462963 </v>
   <v>       0.00462963 </v>
   <v>       0.00462963 </v>
   <v>       0.00462963 </v>
   <v>       0.00462963 </v>
   <v>       0.00462963 </v>
   <v>       0.00231481 </v>
   <v>       0.00115741 </v>
   <v>       0.00231481 </v>
   <v>       0.00231481 </v>
   <v>       0.00231481 </v>
   <v>       0.00231481 </v>
   <v>       0.00231481 </v>
   <v>       0.00231481 </v>
   <v>       0.00231481 </v>
   <v>       0.00231481 </v>
   <v>       0.00231481 </v>
   <v>       0.00231481 </v>
   <v>       0.00231481 </v>
   <v>       0.00115741 </v>
  </varray>
 </kpoints>
 <parameters>
  <separator name="general" >
   <i type="string" name="SYSTEM">gr</i>
   <i type="logical" name="LCOMPAT"> F  </i>
  </separator>
  <separator name="electronic" >
   <i type="string" name="PREC">accura</i>
   <i name="ENMAX">   2000.00000000</i>
   <i name="ENAUG">    644.87300000</i>
   <i name="EDIFF">      0.00000000</i>
   <i type="int" name="IALGO">    68</i>
   <i type="int" name="IWAVPR">    11</i>
   <i type="int" name="NBANDS">    12</i>
   <i name="NELECT">     16.00000000</i>
   <i type="int" name="TURBO">     0</i>
   <i type="int" name="IRESTART">     0</i>
   <i type="int" name="NREBOOT">     0</i>
   <i type="int" name="NMIN">     0</i>
   <i name="EREF">      0.00000000</i>
   <separator name="electronic smearing" >
    <i type="int" name="ISMEAR">     0</i>
    <i name="SIGMA">      0.05000000</i>
    <i name="KSPACING">      0.50000000</i>
    <i type="logical" name="KGAMMA"> T  </i>
   </separator>
   <separator name="electronic projectors" >
    <i type="logical" name="LREAL"> F  </i>
    <v name="ROPT">      0.00000000</v>
    <i type="int" name="LMAXPAW">  -100</i>
    <i type="int" name="LMAXMIX">     2</i>
    <i type="logical" name="NLSPLINE"> F  </i>
   </separator>
   <separator name="electronic startup" >
    <i type="int" name="ISTART">     0</i>
    <i type="int" name="ICHARG">     2</i>
    <i type="int" name="INIWAV">     1</i>
   </separator>
   <separator name="electronic spin" >
    <i type="int" name="ISPIN">     1</i>
    <i type="logical" name="LNONCOLLINEAR"> F  </i>
    <v name="MAGMOM">      1.00000000      1.00000000      1.00000000      1.00000000</v>
    <i name="NUPDOWN">     -1.00000000</i>
    <i type="logical" name="LSORBIT"> F  </i>
    <v name="SAXIS">      0.00000000      0.00000000      1.00000000</v>
    <i type="logical" name="LSPIRAL"> F  </i>
    <v name="QSPIRAL">      0.00000000      0.00000000      0.00000000</v>
    <i type="logical" name="LZEROZ"> F  </i>
   </separator>
   <separator name="electronic exchange-correlation" >
    <i type="logical" name="LASPH"> F  </i>
    <i type="logical" name="LMETAGGA"> F  </i>
   </separator>
   <separator name="electronic convergence" >
    <i type="int" name="NELM">   100</i>
    <i type="int" name="NELMDL">    -3</i>
    <i type="int" name="NELMIN">     5</i>
    <i name="ENINI">   2000.00000000</i>
    <separator name="electronic convergence detail" >
     <i type="logical" name="LDIAG"> T  </i>
     <i type="logical" name="LSUBROT"> F  </i>
     <i name="WEIMIN">      0.00100000</i>
     <i name="EBREAK">      0.00000000</i>
     <i name="DEPER">      0.30000000</i>
     <i type="int" name="NRMM">     4</i>
     <i name="TIME">      0.40000000</i>
    </separator>
   </separator>
   <separator name="electronic mixer" >
    <i name="AMIX">      0.40000000</i>
    <i name="BMIX">      1.00000000</i>
    <i name="AMIN">      0.10000000</i>
    <i name="AMIX_MAG">      1.60000000</i>
    <i name="BMIX_MAG">      1.00000000</i>
    <separator name="electronic mixer details" >
     <i type="int" name="IMIX">     4</i>
     <i type="int" name="MAXMIX">   -45</i>
     <i name="WC">    100.00000000</i>
     <i type="int" name="INIMIX">     1</i>
     <i type="int" name="MIXPRE">     1</i>
     <i type="int" name="MREMOVE">     5</i>
    </separator>
   </separator>
   <separator name="electronic dipolcorrection" >
    <i type="logical" name="LDIPOL"> F  </i>
    <i type="logical" name="LMONO"> F  </i>
    <i type="int" name="IDIPOL">     0</i>
    <i name="EPSILON">      1.00000000</i>
    <v name="DIPOL">   -100.00000000   -100.00000000   -100.00000000</v>
    <i name="EFIELD">      0.00000000</i>
   </separator>
  </separator>
  <separator name="grids" >
   <i type="int" name="NGX">    64</i>
   <i type="int" name="NGY">    40</i>
   <i type="int" name="NGZ">   288</i>
   <i type="int" name="NGXF">   128</i>
   <i type="int" name="NGYF">    80</i>
   <i type="int" name="NGZF">   576</i>
   <i type="logical" name="ADDGRID"> F  </i>
  </separator>
  <separator name="ionic" >
   <i type="int" name="NSW">   400</i>
   <i type="int" name="IBRION">     1</i>
   <i type="int" name="ISIF">     2</i>
   <i name="PSTRESS">      0.00000000</i>
   <i name="EDIFFG">     -0.00000100</i>
   <i type="int" name="NFREE">     0</i>
   <i name="POTIM">      0.50000000</i>
   <i name="SMASS">     -3.00000000</i>
   <i name="SCALEE">      1.00000000</i>
  </separator>
  <separator name="ionic md" >
   <i name="TEBEG">      0.00010000</i>
   <i name="TEEND">      0.00010000</i>
   <i type="int" name="NBLOCK">     1</i>
   <i type="int" name="KBLOCK">   400</i>
   <i type="int" name="NPACO">   256</i>
   <i name="APACO">     16.00000000</i>
  </separator>
  <separator name="symmetry" >
   <i type="int" name="ISYM">     2</i>
   <i name="SYMPREC">      0.00001000</i>
  </separator>
  <separator name="dos" >
   <i type="logical" name="LORBIT"> F  </i>
   <v name="RWIGS">     -1.00000000</v>
   <i type="int" name="NEDOS">   301</i>
   <i name="EMIN">     10.00000000</i>
   <i name="EMAX">    -10.00000000</i>
   <i name="EFERMI">      0.00000000</i>
  </separator>
  <separator name="writing" >
   <i type="int" name="NWRITE">     2</i>
   <i type="logical" name="LWAVE"> F  </i>
   <i type="logical" name="LCHARG"> F  </i>
   <i type="logical" name="LPARD"> F  </i>
   <i type="logical" name="LVTOT"> F  </i>
   <i type="logical" name="LVHAR"> F  </i>
   <i type="logical" name="LELF"> F  </i>
   <i type="logical" name="LOPTICS"> F  </i>
   <v name="STM">      0.00000000      0.00000000      0.00000000      0.00000000      0.00000000      0.00000000      0.00000000</v>
  </separator>
  <separator name="performance" >
   <i type="int" name="NPAR">     4</i>
   <i type="int" name="NSIM">     4</i>
   <i type="int" name="NBLK">    -1</i>
   <i type="logical" name="LPLANE"> T  </i>
   <i type="logical" name="LSCALAPACK"> F  </i>
   <i type="logical" name="LSCAAWARE"> F  </i>
   <i type="logical" name="LSCALU"> F  </i>
   <i type="logical" name="LASYNC"> F  </i>
   <i type="logical" name="LORBITALREAL"> F  </i>
  </separator>
  <separator name="miscellaneous" >
   <i type="int" name="IDIOT">     3</i>
   <i type="logical" name="LMUSIC"> F  </i>
   <v name="POMASS">     12.01100000</v>
   <v name="DARWINR">      0.00000000</v>
   <v name="DARWINV">      1.00000000</v>
   <i type="logical" name="LCORR"> T  </i>
  </separator>
  <i type="logical" name="GGA_COMPAT"> T  </i>
  <i type="logical" name="LBERRY"> F  </i>
  <i type="int" name="ICORELEVEL">     0</i>
  <i type="logical" name="LDAU"> F  </i>
  <i type="int" name="I_CONSTRAINED_M">     0</i>
  <separator name="electronic exchange-correlation" >
   <i type="string" name="GGA">--</i>
   <i type="int" name="VOSKOWN">     0</i>
   <i type="logical" name="LHFCALC"> F  </i>
   <i type="string" name="PRECFOCK"></i>
   <i type="logical" name="LSYMGRAD"> F  </i>
   <i type="logical" name="LHFONE"> F  </i>
   <i type="logical" name="LRHFCALC"> F  </i>
   <i type="logical" name="LTHOMAS"> F  </i>
   <i type="logical" name="LMODELHF"> F  </i>
   <i name="ENCUT4O">     -1.00000000</i>
   <i type="int" name="EXXOEP">     0</i>
   <i type="int" name="FOURORBIT">     0</i>
   <i name="AEXX">      0.00000000</i>
   <i name="HFALPHA">      0.00000000</i>
   <i name="MCALPHA">      0.00000000</i>
   <i name="ALDAX">      1.00000000</i>
   <i name="AGGAX">      1.00000000</i>
   <i name="ALDAC">      1.00000000</i>
   <i name="AGGAC">      1.00000000</i>
   <i type="int" name="NKREDX">     1</i>
   <i type="int" name="NKREDY">     1</i>
   <i type="int" name="NKREDZ">     1</i>
   <i type="logical" name="SHIFTRED"> F  </i>
   <i type="logical" name="ODDONLY"> F  </i>
   <i type="logical" name="EVENONLY"> F  </i>
   <i type="int" name="LMAXFOCK">     0</i>
   <i type="int" name="NMAXFOCKAE">     0</i>
   <i type="logical" name="LFOCKAEDFT"> F  </i>
   <i name="HFSCREEN">      0.00000000</i>
   <i name="HFSCREENC">      0.00000000</i>
   <i type="int" name="NBANDSGWLOW">     0</i>
  </separator>
  <separator name="vdW DFT" >
   <i type="logical" name="LUSE_VDW"> F  </i>
   <i name="Zab_VDW">     -0.84910000</i>
   <i name="PARAM1">      0.12340000</i>
   <i name="PARAM2">      1.00000000</i>
   <i name="PARAM3">      0.00000000</i>
  </separator>
  <separator name="model GW" >
   <i type="int" name="MODEL_GW">     0</i>
   <i name="MODEL_EPS0">     31.62568521</i>
   <i name="MODEL_ALPHA">      1.00000000</i>
  </separator>
  <separator name="linear response parameters" >
   <i type="logical" name="LEPSILON"> F  </i>
   <i type="logical" name="LRPA"> F  </i>
   <i type="logical" name="LNABLA"> F  </i>
   <i type="logical" name="LVEL"> F  </i>
   <i type="int" name="KINTER">     0</i>
   <i name="CSHIFT">      0.10000000</i>
   <i name="OMEGAMAX">     -1.00000000</i>
   <i name="DEG_THRESHOLD">      0.00200000</i>
  </separator>
  <separator name="orbital magnetization" >
   <i type="logical" name="NUCIND"> F  </i>
   <v name="MAGPOS">      0.00000000      0.00000000      0.00000000</v>
   <i type="logical" name="LNICSALL"> T  </i>
   <i type="logical" name="ORBITALMAG"> F  </i>
   <i type="logical" name="LMAGBLOCH"> F  </i>
   <i type="logical" name="LCHIMAG"> F  </i>
   <i type="logical" name="LGAUGE"> T  </i>
   <i type="int" name="MAGATOM">     0</i>
   <v name="MAGDIPOL">      0.00000000      0.00000000      0.00000000</v>
   <v name="AVECCONST">      0.00000000      0.00000000      0.00000000</v>
  </separator>
  <separator name="response functions" >
   <i type="logical" name="LADDER"> F  </i>
   <i type="logical" name="LFXC"> F  </i>
   <i type="logical" name="LHARTREE"> T  </i>
   <i type="int" name="IBSE">     0</i>
   <i type="logical" name="LTCTE"> F  </i>
   <i type="logical" name="LTETE"> F  </i>
   <i type="logical" name="LTRIPLET"> F  </i>
   <i type="logical" name="LFXCEPS"> F  </i>
   <i type="logical" name="LFXHEG"> F  </i>
   <i type="logical" name="L2ORDER"> F  </i>
   <i type="logical" name="LUSEW"> F  </i>
   <i name="ENCUTGW">     -2.00000000</i>
   <i name="ENCUTGWSOFT">     -2.00000000</i>
   <i name="ENCUTLF">     -1.00000000</i>
   <i type="int" name="LMAXMP2">    -1</i>
   <i name="SCISSOR">      0.00000000</i>
   <i type="int" name="NOMEGA">     0</i>
   <i type="int" name="NOMEGAR">     0</i>
   <i type="int" name="NBANDSGW">    -1</i>
   <i type="int" name="NBANDSO">    -1</i>
   <i type="int" name="NBANDSV">    -1</i>
   <i type="int" name="NELM">   100</i>
   <i type="int" name="DIM">     3</i>
   <i type="int" name="ANTIRES">     0</i>
   <i name="OMEGAMAX">    -30.00000000</i>
   <i name="OMEGAMIN">    -30.00000000</i>
   <i name="OMEGATL">   -200.00000000</i>
   <i type="int" name="OMEGAGRID">     0</i>
   <i name="CSHIFT">     -0.10000000</i>
   <i type="logical" name="SELFENERGY"> F  </i>
   <i type="logical" name="LSPECTRAL"> F  </i>
   <i type="logical" name="ODDONLYGW"> F  </i>
   <i type="logical" name="EVENONLYGW"> F  </i>
   <i type="int" name="NKREDLFX">     1</i>
   <i type="int" name="NKREDLFY">     1</i>
   <i type="int" name="NKREDLFZ">     1</i>
   <i type="int" name="MAXMEM">  1800</i>
   <i type="int" name="TELESCOPE">     0</i>
   <i type="int" name="TAUPAR">     1</i>
  </separator>
  <separator name="External order field" >
   <i name="OFIELD_KAPPA">      0.00000000</i>
   <v name="OFIELD_K">      0.00000000      0.00000000      0.00000000</v>
   <i name="OFIELD_Q6_NEAR">      0.00000000</i>
   <i name="OFIELD_Q6_FAR">      0.00000000</i>
   <i name="OFIELD_A">      0.00000000</i>
  </separator>
 </parameters>
 <atominfo>
  <atoms>       4 </atoms>
  <types>       1 </types>
  <array name="atoms" >
   <dimension dim="1">ion</dimension>
   <field type="string">element</field>
   <field type="int">atomtype</field>
   <set>
    <rc><c>C </c><c>   1</c></rc>
    <rc><c>C </c><c>   1</c></rc>
    <rc><c>C </c><c>   1</c></rc>
    <rc><c>C </c><c>   1</c></rc>
   </set>
  </array>
  <array name="atomtypes" >
   <dimension dim="1">type</dimension>
   <field type="int">atomspertype</field>
   <field type="string">element</field>
   <field>mass</field>
   <field>valence</field>
   <field type="string">pseudopotential</field>
   <set>
    <rc><c>   4</c><c>C </c><c>     12.01100000</c><c>      4.00000000</c><c> PAW_PBE C 08Apr2002                    </c></rc>
   </set>
  </array>
 </atominfo>
 <structure name="initialpos" >
  <crystal>
   <varray name="basis" >
    <v>       4.26182167       0.00000000       0.00000000 </v>
    <v>       0.00000000       2.50505083       0.00000000 </v>
    <v>       0.00000000       0.00000000      19.74862524 </v>
   </varray>
   <i name="volume">    210.83790140 </i>
   <varray name="rec_basis" >
    <v>       0.23464145       0.00000000       0.00000000 </v>
    <v>       0.00000000       0.39919350       0.00000000 </v>
    <v>       0.00000000       0.00000000       0.05063644 </v>
   </varray>
  </crystal>
  <varray name="positions" >
   <v>       0.00039382       0.00000000       0.00000000 </v>
   <v>       0.16627284       0.50000000       0.00000000 </v>
   <v>       0.50039382       0.50000000       0.00000000 </v>
   <v>       0.66627284       0.00000000       0.00000000 </v>
  </varray>
 </structure>
 <calculation>
  <scstep>
   <time name="dav">  324.83  325.37</time>
   <time name="total">  327.65  328.26</time>
   <energy>
    <i name="alphaZ">      6.18334092 </i>
    <i name="ewald">   2502.16746940 </i>
    <i name="hartreedc">  -2930.08264511 </i>
    <i name="XCdc">     54.92573534 </i>
    <i name="pawpsdc">    151.32577238 </i>
    <i name="pawaedc">   -155.92769107 </i>
    <i name="eentropy">     -0.00101145 </i>
    <i name="bandstr">    -28.84702177 </i>
    <i name="atom">    588.62352690 </i>
    <i name="e_fr_energy">    188.36747555 </i>
    <i name="e_wo_entrp">    188.36848700 </i>
    <i name="e_0_energy">    188.36798128 </i>
   </energy>
  </scstep>
  <scstep>
   <time name="dav">  491.71  492.45</time>
   <time name="total">  491.72  492.48</time>
   <energy>
    <i name="e_fr_energy">     -9.54989995 </i>
    <i name="e_wo_entrp">     -9.54948219 </i>
    <i name="e_0_energy">     -9.54969107 </i>
   </energy>
  </scstep>
  <scstep>
   <time name="dav">  365.88  368.26</time>
   <time name="total">  400.37  403.19</time>
   <energy>
    <i name="e_fr_energy">    -38.25233650 </i>
    <i name="e_wo_entrp">    -38.25233425 </i>
    <i name="e_0_energy">    -38.25233538 </i>
   </energy>
  </scstep>
  <scstep>
   <time name="diag">   88.55   89.36</time>
   <time name="diis">  370.37  373.28</time>
   <time name="orth">    3.09    3.09</time>
   <time name="total">  499.51  503.37</time>
   <energy>
    <i name="e_fr_energy">    -37.63878201 </i>
    <i name="e_wo_entrp">    -37.63877864 </i>
    <i name="e_0_energy">    -37.63878032 </i>
   </energy>
  </scstep>
  <scstep>
   <time name="diag">   88.95   89.27</time>
   <time name="diis">  369.84  371.64</time>
   <time name="orth">    3.07    3.07</time>
   <time name="total">  499.27  501.67</time>
   <energy>
    <i name="e_fr_energy">    -36.90930337 </i>
    <i name="e_wo_entrp">    -36.90929884 </i>
    <i name="e_0_energy">    -36.90930110 </i>
   </energy>
  </scstep>
  <scstep>
   <time name="diag">   88.72   89.29</time>
   <time name="diis">  407.62  410.64</time>
   <time name="orth">    3.07    3.08</time>
   <time name="total">  536.78  540.68</time>
   <energy>
    <i name="e_fr_energy">    -36.91143300 </i>
    <i name="e_wo_entrp">    -36.91142874 </i>
    <i name="e_0_energy">    -36.91143087 </i>
   </energy>
  </scstep>
  <scstep>
   <time name="diag">   89.16   89.28</time>
   <time name="diis">  370.08  371.05</time>
   <time name="orth">    3.09    3.10</time>
   <time name="total">  499.97  501.09</time>
   <energy>
    <i name="e_fr_energy">    -36.90217075 </i>
    <i name="e_wo_entrp">    -36.90216704 </i>
    <i name="e_0_energy">    -36.90216889 </i>
   </energy>
  </scstep>
  <scstep>
   <time name="diag">   89.23   89.27</time>
   <time name="diis">  372.21  373.35</time>
   <time name="orth">    3.08    3.08</time>
   <time name="total">  501.97  503.40</time>
   <energy>
    <i name="e_fr_energy">    -36.89704211 </i>
    <i name="e_wo_entrp">    -36.89703825 </i>
    <i name="e_0_energy">    -36.89704018 </i>
   </energy>
  </scstep>
  <scstep>
   <time name="diag">   88.76   89.20</time>
   <time name="diis">  360.51  361.79</time>
   <time name="orth">    3.09    3.09</time>
   <time name="total">  489.99  491.76</time>
   <energy>
    <i name="e_fr_energy">    -36.89680831 </i>
    <i name="e_wo_entrp">    -36.89680419 </i>
    <i name="e_0_energy">    -36.89680625 </i>
   </energy>
  </scstep>
  <scstep>
   <time name="diag">   89.15   89.17</time>
   <time name="diis">  361.81  362.29</time>
   <time name="orth">    3.09    3.09</time>
   <time name="total">  491.68  492.21</time>
   <energy>
    <i name="e_fr_energy">    -36.89674955 </i>
    <i name="e_wo_entrp">    -36.89674559 </i>
    <i name="e_0_energy">    -36.89674757 </i>
   </energy>
  </scstep>
  <scstep>
   <time name="diag">   89.24   89.27</time>
   <time name="diis">  364.43  364.50</time>
   <time name="orth">    3.10    3.10</time>
   <time name="total">  494.34  494.52</time>
   <energy>
    <i name="e_fr_energy">    -36.89916460 </i>
    <i name="e_wo_entrp">    -36.89916070 </i>
    <i name="e_0_energy">    -36.89916265 </i>
   </energy>
  </scstep>
  <scstep>
   <time name="diag">   89.17   89.20</time>
   <time name="diis">  363.11  363.25</time>
   <time name="orth">    3.09    3.09</time>
   <time name="total">  492.99  493.20</time>
   <energy>
    <i name="e_fr_energy">    -36.89962617 </i>
    <i name="e_wo_entrp">    -36.89962221 </i>
    <i name="e_0_energy">    -36.89962419 </i>
   </energy>
  </scstep>
  <scstep>
   <time name="diag">   88.94   89.18</time>
   <time name="diis">  371.11  371.56</time>
   <time name="orth">    3.09    3.10</time>
   <time name="total">  500.69  501.64</time>
   <energy>
    <i name="e_fr_energy">    -36.89987418 </i>
    <i name="e_wo_entrp">    -36.89987021 </i>
    <i name="e_0_energy">    -36.89987220 </i>
   </energy>
  </scstep>
  <scstep>
   <time name="diag">   89.17   89.26</time>
   <time name="diis">  363.29  365.40</time>
   <time name="orth">    3.07    3.09</time>
   <time name="total">  492.99  495.43</time>
   <energy>
    <i name="e_fr_energy">    -36.89995572 </i>
    <i name="e_wo_entrp">    -36.89995177 </i>
    <i name="e_0_energy">    -36.89995375 </i>
   </energy>
  </scstep>
  <scstep>
   <time name="diag">   88.96   89.23</time>
   <time name="diis">  363.81  367.43</time>
   <time name="orth">    3.09    3.09</time>
   <time name="total">  493.23  497.69</time>
   <energy>
    <i name="e_fr_energy">    -36.89996403 </i>
    <i name="e_wo_entrp">    -36.89996007 </i>
    <i name="e_0_energy">    -36.89996205 </i>
   </energy>
  </scstep>
  <scstep>
   <time name="diag">   88.89   89.23</time>
   <time name="diis">  360.26  363.52</time>
   <time name="orth">    3.07    3.07</time>
   <time name="total">  489.44  493.53</time>
   <energy>
    <i name="e_fr_energy">    -36.89997671 </i>
    <i name="e_wo_entrp">    -36.89997275 </i>
    <i name="e_0_energy">    -36.89997473 </i>
   </energy>
  </scstep>
  <scstep>
   <time name="diag">   88.37   89.32</time>
   <time name="diis">  374.84  378.22</time>
   <time name="orth">    3.08    3.09</time>
   <time name="total">  503.62  511.22</time>
   <energy>
    <i name="e_fr_energy">    -36.89998135 </i>
    <i name="e_wo_entrp">    -36.89997739 </i>
    <i name="e_0_energy">    -36.89997937 </i>
   </energy>
  </scstep>
  <scstep>
   <time name="diag">   88.53   89.24</time>
   <time name="diis">  359.77  361.38</time>
   <time name="orth">    3.07    3.09</time>
   <time name="total">  488.82  491.41</time>
   <energy>
    <i name="e_fr_energy">    -36.89998256 </i>
    <i name="e_wo_entrp">    -36.89997860 </i>
    <i name="e_0_energy">    -36.89998058 </i>
   </energy>
  </scstep>
  <scstep>
   <time name="diag">   88.71   89.31</time>
   <time name="diis">  367.01  368.67</time>
   <time name="orth">    3.09    3.09</time>
   <time name="total">  496.41  499.11</time>
   <energy>
    <i name="e_fr_energy">    -36.89998326 </i>
    <i name="e_wo_entrp">    -36.89997930 </i>
    <i name="e_0_energy">    -36.89998128 </i>
   </energy>
  </scstep>
  <scstep>
   <time name="diag">   89.09   89.34</time>
   <time name="diis">  279.86  282.10</time>
   <time name="orth">    3.09    3.09</time>
   <time name="total">  409.30  412.28</time>
   <energy>
    <i name="e_fr_energy">    -36.89998331 </i>
    <i name="e_wo_entrp">    -36.89997934 </i>
    <i name="e_0_energy">    -36.89998133 </i>
   </energy>
  </scstep>
  <scstep>
   <time name="diag">   88.46   89.31</time>
   <time name="diis">  273.98  276.65</time>
   <time name="orth">    3.07    3.07</time>
   <time name="total">  402.85  406.80</time>
   <energy>
    <i name="e_fr_energy">    -36.89998332 </i>
    <i name="e_wo_entrp">    -36.89997936 </i>
    <i name="e_0_energy">    -36.89998134 </i>
   </energy>
  </scstep>
  <scstep>
   <time name="diag">   88.90   89.32</time>
   <time name="diis">  247.78  248.74</time>
   <time name="orth">    3.07    3.07</time>
   <time name="total">  342.42  344.05</time>
   <energy>
    <i name="alphaZ">      6.18334092 </i>
    <i name="ewald">   2502.16746940 </i>
    <i name="hartreedc">  -2996.32299605 </i>
    <i name="XCdc">     57.28921137 </i>
    <i name="pawpsdc">    271.98523154 </i>
    <i name="pawaedc">   -277.11097695 </i>
    <i name="eentropy">     -0.00000396 </i>
    <i name="bandstr">   -189.71478649 </i>
    <i name="atom">    588.62352690 </i>
    <i name="e_fr_energy">    -36.89998332 </i>
    <i name="e_wo_entrp">    -36.89997936 </i>
    <i name="e_0_energy">    -36.89998134 </i>
   </energy>
  </scstep>
  <structure>
   <crystal>
    <varray name="basis" >
     <v>       4.26182167       0.00000000       0.00000000 </v>
     <v>       0.00000000       2.50505083       0.00000000 </v>
     <v>       0.00000000       0.00000000      19.74862524 </v>
    </varray>
    <i name="volume">    210.83790140 </i>
    <varray name="rec_basis" >
     <v>       0.23464145       0.00000000       0.00000000 </v>
     <v>       0.00000000       0.39919350       0.00000000 </v>
     <v>       0.00000000       0.00000000       0.05063644 </v>
    </varray>
   </crystal>
   <varray name="positions" >
    <v>       0.00039382       0.00000000       0.00000000 </v>
    <v>       0.16627284       0.50000000       0.00000000 </v>
    <v>       0.50039382       0.50000000       0.00000000 </v>
    <v>       0.66627284       0.00000000       0.00000000 </v>
   </varray>
  </structure>
  <varray name="forces" >
   <v>       0.00295225      -0.00000000      -0.00000000 </v>
   <v>      -0.00295225       0.00000000       0.00000000 </v>
   <v>       0.00295225       0.00000000      -0.00000000 </v>
   <v>      -0.00295225      -0.00000000       0.00000000 </v>
  </varray>
  <varray name="stress" >
   <v>       0.01805092       0.00000000       0.00000000 </v>
   <v>       0.00000000     -25.40517664       0.00000000 </v>
   <v>       0.00000000       0.00000000      -0.01039303 </v>
  </varray>
  <energy>
   <i name="e_fr_energy">    -36.89998332 </i>
   <i name="e_wo_entrp">    -36.89998134 </i>
   <i name="e_0_energy">     -0.00000396 </i>
  </energy>
  <time name="totalsc">10451.2810504.95</time>
 </calculation>
 <calculation>
  <scstep>
   <time name="dav">  345.67  347.37</time>
   <time name="total">  383.07  385.14</time>
   <energy>
    <i name="alphaZ">      6.18334092 </i>
    <i name="ewald">   2502.16560550 </i>
    <i name="hartreedc">  -2996.32219589 </i>
    <i name="XCdc">     57.28915840 </i>
    <i name="pawpsdc">    271.98525278 </i>
    <i name="pawaedc">   -277.11099837 </i>
    <i name="eentropy">     -0.00000460 </i>
    <i name="bandstr">   -189.71366633 </i>
    <i name="atom">    588.62352690 </i>
    <i name="e_fr_energy">    -36.89998070 </i>
    <i name="e_wo_entrp">    -36.89997610 </i>
    <i name="e_0_energy">    -36.89997840 </i>
   </energy>
  </scstep>
  <scstep>
   <time name="diag">   89.13   89.38</time>
   <time name="diis">  361.09  363.06</time>
   <time name="orth">    3.08    3.12</time>
   <time name="total">  490.57  493.30</time>
   <energy>
    <i name="e_fr_energy">    -36.89998085 </i>
    <i name="e_wo_entrp">    -36.89997627 </i>
    <i name="e_0_energy">    -36.89997856 </i>
   </energy>
  </scstep>
  <scstep>
   <time name="diag">   88.68   89.48</time>
   <time name="diis">  363.44  366.86</time>
   <time name="orth">    3.08    3.09</time>
   <time name="total">  492.49  499.07</time>
   <energy>
    <i name="e_fr_energy">    -36.89998073 </i>
    <i name="e_wo_entrp">    -36.89997619 </i>
    <i name="e_0_energy">    -36.89997846 </i>
   </energy>
  </scstep>
  <scstep>
   <time name="diag">   88.58   89.38</time>
   <time name="diis">  371.57  374.45</time>
   <time name="orth">    3.08    3.10</time>
   <time name="total">  500.55  504.71</time>
   <energy>
    <i name="e_fr_energy">    -36.89998072 </i>
    <i name="e_wo_entrp">    -36.89997617 </i>
    <i name="e_0_energy">    -36.89997845 </i>
   </energy>
  </scstep>
  <scstep>
   <time name="diag">   88.82   89.40</time>
   <time name="diis">  372.64  375.30</time>
   <time name="orth">    3.09    3.15</time>
   <time name="total">  501.85  505.73</time>
   <energy>
    <i name="e_fr_energy">    -36.89998072 </i>
    <i name="e_wo_entrp">    -36.89997617 </i>
    <i name="e_0_energy">    -36.89997844 </i>
   </energy>
  </scstep>
  <scstep>
   <time name="diag">   89.34   89.37</time>
   <time name="diis">  323.84  324.75</time>
   <time name="orth">    3.09    3.10</time>
   <time name="total">  419.03  420.02</time>
   <energy>
    <i name="alphaZ">      6.18334092 </i>
    <i name="ewald">   2502.16560550 </i>
    <i name="hartreedc">  -2996.32148015 </i>
    <i name="XCdc">     57.28912781 </i>
    <i name="pawpsdc">    271.98201448 </i>
    <i name="pawaedc">   -277.10774635 </i>
    <i name="eentropy">     -0.00000455 </i>
    <i name="bandstr">   -189.71436529 </i>
    <i name="atom">    588.62352690 </i>
    <i name="e_fr_energy">    -36.89998072 </i>
    <i name="e_wo_entrp">    -36.89997617 </i>
    <i name="e_0_energy">    -36.89997844 </i>
   </energy>
  </scstep>
  <structure>
   <crystal>
    <varray name="basis" >
     <v>       4.26182167       0.00000000       0.00000000 </v>
     <v>       0.00000000       2.50505083       0.00000000 </v>
     <v>       0.00000000       0.00000000      19.74862524 </v>
    </varray>
    <i name="volume">    210.83790140 </i>
    <varray name="rec_basis" >
     <v>       0.23464145       0.00000000       0.00000000 </v>
     <v>       0.00000000       0.39919350       0.00000000 </v>
     <v>       0.00000000       0.00000000       0.05063644 </v>
    </varray>
   </crystal>
   <varray name="positions" >
    <v>       0.00042724      -0.00000000      -0.00000000 </v>
    <v>       0.16623942       0.50000000       0.00000000 </v>
    <v>       0.50042724       0.50000000      -0.00000000 </v>
    <v>       0.66623942      -0.00000000       0.00000000 </v>
   </varray>
  </structure>
  <varray name="forces" >
   <v>      -0.01201644       0.00000000       0.00000000 </v>
   <v>       0.01201644      -0.00000000      -0.00000000 </v>
   <v>      -0.01201644       0.00000000       0.00000000 </v>
   <v>       0.01201644      -0.00000000      -0.00000000 </v>
  </varray>
  <varray name="stress" >
   <v>      -0.03754656       0.00000000       0.00000000 </v>
   <v>       0.00000000     -25.36406010       0.00000000 </v>
   <v>       0.00000000       0.00000000      -0.01040576 </v>
  </varray>
  <energy>
   <i name="e_fr_energy">    -36.89998072 </i>
   <i name="e_wo_entrp">    -36.89997844 </i>
   <i name="e_0_energy">     -0.00000455 </i>
  </energy>
  <time name="totalsc"> 2894.43 2915.58</time>
 </calculation>
 <calculation>
  <scstep>
   <time name="dav">  351.39  353.14</time>
   <time name="total">  388.82  390.87</time>
   <energy>
    <i name="alphaZ">      6.18334092 </i>
    <i name="ewald">   2502.16709954 </i>
    <i name="hartreedc">  -2996.32210369 </i>
    <i name="XCdc">     57.28916981 </i>
    <i name="pawpsdc">    271.98201725 </i>
    <i name="pawaedc">   -277.10774890 </i>
    <i name="eentropy">     -0.00000404 </i>
    <i name="bandstr">   -189.71528126 </i>
    <i name="atom">    588.62352690 </i>
    <i name="e_fr_energy">    -36.89998346 </i>
    <i name="e_wo_entrp">    -36.89997942 </i>
    <i name="e_0_energy">    -36.89998144 </i>
   </energy>
  </scstep>
  <scstep>
   <time name="diag">   89.12   89.51</time>
   <time name="diis">  360.74  363.82</time>
   <time name="orth">    3.09    3.09</time>
   <time name="total">  490.49  494.26</time>
   <energy>
    <i name="e_fr_energy">    -36.89998355 </i>
    <i name="e_wo_entrp">    -36.89997950 </i>
    <i name="e_0_energy">    -36.89998152 </i>
   </energy>
  </scstep>
  <scstep>
   <time name="diag">   89.00   89.49</time>
   <time name="diis">  363.09  366.17</time>
   <time name="orth">    3.08    3.09</time>
   <time name="total">  492.51  496.49</time>
   <energy>
    <i name="e_fr_energy">    -36.89998349 </i>
    <i name="e_wo_entrp">    -36.89997941 </i>
    <i name="e_0_energy">    -36.89998145 </i>
   </energy>
  </scstep>
  <scstep>
   <time name="diag">   89.38   89.41</time>
   <time name="diis">  371.19  371.34</time>
   <time name="orth">    3.07    3.07</time>
   <time name="total">  501.43  501.64</time>
   <energy>
    <i name="e_fr_energy">    -36.89998348 </i>
    <i name="e_wo_entrp">    -36.89997941 </i>
    <i name="e_0_energy">    -36.89998145 </i>
   </energy>
  </scstep>
  <scstep>
   <time name="diag">   89.40   89.43</time>
   <time name="diis">  367.78  367.85</time>
   <time name="orth">    3.09    3.10</time>
   <time name="total">  498.06  498.21</time>
   <energy>
    <i name="e_fr_energy">    -36.89998349 </i>
    <i name="e_wo_entrp">    -36.89997941 </i>
    <i name="e_0_energy">    -36.89998145 </i>
   </energy>
  </scstep>
  <scstep>
   <time name="diag">   89.43   89.45</time>
   <time name="diis">  277.41  277.63</time>
   <time name="orth">    3.07    3.07</time>
   <time name="total">  407.52  407.87</time>
   <energy>
    <i name="e_fr_energy">    -36.89998349 </i>
    <i name="e_wo_entrp">    -36.89997941 </i>
    <i name="e_0_energy">    -36.89998145 </i>
   </energy>
  </scstep>
  <scstep>
   <time name="diag">   89.02   89.45</time>
   <time name="diis">  240.85  242.01</time>
   <time name="orth">    3.08    3.10</time>
   <time name="total">  370.47  372.38</time>
   <energy>
    <i name="e_fr_energy">    -36.89998349 </i>
    <i name="e_wo_entrp">    -36.89997941 </i>
    <i name="e_0_energy">    -36.89998145 </i>
   </energy>
  </scstep>
  <scstep>
   <time name="diag">   88.93   89.42</time>
   <time name="diis">  229.13  230.22</time>
   <time name="orth">    3.08    3.09</time>
   <time name="total">  358.82  360.61</time>
   <energy>
    <i name="e_fr_energy">    -36.89998349 </i>
    <i name="e_wo_entrp">    -36.89997941 </i>
    <i name="e_0_energy">    -36.89998145 </i>
   </energy>
  </scstep>
  <scstep>
   <time name="diag">   89.04   89.41</time>
   <time name="diis">  220.34  220.38</time>
   <time name="orth">    3.07    3.07</time>
   <time name="total">  350.28  350.76</time>
   <energy>
    <i name="e_fr_energy">    -36.89998349 </i>
    <i name="e_wo_entrp">    -36.89997941 </i>
    <i name="e_0_energy">    -36.89998145 </i>
   </energy>
  </scstep>
  <scstep>
   <time name="diag">   89.42   89.44</time>
   <time name="diis">  213.42  213.46</time>
   <time name="orth">    3.10    3.10</time>
   <time name="total">  343.77  343.91</time>
   <energy>
    <i name="e_fr_energy">    -36.89998349 </i>
    <i name="e_wo_entrp">    -36.89997941 </i>
    <i name="e_0_energy">    -36.89998145 </i>
   </energy>
  </scstep>
  <scstep>
   <time name="diag">   88.71   89.42</time>
   <time name="diis">  199.63  201.42</time>
   <time name="orth">    3.07    3.07</time>
   <time name="total">  294.17  296.69</time>
   <energy>
    <i name="alphaZ">      6.18334092 </i>
    <i name="ewald">   2502.16709954 </i>
    <i name="hartreedc">  -2996.32269524 </i>
    <i name="XCdc">     57.28919533 </i>
    <i name="pawpsdc">    271.98462679 </i>
    <i name="pawaedc">   -277.11036982 </i>
    <i name="eentropy">     -0.00000407 </i>
    <i name="bandstr">   -189.71470384 </i>
    <i name="atom">    588.62352690 </i>
    <i name="e_fr_energy">    -36.89998349 </i>
    <i name="e_wo_entrp">    -36.89997941 </i>
    <i name="e_0_energy">    -36.89998145 </i>
   </energy>
  </scstep>
  <structure>
   <crystal>
    <varray name="basis" >
     <v>       4.26182167       0.00000000       0.00000000 </v>
     <v>       0.00000000       2.50505083       0.00000000 </v>
     <v>       0.00000000       0.00000000      19.74862524 </v>
    </varray>
    <i name="volume">    210.83790140 </i>
    <varray name="rec_basis" >
     <v>       0.23464145       0.00000000       0.00000000 </v>
     <v>       0.00000000       0.39919350       0.00000000 </v>
     <v>       0.00000000       0.00000000       0.05063644 </v>
    </varray>
   </crystal>
   <varray name="positions" >
    <v>       0.00040041      -0.00000000      -0.00000000 </v>
    <v>       0.16626625       0.50000000       0.00000000 </v>
    <v>       0.50040041       0.50000000      -0.00000000 </v>
    <v>       0.66626625      -0.00000000       0.00000000 </v>
   </varray>
  </structure>
  <varray name="forces" >
   <v>      -0.00000208       0.00000000      -0.00000000 </v>
   <v>       0.00000208      -0.00000000       0.00000000 </v>
   <v>      -0.00000208       0.00000000      -0.00000000 </v>
   <v>       0.00000208      -0.00000000       0.00000000 </v>
  </varray>
  <varray name="stress" >
   <v>       0.00704918       0.00000000       0.00000000 </v>
   <v>       0.00000000     -25.39702377       0.00000000 </v>
   <v>       0.00000000       0.00000000      -0.01029101 </v>
  </varray>
  <energy>
   <i name="e_fr_energy">    -36.89998349 </i>
   <i name="e_wo_entrp">    -36.89998145 </i>
   <i name="e_0_energy">     -0.00000407 </i>
  </energy>
  <time name="totalsc"> 4602.69 4621.40</time>
 </calculation>
 <calculation>
  <scstep>
   <time name="dav">  276.12  277.31</time>
   <time name="total">  313.06  314.62</time>
   <energy>
    <i name="alphaZ">      6.18334092 </i>
    <i name="ewald">   2502.16709980 </i>
    <i name="hartreedc">  -2996.32269783 </i>
    <i name="XCdc">     57.28919537 </i>
    <i name="pawpsdc">    271.98462803 </i>
    <i name="pawaedc">   -277.11037107 </i>
    <i name="eentropy">     -0.00000407 </i>
    <i name="bandstr">   -189.71470154 </i>
    <i name="atom">    588.62352690 </i>
    <i name="e_fr_energy">    -36.89998349 </i>
    <i name="e_wo_entrp">    -36.89997941 </i>
    <i name="e_0_energy">    -36.89998145 </i>
   </energy>
  </scstep>
  <scstep>
   <time name="diag">   89.25   89.42</time>
   <time name="diis">  167.77  168.02</time>
   <time name="orth">    3.09    3.10</time>
   <time name="total">  297.45  299.52</time>
   <energy>
    <i name="e_fr_energy">    -36.89998349 </i>
    <i name="e_wo_entrp">    -36.89997941 </i>
    <i name="e_0_energy">    -36.89998145 </i>
   </energy>
  </scstep>
  <scstep>
   <time name="diag">   88.92   89.45</time>
   <time name="diis">  164.96  166.29</time>
   <time name="orth">    3.09    3.09</time>
   <time name="total">  293.90  296.48</time>
   <energy>
    <i name="e_fr_energy">    -36.89998349 </i>
    <i name="e_wo_entrp">    -36.89997941 </i>
    <i name="e_0_energy">    -36.89998145 </i>
   </energy>
  </scstep>
  <scstep>
   <time name="diag">   88.88   89.44</time>
   <time name="diis">  164.37  165.72</time>
   <time name="orth">    3.07    3.07</time>
   <time name="total">  293.24  295.56</time>
   <energy>
    <i name="e_fr_energy">    -36.89998349 </i>
    <i name="e_wo_entrp">    -36.89997941 </i>
    <i name="e_0_energy">    -36.89998145 </i>
   </energy>
  </scstep>
  <scstep>
   <time name="diag">   88.90   89.45</time>
   <time name="diis">  163.62  164.90</time>
   <time name="orth">    3.08    3.08</time>
   <time name="total">  258.34  260.24</time>
   <energy>
    <i name="alphaZ">      6.18334092 </i>
    <i name="ewald">   2502.16709980 </i>
    <i name="hartreedc">  -2996.32269722 </i>
    <i name="XCdc">     57.28919531 </i>
    <i name="pawpsdc">    271.98462715 </i>
    <i name="pawaedc">   -277.11037017 </i>
    <i name="eentropy">     -0.00000407 </i>
    <i name="bandstr">   -189.71470210 </i>
    <i name="atom">    588.62352690 </i>
    <i name="e_fr_energy">    -36.89998349 </i>
    <i name="e_wo_entrp">    -36.89997941 </i>
    <i name="e_0_energy">    -36.89998145 </i>
   </energy>
  </scstep>
  <structure>
   <crystal>
    <varray name="basis" >
     <v>       4.26182167       0.00000000       0.00000000 </v>
     <v>       0.00000000       2.50505083       0.00000000 </v>
     <v>       0.00000000       0.00000000      19.74862524 </v>
    </varray>
    <i name="volume">    210.83790140 </i>
    <varray name="rec_basis" >
     <v>       0.23464145       0.00000000       0.00000000 </v>
     <v>       0.00000000       0.39919350       0.00000000 </v>
     <v>       0.00000000       0.00000000       0.05063644 </v>
    </varray>
   </crystal>
   <varray name="positions" >
    <v>       0.00040041       0.00000000      -0.00000000 </v>
    <v>       0.16626626       0.50000000       0.00000000 </v>
    <v>       0.50040041       0.50000000      -0.00000000 </v>
    <v>       0.66626626      -0.00000000       0.00000000 </v>
   </varray>
  </structure>
  <varray name="forces" >
   <v>       0.00000055      -0.00000000      -0.00000000 </v>
   <v>      -0.00000055      -0.00000000       0.00000000 </v>
   <v>       0.00000055      -0.00000000      -0.00000000 </v>
   <v>      -0.00000055       0.00000000       0.00000000 </v>
  </varray>
  <varray name="stress" >
   <v>       0.00707511       0.00000000       0.00000000 </v>
   <v>       0.00000000     -25.39704475       0.00000000 </v>
   <v>       0.00000000       0.00000000      -0.01031347 </v>
  </varray>
  <energy>
   <i name="e_fr_energy">    -36.89998349 </i>
   <i name="e_wo_entrp">    -36.89998145 </i>
   <i name="e_0_energy">     -0.00000407 </i>
  </energy>
  <time name="totalsc"> 1556.49 1567.26</time>
  <eigenvalues>
   <array>
    <dimension dim="1">band</dimension>
    <dimension dim="2">kpoint</dimension>
    <dimension dim="3">spin</dimension>
    <field>eigene</field>
    <field>occ</field>
    <set>
     <set comment="spin 1">
      <set comment="kpoint 1">
       <r>  -22.1481    1.0000 </r>
       <r>  -16.8258    1.0000 </r>
       <r>  -15.9052    1.0000 </r>
       <r>  -10.2774    1.0000 </r>
       <r>   -9.3592    1.0000 </r>
       <r>   -5.9189    1.0000 </r>
       <r>   -5.7540    1.0000 </r>
       <r>   -4.9837    1.0000 </r>
       <r>   -1.1133    0.0000 </r>
       <r>    0.5365    0.0000 </r>
       <r>    1.3358    0.0000 </r>
       <r>    1.7248    0.0000 </r>
      </set>
      <set comment="kpoint 2">
       <r>  -22.1377    1.0000 </r>
       <r>  -17.0090    1.0000 </r>
       <r>  -15.7069    1.0000 </r>
       <r>  -10.2651    1.0000 </r>
       <r>   -9.3489    1.0000 </r>
       <r>   -5.9421    1.0000 </r>
       <r>   -5.7952    1.0000 </r>
       <r>   -5.0524    1.0000 </r>
       <r>   -1.0293    0.0000 </r>
       <r>    0.5505    0.0000 </r>
       <r>    1.3499    0.0000 </r>
       <r>    1.7391    0.0000 </r>
      </set>
      <set comment="kpoint 3">
       <r>  -22.1067    1.0000 </r>
       <r>  -17.3642    1.0000 </r>
       <r>  -15.3064    1.0000 </r>
       <r>  -10.2283    1.0000 </r>
       <r>   -9.3179    1.0000 </r>
       <r>   -6.0107    1.0000 </r>
       <r>   -5.9172    1.0000 </r>
       <r>   -5.2422    1.0000 </r>
       <r>   -0.7938    0.0000 </r>
       <r>    0.5925    0.0000 </r>
       <r>    1.3924    0.0000 </r>
       <r>    1.7821    0.0000 </r>
      </set>
      <set comment="kpoint 4">
       <r>  -22.0551    1.0000 </r>
       <r>  -17.7511    1.0000 </r>
       <r>  -14.8444    1.0000 </r>
       <r>  -10.1669    1.0000 </r>
       <r>   -9.2665    1.0000 </r>
       <r>   -6.1207    1.0000 </r>
       <r>   -6.1155    1.0000 </r>
       <r>   -5.5175    1.0000 </r>
       <r>   -0.4430    0.0000 </r>
       <r>    0.6625    0.0000 </r>
       <r>    1.4632    0.0000 </r>
       <r>    1.8538    0.0000 </r>
      </set>
      <set comment="kpoint 5">
       <r>  -21.9829    1.0000 </r>
       <r>  -18.1369    1.0000 </r>
       <r>  -14.3541    1.0000 </r>
       <r>  -10.0812    1.0000 </r>
       <r>   -9.1950    1.0000 </r>
       <r>   -6.3834    1.0000 </r>
       <r>   -6.2667    1.0000 </r>
       <r>   -5.8440    1.0000 </r>
       <r>   -0.0120    0.0000 </r>
       <r>    0.7605    0.0000 </r>
       <r>    1.5622    0.0000 </r>
       <r>    1.9541    0.0000 </r>
      </set>
      <set comment="kpoint 6">
       <r>  -21.8902    1.0000 </r>
       <r>  -18.5122    1.0000 </r>
       <r>  -13.8455    1.0000 </r>
       <r>   -9.9712    1.0000 </r>
       <r>   -9.1036    1.0000 </r>
       <r>   -6.7129    1.0000 </r>
       <r>   -6.4421    1.0000 </r>
       <r>   -6.1967    1.0000 </r>
       <r>    0.4728    0.0000 </r>
       <r>    0.8865    0.0000 </r>
       <r>    1.6895    0.0000 </r>
       <r>    2.0831    0.0000 </r>
      </set>
      <set comment="kpoint 7">
       <r>  -21.7770    1.0000 </r>
       <r>  -18.8734    1.0000 </r>
       <r>  -13.3232    1.0000 </r>
       <r>   -9.8371    1.0000 </r>
       <r>   -8.9929    1.0000 </r>
       <r>   -7.0951    1.0000 </r>
       <r>   -6.6400    1.0000 </r>
       <r>   -6.5591    1.0000 </r>
       <r>    0.9935    0.0000 </r>
       <r>    1.0404    0.0000 </r>
       <r>    1.8450    0.0000 </r>
       <r>    2.2408    0.0000 </r>
      </set>
      <set comment="kpoint 8">
       <r>  -21.6433    1.0000 </r>
       <r>  -19.2184    1.0000 </r>
       <r>  -12.7904    1.0000 </r>
       <r>   -9.6792    1.0000 </r>
       <r>   -8.8635    1.0000 </r>
       <r>   -7.5214    1.0000 </r>
       <r>   -6.9210    1.0000 </r>
       <r>   -6.8537    1.0000 </r>
       <r>    1.2222    0.0000 </r>
       <r>    1.5375    0.0000 </r>
       <r>    2.0286    0.0000 </r>
       <r>    2.4271    0.0000 </r>
      </set>
      <set comment="kpoint 9">
       <r>  -21.4894    1.0000 </r>
       <r>  -19.5462    1.0000 </r>
       <r>  -12.2494    1.0000 </r>
       <r>   -9.4978    1.0000 </r>
       <r>   -8.7162    1.0000 </r>
       <r>   -7.9837    1.0000 </r>
       <r>   -7.2755    1.0000 </r>
       <r>   -7.0772    1.0000 </r>
       <r>    1.4320    0.0000 </r>
       <r>    2.0954    0.0000 </r>
       <r>    2.2402    0.0000 </r>
       <r>    2.6420    0.0000 </r>
      </set>
      <set comment="kpoint 10">
       <r>  -21.3152    1.0000 </r>
       <r>  -19.8560    1.0000 </r>
       <r>  -11.7028    1.0000 </r>
       <r>   -9.2932    1.0000 </r>
       <r>   -8.5521    1.0000 </r>
       <r>   -8.4745    1.0000 </r>
       <r>   -7.6180    1.0000 </r>
       <r>   -7.3050    1.0000 </r>
       <r>    1.6696    0.0000 </r>
       <r>    2.4797    0.0000 </r>
       <r>    2.6589    0.0000 </r>
       <r>    2.8856    0.0000 </r>
      </set>
      <set comment="kpoint 11">
       <r>  -21.1210    1.0000 </r>
       <r>  -20.1474    1.0000 </r>
       <r>  -11.1530    1.0000 </r>
       <r>   -9.0660    1.0000 </r>
       <r>   -8.9873    1.0000 </r>
       <r>   -8.3724    1.0000 </r>
       <r>   -7.9453    1.0000 </r>
       <r>   -7.5327    1.0000 </r>
       <r>    1.9349    0.0000 </r>
       <r>    2.7467    0.0000 </r>
       <r>    3.1579    0.0000 </r>
       <r>    3.2160    0.0000 </r>
      </set>
      <set comment="kpoint 12">
       <r>  -20.9070    1.0000 </r>
       <r>  -20.4199    1.0000 </r>
       <r>  -10.6031    1.0000 </r>
       <r>   -9.5162    1.0000 </r>
       <r>   -8.8167    1.0000 </r>
       <r>   -8.2553    1.0000 </r>
       <r>   -8.1785    1.0000 </r>
       <r>   -7.7562    1.0000 </r>
       <r>    2.2279    0.0000 </r>
       <r>    2.8958    0.0000 </r>
       <r>    3.0402    0.0000 </r>
       <r>    3.4586    0.0000 </r>
      </set>
      <set comment="kpoint 13">
       <r>  -20.6732    1.0000 </r>
       <r>  -20.6732    1.0000 </r>
       <r>  -10.0562    1.0000 </r>
       <r>  -10.0562    1.0000 </r>
       <r>   -8.5462    1.0000 </r>
       <r>   -8.5462    1.0000 </r>
       <r>   -7.9724    1.0000 </r>
       <r>   -7.9724    1.0000 </r>
       <r>    2.5483    0.0000 </r>
       <r>    2.5483    0.0000 </r>
       <r>    3.3562    0.0000 </r>
       <r>    3.3562    0.0000 </r>
      </set>
      <set comment="kpoint 14">
       <r>  -22.1348    1.0000 </r>
       <r>  -16.8144    1.0000 </r>
       <r>  -15.8943    1.0000 </r>
       <r>  -10.2616    1.0000 </r>
       <r>   -9.4187    1.0000 </r>
       <r>   -5.9736    1.0000 </r>
       <r>   -5.7855    1.0000 </r>
       <r>   -4.9676    1.0000 </r>
       <r>   -1.1186    0.0000 </r>
       <r>    0.5545    0.0000 </r>
       <r>    1.3540    0.0000 </r>
       <r>    1.7432    0.0000 </r>
      </set>
      <set comment="kpoint 15">
       <r>  -22.1245    1.0000 </r>
       <r>  -16.9975    1.0000 </r>
       <r>  -15.6962    1.0000 </r>
       <r>  -10.2493    1.0000 </r>
       <r>   -9.4083    1.0000 </r>
       <r>   -6.0008    1.0000 </r>
       <r>   -5.8221    1.0000 </r>
       <r>   -5.0365    1.0000 </r>
       <r>   -1.0346    0.0000 </r>
       <r>    0.5685    0.0000 </r>
       <r>    1.3681    0.0000 </r>
       <r>    1.7576    0.0000 </r>
      </set>
      <set comment="kpoint 16">
       <r>  -22.0935    1.0000 </r>
       <r>  -17.3525    1.0000 </r>
       <r>  -15.2961    1.0000 </r>
       <r>  -10.2125    1.0000 </r>
       <r>   -9.3773    1.0000 </r>
       <r>   -6.0838    1.0000 </r>
       <r>   -5.9276    1.0000 </r>
       <r>   -5.2267    1.0000 </r>
       <r>   -0.7991    0.0000 </r>
       <r>    0.6105    0.0000 </r>
       <r>    1.4106    0.0000 </r>
       <r>    1.8006    0.0000 </r>
      </set>
      <set comment="kpoint 17">
       <r>  -22.0419    1.0000 </r>
       <r>  -17.7391    1.0000 </r>
       <r>  -14.8347    1.0000 </r>
       <r>  -10.1512    1.0000 </r>
       <r>   -9.3258    1.0000 </r>
       <r>   -6.2319    1.0000 </r>
       <r>   -6.0848    1.0000 </r>
       <r>   -5.5024    1.0000 </r>
       <r>   -0.4485    0.0000 </r>
       <r>    0.6805    0.0000 </r>
       <r>    1.4813    0.0000 </r>
       <r>    1.8722    0.0000 </r>
      </set>
      <set comment="kpoint 18">
       <r>  -21.9697    1.0000 </r>
       <r>  -18.1247    1.0000 </r>
       <r>  -14.3450    1.0000 </r>
       <r>  -10.0655    1.0000 </r>
       <r>   -9.2540    1.0000 </r>
       <r>   -6.4619    1.0000 </r>
       <r>   -6.2653    1.0000 </r>
       <r>   -5.8291    1.0000 </r>
       <r>   -0.0182    0.0000 </r>
       <r>    0.7785    0.0000 </r>
       <r>    1.5804    0.0000 </r>
       <r>    1.9726    0.0000 </r>
      </set>
      <set comment="kpoint 19">
       <r>  -21.8770    1.0000 </r>
       <r>  -18.4999    1.0000 </r>
       <r>  -13.8371    1.0000 </r>
       <r>   -9.9555    1.0000 </r>
       <r>   -9.1623    1.0000 </r>
       <r>   -6.7693    1.0000 </r>
       <r>   -6.4591    1.0000 </r>
       <r>   -6.1819    1.0000 </r>
       <r>    0.4656    0.0000 </r>
       <r>    0.9044    0.0000 </r>
       <r>    1.7077    0.0000 </r>
       <r>    2.1015    0.0000 </r>
      </set>
      <set comment="kpoint 20">
       <r>  -21.7637    1.0000 </r>
       <r>  -18.8609    1.0000 </r>
       <r>  -13.3157    1.0000 </r>
       <r>   -9.8215    1.0000 </r>
       <r>   -9.0513    1.0000 </r>
       <r>   -7.1373    1.0000 </r>
       <r>   -6.6676    1.0000 </r>
       <r>   -6.5444    1.0000 </r>
       <r>    0.9849    0.0000 </r>
       <r>    1.0584    0.0000 </r>
       <r>    1.8631    0.0000 </r>
       <r>    2.2592    0.0000 </r>
      </set>
      <set comment="kpoint 21">
       <r>  -21.6301    1.0000 </r>
       <r>  -19.2058    1.0000 </r>
       <r>  -12.7840    1.0000 </r>
       <r>   -9.6636    1.0000 </r>
       <r>   -8.9214    1.0000 </r>
       <r>   -7.5532    1.0000 </r>
       <r>   -6.9063    1.0000 </r>
       <r>   -6.8886    1.0000 </r>
       <r>    1.2403    0.0000 </r>
       <r>    1.5273    0.0000 </r>
       <r>    2.0467    0.0000 </r>
       <r>    2.4455    0.0000 </r>
      </set>
      <set comment="kpoint 22">
       <r>  -21.4762    1.0000 </r>
       <r>  -19.5335    1.0000 </r>
       <r>  -12.2443    1.0000 </r>
       <r>   -9.4823    1.0000 </r>
       <r>   -8.7735    1.0000 </r>
       <r>   -8.0072    1.0000 </r>
       <r>   -7.2607    1.0000 </r>
       <r>   -7.1175    1.0000 </r>
       <r>    1.4500    0.0000 </r>
       <r>    2.0834    0.0000 </r>
       <r>    2.2584    0.0000 </r>
       <r>    2.6605    0.0000 </r>
      </set>
      <set comment="kpoint 23">
       <r>  -21.3021    1.0000 </r>
       <r>  -19.8432    1.0000 </r>
       <r>  -11.6992    1.0000 </r>
       <r>   -9.2778    1.0000 </r>
       <r>   -8.6086    1.0000 </r>
       <r>   -8.4914    1.0000 </r>
       <r>   -7.6031    1.0000 </r>
       <r>   -7.3496    1.0000 </r>
       <r>    1.6876    0.0000 </r>
       <r>    2.4979    0.0000 </r>
       <r>    2.6449    0.0000 </r>
       <r>    2.9041    0.0000 </r>
      </set>
      <set comment="kpoint 24">
       <r>  -21.1080    1.0000 </r>
       <r>  -20.1345    1.0000 </r>
       <r>  -11.1515    1.0000 </r>
       <r>   -9.0507    1.0000 </r>
       <r>   -8.9988    1.0000 </r>
       <r>   -8.4279    1.0000 </r>
       <r>   -7.9304    1.0000 </r>
       <r>   -7.5805    1.0000 </r>
       <r>    1.9530    0.0000 </r>
       <r>    2.7648    0.0000 </r>
       <r>    3.1763    0.0000 </r>
       <r>    3.2008    0.0000 </r>
      </set>
      <set comment="kpoint 25">
       <r>  -20.8939    1.0000 </r>
       <r>  -20.4069    1.0000 </r>
       <r>  -10.6039    1.0000 </r>
       <r>   -9.5234    1.0000 </r>
       <r>   -8.8015    1.0000 </r>
       <r>   -8.2402    1.0000 </r>
       <r>   -8.2327    1.0000 </r>
       <r>   -7.8067    1.0000 </r>
       <r>    2.2459    0.0000 </r>
       <r>    2.9140    0.0000 </r>
       <r>    3.0584    0.0000 </r>
       <r>    3.4771    0.0000 </r>
      </set>
      <set comment="kpoint 26">
       <r>  -20.6602    1.0000 </r>
       <r>  -20.6602    1.0000 </r>
       <r>  -10.0599    1.0000 </r>
       <r>  -10.0599    1.0000 </r>
       <r>   -8.5310    1.0000 </r>
       <r>   -8.5310    1.0000 </r>
       <r>   -8.0249    1.0000 </r>
       <r>   -8.0249    1.0000 </r>
       <r>    2.5664    0.0000 </r>
       <r>    2.5664    0.0000 </r>
       <r>    3.3744    0.0000 </r>
       <r>    3.3744    0.0000 </r>
      </set>
      <set comment="kpoint 27">
       <r>  -22.0950    1.0000 </r>
       <r>  -16.7802    1.0000 </r>
       <r>  -15.8619    1.0000 </r>
       <r>  -10.2143    1.0000 </r>
       <r>   -9.5923    1.0000 </r>
       <r>   -6.1336    1.0000 </r>
       <r>   -5.8790    1.0000 </r>
       <r>   -4.9194    1.0000 </r>
       <r>   -1.1354    0.0000 </r>
       <r>    0.6083    0.0000 </r>
       <r>    1.4086    0.0000 </r>
       <r>    1.7985    0.0000 </r>
      </set>
      <set comment="kpoint 28">
       <r>  -22.0847    1.0000 </r>
       <r>  -16.9629    1.0000 </r>
       <r>  -15.6644    1.0000 </r>
       <r>  -10.2020    1.0000 </r>
       <r>   -9.5818    1.0000 </r>
       <r>   -6.1676    1.0000 </r>
       <r>   -5.9067    1.0000 </r>
       <r>   -4.9888    1.0000 </r>
       <r>   -1.0512    0.0000 </r>
       <r>    0.6223    0.0000 </r>
       <r>    1.4227    0.0000 </r>
       <r>    1.8129    0.0000 </r>
      </set>
      <set comment="kpoint 29">
       <r>  -22.0537    1.0000 </r>
       <r>  -17.3172    1.0000 </r>
       <r>  -15.2655    1.0000 </r>
       <r>  -10.1653    1.0000 </r>
       <r>   -9.5506    1.0000 </r>
       <r>   -6.2679    1.0000 </r>
       <r>   -5.9889    1.0000 </r>
       <r>   -5.1801    1.0000 </r>
       <r>   -0.8158    0.0000 </r>
       <r>    0.6643    0.0000 </r>
       <r>    1.4652    0.0000 </r>
       <r>    1.8559    0.0000 </r>
      </set>
      <set comment="kpoint 30">
       <r>  -22.0022    1.0000 </r>
       <r>  -17.7031    1.0000 </r>
       <r>  -14.8056    1.0000 </r>
       <r>  -10.1040    1.0000 </r>
       <r>   -9.4986    1.0000 </r>
       <r>   -6.4313    1.0000 </r>
       <r>   -6.1223    1.0000 </r>
       <r>   -5.4569    1.0000 </r>
       <r>   -0.4660    0.0000 </r>
       <r>    0.7344    0.0000 </r>
       <r>    1.5359    0.0000 </r>
       <r>    1.9275    0.0000 </r>
      </set>
      <set comment="kpoint 31">
       <r>  -21.9300    1.0000 </r>
       <r>  -18.0882    1.0000 </r>
       <r>  -14.3178    1.0000 </r>
       <r>  -10.0184    1.0000 </r>
       <r>   -9.4262    1.0000 </r>
       <r>   -6.6546    1.0000 </r>
       <r>   -6.2991    1.0000 </r>
       <r>   -5.7845    1.0000 </r>
       <r>   -0.0376    0.0000 </r>
       <r>    0.8324    0.0000 </r>
       <r>    1.6349    0.0000 </r>
       <r>    2.0279    0.0000 </r>
      </set>
      <set comment="kpoint 32">
       <r>  -21.8373    1.0000 </r>
       <r>  -18.4629    1.0000 </r>
       <r>  -13.8122    1.0000 </r>
       <r>   -9.9085    1.0000 </r>
       <r>   -9.3336    1.0000 </r>
       <r>   -6.9359    1.0000 </r>
       <r>   -6.5082    1.0000 </r>
       <r>   -6.1377    1.0000 </r>
       <r>    0.4431    0.0000 </r>
       <r>    0.9584    0.0000 </r>
       <r>    1.7622    0.0000 </r>
       <r>    2.1569    0.0000 </r>
      </set>
      <set comment="kpoint 33">
       <r>  -21.7241    1.0000 </r>
       <r>  -18.8234    1.0000 </r>
       <r>  -13.2937    1.0000 </r>
       <r>   -9.7747    1.0000 </r>
       <r>   -9.2214    1.0000 </r>
       <r>   -7.2720    1.0000 </r>
       <r>   -6.7382    1.0000 </r>
       <r>   -6.5004    1.0000 </r>
       <r>    0.9584    0.0000 </r>
       <r>    1.1123    0.0000 </r>
       <r>    1.9176    0.0000 </r>
       <r>    2.3145    0.0000 </r>
      </set>
      <set comment="kpoint 34">
       <r>  -21.5906    1.0000 </r>
       <r>  -19.1680    1.0000 </r>
       <r>  -12.7653    1.0000 </r>
       <r>   -9.6170    1.0000 </r>
       <r>   -9.0899    1.0000 </r>
       <r>   -7.6576    1.0000 </r>
       <r>   -6.9798    1.0000 </r>
       <r>   -6.8622    1.0000 </r>
       <r>    1.2943    0.0000 </r>
       <r>    1.4958    0.0000 </r>
       <r>    2.1012    0.0000 </r>
       <r>    2.5008    0.0000 </r>
      </set>
      <set comment="kpoint 35">
       <r>  -21.4368    1.0000 </r>
       <r>  -19.4954    1.0000 </r>
       <r>  -12.2297    1.0000 </r>
       <r>   -9.4358    1.0000 </r>
       <r>   -8.9400    1.0000 </r>
       <r>   -8.0857    1.0000 </r>
       <r>   -7.2263    1.0000 </r>
       <r>   -7.2164    1.0000 </r>
       <r>    1.5041    0.0000 </r>
[...]
       <r>   -9.0838    1.0000 </r>
       <r>   -5.6382    1.0000 </r>
       <r>   -5.6382    1.0000 </r>
       <r>   -0.5157    0.0000 </r>
       <r>   -0.5157    0.0000 </r>
       <r>    4.8231    0.0000 </r>
       <r>    4.8231    0.0000 </r>
      </set>
      <set comment="kpoint 209">
       <r>  -18.8401    1.0000 </r>
       <r>  -17.1134    1.0000 </r>
       <r>  -13.9335    1.0000 </r>
       <r>  -12.3541    1.0000 </r>
       <r>  -12.3505    1.0000 </r>
       <r>  -10.8641    1.0000 </r>
       <r>   -6.4690    1.0000 </r>
       <r>   -4.6342    1.0000 </r>
       <r>   -0.9925    0.0000 </r>
       <r>    1.1051    0.0000 </r>
       <r>    5.1147    0.0000 </r>
       <r>    5.9036    0.0000 </r>
      </set>
      <set comment="kpoint 210">
       <r>  -18.8304    1.0000 </r>
       <r>  -17.1058    1.0000 </r>
       <r>  -14.0237    1.0000 </r>
       <r>  -12.4349    1.0000 </r>
       <r>  -12.2558    1.0000 </r>
       <r>  -10.7816    1.0000 </r>
       <r>   -6.4602    1.0000 </r>
       <r>   -4.6366    1.0000 </r>
       <r>   -1.0031    0.0000 </r>
       <r>    1.0792    0.0000 </r>
       <r>    5.1284    0.0000 </r>
       <r>    5.9198    0.0000 </r>
      </set>
      <set comment="kpoint 211">
       <r>  -18.8011    1.0000 </r>
       <r>  -17.0834    1.0000 </r>
       <r>  -14.2451    1.0000 </r>
       <r>  -12.6459    1.0000 </r>
       <r>  -12.0097    1.0000 </r>
       <r>  -10.5767    1.0000 </r>
       <r>   -6.4338    1.0000 </r>
       <r>   -4.6442    1.0000 </r>
       <r>   -1.0331    0.0000 </r>
       <r>    1.0036    0.0000 </r>
       <r>    5.1694    0.0000 </r>
       <r>    5.9679    0.0000 </r>
      </set>
      <set comment="kpoint 212">
       <r>  -18.7526    1.0000 </r>
       <r>  -17.0476    1.0000 </r>
       <r>  -14.5250    1.0000 </r>
       <r>  -12.9198    1.0000 </r>
       <r>  -11.6890    1.0000 </r>
       <r>  -10.3154    1.0000 </r>
       <r>   -6.3902    1.0000 </r>
       <r>   -4.6586    1.0000 </r>
       <r>   -1.0772    0.0000 </r>
       <r>    0.8837    0.0000 </r>
       <r>    5.2373    0.0000 </r>
       <r>    6.0469    0.0000 </r>
      </set>
      <set comment="kpoint 213">
       <r>  -18.6848    1.0000 </r>
       <r>  -17.0010    1.0000 </r>
       <r>  -14.8206    1.0000 </r>
       <r>  -13.2193    1.0000 </r>
       <r>  -11.3361    1.0000 </r>
       <r>  -10.0382    1.0000 </r>
       <r>   -6.3299    1.0000 </r>
       <r>   -4.6821    1.0000 </r>
       <r>   -1.1275    0.0000 </r>
       <r>    0.7273    0.0000 </r>
       <r>    5.3314    0.0000 </r>
       <r>    6.1553    0.0000 </r>
      </set>
      <set comment="kpoint 214">
       <r>  -18.5980    1.0000 </r>
       <r>  -16.9487    1.0000 </r>
       <r>  -15.1082    1.0000 </r>
       <r>  -13.5262    1.0000 </r>
       <r>  -10.9727    1.0000 </r>
       <r>   -9.7681    1.0000 </r>
       <r>   -6.2536    1.0000 </r>
       <r>   -4.7176    1.0000 </r>
       <r>   -1.1746    0.0000 </r>
       <r>    0.5434    0.0000 </r>
       <r>    5.4477    0.0000 </r>
       <r>    6.1812    0.0000 </r>
      </set>
      <set comment="kpoint 215">
       <r>  -18.4926    1.0000 </r>
       <r>  -16.9005    1.0000 </r>
       <r>  -15.3691    1.0000 </r>
       <r>  -13.8310    1.0000 </r>
       <r>  -10.6124    1.0000 </r>
       <r>   -9.5202    1.0000 </r>
       <r>   -6.1624    1.0000 </r>
       <r>   -4.7679    1.0000 </r>
       <r>   -1.2093    0.0000 </r>
       <r>    0.3409    0.0000 </r>
       <r>    5.5424    0.0000 </r>
       <r>    5.7919    0.0000 </r>
      </set>
      <set comment="kpoint 216">
       <r>  -18.3691    1.0000 </r>
       <r>  -16.8744    1.0000 </r>
       <r>  -15.5802    1.0000 </r>
       <r>  -14.1281    1.0000 </r>
       <r>  -10.2657    1.0000 </r>
       <r>   -9.3069    1.0000 </r>
       <r>   -6.0575    1.0000 </r>
       <r>   -4.8350    1.0000 </r>
       <r>   -1.2230    0.0000 </r>
       <r>    0.1284    0.0000 </r>
       <r>    5.3062    0.0000 </r>
       <r>    5.8250    0.0000 </r>
      </set>
      <set comment="kpoint 217">
       <r>  -18.2282    1.0000 </r>
       <r>  -16.8974    1.0000 </r>
       <r>  -15.7119    1.0000 </r>
       <r>  -14.4136    1.0000 </r>
       <r>   -9.9420    1.0000 </r>
       <r>   -9.1387    1.0000 </r>
       <r>   -5.9407    1.0000 </r>
       <r>   -4.9200    1.0000 </r>
       <r>   -1.2095    0.0000 </r>
       <r>   -0.0864    0.0000 </r>
       <r>    5.0124    0.0000 </r>
       <r>    5.8350    0.0000 </r>
      </set>
      <set comment="kpoint 218">
       <r>  -18.0708    1.0000 </r>
       <r>  -16.9894    1.0000 </r>
       <r>  -15.7424    1.0000 </r>
       <r>  -14.6843    1.0000 </r>
       <r>   -9.6508    1.0000 </r>
       <r>   -9.0244    1.0000 </r>
       <r>   -5.8141    1.0000 </r>
       <r>   -5.0220    1.0000 </r>
       <r>   -1.1649    0.0000 </r>
       <r>   -0.2966    0.0000 </r>
       <r>    4.7944    0.0000 </r>
       <r>    5.4360    0.0000 </r>
      </set>
      <set comment="kpoint 219">
       <r>  -17.8985    1.0000 </r>
       <r>  -17.1408    1.0000 </r>
       <r>  -15.6801    1.0000 </r>
       <r>  -14.9375    1.0000 </r>
       <r>   -9.4013    1.0000 </r>
       <r>   -8.9712    1.0000 </r>
       <r>   -5.6802    1.0000 </r>
       <r>   -5.1390    1.0000 </r>
       <r>   -1.0880    0.0000 </r>
       <r>   -0.4963    0.0000 </r>
       <r>    4.6665    0.0000 </r>
       <r>    5.1074    0.0000 </r>
      </set>
      <set comment="kpoint 220">
       <r>  -17.7137    1.0000 </r>
       <r>  -17.3250    1.0000 </r>
       <r>  -15.5510    1.0000 </r>
       <r>  -15.1698    1.0000 </r>
       <r>   -9.2021    1.0000 </r>
       <r>   -8.9831    1.0000 </r>
       <r>   -5.5420    1.0000 </r>
       <r>   -5.2673    1.0000 </r>
       <r>   -0.9796    0.0000 </r>
       <r>   -0.6798    0.0000 </r>
       <r>    4.6345    0.0000 </r>
       <r>    4.8592    0.0000 </r>
      </set>
      <set comment="kpoint 221">
       <r>  -17.5202    1.0000 </r>
       <r>  -17.5202    1.0000 </r>
       <r>  -15.3767    1.0000 </r>
       <r>  -15.3767    1.0000 </r>
       <r>   -9.0609    1.0000 </r>
       <r>   -9.0609    1.0000 </r>
       <r>   -5.4030    1.0000 </r>
       <r>   -5.4030    1.0000 </r>
       <r>   -0.8424    0.0000 </r>
       <r>   -0.8424    0.0000 </r>
       <r>    4.6996    0.0000 </r>
       <r>    4.6996    0.0000 </r>
      </set>
      <set comment="kpoint 222">
       <r>  -18.4317    1.0000 </r>
       <r>  -17.5645    1.0000 </r>
       <r>  -13.5670    1.0000 </r>
       <r>  -12.7747    1.0000 </r>
       <r>  -12.0155    1.0000 </r>
       <r>  -11.2659    1.0000 </r>
       <r>   -6.0232    1.0000 </r>
       <r>   -5.1008    1.0000 </r>
       <r>   -0.5005    0.0000 </r>
       <r>    0.5503    0.0000 </r>
       <r>    5.6955    0.0000 </r>
       <r>    6.4510    0.0000 </r>
      </set>
      <set comment="kpoint 223">
       <r>  -18.4221    1.0000 </r>
       <r>  -17.5558    1.0000 </r>
       <r>  -13.6575    1.0000 </r>
       <r>  -12.8618    1.0000 </r>
       <r>  -11.9195    1.0000 </r>
       <r>  -11.1781    1.0000 </r>
       <r>   -6.0157    1.0000 </r>
       <r>   -5.0982    1.0000 </r>
       <r>   -0.5174    0.0000 </r>
       <r>    0.5265    0.0000 </r>
       <r>    5.7091    0.0000 </r>
       <r>    6.4680    0.0000 </r>
      </set>
      <set comment="kpoint 224">
       <r>  -18.3935    1.0000 </r>
       <r>  -17.5299    1.0000 </r>
       <r>  -13.8807    1.0000 </r>
       <r>  -13.0784    1.0000 </r>
       <r>  -11.6803    1.0000 </r>
       <r>  -10.9600    1.0000 </r>
       <r>   -5.9932    1.0000 </r>
       <r>   -5.0908    1.0000 </r>
       <r>   -0.5662    0.0000 </r>
       <r>    0.4569    0.0000 </r>
       <r>    5.7499    0.0000 </r>
       <r>    6.5185    0.0000 </r>
      </set>
      <set comment="kpoint 225">
       <r>  -18.3459    1.0000 </r>
       <r>  -17.4873    1.0000 </r>
       <r>  -14.1649    1.0000 </r>
       <r>  -13.3577    1.0000 </r>
       <r>  -11.3705    1.0000 </r>
       <r>  -10.6802    1.0000 </r>
       <r>   -5.9563    1.0000 </r>
       <r>   -5.0797    1.0000 </r>
       <r>   -0.6417    0.0000 </r>
       <r>    0.3470    0.0000 </r>
       <r>    5.8173    0.0000 </r>
       <r>    6.6010    0.0000 </r>
      </set>
      <set comment="kpoint 226">
       <r>  -18.2797    1.0000 </r>
       <r>  -17.4290    1.0000 </r>
       <r>  -14.4696    1.0000 </r>
       <r>  -13.6613    1.0000 </r>
       <r>  -11.0322    1.0000 </r>
       <r>  -10.3801    1.0000 </r>
       <r>   -5.9058    1.0000 </r>
       <r>   -5.0668    1.0000 </r>
       <r>   -0.7358    0.0000 </r>
       <r>    0.2044    0.0000 </r>
       <r>    5.9097    0.0000 </r>
       <r>    6.7137    0.0000 </r>
      </set>
      <set comment="kpoint 227">
       <r>  -18.1952    1.0000 </r>
       <r>  -17.3567    1.0000 </r>
       <r>  -14.7747    1.0000 </r>
       <r>  -13.9708    1.0000 </r>
       <r>  -10.6876    1.0000 </r>
       <r>  -10.0821    1.0000 </r>
       <r>   -5.8428    1.0000 </r>
       <r>   -5.0545    1.0000 </r>
       <r>   -0.8389    0.0000 </r>
       <r>    0.0382    0.0000 </r>
       <r>    6.0156    0.0000 </r>
       <r>    6.4533    0.0000 </r>
      </set>
      <set comment="kpoint 228">
       <r>  -18.0930    1.0000 </r>
       <r>  -17.2736    1.0000 </r>
       <r>  -15.0682    1.0000 </r>
       <r>  -14.2766    1.0000 </r>
       <r>  -10.3504    1.0000 </r>
       <r>   -9.8013    1.0000 </r>
       <r>   -5.7688    1.0000 </r>
       <r>   -5.0461    1.0000 </r>
       <r>   -0.9408    0.0000 </r>
       <r>   -0.1421    0.0000 </r>
       <r>    5.9000    0.0000 </r>
       <r>    6.2405    0.0000 </r>
      </set>
      <set comment="kpoint 229">
       <r>  -17.9741    1.0000 </r>
       <r>  -17.1853    1.0000 </r>
       <r>  -15.3396    1.0000 </r>
       <r>  -14.5726    1.0000 </r>
       <r>  -10.0318    1.0000 </r>
       <r>   -9.5494    1.0000 </r>
       <r>   -5.6859    1.0000 </r>
       <r>   -5.0451    1.0000 </r>
       <r>   -1.0314    0.0000 </r>
       <r>   -0.3276    0.0000 </r>
       <r>    5.5057    0.0000 </r>
       <r>    5.9986    0.0000 </r>
      </set>
      <set comment="kpoint 230">
       <r>  -17.8396    1.0000 </r>
       <r>  -17.1024    1.0000 </r>
       <r>  -15.5752    1.0000 </r>
       <r>  -14.8546    1.0000 </r>
       <r>   -9.7415    1.0000 </r>
       <r>   -9.3370    1.0000 </r>
       <r>   -5.5966    1.0000 </r>
       <r>   -5.0549    1.0000 </r>
       <r>   -1.1014    0.0000 </r>
       <r>   -0.5097    0.0000 </r>
       <r>    5.1589    0.0000 </r>
       <r>    5.5718    0.0000 </r>
      </set>
      <set comment="kpoint 231">
       <r>  -17.6920    1.0000 </r>
       <r>  -17.0440    1.0000 </r>
       <r>  -15.7542    1.0000 </r>
       <r>  -15.1182    1.0000 </r>
       <r>   -9.4893    1.0000 </r>
       <r>   -9.1736    1.0000 </r>
       <r>   -5.5038    1.0000 </r>
       <r>   -5.0784    1.0000 </r>
       <r>   -1.1433    0.0000 </r>
       <r>   -0.6807    0.0000 </r>
       <r>    4.8886    0.0000 </r>
       <r>    5.2112    0.0000 </r>
      </set>
      <set comment="kpoint 232">
       <r>  -17.5347    1.0000 </r>
       <r>  -17.0377    1.0000 </r>
       <r>  -15.8479    1.0000 </r>
       <r>  -15.3586    1.0000 </r>
       <r>   -9.2842    1.0000 </r>
       <r>   -9.0673    1.0000 </r>
       <r>   -5.4111    1.0000 </r>
       <r>   -5.1175    1.0000 </r>
       <r>   -1.1517    0.0000 </r>
       <r>   -0.8334    0.0000 </r>
       <r>    4.7055    0.0000 </r>
       <r>    4.9274    0.0000 </r>
      </set>
      <set comment="kpoint 233">
       <r>  -17.3744    1.0000 </r>
       <r>  -17.1015    1.0000 </r>
       <r>  -15.8375    1.0000 </r>
       <r>  -15.5685    1.0000 </r>
       <r>   -9.1345    1.0000 </r>
       <r>   -9.0240    1.0000 </r>
       <r>   -5.3224    1.0000 </r>
       <r>   -5.1724    1.0000 </r>
       <r>   -1.1239    0.0000 </r>
       <r>   -0.9616    0.0000 </r>
       <r>    4.6164    0.0000 </r>
       <r>    4.7295    0.0000 </r>
      </set>
      <set comment="kpoint 234">
       <r>  -17.2229    1.0000 </r>
       <r>  -17.2229    1.0000 </r>
       <r>  -15.7352    1.0000 </r>
       <r>  -15.7352    1.0000 </r>
       <r>   -9.0466    1.0000 </r>
       <r>   -9.0466    1.0000 </r>
       <r>   -5.2416    1.0000 </r>
       <r>   -5.2416    1.0000 </r>
       <r>   -1.0598    0.0000 </r>
       <r>   -1.0598    0.0000 </r>
       <r>    4.6245    0.0000 </r>
       <r>    4.6245    0.0000 </r>
      </set>
      <set comment="kpoint 235">
       <r>  -18.0055    1.0000 </r>
       <r>  -18.0055    1.0000 </r>
       <r>  -13.1805    1.0000 </r>
       <r>  -13.1805    1.0000 </r>
       <r>  -11.6511    1.0000 </r>
       <r>  -11.6511    1.0000 </r>
       <r>   -5.5656    1.0000 </r>
       <r>   -5.5656    1.0000 </r>
       <r>    0.0144    0.0000 </r>
       <r>    0.0144    0.0000 </r>
       <r>    6.3061    0.0000 </r>
       <r>    6.3061    0.0000 </r>
      </set>
      <set comment="kpoint 236">
       <r>  -17.9962    1.0000 </r>
       <r>  -17.9962    1.0000 </r>
       <r>  -13.2698    1.0000 </r>
       <r>  -13.2698    1.0000 </r>
       <r>  -11.5587    1.0000 </r>
       <r>  -11.5587    1.0000 </r>
       <r>   -5.5600    1.0000 </r>
       <r>   -5.5600    1.0000 </r>
       <r>   -0.0066    0.0000 </r>
       <r>   -0.0066    0.0000 </r>
       <r>    6.3196    0.0000 </r>
       <r>    6.3196    0.0000 </r>
      </set>
      <set comment="kpoint 237">
       <r>  -17.9686    1.0000 </r>
       <r>  -17.9686    1.0000 </r>
       <r>  -13.4907    1.0000 </r>
       <r>  -13.4907    1.0000 </r>
       <r>  -11.3290    1.0000 </r>
       <r>  -11.3290    1.0000 </r>
       <r>   -5.5435    1.0000 </r>
       <r>   -5.5435    1.0000 </r>
       <r>   -0.0677    0.0000 </r>
       <r>   -0.0677    0.0000 </r>
       <r>    6.3601    0.0000 </r>
       <r>    6.3601    0.0000 </r>
      </set>
      <set comment="kpoint 238">
       <r>  -17.9227    1.0000 </r>
       <r>  -17.9227    1.0000 </r>
       <r>  -13.7738    1.0000 </r>
       <r>  -13.7738    1.0000 </r>
       <r>  -11.0330    1.0000 </r>
       <r>  -11.0330    1.0000 </r>
       <r>   -5.5167    1.0000 </r>
       <r>   -5.5167    1.0000 </r>
       <r>   -0.1637    0.0000 </r>
       <r>   -0.1637    0.0000 </r>
       <r>    6.4268    0.0000 </r>
       <r>    6.4268    0.0000 </r>
      </set>
      <set comment="kpoint 239">
       <r>  -17.8592    1.0000 </r>
       <r>  -17.8592    1.0000 </r>
       <r>  -14.0797    1.0000 </r>
       <r>  -14.0797    1.0000 </r>
       <r>  -10.7124    1.0000 </r>
       <r>  -10.7124    1.0000 </r>
       <r>   -5.4808    1.0000 </r>
       <r>   -5.4808    1.0000 </r>
       <r>   -0.2866    0.0000 </r>
       <r>   -0.2866    0.0000 </r>
       <r>    6.5159    0.0000 </r>
       <r>    6.5159    0.0000 </r>
      </set>
      <set comment="kpoint 240">
       <r>  -17.7787    1.0000 </r>
       <r>  -17.7787    1.0000 </r>
       <r>  -14.3895    1.0000 </r>
       <r>  -14.3895    1.0000 </r>
       <r>  -10.3897    1.0000 </r>
       <r>  -10.3897    1.0000 </r>
       <r>   -5.4378    1.0000 </r>
       <r>   -5.4378    1.0000 </r>
       <r>   -0.4273    0.0000 </r>
       <r>   -0.4273    0.0000 </r>
       <r>    6.5698    0.0000 </r>
       <r>    6.5699    0.0000 </r>
      </set>
      <set comment="kpoint 241">
       <r>  -17.6825    1.0000 </r>
       <r>  -17.6825    1.0000 </r>
       <r>  -14.6930    1.0000 </r>
       <r>  -14.6930    1.0000 </r>
       <r>  -10.0790    1.0000 </r>
       <r>  -10.0790    1.0000 </r>
       <r>   -5.3898    1.0000 </r>
       <r>   -5.3898    1.0000 </r>
       <r>   -0.5758    0.0000 </r>
       <r>   -0.5758    0.0000 </r>
       <r>    6.1820    0.0000 </r>
       <r>    6.1820    0.0000 </r>
      </set>
      <set comment="kpoint 242">
       <r>  -17.5726    1.0000 </r>
       <r>  -17.5726    1.0000 </r>
       <r>  -14.9832    1.0000 </r>
       <r>  -14.9832    1.0000 </r>
       <r>   -9.7920    1.0000 </r>
       <r>   -9.7920    1.0000 </r>
       <r>   -5.3399    1.0000 </r>
       <r>   -5.3399    1.0000 </r>
       <r>   -0.7224    0.0000 </r>
       <r>   -0.7224    0.0000 </r>
       <r>    5.7356    0.0000 </r>
       <r>    5.7356    0.0000 </r>
      </set>
      <set comment="kpoint 243">
       <r>  -17.4523    1.0000 </r>
       <r>  -17.4523    1.0000 </r>
       <r>  -15.2539    1.0000 </r>
       <r>  -15.2539    1.0000 </r>
       <r>   -9.5389    1.0000 </r>
       <r>   -9.5389    1.0000 </r>
       <r>   -5.2913    1.0000 </r>
       <r>   -5.2913    1.0000 </r>
       <r>   -0.8578    0.0000 </r>
       <r>   -0.8578    0.0000 </r>
       <r>    5.3457    0.0000 </r>
       <r>    5.3457    0.0000 </r>
      </set>
      <set comment="kpoint 244">
       <r>  -17.3277    1.0000 </r>
       <r>  -17.3277    1.0000 </r>
       <r>  -15.4969    1.0000 </r>
       <r>  -15.4969    1.0000 </r>
       <r>   -9.3293    1.0000 </r>
       <r>   -9.3293    1.0000 </r>
       <r>   -5.2479    1.0000 </r>
       <r>   -5.2479    1.0000 </r>
       <r>   -0.9735    0.0000 </r>
       <r>   -0.9735    0.0000 </r>
       <r>    5.0280    0.0000 </r>
       <r>    5.0280    0.0000 </r>
      </set>
      <set comment="kpoint 245">
       <r>  -17.2101    1.0000 </r>
       <r>  -17.2101    1.0000 </r>
       <r>  -15.6998    1.0000 </r>
       <r>  -15.6998    1.0000 </r>
       <r>   -9.1722    1.0000 </r>
       <r>   -9.1722    1.0000 </r>
       <r>   -5.2134    1.0000 </r>
       <r>   -5.2134    1.0000 </r>
       <r>   -1.0621    0.0000 </r>
       <r>   -1.0621    0.0000 </r>
       <r>    4.7928    0.0000 </r>
       <r>    4.7928    0.0000 </r>
      </set>
      <set comment="kpoint 246">
       <r>  -17.1198    1.0000 </r>
       <r>  -17.1198    1.0000 </r>
       <r>  -15.8416    1.0000 </r>
       <r>  -15.8416    1.0000 </r>
       <r>   -9.0747    1.0000 </r>
       <r>   -9.0747    1.0000 </r>
       <r>   -5.1912    1.0000 </r>
       <r>   -5.1912    1.0000 </r>
       <r>   -1.1177    0.0000 </r>
       <r>   -1.1177    0.0000 </r>
       <r>    4.6482    0.0000 </r>
       <r>    4.6482    0.0000 </r>
      </set>
      <set comment="kpoint 247">
       <r>  -17.0845    1.0000 </r>
       <r>  -17.0845    1.0000 </r>
       <r>  -15.8941    1.0000 </r>
       <r>  -15.8941    1.0000 </r>
       <r>   -9.0417    1.0000 </r>
       <r>   -9.0417    1.0000 </r>
       <r>   -5.1835    1.0000 </r>
       <r>   -5.1835    1.0000 </r>
       <r>   -1.1367    0.0000 </r>
       <r>   -1.1367    0.0000 </r>
       <r>    4.5994    0.0000 </r>
       <r>    4.5994    0.0000 </r>
      </set>
     </set>
    </set>
   </array>
  </eigenvalues>
  <separator name="orbital magnetization" >
   <v name="MAGDIPOLOUT">      0.00000000      0.00000000      0.00000000</v>
  </separator>
 </calculation>
 <structure name="finalpos" >
  <crystal>
   <varray name="basis" >
    <v>       4.26182167       0.00000000       0.00000000 </v>
    <v>       0.00000000       2.50505083       0.00000000 </v>
    <v>       0.00000000       0.00000000      19.74862524 </v>
   </varray>
   <i name="volume">    210.83790140 </i>
   <varray name="rec_basis" >
    <v>       0.23464145       0.00000000       0.00000000 </v>
    <v>       0.00000000       0.39919350       0.00000000 </v>
    <v>       0.00000000       0.00000000       0.05063644 </v>
   </varray>
  </crystal>
  <varray name="positions" >
   <v>       0.00040041       0.00000000      -0.00000000 </v>
   <v>       0.16626626       0.50000000       0.00000000 </v>
   <v>       0.50040041       0.50000000      -0.00000000 </v>
   <v>       0.66626626      -0.00000000       0.00000000 </v>
  </varray>
 </structure>
</modeling>
