gr                                      
           1
     4.261822    0.000000    0.000000
     0.000000    2.505051    0.000000
     0.000000    0.000000   19.748625
   C 
   4
Direct configuration=     1
   0.00039382  0.00000000  0.00000000
   0.16627284  0.50000000  0.00000000
   0.50039382  0.50000000  0.00000000
   0.66627284  0.00000000  0.00000000
Direct configuration=     2
   0.00042724 -0.00000000 -0.00000000
   0.16623942  0.50000000  0.00000000
   0.50042724  0.50000000 -0.00000000
   0.66623942 -0.00000000  0.00000000
Direct configuration=     3
   0.00040041 -0.00000000 -0.00000000
   0.16626625  0.50000000  0.00000000
   0.50040041  0.50000000 -0.00000000
   0.66626625 -0.00000000  0.00000000
Direct configuration=     4
   0.00040041  0.00000000 -0.00000000
   0.16626626  0.50000000  0.00000000
   0.50040041  0.50000000 -0.00000000
   0.66626626 -0.00000000  0.00000000
