    4    4  400    1
  0.5270948E+02  0.4336933E-09  0.2460918E-09  0.1975463E-08  0.5000000E-15
  1.000000000000000E-004
  CAR 
 gr                                      
     16    247     12
 
  0.0000000E+00  0.0000000E+00  0.0000000E+00  0.1157407E-02
    1      -22.150619
    2      -17.165496
    3      -15.891870
    4      -10.279374
    5       -8.943812
    6       -5.921145
    7       -5.749241
    8       -5.246710
    9       -1.143825
   10        0.536206
   11        1.335563
   12        1.724648
 
  0.4166667E-01  0.0000000E+00  0.0000000E+00  0.2314815E-02
    1      -22.140666
    2      -17.299956
    3      -15.742315
    4      -10.267531
    5       -8.934072
    6       -5.964830
    7       -5.770296
    8       -5.308473
    9       -1.066218
   10        0.549684
   11        1.349229
   12        1.738482
 
  0.8333333E-01  0.0000000E+00  0.0000000E+00  0.2314815E-02
    1      -22.110811
    2      -17.597853
    3      -15.399210
    4      -10.232020
    5       -8.904901
    6       -6.093918
    7       -5.832337
    8       -5.480727
    9       -0.846593
   10        0.590122
   11        1.390221
   12        1.779987
 
  0.1250000E+00  0.0000000E+00  0.0000000E+00  0.2314815E-02
    1      -22.061076
    2      -17.946897
    3      -14.975086
    4      -10.172900
    5       -8.856452
    6       -6.302863
    7       -5.932176
    8       -5.733903
    9       -0.515009
   10        0.657535
   11        1.458527
   12        1.849165
 
  0.1666667E+00  0.0000000E+00  0.0000000E+00  0.2314815E-02
    1      -21.991493
    2      -18.305805
    3      -14.511636
    4      -10.090268
    5       -8.788986
    6       -6.583499
    7       -6.065042
    8       -6.037769
    9       -0.102526
   10        0.751938
   11        1.554122
   12        1.946019
 
  0.2083333E+00  0.0000000E+00  0.0000000E+00  0.2314815E-02
    1      -21.902113
    2      -18.660023
    3      -14.024006
    4       -9.984265
    5       -8.702879
    6       -6.926207
    7       -6.369112
    8       -6.225202
    9        0.366445
   10        0.873339
   11        1.676966
   12        2.070551
 
  0.2500000E+00  0.0000000E+00  0.0000000E+00  0.2314815E-02
    1      -21.792999
    2      -19.003427
    3      -13.519102
    4       -9.855082
    5       -8.598634
    6       -7.320979
    7       -6.712062
    8       -6.406563
    9        0.874431
   10        1.021733
   11        1.827000
   12        2.222761
 
  0.2916667E+00  0.0000000E+00  0.0000000E+00  0.2314815E-02
    1      -21.664235
    2      -19.332979
    3      -13.000963
    4       -9.702965
    5       -8.476897
    6       -7.758197
    7       -7.056128
    8       -6.603149
    9        1.197102
   10        1.408828
   11        2.004131
   12        2.402647
 
  0.3333333E+00  0.0000000E+00  0.0000000E+00  0.2314815E-02
    1      -21.515920
    2      -19.646960
    3      -12.472558
    4       -9.528228
    5       -8.338478
    6       -8.229082
    7       -7.394338
    8       -6.809411
    9        1.399412
   10        1.959803
   11        2.208203
   12        2.610206
 
  0.3750000E+00  0.0000000E+00  0.0000000E+00  0.2314815E-02
    1      -21.348173
    2      -19.944290
    3      -11.936501
    4       -9.331263
    5       -8.725885
    6       -8.184376
    7       -7.721959
    8       -7.020390
    9        1.628616
   10        2.438931
   11        2.518104
   12        2.845429
 
  0.4166667E+00  0.0000000E+00  0.0000000E+00  0.2314815E-02
    1      -21.161138
    2      -20.224229
    3      -11.395392
    4       -9.241902
    5       -9.112565
    6       -8.035688
    7       -8.015816
    8       -7.231774
    9        1.884645
   10        2.695699
   11        3.068631
   12        3.108303
 
  0.4583333E+00  0.0000000E+00  0.0000000E+00  0.2314815E-02
    1      -20.954990
    2      -20.486247
    3      -10.852015
    4       -9.771399
    5       -8.872753
    6       -8.333154
    7       -7.834283
    8       -7.439874
    9        2.167411
   10        2.812604
   11        2.976787
   12        3.398807
 
  0.5000000E+00  0.0000000E+00  0.0000000E+00  0.1157407E-02
    1      -20.729940
    2      -20.729940
    3      -10.309491
    4      -10.309491
    5       -8.612614
    6       -8.612614
    7       -7.641579
    8       -7.641579
    9        2.476789
   10        2.476789
   11        3.274468
   12        3.274468
 
  0.0000000E+00  0.2777778E-01  0.0000000E+00  0.2314815E-02
    1      -22.136853
    2      -17.153600
    3      -15.880158
    4      -10.262994
    5       -9.006456
    6       -5.948842
    7       -5.807432
    8       -5.230042
    9       -1.146840
   10        0.554868
   11        1.354434
   12        1.743752
 
  0.4166667E-01  0.2777778E-01  0.0000000E+00  0.4629630E-02
    1      -22.126900
    2      -17.287923
    3      -15.730786
    4      -10.251154
    5       -8.996702
    6       -5.994451
    7       -5.825931
    8       -5.291930
    9       -1.069216
   10        0.568345
   11        1.368099
   12        1.757587
 
  0.8333333E-01  0.2777778E-01  0.0000000E+00  0.4629630E-02
    1      -22.097050
    2      -17.585583
    3      -15.388061
    4      -10.215656
    5       -8.967490
    6       -6.125902
    7       -5.883826
    8       -5.464478
    9       -0.849622
   10        0.608785
   11        1.409089
   12        1.799092
 
  0.1250000E+00  0.2777778E-01  0.0000000E+00  0.4629630E-02
    1      -22.047322
    2      -17.934408
    3      -14.964399
    4      -10.156555
    5       -8.918970
    6       -6.334656
    7       -5.981222
    8       -5.717965
    9       -0.518270
   10        0.676199
   11        1.477391
   12        1.868271
 
  0.1666667E+00  0.2777778E-01  0.0000000E+00  0.4629630E-02
    1      -21.977750
    2      -18.293127
    3      -14.501488
    4      -10.073951
    5       -8.851397
    6       -6.612726
    7       -6.113539
    8       -6.022068
    9       -0.106313
   10        0.770605
   11        1.572981
   12        1.965125
 
  0.2083333E+00  0.2777778E-01  0.0000000E+00  0.4629630E-02
    1      -21.888385
    2      -18.647183
    3      -14.014488
    4       -9.967984
    5       -8.765141
    6       -6.951476
    7       -6.353555
    8       -6.274393
    9        0.361820
   10        0.892010
   11        1.695819
   12        2.089658
 
  0.2500000E+00  0.2777778E-01  0.0000000E+00  0.4629630E-02
    1      -21.779290
    2      -18.990447
    3      -13.510326
    4       -9.838845
    5       -8.660696
    6       -7.341737
    7       -6.696568
    8       -6.457108
    9        0.868673
   10        1.040411
   11        1.845847
   12        2.241870
 
  0.2916667E+00  0.2777778E-01  0.0000000E+00  0.4629630E-02
    1      -21.650548
    2      -19.319880
    3      -12.993062
    4       -9.686780
    5       -8.538695
    6       -7.774432
    7       -7.040638
    8       -6.655317
    9        1.215789
   10        1.401684
   11        2.022972
   12        2.421760
 
  0.3333333E+00  0.2777778E-01  0.0000000E+00  0.4629630E-02
    1      -21.502260
    2      -19.633757
    3      -12.465692
    4       -9.512102
    5       -8.399935
    6       -8.241086
    7       -7.378813
    8       -6.863232
    9        1.418109
   10        1.951092
   11        2.227042
   12        2.629322
 
  0.3750000E+00  0.2777778E-01  0.0000000E+00  0.4629630E-02
    1      -21.334544
    2      -19.930996
    3      -11.930864
    4       -9.315203
    5       -8.734093
    6       -8.245400
    7       -7.706374
    8       -7.075763
    9        1.647324
   10        2.457773
   11        2.507836
   12        2.864549
 
  0.4166667E+00  0.2777778E-01  0.0000000E+00  0.4629630E-02
    1      -21.147547
    2      -20.210858
    3      -11.391212
    4       -9.246791
    5       -9.096578
    6       -8.076293
    7       -8.020028
    8       -7.288533
    9        1.903366
   10        2.714556
   11        3.057802
   12        3.127430
 
  0.4583333E+00  0.2777778E-01  0.0000000E+00  0.4629630E-02
    1      -20.941442
    2      -20.472808
    3      -10.849568
    4       -9.773435
    5       -8.856844
    6       -8.317412
    7       -7.894081
    8       -7.497830
    9        2.186147
   10        2.831397
   11        2.995669
   12        3.417947
 
  0.5000000E+00  0.2777778E-01  0.0000000E+00  0.2314815E-02
    1      -20.716443
    2      -20.716443
    3      -10.309099
    4      -10.309099
    5       -8.596787
    6       -8.596787
    7       -7.700543
    8       -7.700543
    9        2.495547
   10        2.495547
   11        3.293159
   12        3.293159
 
  0.0000000E+00  0.5555556E-01  0.0000000E+00  0.2314815E-02
    1      -22.095563
    2      -17.117917
    3      -15.845167
    4      -10.213886
    5       -9.189335
    6       -6.031415
    7       -5.977276
    8       -5.180058
    9       -1.156703
   10        0.610853
   11        1.411038
   12        1.801067
 
  0.4166667E-01  0.5555556E-01  0.0000000E+00  0.4629630E-02
    1      -22.085615
    2      -17.251837
    3      -15.696342
    4      -10.202059
    5       -9.179537
    6       -6.091122
    7       -5.979822
    8       -5.242335
    9       -1.079020
   10        0.624330
   11        1.424701
   12        1.814902
 
  0.8333333E-01  0.5555556E-01  0.0000000E+00  0.4629630E-02
    1      -22.055778
    2      -17.548792
    3      -15.354759
    4      -10.166597
    5       -9.150187
    6       -6.232000
    7       -6.023045
    8       -5.415787
    9       -0.859514
   10        0.664770
   11        1.465684
   12        1.856407
 
  0.1250000E+00  0.5555556E-01  0.0000000E+00  0.4629630E-02
    1      -22.006073
    2      -17.896961
    3      -14.932499
    4      -10.107557
    5       -9.101429
    6       -6.439250
    7       -6.114154
    8       -5.670225
    9       -0.528869
   10        0.732187
   11        1.533974
   12        1.925587
 
  0.1666667E+00  0.5555556E-01  0.0000000E+00  0.4629630E-02
    1      -21.936535
    2      -18.255112
    3      -14.471231
    4      -10.025038
    5       -9.033501
    6       -6.708419
    7       -6.246105
    8       -5.975052
    9       -0.118517
   10        0.826599
   11        1.629548
   12        2.022443
 
  0.2083333E+00  0.5555556E-01  0.0000000E+00  0.4629630E-02
    1      -21.847214
    2      -18.608680
    3      -13.986164
    4       -9.919180
    5       -8.946751
    6       -7.034119
    7       -6.410274
    8       -6.306974
    9        0.347054
   10        0.948015
   11        1.752368
   12        2.146979
 
  0.2500000E+00  0.5555556E-01  0.0000000E+00  0.4629630E-02
    1      -21.738173
    2      -18.951525
    3      -13.484278
    4       -9.790175
    5       -8.841642
    6       -7.409683
    7       -6.650178
    8       -6.598234
    9        0.850445
   10        1.096430
   11        1.902376
   12        2.299196
 
  0.2916667E+00  0.5555556E-01  0.0000000E+00  0.4629630E-02
    1      -21.609500
    2      -19.280596
    3      -12.969711
    4       -9.638266
    5       -8.718770
    6       -7.827717
    7       -6.994258
    8       -6.802393
    9        1.271828
   10        1.379210
   11        2.079484
   12        2.479092
 
  0.3333333E+00  0.5555556E-01  0.0000000E+00  0.4629630E-02
    1      -21.461291
    2      -19.594161
    3      -12.445544
    4       -9.463768
    5       -8.578884
    6       -8.280717
    7       -7.332322
    8       -7.016204
    9        1.474171
   10        1.923791
   11        2.283544
   12        2.686663
 
  0.3750000E+00  0.5555556E-01  0.0000000E+00  0.4629630E-02
    1      -21.293672
    2      -19.891129
    3      -11.914527
    4       -9.267072
    5       -8.761531
    6       -8.422912
    7       -7.659695
    8       -7.234163
    9        1.703412
   10        2.475640
   11        2.514285
   12        2.921902
 
  0.4166667E+00  0.5555556E-01  0.0000000E+00  0.4629630E-02
    1      -21.106786
    2      -20.170757
    3      -11.379421
    4       -9.263627
    5       -9.048669
    6       -8.251993
    7       -7.973118
    8       -7.451705
    9        1.959484
   10        2.771115
   11        3.023067
   12        3.184799
 
  0.4583333E+00  0.5555556E-01  0.0000000E+00  0.4629630E-02
    1      -20.900811
    2      -20.432505
    3      -10.843198
    4       -9.781202
    5       -8.809175
    6       -8.270251
    7       -8.067519
    8       -7.665075
    9        2.242301
   10        2.887676
   11        3.052307
   12        3.475387
 
  0.5000000E+00  0.5555556E-01  0.0000000E+00  0.2314815E-02
    1      -20.675964
    2      -20.675964
    3      -10.309189
    4      -10.309189
    5       -8.549370
    6       -8.549370
    7       -7.871189
    8       -7.871189
    9        2.551750
   10        2.551750
   11        3.349124
   12        3.349124
 
  0.0000000E+00  0.8333333E-01  0.0000000E+00  0.2314815E-02
    1      -22.026784
    2      -17.058458
    3      -15.787357
    4      -10.132157
    5       -9.478710
    6       -6.246054
    7       -6.167321
    8       -5.096822
    9       -1.175861
   10        0.704165
   11        1.505355
   12        1.896593
 
  0.4166667E-01  0.8333333E-01  0.0000000E+00  0.4629630E-02
    1      -22.016844
    2      -17.191731
    3      -15.639433
    4      -10.120350
    5       -9.468822
    6       -6.306136
    7       -6.166518
    8       -5.159785
    9       -1.098061
   10        0.717641
   11        1.519013
   12        1.910427
 
  0.8333333E-01  0.8333333E-01  0.0000000E+00  0.4629630E-02
    1      -21.987030
    2      -17.487534
    3      -15.299768
    4      -10.084951
    5       -9.439197
    6       -6.445542
    7       -6.202781
    8       -5.334825
    9       -0.878678
   10        0.758077
   11        1.559983
   12        1.951933
 
  0.1250000E+00  0.8333333E-01  0.0000000E+00  0.4629630E-02
    1      -21.937365
    2      -17.834616
    3      -14.879901
    4      -10.026015
    5       -9.389959
    6       -6.643580
    7       -6.290495
    8       -5.590922
    9       -0.549234
   10        0.825491
   11        1.628251
   12        2.021112
 
  0.1666667E+00  0.8333333E-01  0.0000000E+00  0.4629630E-02
    1      -21.867883
    2      -18.191821
    3      -14.421474
    4       -9.943642
    5       -9.321319
    6       -6.895011
    7       -6.425064
    8       -5.896996
    9       -0.141647
   10        0.919902
   11        1.723796
   12        2.117970
 
  0.2083333E+00  0.8333333E-01  0.0000000E+00  0.4629630E-02
    1      -21.778634
    2      -18.544573
    3      -13.939770
    4       -9.837971
    5       -9.233578
    6       -7.196433
    7       -6.597485
    8       -6.229659
    9        0.319500
   10        1.041322
   11        1.846581
   12        2.242509
 
  0.2500000E+00  0.8333333E-01  0.0000000E+00  0.4629630E-02
    1      -21.669687
    2      -18.886716
    3      -13.441880
    4       -9.709194
    5       -9.127141
    6       -7.544327
    7       -6.797431
    8       -6.573176
    9        0.816910
   10        1.189749
   11        1.996550
   12        2.394731
 
  0.2916667E+00  0.8333333E-01  0.0000000E+00  0.4629630E-02
    1      -21.541126
    2      -19.215180
    3      -12.932078
    4       -9.557556
    5       -9.002525
    6       -7.934309
    7       -7.015099
    8       -6.917260
    9        1.338326
   10        1.365164
   11        2.173623
   12        2.574635
 
  0.3333333E+00  0.8333333E-01  0.0000000E+00  0.4629630E-02
    1      -21.393052
    2      -19.528220
    3      -12.413613
    4       -9.383368
    5       -8.860382
    6       -8.360991
    7       -7.255121
    8       -7.242216
    9        1.567530
   10        1.874490
   11        2.377661
   12        2.782217
 
  0.3750000E+00  0.8333333E-01  0.0000000E+00  0.4629630E-02
    1      -21.225591
    2      -19.824735
    3      -11.889441
    4       -9.187021
    5       -8.818335
    6       -8.701517
    7       -7.582163
    8       -7.472269
    9        1.796796
   10        2.417518
   11        2.608416
   12        3.017470
 
  0.4166667E+00  0.8333333E-01  0.0000000E+00  0.4629630E-02
    1      -21.038892
    2      -20.103971
    3      -11.362568
    4       -9.300164
    5       -8.969001
    6       -8.526921
    7       -7.895181
    8       -7.700266
    9        2.052895
   10        2.865330
   11        2.958436
   12        3.280386
 
  0.4583333E+00  0.8333333E-01  0.0000000E+00  0.4629630E-02
    1      -20.833136
    2      -20.365378
    3      -10.836265
    4       -9.800581
    5       -8.729920
    6       -8.337809
    7       -8.191876
    8       -7.922389
    9        2.335742
   10        2.981214
   11        3.146681
   12        3.463249
 
  0.5000000E+00  0.8333333E-01  0.0000000E+00  0.2314815E-02
    1      -20.608543
    2      -20.608543
    3      -10.314207
    4      -10.314207
    5       -8.470550
    6       -8.470550
    7       -8.135680
    8       -8.135680
    9        2.645228
   10        2.645228
   11        3.441840
   12        3.441840
 
  0.0000000E+00  0.1111111E+00  0.0000000E+00  0.2314815E-02
    1      -21.930579
    2      -16.975244
    3      -15.707592
    4      -10.017982
    5       -9.855494
    6       -6.596447
    7       -6.354006
    8       -4.980440
    9       -1.208387
   10        0.834805
   11        1.637344
   12        2.030332
 
  0.4166667E-01  0.1111111E+00  0.0000000E+00  0.4629630E-02
    1      -21.920649
    2      -17.107663
    3      -15.560907
    4      -10.006207
    5       -9.845445
    6       -6.645077
    7       -6.360747
    8       -5.044455
    9       -1.130371
   10        0.848277
   11        1.650994
   12        2.044166
 
  0.8333333E-01  0.1111111E+00  0.0000000E+00  0.4629630E-02
    1      -21.890869
    2      -17.401905
    3      -15.223969
    4       -9.970898
    5       -9.815329
    6       -6.773761
    7       -6.396573
    8       -5.221906
    9       -0.911087
   10        0.888701
   11        1.691943
   12        2.085669
 
  0.1250000E+00  0.1111111E+00  0.0000000E+00  0.4629630E-02
    1      -21.841258
    2      -17.747482
    3      -14.807600
    4       -9.912115
    5       -9.765237
    6       -6.960229
    7       -6.479006
    8       -5.480484
    9       -0.583349
   10        0.956098
   11        1.760176
   12        2.154846
 
  0.1666667E+00  0.1111111E+00  0.0000000E+00  0.4629630E-02
    1      -21.771854
    2      -18.103361
    3      -14.353399
    4       -9.829954
    5       -9.695325
    6       -7.192843
    7       -6.611933
    8       -5.788393
    9       -0.179803
   10        1.050491
   11        1.855672
   12        2.251702
 
  0.2083333E+00  0.1111111E+00  0.0000000E+00  0.4629630E-02
    1      -21.682709
    2      -18.454963
    3      -13.876768
    4       -9.724558
    5       -9.605811
    6       -7.465995
    7       -6.790660
    8       -6.122123
    9        0.274854
   10        1.171897
   11        1.978397
   12        2.376242
 
  0.2500000E+00  0.1111111E+00  0.0000000E+00  0.4629630E-02
    1      -21.573892
    2      -18.796112
    3      -13.384981
    4       -9.596116
    5       -9.496986
    6       -7.777211
    7       -7.005536
    8       -6.466071
    9        0.763488
   10        1.320316
   11        2.128300
   12        2.528467
 
  0.2916667E+00  0.1111111E+00  0.0000000E+00  0.4629630E-02
    1      -21.445488
    2      -19.123718
    3      -12.882548
    4       -9.444874
    5       -9.369215
    6       -8.125486
    7       -7.244546
    8       -6.810130
    9        1.274112
   10        1.495730
   11        2.305306
   12        2.708377
 
  0.3333333E+00  0.1111111E+00  0.0000000E+00  0.4629630E-02
    1      -21.297604
    2      -19.436017
    3      -12.373024
    4       -9.271141
    5       -9.222949
    6       -8.509683
    7       -7.495800
    8       -7.147665
    9        1.698102
   10        1.797832
   11        2.509297
   12        2.915968
 
  0.3750000E+00  0.1111111E+00  0.0000000E+00  0.4629630E-02
    1      -21.130367
    2      -19.731890
    3      -11.859742
    4       -9.075306
    5       -9.058732
    6       -8.927303
    7       -7.749458
    8       -7.474198
    9        1.927374
   10        2.327427
   11        2.740057
   12        3.151234
 
  0.4166667E+00  0.1111111E+00  0.0000000E+00  0.4629630E-02
    1      -20.943931
    2      -20.010571
    3      -11.346189
    4       -9.374186
    5       -8.877226
    6       -8.857850
    7       -7.998469
    8       -7.786606
    9        2.183476
   10        2.855999
   11        2.997101
   12        3.414166
 
  0.4583333E+00  0.1111111E+00  0.0000000E+00  0.4629630E-02
    1      -20.738484
    2      -20.271500
    3      -10.836217
    4       -9.845033
    5       -8.679237
    6       -8.619380
    7       -8.238221
    8       -8.082645
    9        2.466321
   10        3.111781
   11        3.278754
   12        3.371119
 
  0.5000000E+00  0.1111111E+00  0.0000000E+00  0.2314815E-02
    1      -20.514248
    2      -20.514248
    3      -10.334188
    4      -10.334188
    5       -8.465785
    6       -8.465785
    7       -8.360655
    8       -8.360655
    9        2.775801
   10        2.775801
   11        3.568587
   12        3.568587
 
  0.0000000E+00  0.1388889E+00  0.0000000E+00  0.2314815E-02
    1      -21.807032
    2      -16.868305
    3      -15.607336
    4      -10.298699
    5       -9.871619
    6       -7.010096
    7       -6.587979
    8       -4.831067
    9       -1.259888
   10        1.002769
   11        1.806947
   12        2.202286
 
  0.4166667E-01  0.1388889E+00  0.0000000E+00  0.4629630E-02
    1      -21.797117
    2      -16.999722
    3      -15.462209
    4      -10.288376
    5       -9.859885
    6       -7.056588
    7       -6.592227
    8       -4.896613
    9       -1.181475
   10        1.016233
   11        1.820587
   12        2.216118
 
  0.8333333E-01  0.1388889E+00  0.0000000E+00  0.4629630E-02
    1      -21.767378
    2      -17.292054
    3      -15.128880
    4      -10.257418
    5       -9.824701
    6       -7.182121
    7       -6.617914
    8       -5.077529
    9       -0.962130
   10        1.056633
   11        1.861500
   12        2.257618
 
  0.1250000E+00  0.1388889E+00  0.0000000E+00  0.4629630E-02
    1      -21.717839
    2      -17.635725
    3      -14.717336
    4      -10.205856
    5       -9.766124
    6       -7.363911
    7       -6.684711
    8       -5.339601
    9       -0.636576
   10        1.123992
   11        1.929676
   12        2.326789
 
  0.1666667E+00  0.1388889E+00  0.0000000E+00  0.4629630E-02
    1      -21.648537
    2      -17.989895
    3      -14.269120
    4      -10.133739
    5       -9.684254
    6       -7.586474
    7       -6.802647
    8       -5.650030
    9       -0.238454
   10        1.218340
   11        2.025092
   12        2.423638
 
  0.2083333E+00  0.1388889E+00  0.0000000E+00  0.4629630E-02
    1      -21.559526
    2      -18.340003
    3      -13.799825
    4      -10.041128
    5       -9.579232
    6       -7.840926
    7       -6.972743
    8       -5.985176
    9        0.207425
   10        1.339700
   11        2.147716
   12        2.548172
 
  0.2500000E+00  0.1388889E+00  0.0000000E+00  0.4629630E-02
    1      -21.450876
    2      -18.679858
    3      -13.317040
    4       -9.928083
    5       -9.451248
    6       -8.122651
    7       -7.189628
    8       -6.329650
    9        0.684197
   10        1.488078
   11        2.297501
   12        2.700394
 
  0.2916667E+00  0.1388889E+00  0.0000000E+00  0.4629630E-02
    1      -21.322677
    2      -19.006343
    3      -12.825705
    4       -9.794652
    5       -9.300548
    6       -8.430180
    7       -7.443306
    8       -6.673613
    9        1.180255
   10        1.663458
   11        2.474383
   12        2.880305
 
  0.3333333E+00  0.1388889E+00  0.0000000E+00  0.4629630E-02
    1      -21.175037
    2      -19.317674
    3      -12.329944
    4       -9.640850
    5       -9.127439
    6       -8.764408
    7       -7.720790
    8       -7.010649
    9        1.687142
   10        1.865801
   11        2.678264
   12        3.087901
 
  0.3750000E+00  0.1388889E+00  0.0000000E+00  0.4629630E-02
    1      -21.008090
    2      -19.612710
    3      -11.833838
    4       -9.466643
    5       -9.127363
    6       -8.932307
    7       -8.008117
    8       -7.336440
    9        2.095045
   10        2.198234
   11        2.908983
   12        3.323176
 
  0.4166667E+00  0.1388889E+00  0.0000000E+00  0.4629630E-02
    1      -20.821996
    2      -19.890668
    3      -11.341817
    4       -9.520405
    5       -9.271944
    6       -8.715630
    7       -8.292739
    8       -7.647977
    9        2.351113
   10        2.707885
   11        3.166188
   12        3.586120
 
  0.4583333E+00  0.1388889E+00  0.0000000E+00  0.4629630E-02
    1      -20.616949
    2      -20.150971
    3      -10.858867
    4       -9.942635
    5       -9.056666
    6       -8.565456
    7       -8.478003
    8       -7.943091
    9        2.633910
   10        3.210339
   11        3.279209
   12        3.448444
 
  0.5000000E+00  0.1388889E+00  0.0000000E+00  0.2314815E-02
    1      -20.393180
    2      -20.393180
    3      -10.390539
    4      -10.390539
    5       -8.820908
    6       -8.820908
    7       -8.220174
    8       -8.220174
    9        2.943322
   10        2.943322
   11        3.669699
   12        3.669699
 
  0.0000000E+00  0.1666667E+00  0.0000000E+00  0.2314815E-02
    1      -21.656262
    2      -16.737680
    3      -15.489033
    4      -10.787652
    5       -9.693410
    6       -7.470010
    7       -6.864917
    8       -4.648903
    9       -1.337273
   10        1.208039
   11        2.014082
   12        2.412456
 
  0.4166667E-01  0.1666667E+00  0.0000000E+00  0.4629630E-02
    1      -21.646364
    2      -16.868042
    3      -15.345777
    4      -10.776858
    5       -9.681730
    6       -7.516751
    7       -6.863812
    8       -4.716658
    9       -1.258117
   10        1.221490
   11        2.027703
   12        2.426286
 
  0.8333333E-01  0.1666667E+00  0.0000000E+00  0.4629630E-02
    1      -21.616678
    2      -17.158207
    3      -15.017110
    4      -10.744448
    5       -9.646709
    6       -7.643336
    7       -6.873686
    8       -4.902474
    9       -1.038263
   10        1.261853
   11        2.068561
   12        2.467779
 
  0.1250000E+00  0.1666667E+00  0.0000000E+00  0.4629630E-02
    1      -21.567226
    2      -17.499593
    3      -14.612171
    4      -10.690333
    5       -9.588405
    6       -7.825600
    7       -6.917152
    8       -5.169338
    9       -0.715220
   10        1.329151
   11        2.136642
   12        2.536938
 
  0.1666667E+00  0.1666667E+00  0.0000000E+00  0.4629630E-02
    1      -21.498048
    2      -17.851664
    3      -14.172462
    4      -10.614343
    5       -9.506917
    6       -8.045482
    7       -7.009102
    8       -5.483102
    9       -0.323951
   10        1.423420
   11        2.231923
   12        2.633773
 
  0.2083333E+00  0.1666667E+00  0.0000000E+00  0.4629630E-02
    1      -21.409201
    2      -18.199916
    3      -13.713919
    4      -10.516201
    5       -9.402388
    6       -8.291764
    7       -7.155478
    8       -5.820030
    9        0.110701
   10        1.544690
   11        2.354370
   12        2.758291
 
  0.2500000E+00  0.1666667E+00  0.0000000E+00  0.4629630E-02
    1      -21.300757
    2      -18.538155
    3      -13.244728
    4      -10.395465
    5       -9.275009
    6       -8.557676
    7       -7.355501
    8       -6.165081
    9        0.572328
   10        1.692979
   11        2.503937
   12        2.910500
 
  0.2916667E+00  0.1666667E+00  0.0000000E+00  0.4629630E-02
    1      -21.172809
    2      -18.863241
    3      -12.770680
    4      -10.251472
    5       -9.125025
    6       -8.839559
    7       -7.603307
    8       -6.508799
    9        1.049880
   10        1.868276
   11        2.680561
   12        3.090402
 
  0.3333333E+00  0.1666667E+00  0.0000000E+00  0.4629630E-02
    1      -21.025472
    2      -19.173362
    3      -12.297057
    4      -10.083255
    5       -9.136370
    6       -8.952743
    7       -7.889127
    8       -6.845074
    9        1.535472
   10        2.070543
   11        2.884160
   12        3.297996
 
  0.3750000E+00  0.1666667E+00  0.0000000E+00  0.4629630E-02
    1      -20.858885
    2      -19.467354
    3      -11.829426
    4       -9.889507
    5       -9.449505
    6       -8.758546
    7       -8.200286
    8       -7.169804
    9        2.023089
   10        2.299714
   11        3.114628
   12        3.533274
 
  0.4166667E+00  0.1666667E+00  0.0000000E+00  0.4629630E-02
    1      -20.673216
    2      -19.744409
    3      -11.373922
    4       -9.782446
    5       -9.668692
    6       -8.542908
    7       -8.522295
    8       -7.480126
    9        2.507859
   10        2.555701
   11        3.371812
   12        3.796225
 
  0.4583333E+00  0.1666667E+00  0.0000000E+00  0.4629630E-02
    1      -20.468664
    2      -20.003935
    3      -10.936999
    4      -10.139640
    5       -9.419551
    6       -8.840475
    7       -8.306413
    8       -7.773970
    9        2.838396
   10        2.985610
   11        3.483374
   12        3.655309
 
  0.5000000E+00  0.1666667E+00  0.0000000E+00  0.2314815E-02
    1      -20.245474
    2      -20.245474
    3      -10.524428
    4      -10.524428
    5       -9.142303
    6       -9.142303
    7       -8.049793
    8       -8.049793
    9        3.147672
   10        3.147672
   11        3.452556
   12        3.452556
 