<?xml version="1.0" encoding="ISO-8859-1"?>
<modeling>
 <generator>
  <i name="program" type="string">vasp </i>
  <i name="version" type="string">5.3.5  </i>
  <i name="subversion" type="string">31Mar14 (build Mar 02 2015 18:14:16) complex                          parallel </i>
  <i name="platform" type="string">LinuxIFC </i>
  <i name="date" type="string">2018 08 08 </i>
  <i name="time" type="string">18:28:24 </i>
 </generator>
 <incar>
  <i type="string" name="SYSTEM">  gr</i>
  <i type="string" name="PREC">accurate : accuracy</i>
  <i type="string" name="ALGO"> FAST.</i>
  <i type="int" name="NELM">   100</i>
  <i type="int" name="NELMDL">    -3</i>
  <i type="int" name="NELMIN">     5</i>
  <i type="int" name="IBRION">     1</i>
  <i name="EDIFF">      0.00000000</i>
  <i name="EDIFFG">     -0.00000100</i>
  <i type="int" name="NSW">   400</i>
  <i type="int" name="ISIF">     2</i>
  <i name="ENCUT">   2000.00000000</i>
  <i type="int" name="ISMEAR">     0</i>
  <i name="SIGMA">      0.05000000</i>
  <i type="int" name="NWRITE">     2</i>
  <i type="logical" name="LWAVE"> F  </i>
  <i type="logical" name="LCHARG"> F  </i>
  <i type="int" name="NELM">   100</i>
 </incar>
 <kpoints>
  <generation param="Gamma">
   <v type="int" name="divisions">      24       36        1 </v>
   <v name="usershift">      0.00000000       0.00000000       0.00000000 </v>
   <v name="genvec1">      0.04166667       0.00000000       0.00000000 </v>
   <v name="genvec2">      0.00000000       0.02777778       0.00000000 </v>
   <v name="genvec3">      0.00000000       0.00000000       1.00000000 </v>
   <v name="shift">      0.00000000       0.00000000       0.00000000 </v>
  </generation>
  <varray name="kpointlist" >
   <v>       0.00000000       0.00000000       0.00000000 </v>
   <v>       0.04166667       0.00000000       0.00000000 </v>
   <v>       0.08333333       0.00000000       0.00000000 </v>
   <v>       0.12500000       0.00000000       0.00000000 </v>
   <v>       0.16666667       0.00000000       0.00000000 </v>
   <v>       0.20833333       0.00000000       0.00000000 </v>
   <v>       0.25000000       0.00000000       0.00000000 </v>
   <v>       0.29166667       0.00000000       0.00000000 </v>
   <v>       0.33333333       0.00000000       0.00000000 </v>
   <v>       0.37500000       0.00000000       0.00000000 </v>
   <v>       0.41666667       0.00000000       0.00000000 </v>
   <v>       0.45833333       0.00000000       0.00000000 </v>
   <v>       0.50000000       0.00000000       0.00000000 </v>
   <v>       0.00000000       0.02777778       0.00000000 </v>
   <v>       0.04166667       0.02777778       0.00000000 </v>
   <v>       0.08333333       0.02777778       0.00000000 </v>
   <v>       0.12500000       0.02777778       0.00000000 </v>
   <v>       0.16666667       0.02777778       0.00000000 </v>
   <v>       0.20833333       0.02777778       0.00000000 </v>
   <v>       0.25000000       0.02777778       0.00000000 </v>
   <v>       0.29166667       0.02777778       0.00000000 </v>
   <v>       0.33333333       0.02777778       0.00000000 </v>
   <v>       0.37500000       0.02777778       0.00000000 </v>
   <v>       0.41666667       0.02777778       0.00000000 </v>
   <v>       0.45833333       0.02777778       0.00000000 </v>
   <v>       0.50000000       0.02777778       0.00000000 </v>
   <v>       0.00000000       0.05555556       0.00000000 </v>
   <v>       0.04166667       0.05555556       0.00000000 </v>
   <v>       0.08333333       0.05555556       0.00000000 </v>
   <v>       0.12500000       0.05555556       0.00000000 </v>
   <v>       0.16666667       0.05555556       0.00000000 </v>
   <v>       0.20833333       0.05555556       0.00000000 </v>
   <v>       0.25000000       0.05555556       0.00000000 </v>
   <v>       0.29166667       0.05555556       0.00000000 </v>
   <v>       0.33333333       0.05555556       0.00000000 </v>
   <v>       0.37500000       0.05555556       0.00000000 </v>
   <v>       0.41666667       0.05555556       0.00000000 </v>
   <v>       0.45833333       0.05555556       0.00000000 </v>
   <v>       0.50000000       0.05555556       0.00000000 </v>
   <v>       0.00000000       0.08333333       0.00000000 </v>
   <v>       0.04166667       0.08333333       0.00000000 </v>
   <v>       0.08333333       0.08333333       0.00000000 </v>
   <v>       0.12500000       0.08333333       0.00000000 </v>
   <v>       0.16666667       0.08333333       0.00000000 </v>
   <v>       0.20833333       0.08333333       0.00000000 </v>
   <v>       0.25000000       0.08333333       0.00000000 </v>
   <v>       0.29166667       0.08333333       0.00000000 </v>
   <v>       0.33333333       0.08333333       0.00000000 </v>
   <v>       0.37500000       0.08333333       0.00000000 </v>
   <v>       0.41666667       0.08333333       0.00000000 </v>
   <v>       0.45833333       0.08333333       0.00000000 </v>
   <v>       0.50000000       0.08333333       0.00000000 </v>
   <v>       0.00000000       0.11111111       0.00000000 </v>
   <v>       0.04166667       0.11111111       0.00000000 </v>
   <v>       0.08333333       0.11111111       0.00000000 </v>
   <v>       0.12500000       0.11111111       0.00000000 </v>
   <v>       0.16666667       0.11111111       0.00000000 </v>
   <v>       0.20833333       0.11111111       0.00000000 </v>
   <v>       0.25000000       0.11111111       0.00000000 </v>
   <v>       0.29166667       0.11111111       0.00000000 </v>
   <v>       0.33333333       0.11111111       0.00000000 </v>
   <v>       0.37500000       0.11111111       0.00000000 </v>
   <v>       0.41666667       0.11111111       0.00000000 </v>
   <v>       0.45833333       0.11111111       0.00000000 </v>
   <v>       0.50000000       0.11111111       0.00000000 </v>
   <v>       0.00000000       0.13888889       0.00000000 </v>
   <v>       0.04166667       0.13888889       0.00000000 </v>
   <v>       0.08333333       0.13888889       0.00000000 </v>
   <v>       0.12500000       0.13888889       0.00000000 </v>
   <v>       0.16666667       0.13888889       0.00000000 </v>
   <v>       0.20833333       0.13888889       0.00000000 </v>
   <v>       0.25000000       0.13888889       0.00000000 </v>
   <v>       0.29166667       0.13888889       0.00000000 </v>
   <v>       0.33333333       0.13888889       0.00000000 </v>
   <v>       0.37500000       0.13888889       0.00000000 </v>
   <v>       0.41666667       0.13888889       0.00000000 </v>
   <v>       0.45833333       0.13888889       0.00000000 </v>
   <v>       0.50000000       0.13888889       0.00000000 </v>
   <v>       0.00000000       0.16666667       0.00000000 </v>
   <v>       0.04166667       0.16666667       0.00000000 </v>
   <v>       0.08333333       0.16666667       0.00000000 </v>
   <v>       0.12500000       0.16666667       0.00000000 </v>
   <v>       0.16666667       0.16666667       0.00000000 </v>
   <v>       0.20833333       0.16666667       0.00000000 </v>
   <v>       0.25000000       0.16666667       0.00000000 </v>
   <v>       0.29166667       0.16666667       0.00000000 </v>
   <v>       0.33333333       0.16666667       0.00000000 </v>
   <v>       0.37500000       0.16666667       0.00000000 </v>
   <v>       0.41666667       0.16666667       0.00000000 </v>
   <v>       0.45833333       0.16666667       0.00000000 </v>
   <v>       0.50000000       0.16666667       0.00000000 </v>
   <v>       0.00000000       0.19444444       0.00000000 </v>
   <v>       0.04166667       0.19444444       0.00000000 </v>
   <v>       0.08333333       0.19444444       0.00000000 </v>
   <v>       0.12500000       0.19444444       0.00000000 </v>
   <v>       0.16666667       0.19444444       0.00000000 </v>
   <v>       0.20833333       0.19444444       0.00000000 </v>
   <v>       0.25000000       0.19444444       0.00000000 </v>
   <v>       0.29166667       0.19444444       0.00000000 </v>
   <v>       0.33333333       0.19444444       0.00000000 </v>
   <v>       0.37500000       0.19444444       0.00000000 </v>
   <v>       0.41666667       0.19444444       0.00000000 </v>
   <v>       0.45833333       0.19444444       0.00000000 </v>
   <v>       0.50000000       0.19444444       0.00000000 </v>
   <v>       0.00000000       0.22222222       0.00000000 </v>
   <v>       0.04166667       0.22222222       0.00000000 </v>
   <v>       0.08333333       0.22222222       0.00000000 </v>
   <v>       0.12500000       0.22222222       0.00000000 </v>
   <v>       0.16666667       0.22222222       0.00000000 </v>
   <v>       0.20833333       0.22222222       0.00000000 </v>
   <v>       0.25000000       0.22222222       0.00000000 </v>
   <v>       0.29166667       0.22222222       0.00000000 </v>
   <v>       0.33333333       0.22222222       0.00000000 </v>
   <v>       0.37500000       0.22222222       0.00000000 </v>
   <v>       0.41666667       0.22222222       0.00000000 </v>
   <v>       0.45833333       0.22222222       0.00000000 </v>
   <v>       0.50000000       0.22222222       0.00000000 </v>
   <v>       0.00000000       0.25000000       0.00000000 </v>
   <v>       0.04166667       0.25000000       0.00000000 </v>
   <v>       0.08333333       0.25000000       0.00000000 </v>
   <v>       0.12500000       0.25000000       0.00000000 </v>
   <v>       0.16666667       0.25000000       0.00000000 </v>
   <v>       0.20833333       0.25000000       0.00000000 </v>
   <v>       0.25000000       0.25000000       0.00000000 </v>
   <v>       0.29166667       0.25000000       0.00000000 </v>
   <v>       0.33333333       0.25000000       0.00000000 </v>
   <v>       0.37500000       0.25000000       0.00000000 </v>
   <v>       0.41666667       0.25000000       0.00000000 </v>
   <v>       0.45833333       0.25000000       0.00000000 </v>
   <v>       0.50000000       0.25000000       0.00000000 </v>
   <v>       0.00000000       0.27777778       0.00000000 </v>
   <v>       0.04166667       0.27777778       0.00000000 </v>
   <v>       0.08333333       0.27777778       0.00000000 </v>
   <v>       0.12500000       0.27777778       0.00000000 </v>
   <v>       0.16666667       0.27777778       0.00000000 </v>
   <v>       0.20833333       0.27777778       0.00000000 </v>
   <v>       0.25000000       0.27777778       0.00000000 </v>
   <v>       0.29166667       0.27777778       0.00000000 </v>
   <v>       0.33333333       0.27777778       0.00000000 </v>
   <v>       0.37500000       0.27777778       0.00000000 </v>
   <v>       0.41666667       0.27777778       0.00000000 </v>
   <v>       0.45833333       0.27777778       0.00000000 </v>
   <v>       0.50000000       0.27777778       0.00000000 </v>
   <v>       0.00000000       0.30555556       0.00000000 </v>
   <v>       0.04166667       0.30555556       0.00000000 </v>
   <v>       0.08333333       0.30555556       0.00000000 </v>
   <v>       0.12500000       0.30555556       0.00000000 </v>
   <v>       0.16666667       0.30555556       0.00000000 </v>
   <v>       0.20833333       0.30555556       0.00000000 </v>
   <v>       0.25000000       0.30555556       0.00000000 </v>
   <v>       0.29166667       0.30555556       0.00000000 </v>
   <v>       0.33333333       0.30555556       0.00000000 </v>
   <v>       0.37500000       0.30555556       0.00000000 </v>
   <v>       0.41666667       0.30555556       0.00000000 </v>
   <v>       0.45833333       0.30555556       0.00000000 </v>
   <v>       0.50000000       0.30555556       0.00000000 </v>
   <v>       0.00000000       0.33333333       0.00000000 </v>
   <v>       0.04166667       0.33333333       0.00000000 </v>
   <v>       0.08333333       0.33333333       0.00000000 </v>
   <v>       0.12500000       0.33333333       0.00000000 </v>
   <v>       0.16666667       0.33333333       0.00000000 </v>
   <v>       0.20833333       0.33333333       0.00000000 </v>
   <v>       0.25000000       0.33333333       0.00000000 </v>
   <v>       0.29166667       0.33333333       0.00000000 </v>
   <v>       0.33333333       0.33333333       0.00000000 </v>
   <v>       0.37500000       0.33333333       0.00000000 </v>
   <v>       0.41666667       0.33333333       0.00000000 </v>
   <v>       0.45833333       0.33333333       0.00000000 </v>
   <v>       0.50000000       0.33333333       0.00000000 </v>
   <v>       0.00000000       0.36111111       0.00000000 </v>
   <v>       0.04166667       0.36111111       0.00000000 </v>
   <v>       0.08333333       0.36111111       0.00000000 </v>
   <v>       0.12500000       0.36111111       0.00000000 </v>
   <v>       0.16666667       0.36111111       0.00000000 </v>
   <v>       0.20833333       0.36111111       0.00000000 </v>
   <v>       0.25000000       0.36111111       0.00000000 </v>
   <v>       0.29166667       0.36111111       0.00000000 </v>
   <v>       0.33333333       0.36111111       0.00000000 </v>
   <v>       0.37500000       0.36111111       0.00000000 </v>
   <v>       0.41666667       0.36111111       0.00000000 </v>
   <v>       0.45833333       0.36111111       0.00000000 </v>
   <v>       0.50000000       0.36111111       0.00000000 </v>
   <v>       0.00000000       0.38888889       0.00000000 </v>
   <v>       0.04166667       0.38888889       0.00000000 </v>
   <v>       0.08333333       0.38888889       0.00000000 </v>
   <v>       0.12500000       0.38888889       0.00000000 </v>
   <v>       0.16666667       0.38888889       0.00000000 </v>
   <v>       0.20833333       0.38888889       0.00000000 </v>
   <v>       0.25000000       0.38888889       0.00000000 </v>
   <v>       0.29166667       0.38888889       0.00000000 </v>
   <v>       0.33333333       0.38888889       0.00000000 </v>
   <v>       0.37500000       0.38888889       0.00000000 </v>
   <v>       0.41666667       0.38888889       0.00000000 </v>
   <v>       0.45833333       0.38888889       0.00000000 </v>
   <v>       0.50000000       0.38888889       0.00000000 </v>
   <v>       0.00000000       0.41666667       0.00000000 </v>
   <v>       0.04166667       0.41666667       0.00000000 </v>
   <v>       0.08333333       0.41666667       0.00000000 </v>
   <v>       0.12500000       0.41666667       0.00000000 </v>
   <v>       0.16666667       0.41666667       0.00000000 </v>
   <v>       0.20833333       0.41666667       0.00000000 </v>
   <v>       0.25000000       0.41666667       0.00000000 </v>
   <v>       0.29166667       0.41666667       0.00000000 </v>
   <v>       0.33333333       0.41666667       0.00000000 </v>
   <v>       0.37500000       0.41666667       0.00000000 </v>
   <v>       0.41666667       0.41666667       0.00000000 </v>
   <v>       0.45833333       0.41666667       0.00000000 </v>
   <v>       0.50000000       0.41666667       0.00000000 </v>
   <v>       0.00000000       0.44444444       0.00000000 </v>
   <v>       0.04166667       0.44444444       0.00000000 </v>
   <v>       0.08333333       0.44444444       0.00000000 </v>
   <v>       0.12500000       0.44444444       0.00000000 </v>
   <v>       0.16666667       0.44444444       0.00000000 </v>
   <v>       0.20833333       0.44444444       0.00000000 </v>
   <v>       0.25000000       0.44444444       0.00000000 </v>
   <v>       0.29166667       0.44444444       0.00000000 </v>
   <v>       0.33333333       0.44444444       0.00000000 </v>
   <v>       0.37500000       0.44444444       0.00000000 </v>
   <v>       0.41666667       0.44444444       0.00000000 </v>
   <v>       0.45833333       0.44444444       0.00000000 </v>
   <v>       0.50000000       0.44444444       0.00000000 </v>
   <v>       0.00000000       0.47222222       0.00000000 </v>
   <v>       0.04166667       0.47222222       0.00000000 </v>
   <v>       0.08333333       0.47222222       0.00000000 </v>
   <v>       0.12500000       0.47222222       0.00000000 </v>
   <v>       0.16666667       0.47222222       0.00000000 </v>
   <v>       0.20833333       0.47222222       0.00000000 </v>
   <v>       0.25000000       0.47222222       0.00000000 </v>
   <v>       0.29166667       0.47222222       0.00000000 </v>
   <v>       0.33333333       0.47222222       0.00000000 </v>
   <v>       0.37500000       0.47222222       0.00000000 </v>
   <v>       0.41666667       0.47222222       0.00000000 </v>
   <v>       0.45833333       0.47222222       0.00000000 </v>
   <v>       0.50000000       0.47222222       0.00000000 </v>
   <v>       0.00000000       0.50000000       0.00000000 </v>
   <v>       0.04166667       0.50000000       0.00000000 </v>
   <v>       0.08333333       0.50000000       0.00000000 </v>
   <v>       0.12500000       0.50000000       0.00000000 </v>
   <v>       0.16666667       0.50000000       0.00000000 </v>
   <v>       0.20833333       0.50000000       0.00000000 </v>
   <v>       0.25000000       0.50000000       0.00000000 </v>
   <v>       0.29166667       0.50000000       0.00000000 </v>
   <v>       0.33333333       0.50000000       0.00000000 </v>
   <v>       0.37500000       0.50000000       0.00000000 </v>
   <v>       0.41666667       0.50000000       0.00000000 </v>
   <v>       0.45833333       0.50000000       0.00000000 </v>
   <v>       0.50000000       0.50000000       0.00000000 </v>
  </varray>
  <varray name="weights" >
   <v>       0.00115741 </v>
   <v>       0.00231481 </v>
   <v>       0.00231481 </v>
   <v>       0.00231481 </v>
   <v>       0.00231481 </v>
   <v>       0.00231481 </v>
   <v>       0.00231481 </v>
   <v>       0.00231481 </v>
   <v>       0.00231481 </v>
   <v>       0.00231481 </v>
   <v>       0.00231481 </v>
   <v>       0.00231481 </v>
   <v>       0.00115741 </v>
   <v>       0.00231481 </v>
   <v>       0.00462963 </v>
   <v>       0.00462963 </v>
   <v>       0.00462963 </v>
   <v>       0.00462963 </v>
   <v>       0.00462963 </v>
   <v>       0.00462963 </v>
   <v>       0.00462963 </v>
   <v>       0.00462963 </v>
   <v>       0.00462963 </v>
   <v>       0.00462963 </v>
   <v>       0.00462963 </v>
   <v>       0.00231481 </v>
   <v>       0.00231481 </v>
   <v>       0.00462963 </v>
   <v>       0.00462963 </v>
   <v>       0.00462963 </v>
   <v>       0.00462963 </v>
   <v>       0.00462963 </v>
   <v>       0.00462963 </v>
   <v>       0.00462963 </v>
   <v>       0.00462963 </v>
   <v>       0.00462963 </v>
   <v>       0.00462963 </v>
   <v>       0.00462963 </v>
   <v>       0.00231481 </v>
   <v>       0.00231481 </v>
   <v>       0.00462963 </v>
   <v>       0.00462963 </v>
   <v>       0.00462963 </v>
   <v>       0.00462963 </v>
   <v>       0.00462963 </v>
   <v>       0.00462963 </v>
   <v>       0.00462963 </v>
   <v>       0.00462963 </v>
   <v>       0.00462963 </v>
   <v>       0.00462963 </v>
   <v>       0.00462963 </v>
   <v>       0.00231481 </v>
   <v>       0.00231481 </v>
   <v>       0.00462963 </v>
   <v>       0.00462963 </v>
   <v>       0.00462963 </v>
   <v>       0.00462963 </v>
   <v>       0.00462963 </v>
   <v>       0.00462963 </v>
   <v>       0.00462963 </v>
   <v>       0.00462963 </v>
   <v>       0.00462963 </v>
   <v>       0.00462963 </v>
   <v>       0.00462963 </v>
   <v>       0.00231481 </v>
   <v>       0.00231481 </v>
   <v>       0.00462963 </v>
   <v>       0.00462963 </v>
   <v>       0.00462963 </v>
   <v>       0.00462963 </v>
   <v>       0.00462963 </v>
   <v>       0.00462963 </v>
   <v>       0.00462963 </v>
   <v>       0.00462963 </v>
   <v>       0.00462963 </v>
   <v>       0.00462963 </v>
   <v>       0.00462963 </v>
   <v>       0.00231481 </v>
   <v>       0.00231481 </v>
   <v>       0.00462963 </v>
   <v>       0.00462963 </v>
   <v>       0.00462963 </v>
   <v>       0.00462963 </v>
   <v>       0.00462963 </v>
   <v>       0.00462963 </v>
   <v>       0.00462963 </v>
   <v>       0.00462963 </v>
   <v>       0.00462963 </v>
   <v>       0.00462963 </v>
   <v>       0.00462963 </v>
   <v>       0.00231481 </v>
   <v>       0.00231481 </v>
   <v>       0.00462963 </v>
   <v>       0.00462963 </v>
   <v>       0.00462963 </v>
   <v>       0.00462963 </v>
   <v>       0.00462963 </v>
   <v>       0.00462963 </v>
   <v>       0.00462963 </v>
   <v>       0.00462963 </v>
   <v>       0.00462963 </v>
   <v>       0.00462963 </v>
   <v>       0.00462963 </v>
   <v>       0.00231481 </v>
   <v>       0.00231481 </v>
   <v>       0.00462963 </v>
   <v>       0.00462963 </v>
   <v>       0.00462963 </v>
   <v>       0.00462963 </v>
   <v>       0.00462963 </v>
   <v>       0.00462963 </v>
   <v>       0.00462963 </v>
   <v>       0.00462963 </v>
   <v>       0.00462963 </v>
   <v>       0.00462963 </v>
   <v>       0.00462963 </v>
   <v>       0.00231481 </v>
   <v>       0.00231481 </v>
   <v>       0.00462963 </v>
   <v>       0.00462963 </v>
   <v>       0.00462963 </v>
   <v>       0.00462963 </v>
   <v>       0.00462963 </v>
   <v>       0.00462963 </v>
   <v>       0.00462963 </v>
   <v>       0.00462963 </v>
   <v>       0.00462963 </v>
   <v>       0.00462963 </v>
   <v>       0.00462963 </v>
   <v>       0.00231481 </v>
   <v>       0.00231481 </v>
   <v>       0.00462963 </v>
   <v>       0.00462963 </v>
   <v>       0.00462963 </v>
   <v>       0.00462963 </v>
   <v>       0.00462963 </v>
   <v>       0.00462963 </v>
   <v>       0.00462963 </v>
   <v>       0.00462963 </v>
   <v>       0.00462963 </v>
   <v>       0.00462963 </v>
   <v>       0.00462963 </v>
   <v>       0.00231481 </v>
   <v>       0.00231481 </v>
   <v>       0.00462963 </v>
   <v>       0.00462963 </v>
   <v>       0.00462963 </v>
   <v>       0.00462963 </v>
   <v>       0.00462963 </v>
   <v>       0.00462963 </v>
   <v>       0.00462963 </v>
   <v>       0.00462963 </v>
   <v>       0.00462963 </v>
   <v>       0.00462963 </v>
   <v>       0.00462963 </v>
   <v>       0.00231481 </v>
   <v>       0.00231481 </v>
   <v>       0.00462963 </v>
   <v>       0.00462963 </v>
   <v>       0.00462963 </v>
   <v>       0.00462963 </v>
   <v>       0.00462963 </v>
   <v>       0.00462963 </v>
   <v>       0.00462963 </v>
   <v>       0.00462963 </v>
   <v>       0.00462963 </v>
   <v>       0.00462963 </v>
   <v>       0.00462963 </v>
   <v>       0.00231481 </v>
   <v>       0.00231481 </v>
   <v>       0.00462963 </v>
   <v>       0.00462963 </v>
   <v>       0.00462963 </v>
   <v>       0.00462963 </v>
   <v>       0.00462963 </v>
   <v>       0.00462963 </v>
   <v>       0.00462963 </v>
   <v>       0.00462963 </v>
   <v>       0.00462963 </v>
   <v>       0.00462963 </v>
   <v>       0.00462963 </v>
   <v>       0.00231481 </v>
   <v>       0.00231481 </v>
   <v>       0.00462963 </v>
   <v>       0.00462963 </v>
   <v>       0.00462963 </v>
   <v>       0.00462963 </v>
   <v>       0.00462963 </v>
   <v>       0.00462963 </v>
   <v>       0.00462963 </v>
   <v>       0.00462963 </v>
   <v>       0.00462963 </v>
   <v>       0.00462963 </v>
   <v>       0.00462963 </v>
   <v>       0.00231481 </v>
   <v>       0.00231481 </v>
   <v>       0.00462963 </v>
   <v>       0.00462963 </v>
   <v>       0.00462963 </v>
   <v>       0.00462963 </v>
   <v>       0.00462963 </v>
   <v>       0.00462963 </v>
   <v>       0.00462963 </v>
   <v>       0.00462963 </v>
   <v>       0.00462963 </v>
   <v>       0.00462963 </v>
   <v>       0.00462963 </v>
   <v>       0.00231481 </v>
   <v>       0.00231481 </v>
   <v>       0.00462963 </v>
   <v>       0.00462963 </v>
   <v>       0.00462963 </v>
   <v>       0.00462963 </v>
   <v>       0.00462963 </v>
   <v>       0.00462963 </v>
   <v>       0.00462963 </v>
   <v>       0.00462963 </v>
   <v>       0.00462963 </v>
   <v>       0.00462963 </v>
   <v>       0.00462963 </v>
   <v>       0.00231481 </v>
   <v>       0.00231481 </v>
   <v>       0.00462963 </v>
   <v>       0.00462963 </v>
   <v>       0.00462963 </v>
   <v>       0.00462963 </v>
   <v>       0.00462963 </v>
   <v>       0.00462963 </v>
   <v>       0.00462963 </v>
   <v>       0.00462963 </v>
   <v>       0.00462963 </v>
   <v>       0.00462963 </v>
   <v>       0.00462963 </v>
   <v>       0.00231481 </v>
   <v>       0.00115741 </v>
   <v>       0.00231481 </v>
   <v>       0.00231481 </v>
   <v>       0.00231481 </v>
   <v>       0.00231481 </v>
   <v>       0.00231481 </v>
   <v>       0.00231481 </v>
   <v>       0.00231481 </v>
   <v>       0.00231481 </v>
   <v>       0.00231481 </v>
   <v>       0.00231481 </v>
   <v>       0.00231481 </v>
   <v>       0.00115741 </v>
  </varray>
 </kpoints>
 <parameters>
  <separator name="general" >
   <i type="string" name="SYSTEM">gr</i>
   <i type="logical" name="LCOMPAT"> F  </i>
  </separator>
  <separator name="electronic" >
   <i type="string" name="PREC">accura</i>
   <i name="ENMAX">   2000.00000000</i>
   <i name="ENAUG">    644.87300000</i>
   <i name="EDIFF">      0.00000000</i>
   <i type="int" name="IALGO">    68</i>
   <i type="int" name="IWAVPR">    11</i>
   <i type="int" name="NBANDS">    12</i>
   <i name="NELECT">     16.00000000</i>
   <i type="int" name="TURBO">     0</i>
   <i type="int" name="IRESTART">     0</i>
   <i type="int" name="NREBOOT">     0</i>
   <i type="int" name="NMIN">     0</i>
   <i name="EREF">      0.00000000</i>
   <separator name="electronic smearing" >
    <i type="int" name="ISMEAR">     0</i>
    <i name="SIGMA">      0.05000000</i>
    <i name="KSPACING">      0.50000000</i>
    <i type="logical" name="KGAMMA"> T  </i>
   </separator>
   <separator name="electronic projectors" >
    <i type="logical" name="LREAL"> F  </i>
    <v name="ROPT">      0.00000000</v>
    <i type="int" name="LMAXPAW">  -100</i>
    <i type="int" name="LMAXMIX">     2</i>
    <i type="logical" name="NLSPLINE"> F  </i>
   </separator>
   <separator name="electronic startup" >
    <i type="int" name="ISTART">     0</i>
    <i type="int" name="ICHARG">     2</i>
    <i type="int" name="INIWAV">     1</i>
   </separator>
   <separator name="electronic spin" >
    <i type="int" name="ISPIN">     1</i>
    <i type="logical" name="LNONCOLLINEAR"> F  </i>
    <v name="MAGMOM">      1.00000000      1.00000000      1.00000000      1.00000000</v>
    <i name="NUPDOWN">     -1.00000000</i>
    <i type="logical" name="LSORBIT"> F  </i>
    <v name="SAXIS">      0.00000000      0.00000000      1.00000000</v>
    <i type="logical" name="LSPIRAL"> F  </i>
    <v name="QSPIRAL">      0.00000000      0.00000000      0.00000000</v>
    <i type="logical" name="LZEROZ"> F  </i>
   </separator>
   <separator name="electronic exchange-correlation" >
    <i type="logical" name="LASPH"> F  </i>
    <i type="logical" name="LMETAGGA"> F  </i>
   </separator>
   <separator name="electronic convergence" >
    <i type="int" name="NELM">   100</i>
    <i type="int" name="NELMDL">    -3</i>
    <i type="int" name="NELMIN">     5</i>
    <i name="ENINI">   2000.00000000</i>
    <separator name="electronic convergence detail" >
     <i type="logical" name="LDIAG"> T  </i>
     <i type="logical" name="LSUBROT"> F  </i>
     <i name="WEIMIN">      0.00100000</i>
     <i name="EBREAK">      0.00000000</i>
     <i name="DEPER">      0.30000000</i>
     <i type="int" name="NRMM">     4</i>
     <i name="TIME">      0.40000000</i>
    </separator>
   </separator>
   <separator name="electronic mixer" >
    <i name="AMIX">      0.40000000</i>
    <i name="BMIX">      1.00000000</i>
    <i name="AMIN">      0.10000000</i>
    <i name="AMIX_MAG">      1.60000000</i>
    <i name="BMIX_MAG">      1.00000000</i>
    <separator name="electronic mixer details" >
     <i type="int" name="IMIX">     4</i>
     <i type="int" name="MAXMIX">   -45</i>
     <i name="WC">    100.00000000</i>
     <i type="int" name="INIMIX">     1</i>
     <i type="int" name="MIXPRE">     1</i>
     <i type="int" name="MREMOVE">     5</i>
    </separator>
   </separator>
   <separator name="electronic dipolcorrection" >
    <i type="logical" name="LDIPOL"> F  </i>
    <i type="logical" name="LMONO"> F  </i>
    <i type="int" name="IDIPOL">     0</i>
    <i name="EPSILON">      1.00000000</i>
    <v name="DIPOL">   -100.00000000   -100.00000000   -100.00000000</v>
    <i name="EFIELD">      0.00000000</i>
   </separator>
  </separator>
  <separator name="grids" >
   <i type="int" name="NGX">    64</i>
   <i type="int" name="NGY">    36</i>
   <i type="int" name="NGZ">   288</i>
   <i type="int" name="NGXF">   128</i>
   <i type="int" name="NGYF">    72</i>
   <i type="int" name="NGZF">   576</i>
   <i type="logical" name="ADDGRID"> F  </i>
  </separator>
  <separator name="ionic" >
   <i type="int" name="NSW">   400</i>
   <i type="int" name="IBRION">     1</i>
   <i type="int" name="ISIF">     2</i>
   <i name="PSTRESS">      0.00000000</i>
   <i name="EDIFFG">     -0.00000100</i>
   <i type="int" name="NFREE">     0</i>
   <i name="POTIM">      0.50000000</i>
   <i name="SMASS">     -3.00000000</i>
   <i name="SCALEE">      1.00000000</i>
  </separator>
  <separator name="ionic md" >
   <i name="TEBEG">      0.00010000</i>
   <i name="TEEND">      0.00010000</i>
   <i type="int" name="NBLOCK">     1</i>
   <i type="int" name="KBLOCK">   400</i>
   <i type="int" name="NPACO">   256</i>
   <i name="APACO">     16.00000000</i>
  </separator>
  <separator name="symmetry" >
   <i type="int" name="ISYM">     2</i>
   <i name="SYMPREC">      0.00001000</i>
  </separator>
  <separator name="dos" >
   <i type="logical" name="LORBIT"> F  </i>
   <v name="RWIGS">     -1.00000000</v>
   <i type="int" name="NEDOS">   301</i>
   <i name="EMIN">     10.00000000</i>
   <i name="EMAX">    -10.00000000</i>
   <i name="EFERMI">      0.00000000</i>
  </separator>
  <separator name="writing" >
   <i type="int" name="NWRITE">     2</i>
   <i type="logical" name="LWAVE"> F  </i>
   <i type="logical" name="LCHARG"> F  </i>
   <i type="logical" name="LPARD"> F  </i>
   <i type="logical" name="LVTOT"> F  </i>
   <i type="logical" name="LVHAR"> F  </i>
   <i type="logical" name="LELF"> F  </i>
   <i type="logical" name="LOPTICS"> F  </i>
   <v name="STM">      0.00000000      0.00000000      0.00000000      0.00000000      0.00000000      0.00000000      0.00000000</v>
  </separator>
  <separator name="performance" >
   <i type="int" name="NPAR">     4</i>
   <i type="int" name="NSIM">     4</i>
   <i type="int" name="NBLK">    -1</i>
   <i type="logical" name="LPLANE"> T  </i>
   <i type="logical" name="LSCALAPACK"> F  </i>
   <i type="logical" name="LSCAAWARE"> F  </i>
   <i type="logical" name="LSCALU"> F  </i>
   <i type="logical" name="LASYNC"> F  </i>
   <i type="logical" name="LORBITALREAL"> F  </i>
  </separator>
  <separator name="miscellaneous" >
   <i type="int" name="IDIOT">     3</i>
   <i type="logical" name="LMUSIC"> F  </i>
   <v name="POMASS">     12.01100000</v>
   <v name="DARWINR">      0.00000000</v>
   <v name="DARWINV">      1.00000000</v>
   <i type="logical" name="LCORR"> T  </i>
  </separator>
  <i type="logical" name="GGA_COMPAT"> T  </i>
  <i type="logical" name="LBERRY"> F  </i>
  <i type="int" name="ICORELEVEL">     0</i>
  <i type="logical" name="LDAU"> F  </i>
  <i type="int" name="I_CONSTRAINED_M">     0</i>
  <separator name="electronic exchange-correlation" >
   <i type="string" name="GGA">--</i>
   <i type="int" name="VOSKOWN">     0</i>
   <i type="logical" name="LHFCALC"> F  </i>
   <i type="string" name="PRECFOCK"></i>
   <i type="logical" name="LSYMGRAD"> F  </i>
   <i type="logical" name="LHFONE"> F  </i>
   <i type="logical" name="LRHFCALC"> F  </i>
   <i type="logical" name="LTHOMAS"> F  </i>
   <i type="logical" name="LMODELHF"> F  </i>
   <i name="ENCUT4O">     -1.00000000</i>
   <i type="int" name="EXXOEP">     0</i>
   <i type="int" name="FOURORBIT">     0</i>
   <i name="AEXX">      0.00000000</i>
   <i name="HFALPHA">      0.00000000</i>
   <i name="MCALPHA">      0.00000000</i>
   <i name="ALDAX">      1.00000000</i>
   <i name="AGGAX">      1.00000000</i>
   <i name="ALDAC">      1.00000000</i>
   <i name="AGGAC">      1.00000000</i>
   <i type="int" name="NKREDX">     1</i>
   <i type="int" name="NKREDY">     1</i>
   <i type="int" name="NKREDZ">     1</i>
   <i type="logical" name="SHIFTRED"> F  </i>
   <i type="logical" name="ODDONLY"> F  </i>
   <i type="logical" name="EVENONLY"> F  </i>
   <i type="int" name="LMAXFOCK">     0</i>
   <i type="int" name="NMAXFOCKAE">     0</i>
   <i type="logical" name="LFOCKAEDFT"> F  </i>
   <i name="HFSCREEN">      0.00000000</i>
   <i name="HFSCREENC">      0.00000000</i>
   <i type="int" name="NBANDSGWLOW">     0</i>
  </separator>
  <separator name="vdW DFT" >
   <i type="logical" name="LUSE_VDW"> F  </i>
   <i name="Zab_VDW">     -0.84910000</i>
   <i name="PARAM1">      0.12340000</i>
   <i name="PARAM2">      1.00000000</i>
   <i name="PARAM3">      0.00000000</i>
  </separator>
  <separator name="model GW" >
   <i type="int" name="MODEL_GW">     0</i>
   <i name="MODEL_EPS0">     31.62568521</i>
   <i name="MODEL_ALPHA">      1.00000000</i>
  </separator>
  <separator name="linear response parameters" >
   <i type="logical" name="LEPSILON"> F  </i>
   <i type="logical" name="LRPA"> F  </i>
   <i type="logical" name="LNABLA"> F  </i>
   <i type="logical" name="LVEL"> F  </i>
   <i type="int" name="KINTER">     0</i>
   <i name="CSHIFT">      0.10000000</i>
   <i name="OMEGAMAX">     -1.00000000</i>
   <i name="DEG_THRESHOLD">      0.00200000</i>
  </separator>
  <separator name="orbital magnetization" >
   <i type="logical" name="NUCIND"> F  </i>
   <v name="MAGPOS">      0.00000000      0.00000000      0.00000000</v>
   <i type="logical" name="LNICSALL"> T  </i>
   <i type="logical" name="ORBITALMAG"> F  </i>
   <i type="logical" name="LMAGBLOCH"> F  </i>
   <i type="logical" name="LCHIMAG"> F  </i>
   <i type="logical" name="LGAUGE"> T  </i>
   <i type="int" name="MAGATOM">     0</i>
   <v name="MAGDIPOL">      0.00000000      0.00000000      0.00000000</v>
   <v name="AVECCONST">      0.00000000      0.00000000      0.00000000</v>
  </separator>
  <separator name="response functions" >
   <i type="logical" name="LADDER"> F  </i>
   <i type="logical" name="LFXC"> F  </i>
   <i type="logical" name="LHARTREE"> T  </i>
   <i type="int" name="IBSE">     0</i>
   <i type="logical" name="LTCTE"> F  </i>
   <i type="logical" name="LTETE"> F  </i>
   <i type="logical" name="LTRIPLET"> F  </i>
   <i type="logical" name="LFXCEPS"> F  </i>
   <i type="logical" name="LFXHEG"> F  </i>
   <i type="logical" name="L2ORDER"> F  </i>
   <i type="logical" name="LUSEW"> F  </i>
   <i name="ENCUTGW">     -2.00000000</i>
   <i name="ENCUTGWSOFT">     -2.00000000</i>
   <i name="ENCUTLF">     -1.00000000</i>
   <i type="int" name="LMAXMP2">    -1</i>
   <i name="SCISSOR">      0.00000000</i>
   <i type="int" name="NOMEGA">     0</i>
   <i type="int" name="NOMEGAR">     0</i>
   <i type="int" name="NBANDSGW">    -1</i>
   <i type="int" name="NBANDSO">    -1</i>
   <i type="int" name="NBANDSV">    -1</i>
   <i type="int" name="NELM">   100</i>
   <i type="int" name="DIM">     3</i>
   <i type="int" name="ANTIRES">     0</i>
   <i name="OMEGAMAX">    -30.00000000</i>
   <i name="OMEGAMIN">    -30.00000000</i>
   <i name="OMEGATL">   -200.00000000</i>
   <i type="int" name="OMEGAGRID">     0</i>
   <i name="CSHIFT">     -0.10000000</i>
   <i type="logical" name="SELFENERGY"> F  </i>
   <i type="logical" name="LSPECTRAL"> F  </i>
   <i type="logical" name="ODDONLYGW"> F  </i>
   <i type="logical" name="EVENONLYGW"> F  </i>
   <i type="int" name="NKREDLFX">     1</i>
   <i type="int" name="NKREDLFY">     1</i>
   <i type="int" name="NKREDLFZ">     1</i>
   <i type="int" name="MAXMEM">  1800</i>
   <i type="int" name="TELESCOPE">     0</i>
   <i type="int" name="TAUPAR">     1</i>
  </separator>
  <separator name="External order field" >
   <i name="OFIELD_KAPPA">      0.00000000</i>
   <v name="OFIELD_K">      0.00000000      0.00000000      0.00000000</v>
   <i name="OFIELD_Q6_NEAR">      0.00000000</i>
   <i name="OFIELD_Q6_FAR">      0.00000000</i>
   <i name="OFIELD_A">      0.00000000</i>
  </separator>
 </parameters>
 <atominfo>
  <atoms>       4 </atoms>
  <types>       1 </types>
  <array name="atoms" >
   <dimension dim="1">ion</dimension>
   <field type="string">element</field>
   <field type="int">atomtype</field>
   <set>
    <rc><c>C </c><c>   1</c></rc>
    <rc><c>C </c><c>   1</c></rc>
    <rc><c>C </c><c>   1</c></rc>
    <rc><c>C </c><c>   1</c></rc>
   </set>
  </array>
  <array name="atomtypes" >
   <dimension dim="1">type</dimension>
   <field type="int">atomspertype</field>
   <field type="string">element</field>
   <field>mass</field>
   <field>valence</field>
   <field type="string">pseudopotential</field>
   <set>
    <rc><c>   4</c><c>C </c><c>     12.01100000</c><c>      4.00000000</c><c> PAW_PBE C 08Apr2002                    </c></rc>
   </set>
  </array>
 </atominfo>
 <structure name="initialpos" >
  <crystal>
   <varray name="basis" >
    <v>       4.33693277       0.00000000       0.00000000 </v>
    <v>       0.00000000       2.46091771       0.00000000 </v>
    <v>       0.00000000       0.00000000      19.75463011 </v>
   </varray>
   <i name="volume">    210.83790140 </i>
   <varray name="rec_basis" >
    <v>       0.23057770       0.00000000       0.00000000 </v>
    <v>       0.00000000       0.40635247       0.00000000 </v>
    <v>       0.00000000       0.00000000       0.05062104 </v>
   </varray>
  </crystal>
  <varray name="positions" >
   <v>       0.99964215       0.00000000       0.00000000 </v>
   <v>       0.16702452       0.50000000       0.00000000 </v>
   <v>       0.49964215       0.50000000       0.00000000 </v>
   <v>       0.66702452       0.00000000       0.00000000 </v>
  </varray>
 </structure>
 <calculation>
  <scstep>
   <time name="dav">  290.93  291.40</time>
   <time name="total">  293.38  293.87</time>
   <energy>
    <i name="alphaZ">      6.18334092 </i>
    <i name="ewald">   2504.17755431 </i>
    <i name="hartreedc">  -2932.03216755 </i>
    <i name="XCdc">     54.92987722 </i>
    <i name="pawpsdc">    151.32577238 </i>
    <i name="pawaedc">   -155.92769107 </i>
    <i name="eentropy">     -0.00142962 </i>
    <i name="bandstr">    -29.16824931 </i>
    <i name="atom">    588.62352690 </i>
    <i name="e_fr_energy">    188.11053418 </i>
    <i name="e_wo_entrp">    188.11196380 </i>
    <i name="e_0_energy">    188.11124899 </i>
   </energy>
  </scstep>
  <scstep>
   <time name="dav">  436.90  439.35</time>
   <time name="total">  436.91  439.36</time>
   <energy>
    <i name="e_fr_energy">     -8.71455627 </i>
    <i name="e_wo_entrp">     -8.71409455 </i>
    <i name="e_0_energy">     -8.71432541 </i>
   </energy>
  </scstep>
  <scstep>
   <time name="dav">  334.40  336.61</time>
   <time name="total">  364.30  367.07</time>
   <energy>
    <i name="e_fr_energy">    -38.17377235 </i>
    <i name="e_wo_entrp">    -38.17377129 </i>
    <i name="e_0_energy">    -38.17377182 </i>
   </energy>
  </scstep>
  <scstep>
   <time name="diag">   78.50   78.89</time>
   <time name="diis">  336.24  338.11</time>
   <time name="orth">    3.08    3.08</time>
   <time name="total">  450.04  452.39</time>
   <energy>
    <i name="e_fr_energy">    -37.64300909 </i>
    <i name="e_wo_entrp">    -37.64300535 </i>
    <i name="e_0_energy">    -37.64300722 </i>
   </energy>
  </scstep>
  <scstep>
   <time name="diag">   78.64   79.15</time>
   <time name="diis">  333.21  334.97</time>
   <time name="orth">    3.08    3.08</time>
   <time name="total">  446.98  449.69</time>
   <energy>
    <i name="e_fr_energy">    -36.91069800 </i>
    <i name="e_wo_entrp">    -36.91069197 </i>
    <i name="e_0_energy">    -36.91069498 </i>
   </energy>
  </scstep>
  <scstep>
   <time name="diag">   78.30   78.98</time>
   <time name="diis">  359.03  359.30</time>
   <time name="orth">    3.10    3.10</time>
   <time name="total">  472.77  473.85</time>
   <energy>
    <i name="e_fr_energy">    -36.91284535 </i>
    <i name="e_wo_entrp">    -36.91283972 </i>
    <i name="e_0_energy">    -36.91284254 </i>
   </energy>
  </scstep>
  <scstep>
   <time name="diag">   78.85   78.93</time>
   <time name="diis">  331.77  332.28</time>
   <time name="orth">    3.08    3.10</time>
   <time name="total">  446.18  447.65</time>
   <energy>
    <i name="e_fr_energy">    -36.90362606 </i>
    <i name="e_wo_entrp">    -36.90362115 </i>
    <i name="e_0_energy">    -36.90362361 </i>
   </energy>
  </scstep>
  <scstep>
   <time name="diag">   78.19   78.90</time>
   <time name="diis">  331.89  333.46</time>
   <time name="orth">    3.08    3.08</time>
   <time name="total">  445.21  448.27</time>
   <energy>
    <i name="e_fr_energy">    -36.89855704 </i>
    <i name="e_wo_entrp">    -36.89855191 </i>
    <i name="e_0_energy">    -36.89855448 </i>
   </energy>
  </scstep>
  <scstep>
   <time name="diag">   78.43   79.01</time>
   <time name="diis">  319.48  320.45</time>
   <time name="orth">    3.07    3.08</time>
   <time name="total">  433.01  434.84</time>
   <energy>
    <i name="e_fr_energy">    -36.89825591 </i>
    <i name="e_wo_entrp">    -36.89825035 </i>
    <i name="e_0_energy">    -36.89825313 </i>
   </energy>
  </scstep>
  <scstep>
   <time name="diag">   78.44   78.93</time>
   <time name="diis">  319.93  321.35</time>
   <time name="orth">    3.07    3.07</time>
   <time name="total">  433.72  435.88</time>
   <energy>
    <i name="e_fr_energy">    -36.89812848 </i>
    <i name="e_wo_entrp">    -36.89812316 </i>
    <i name="e_0_energy">    -36.89812582 </i>
   </energy>
  </scstep>
  <scstep>
   <time name="diag">   78.45   79.03</time>
   <time name="diis">  320.29  323.25</time>
   <time name="orth">    3.08    3.10</time>
   <time name="total">  433.84  437.77</time>
   <energy>
    <i name="e_fr_energy">    -36.90055829 </i>
    <i name="e_wo_entrp">    -36.90055309 </i>
    <i name="e_0_energy">    -36.90055569 </i>
   </energy>
  </scstep>
  <scstep>
   <time name="diag">   78.28   78.93</time>
   <time name="diis">  320.11  323.37</time>
   <time name="orth">    3.08    3.08</time>
   <time name="total">  433.42  437.66</time>
   <energy>
    <i name="e_fr_energy">    -36.90102866 </i>
    <i name="e_wo_entrp">    -36.90102336 </i>
    <i name="e_0_energy">    -36.90102601 </i>
   </energy>
  </scstep>
  <scstep>
   <time name="diag">   78.23   79.02</time>
   <time name="diis">  327.70  330.69</time>
   <time name="orth">    3.08    3.08</time>
   <time name="total">  441.17  445.40</time>
   <energy>
    <i name="e_fr_energy">    -36.90127965 </i>
    <i name="e_wo_entrp">    -36.90127434 </i>
    <i name="e_0_energy">    -36.90127699 </i>
   </energy>
  </scstep>
  <scstep>
   <time name="diag">   78.17   78.93</time>
   <time name="diis">  322.06  322.91</time>
   <time name="orth">    3.08    3.10</time>
   <time name="total">  435.30  437.14</time>
   <energy>
    <i name="e_fr_energy">    -36.90136221 </i>
    <i name="e_wo_entrp">    -36.90135692 </i>
    <i name="e_0_energy">    -36.90135957 </i>
   </energy>
  </scstep>
  <scstep>
   <time name="diag">   78.39   78.91</time>
   <time name="diis">  320.25  323.38</time>
   <time name="orth">    3.09    3.09</time>
   <time name="total">  433.67  437.51</time>
   <energy>
    <i name="e_fr_energy">    -36.90137397 </i>
    <i name="e_wo_entrp">    -36.90136867 </i>
    <i name="e_0_energy">    -36.90137132 </i>
   </energy>
  </scstep>
  <scstep>
   <time name="diag">   78.73   78.99</time>
   <time name="diis">  318.45  319.12</time>
   <time name="orth">    3.08    3.08</time>
   <time name="total">  432.20  434.11</time>
   <energy>
    <i name="e_fr_energy">    -36.90138586 </i>
    <i name="e_wo_entrp">    -36.90138056 </i>
    <i name="e_0_energy">    -36.90138321 </i>
   </energy>
  </scstep>
  <scstep>
   <time name="diag">   78.46   78.92</time>
   <time name="diis">  326.06  329.12</time>
   <time name="orth">    3.08    3.10</time>
   <time name="total">  439.68  443.88</time>
   <energy>
    <i name="e_fr_energy">    -36.90139138 </i>
    <i name="e_wo_entrp">    -36.90138609 </i>
    <i name="e_0_energy">    -36.90138873 </i>
   </energy>
  </scstep>
  <scstep>
   <time name="diag">   78.49   79.03</time>
   <time name="diis">  315.20  318.38</time>
   <time name="orth">    3.08    3.10</time>
   <time name="total">  428.87  433.10</time>
   <energy>
    <i name="e_fr_energy">    -36.90139245 </i>
    <i name="e_wo_entrp">    -36.90138716 </i>
    <i name="e_0_energy">    -36.90138981 </i>
   </energy>
  </scstep>
  <scstep>
   <time name="diag">   78.50   79.10</time>
   <time name="diis">  333.34  335.93</time>
   <time name="orth">    3.12    3.20</time>
   <time name="total">  446.81  450.66</time>
   <energy>
    <i name="e_fr_energy">    -36.90139325 </i>
    <i name="e_wo_entrp">    -36.90138795 </i>
    <i name="e_0_energy">    -36.90139060 </i>
   </energy>
  </scstep>
  <scstep>
   <time name="diag">   78.63   79.17</time>
   <time name="diis">  249.56  251.27</time>
   <time name="orth">    3.09    3.09</time>
   <time name="total">  363.56  366.19</time>
   <energy>
    <i name="e_fr_energy">    -36.90139330 </i>
    <i name="e_wo_entrp">    -36.90138800 </i>
    <i name="e_0_energy">    -36.90139065 </i>
   </energy>
  </scstep>
  <scstep>
   <time name="diag">   78.99   79.12</time>
   <time name="diis">  243.29  245.55</time>
   <time name="orth">    3.07    3.10</time>
   <time name="total">  357.63  360.45</time>
   <energy>
    <i name="e_fr_energy">    -36.90139332 </i>
    <i name="e_wo_entrp">    -36.90138802 </i>
    <i name="e_0_energy">    -36.90139067 </i>
   </energy>
  </scstep>
  <scstep>
   <time name="diag">   78.84   79.14</time>
   <time name="diis">  220.02  220.60</time>
   <time name="orth">    3.07    3.07</time>
   <time name="total">  334.38  335.31</time>
   <energy>
    <i name="e_fr_energy">    -36.90139332 </i>
    <i name="e_wo_entrp">    -36.90138802 </i>
    <i name="e_0_energy">    -36.90139067 </i>
   </energy>
  </scstep>
  <scstep>
   <time name="diag">   78.49   79.11</time>
   <time name="diis">  209.96  210.91</time>
   <time name="orth">    3.07    3.07</time>
   <time name="total">  324.01  325.66</time>
   <energy>
    <i name="e_fr_energy">    -36.90139332 </i>
    <i name="e_wo_entrp">    -36.90138802 </i>
    <i name="e_0_energy">    -36.90139067 </i>
   </energy>
  </scstep>
  <scstep>
   <time name="diag">   79.05   79.14</time>
   <time name="diis">  195.95  196.08</time>
   <time name="orth">    3.07    3.07</time>
   <time name="total">  310.67  310.94</time>
   <energy>
    <i name="e_fr_energy">    -36.90139332 </i>
    <i name="e_wo_entrp">    -36.90138802 </i>
    <i name="e_0_energy">    -36.90139067 </i>
   </energy>
  </scstep>
  <scstep>
   <time name="diag">   78.80   79.24</time>
   <time name="diis">  186.20  186.62</time>
   <time name="orth">    3.07    3.09</time>
   <time name="total">  300.33  301.56</time>
   <energy>
    <i name="e_fr_energy">    -36.90139332 </i>
    <i name="e_wo_entrp">    -36.90138802 </i>
    <i name="e_0_energy">    -36.90139067 </i>
   </energy>
  </scstep>
  <scstep>
   <time name="diag">   78.52   79.19</time>
   <time name="diis">  178.17  179.94</time>
   <time name="orth">    3.07    3.09</time>
   <time name="total">  292.03  294.85</time>
   <energy>
    <i name="e_fr_energy">    -36.90139332 </i>
    <i name="e_wo_entrp">    -36.90138802 </i>
    <i name="e_0_energy">    -36.90139067 </i>
   </energy>
  </scstep>
  <scstep>
   <time name="diag">   78.33   79.24</time>
   <time name="diis">  173.89  175.60</time>
   <time name="orth">    3.07    3.10</time>
   <time name="total">  257.64  260.68</time>
   <energy>
    <i name="alphaZ">      6.18334092 </i>
    <i name="ewald">   2504.17755431 </i>
    <i name="hartreedc">  -2998.32807577 </i>
    <i name="XCdc">     57.29483395 </i>
    <i name="pawpsdc">    272.10642832 </i>
    <i name="pawaedc">   -277.23272091 </i>
    <i name="eentropy">     -0.00000530 </i>
    <i name="bandstr">   -189.72627576 </i>
    <i name="atom">    588.62352690 </i>
    <i name="e_fr_energy">    -36.90139332 </i>
    <i name="e_wo_entrp">    -36.90138802 </i>
    <i name="e_0_energy">    -36.90139067 </i>
   </energy>
  </scstep>
  <structure>
   <crystal>
    <varray name="basis" >
     <v>       4.33693277       0.00000000       0.00000000 </v>
     <v>       0.00000000       2.46091771       0.00000000 </v>
     <v>       0.00000000       0.00000000      19.75463011 </v>
    </varray>
    <i name="volume">    210.83790140 </i>
    <varray name="rec_basis" >
     <v>       0.23057770       0.00000000       0.00000000 </v>
     <v>       0.00000000       0.40635247       0.00000000 </v>
     <v>       0.00000000       0.00000000       0.05062104 </v>
    </varray>
   </crystal>
   <varray name="positions" >
    <v>       0.99964215       0.00000000       0.00000000 </v>
    <v>       0.16702452       0.50000000       0.00000000 </v>
    <v>       0.49964215       0.50000000       0.00000000 </v>
    <v>       0.66702452       0.00000000       0.00000000 </v>
   </varray>
  </structure>
  <varray name="forces" >
   <v>       0.00186468       0.00000000       0.00000000 </v>
   <v>      -0.00186468       0.00000000      -0.00000000 </v>
   <v>       0.00186468      -0.00000000       0.00000000 </v>
   <v>      -0.00186468       0.00000000      -0.00000000 </v>
  </varray>
  <varray name="stress" >
   <v>     -24.77334119       0.00000000       0.00000000 </v>
   <v>       0.00000000      -0.01407310       0.00000000 </v>
   <v>       0.00000000       0.00000000      -0.01021693 </v>
  </varray>
  <energy>
   <i name="e_fr_energy">    -36.90139332 </i>
   <i name="e_wo_entrp">    -36.90139067 </i>
   <i name="e_0_energy">     -0.00000530 </i>
  </energy>
  <time name="totalsc">10786.7510855.36</time>
 </calculation>
 <calculation>
  <scstep>
   <time name="dav">  302.06  303.06</time>
   <time name="total">  334.61  335.77</time>
   <energy>
    <i name="alphaZ">      6.18334092 </i>
    <i name="ewald">   2504.17871339 </i>
    <i name="hartreedc">  -2998.32857922 </i>
    <i name="XCdc">     57.29486684 </i>
    <i name="pawpsdc">    272.10642837 </i>
    <i name="pawaedc">   -277.23272096 </i>
    <i name="eentropy">     -0.00000483 </i>
    <i name="bandstr">   -189.72696376 </i>
    <i name="atom">    588.62352690 </i>
    <i name="e_fr_energy">    -36.90139233 </i>
    <i name="e_wo_entrp">    -36.90138751 </i>
    <i name="e_0_energy">    -36.90138992 </i>
   </energy>
  </scstep>
  <scstep>
   <time name="diag">   79.27   79.29</time>
   <time name="diis">  321.07  321.12</time>
   <time name="orth">    3.07    3.07</time>
   <time name="total">  435.96  436.04</time>
   <energy>
    <i name="e_fr_energy">    -36.90139240 </i>
    <i name="e_wo_entrp">    -36.90138756 </i>
    <i name="e_0_energy">    -36.90138998 </i>
   </energy>
  </scstep>
  <scstep>
   <time name="diag">   79.25   79.27</time>
   <time name="diis">  323.62  323.89</time>
   <time name="orth">    3.10    3.10</time>
   <time name="total">  438.48  438.93</time>
   <energy>
    <i name="e_fr_energy">    -36.90139236 </i>
    <i name="e_wo_entrp">    -36.90138750 </i>
    <i name="e_0_energy">    -36.90138993 </i>
   </energy>
  </scstep>
  <scstep>
   <time name="diag">   79.26   79.32</time>
   <time name="diis">  329.13  329.44</time>
   <time name="orth">    3.09    3.09</time>
   <time name="total">  444.08  444.45</time>
   <energy>
    <i name="e_fr_energy">    -36.90139236 </i>
    <i name="e_wo_entrp">    -36.90138750 </i>
    <i name="e_0_energy">    -36.90138993 </i>
   </energy>
  </scstep>
  <scstep>
   <time name="diag">   79.20   79.28</time>
   <time name="diis">  304.82  305.09</time>
   <time name="orth">    3.10    3.10</time>
   <time name="total">  419.68  420.06</time>
   <energy>
    <i name="e_fr_energy">    -36.90139236 </i>
    <i name="e_wo_entrp">    -36.90138750 </i>
    <i name="e_0_energy">    -36.90138993 </i>
   </energy>
  </scstep>
  <scstep>
   <time name="diag">   78.97   79.35</time>
   <time name="diis">  220.36  220.58</time>
   <time name="orth">    3.11    3.11</time>
   <time name="total">  335.03  335.65</time>
   <energy>
    <i name="e_fr_energy">    -36.90139236 </i>
    <i name="e_wo_entrp">    -36.90138750 </i>
    <i name="e_0_energy">    -36.90138993 </i>
   </energy>
  </scstep>
  <scstep>
   <time name="diag">   79.23   79.25</time>
   <time name="diis">  212.25  212.29</time>
   <time name="orth">    3.07    3.07</time>
   <time name="total">  327.16  327.52</time>
   <energy>
    <i name="e_fr_energy">    -36.90139236 </i>
    <i name="e_wo_entrp">    -36.90138750 </i>
    <i name="e_0_energy">    -36.90138993 </i>
   </energy>
  </scstep>
  <scstep>
   <time name="diag">   79.17   79.19</time>
   <time name="diis">  204.15  204.18</time>
   <time name="orth">    3.08    3.08</time>
   <time name="total">  288.70  289.08</time>
   <energy>
    <i name="alphaZ">      6.18334092 </i>
    <i name="ewald">   2504.17871339 </i>
    <i name="hartreedc">  -2998.32903856 </i>
    <i name="XCdc">     57.29488632 </i>
    <i name="pawpsdc">    272.10843054 </i>
    <i name="pawaedc">   -277.23473193 </i>
    <i name="eentropy">     -0.00000486 </i>
    <i name="bandstr">   -189.72651509 </i>
    <i name="atom">    588.62352690 </i>
    <i name="e_fr_energy">    -36.90139236 </i>
    <i name="e_wo_entrp">    -36.90138750 </i>
    <i name="e_0_energy">    -36.90138993 </i>
   </energy>
  </scstep>
  <structure>
   <crystal>
    <varray name="basis" >
     <v>       4.33693277       0.00000000       0.00000000 </v>
     <v>       0.00000000       2.46091771       0.00000000 </v>
     <v>       0.00000000       0.00000000      19.75463011 </v>
    </varray>
    <i name="volume">    210.83790140 </i>
    <varray name="rec_basis" >
     <v>       0.23057770       0.00000000       0.00000000 </v>
     <v>       0.00000000       0.40635247       0.00000000 </v>
     <v>       0.00000000       0.00000000       0.05062104 </v>
    </varray>
   </crystal>
   <varray name="positions" >
    <v>       0.99966289       0.00000000       0.00000000 </v>
    <v>       0.16700377       0.50000000      -0.00000000 </v>
    <v>       0.49966289       0.50000000       0.00000000 </v>
    <v>       0.66700377       0.00000000      -0.00000000 </v>
   </varray>
  </structure>
  <varray name="forces" >
   <v>      -0.00726141       0.00000000       0.00000000 </v>
   <v>       0.00726141      -0.00000000       0.00000000 </v>
   <v>      -0.00726141       0.00000000       0.00000000 </v>
   <v>       0.00726141      -0.00000000       0.00000000 </v>
  </varray>
  <varray name="stress" >
   <v>     -24.79452400       0.00000000       0.00000000 </v>
   <v>       0.00000000       0.01612203       0.00000000 </v>
   <v>       0.00000000       0.00000000      -0.01018267 </v>
  </varray>
  <energy>
   <i name="e_fr_energy">    -36.90139236 </i>
   <i name="e_wo_entrp">    -36.90138993 </i>
   <i name="e_0_energy">     -0.00000486 </i>
  </energy>
  <time name="totalsc"> 3125.16 3129.18</time>
 </calculation>
 <calculation>
  <scstep>
   <time name="dav">  309.72  310.26</time>
   <time name="total">  342.31  342.86</time>
   <energy>
    <i name="alphaZ">      6.18334092 </i>
    <i name="ewald">   2504.17779022 </i>
    <i name="hartreedc">  -2998.32865069 </i>
    <i name="XCdc">     57.29486013 </i>
    <i name="pawpsdc">    272.10842817 </i>
    <i name="pawaedc">   -277.23472950 </i>
    <i name="eentropy">     -0.00000524 </i>
    <i name="bandstr">   -189.72595431 </i>
    <i name="atom">    588.62352690 </i>
    <i name="e_fr_energy">    -36.90139339 </i>
    <i name="e_wo_entrp">    -36.90138816 </i>
    <i name="e_0_energy">    -36.90139078 </i>
   </energy>
  </scstep>
  <scstep>
   <time name="diag">   79.25   79.26</time>
   <time name="diis">  319.46  319.52</time>
   <time name="orth">    3.07    3.08</time>
   <time name="total">  434.27  434.41</time>
   <energy>
    <i name="e_fr_energy">    -36.90139342 </i>
    <i name="e_wo_entrp">    -36.90138820 </i>
    <i name="e_0_energy">    -36.90139081 </i>
   </energy>
  </scstep>
  <scstep>
   <time name="diag">   78.99   79.32</time>
   <time name="diis">  320.06  321.49</time>
   <time name="orth">    3.07    3.07</time>
   <time name="total">  434.66  436.61</time>
   <energy>
    <i name="e_fr_energy">    -36.90139339 </i>
    <i name="e_wo_entrp">    -36.90138819 </i>
    <i name="e_0_energy">    -36.90139079 </i>
   </energy>
  </scstep>
  <scstep>
   <time name="diag">   78.81   79.24</time>
   <time name="diis">  329.08  329.83</time>
   <time name="orth">    3.07    3.07</time>
   <time name="total">  443.49  444.80</time>
   <energy>
    <i name="e_fr_energy">    -36.90139339 </i>
    <i name="e_wo_entrp">    -36.90138818 </i>
    <i name="e_0_energy">    -36.90139079 </i>
   </energy>
  </scstep>
  <scstep>
   <time name="diag">   79.14   79.21</time>
   <time name="diis">  272.93  273.17</time>
   <time name="orth">    3.07    3.08</time>
   <time name="total">  387.64  389.27</time>
   <energy>
    <i name="e_fr_energy">    -36.90139339 </i>
    <i name="e_wo_entrp">    -36.90138818 </i>
    <i name="e_0_energy">    -36.90139079 </i>
   </energy>
  </scstep>
  <scstep>
   <time name="diag">   79.21   79.25</time>
   <time name="diis">  216.75  216.79</time>
   <time name="orth">    3.10    3.10</time>
   <time name="total">  301.44  301.54</time>
   <energy>
    <i name="alphaZ">      6.18334092 </i>
    <i name="ewald">   2504.17779022 </i>
    <i name="hartreedc">  -2998.32831644 </i>
    <i name="XCdc">     57.29484505 </i>
    <i name="pawpsdc">    272.10684160 </i>
    <i name="pawaedc">   -277.23313602 </i>
    <i name="eentropy">     -0.00000521 </i>
    <i name="bandstr">   -189.72628042 </i>
    <i name="atom">    588.62352690 </i>
    <i name="e_fr_energy">    -36.90139339 </i>
    <i name="e_wo_entrp">    -36.90138818 </i>
    <i name="e_0_energy">    -36.90139079 </i>
   </energy>
  </scstep>
  <structure>
   <crystal>
    <varray name="basis" >
     <v>       4.33693277       0.00000000       0.00000000 </v>
     <v>       0.00000000       2.46091771       0.00000000 </v>
     <v>       0.00000000       0.00000000      19.75463011 </v>
    </varray>
    <i name="volume">    210.83790140 </i>
    <varray name="rec_basis" >
     <v>       0.23057770       0.00000000       0.00000000 </v>
     <v>       0.00000000       0.40635247       0.00000000 </v>
     <v>       0.00000000       0.00000000       0.05062104 </v>
    </varray>
   </crystal>
   <varray name="positions" >
    <v>       0.99964639       0.00000000       0.00000000 </v>
    <v>       0.16702028       0.50000000      -0.00000000 </v>
    <v>       0.49964639       0.50000000       0.00000000 </v>
    <v>       0.66702028       0.00000000      -0.00000000 </v>
   </varray>
  </structure>
  <varray name="forces" >
   <v>      -0.00000945      -0.00000000      -0.00000000 </v>
   <v>       0.00000945       0.00000000       0.00000000 </v>
   <v>      -0.00000945      -0.00000000      -0.00000000 </v>
   <v>       0.00000945       0.00000000       0.00000000 </v>
  </varray>
  <varray name="stress" >
   <v>     -24.77778701       0.00000000       0.00000000 </v>
   <v>       0.00000000      -0.00777154       0.00000000 </v>
   <v>       0.00000000       0.00000000      -0.01028362 </v>
  </varray>
  <energy>
   <i name="e_fr_energy">    -36.90139339 </i>
   <i name="e_wo_entrp">    -36.90139079 </i>
   <i name="e_0_energy">     -0.00000521 </i>
  </energy>
  <time name="totalsc"> 2445.55 2451.39</time>
 </calculation>
 <calculation>
  <scstep>
   <time name="dav">  250.30  250.35</time>
   <time name="total">  282.92  282.97</time>
   <energy>
    <i name="alphaZ">      6.18334092 </i>
    <i name="ewald">   2504.17778902 </i>
    <i name="hartreedc">  -2998.32830418 </i>
    <i name="XCdc">     57.29484475 </i>
    <i name="pawpsdc">    272.10683672 </i>
    <i name="pawaedc">   -277.23313108 </i>
    <i name="eentropy">     -0.00000521 </i>
    <i name="bandstr">   -189.72629123 </i>
    <i name="atom">    588.62352690 </i>
    <i name="e_fr_energy">    -36.90139339 </i>
    <i name="e_wo_entrp">    -36.90138818 </i>
    <i name="e_0_energy">    -36.90139079 </i>
   </energy>
  </scstep>
  <scstep>
   <time name="diag">   79.12   79.14</time>
   <time name="diis">  193.41  193.44</time>
   <time name="orth">    3.08    3.08</time>
   <time name="total">  308.19  308.24</time>
   <energy>
    <i name="e_fr_energy">    -36.90139339 </i>
    <i name="e_wo_entrp">    -36.90138818 </i>
    <i name="e_0_energy">    -36.90139079 </i>
   </energy>
  </scstep>
  <scstep>
   <time name="diag">   79.12   79.13</time>
   <time name="diis">  189.51  189.56</time>
   <time name="orth">    3.09    3.09</time>
   <time name="total">  304.24  304.46</time>
   <energy>
    <i name="e_fr_energy">    -36.90139339 </i>
    <i name="e_wo_entrp">    -36.90138818 </i>
    <i name="e_0_energy">    -36.90139079 </i>
   </energy>
  </scstep>
  <scstep>
   <time name="diag">   79.14   79.18</time>
   <time name="diis">  180.82  181.31</time>
   <time name="orth">    3.08    3.08</time>
   <time name="total">  295.49  296.23</time>
   <energy>
    <i name="e_fr_energy">    -36.90139339 </i>
    <i name="e_wo_entrp">    -36.90138818 </i>
    <i name="e_0_energy">    -36.90139079 </i>
   </energy>
  </scstep>
  <scstep>
   <time name="diag">   78.73   79.18</time>
   <time name="diis">  176.01  177.35</time>
   <time name="orth">    3.07    3.09</time>
   <time name="total">  290.33  293.09</time>
   <energy>
    <i name="e_fr_energy">    -36.90139339 </i>
    <i name="e_wo_entrp">    -36.90138818 </i>
    <i name="e_0_energy">    -36.90139079 </i>
   </energy>
  </scstep>
  <scstep>
   <time name="diag">   78.73   79.19</time>
   <time name="diis">  170.42  170.75</time>
   <time name="orth">    3.09    3.10</time>
   <time name="total">  284.84  285.68</time>
   <energy>
    <i name="e_fr_energy">    -36.90139339 </i>
    <i name="e_wo_entrp">    -36.90138818 </i>
    <i name="e_0_energy">    -36.90139079 </i>
   </energy>
  </scstep>
  <scstep>
   <time name="diag">   79.07   79.19</time>
   <time name="diis">  166.64  167.30</time>
   <time name="orth">    3.09    3.10</time>
   <time name="total">  251.14  252.02</time>
   <energy>
    <i name="alphaZ">      6.18334092 </i>
    <i name="ewald">   2504.17778902 </i>
    <i name="hartreedc">  -2998.32827395 </i>
    <i name="XCdc">     57.29484449 </i>
    <i name="pawpsdc">    272.10683121 </i>
    <i name="pawaedc">   -277.23312562 </i>
    <i name="eentropy">     -0.00000521 </i>
    <i name="bandstr">   -189.72632117 </i>
    <i name="atom">    588.62352690 </i>
    <i name="e_fr_energy">    -36.90139339 </i>
    <i name="e_wo_entrp">    -36.90138818 </i>
    <i name="e_0_energy">    -36.90139079 </i>
   </energy>
  </scstep>
  <structure>
   <crystal>
    <varray name="basis" >
     <v>       4.33693277       0.00000000       0.00000000 </v>
     <v>       0.00000000       2.46091771       0.00000000 </v>
     <v>       0.00000000       0.00000000      19.75463011 </v>
    </varray>
    <i name="volume">    210.83790140 </i>
    <varray name="rec_basis" >
     <v>       0.23057770       0.00000000       0.00000000 </v>
     <v>       0.00000000       0.40635247       0.00000000 </v>
     <v>       0.00000000       0.00000000       0.05062104 </v>
    </varray>
   </crystal>
   <varray name="positions" >
    <v>       0.99964637      -0.00000000      -0.00000000 </v>
    <v>       0.16702030       0.50000000       0.00000000 </v>
    <v>       0.49964637       0.50000000      -0.00000000 </v>
    <v>       0.66702030       0.00000000       0.00000000 </v>
   </varray>
  </structure>
  <varray name="forces" >
   <v>       0.00001252      -0.00000000       0.00000000 </v>
   <v>      -0.00001252      -0.00000000       0.00000000 </v>
   <v>       0.00001252       0.00000000       0.00000000 </v>
   <v>      -0.00001252       0.00000000       0.00000000 </v>
  </varray>
  <varray name="stress" >
   <v>     -24.77763006       0.00000000       0.00000000 </v>
   <v>       0.00000000      -0.00793596       0.00000000 </v>
   <v>       0.00000000       0.00000000      -0.01023763 </v>
  </varray>
  <energy>
   <i name="e_fr_energy">    -36.90139339 </i>
   <i name="e_wo_entrp">    -36.90139079 </i>
   <i name="e_0_energy">     -0.00000521 </i>
  </energy>
  <time name="totalsc"> 2118.56 2124.80</time>
 </calculation>
 <calculation>
  <scstep>
   <time name="dav">  241.80  243.17</time>
   <time name="total">  274.05  275.79</time>
   <energy>
    <i name="alphaZ">      6.18334092 </i>
    <i name="ewald">   2504.17778971 </i>
    <i name="hartreedc">  -2998.32827383 </i>
    <i name="XCdc">     57.29484451 </i>
    <i name="pawpsdc">    272.10683121 </i>
    <i name="pawaedc">   -277.23312562 </i>
    <i name="eentropy">     -0.00000521 </i>
    <i name="bandstr">   -189.72632199 </i>
    <i name="atom">    588.62352690 </i>
    <i name="e_fr_energy">    -36.90139339 </i>
    <i name="e_wo_entrp">    -36.90138818 </i>
    <i name="e_0_energy">    -36.90139079 </i>
   </energy>
  </scstep>
  <scstep>
   <time name="diag">   78.45   79.17</time>
   <time name="diis">  148.22  149.80</time>
   <time name="orth">    3.08    3.10</time>
   <time name="total">  262.03  264.71</time>
   <energy>
    <i name="e_fr_energy">    -36.90139339 </i>
    <i name="e_wo_entrp">    -36.90138818 </i>
    <i name="e_0_energy">    -36.90139079 </i>
   </energy>
  </scstep>
  <scstep>
   <time name="diag">   78.55   79.14</time>
   <time name="diis">  146.95  147.85</time>
   <time name="orth">    3.09    3.09</time>
   <time name="total">  261.01  262.60</time>
   <energy>
    <i name="e_fr_energy">    -36.90139339 </i>
    <i name="e_wo_entrp">    -36.90138818 </i>
    <i name="e_0_energy">    -36.90139079 </i>
   </energy>
  </scstep>
  <scstep>
   <time name="diag">   79.07   79.18</time>
   <time name="diis">  146.22  146.31</time>
   <time name="orth">    3.10    3.10</time>
   <time name="total">  261.09  261.30</time>
   <energy>
    <i name="e_fr_energy">    -36.90139339 </i>
    <i name="e_wo_entrp">    -36.90138818 </i>
    <i name="e_0_energy">    -36.90139079 </i>
   </energy>
  </scstep>
  <scstep>
   <time name="diag">   79.22   79.23</time>
   <time name="diis">  146.14  146.17</time>
   <time name="orth">    3.10    3.10</time>
   <time name="total">  261.08  261.17</time>
   <energy>
    <i name="e_fr_energy">    -36.90139339 </i>
    <i name="e_wo_entrp">    -36.90138818 </i>
    <i name="e_0_energy">    -36.90139079 </i>
   </energy>
  </scstep>
  <scstep>
   <time name="diag">   79.21   79.22</time>
   <time name="diis">  145.20  145.23</time>
   <time name="orth">    3.09    3.09</time>
   <time name="total">  260.18  260.23</time>
   <energy>
    <i name="e_fr_energy">    -36.90139339 </i>
    <i name="e_wo_entrp">    -36.90138818 </i>
    <i name="e_0_energy">    -36.90139079 </i>
   </energy>
  </scstep>
  <scstep>
   <time name="diag">   79.18   79.21</time>
   <time name="diis">  132.33  132.35</time>
   <time name="orth">    3.09    3.09</time>
   <time name="total">  217.00  217.07</time>
   <energy>
    <i name="alphaZ">      6.18334092 </i>
    <i name="ewald">   2504.17778971 </i>
    <i name="hartreedc">  -2998.32827717 </i>
    <i name="XCdc">     57.29484462 </i>
    <i name="pawpsdc">    272.10683305 </i>
    <i name="pawaedc">   -277.23312748 </i>
    <i name="eentropy">     -0.00000521 </i>
    <i name="bandstr">   -189.72631874 </i>
    <i name="atom">    588.62352690 </i>
    <i name="e_fr_energy">    -36.90139339 </i>
    <i name="e_wo_entrp">    -36.90138818 </i>
    <i name="e_0_energy">    -36.90139079 </i>
   </energy>
  </scstep>
  <structure>
   <crystal>
    <varray name="basis" >
     <v>       4.33693277       0.00000000       0.00000000 </v>
     <v>       0.00000000       2.46091771       0.00000000 </v>
     <v>       0.00000000       0.00000000      19.75463011 </v>
    </varray>
    <i name="volume">    210.83790140 </i>
    <varray name="rec_basis" >
     <v>       0.23057770       0.00000000       0.00000000 </v>
     <v>       0.00000000       0.40635247       0.00000000 </v>
     <v>       0.00000000       0.00000000       0.05062104 </v>
    </varray>
   </crystal>
   <varray name="positions" >
    <v>       0.99964638      -0.00000000      -0.00000000 </v>
    <v>       0.16702029       0.50000000       0.00000000 </v>
    <v>       0.49964638       0.50000000      -0.00000000 </v>
    <v>       0.66702029       0.00000000       0.00000000 </v>
   </varray>
  </structure>
  <varray name="forces" >
   <v>       0.00000147       0.00000000       0.00000000 </v>
   <v>      -0.00000147      -0.00000000      -0.00000000 </v>
   <v>       0.00000147       0.00000000       0.00000000 </v>
   <v>      -0.00000147       0.00000000      -0.00000000 </v>
  </varray>
  <varray name="stress" >
   <v>     -24.77766972       0.00000000       0.00000000 </v>
   <v>       0.00000000      -0.00789615       0.00000000 </v>
   <v>       0.00000000       0.00000000      -0.01021746 </v>
  </varray>
  <energy>
   <i name="e_fr_energy">    -36.90139339 </i>
   <i name="e_wo_entrp">    -36.90139079 </i>
   <i name="e_0_energy">     -0.00000521 </i>
  </energy>
  <time name="totalsc"> 1898.03 1904.97</time>
 </calculation>
 <calculation>
  <scstep>
   <time name="dav">  255.83  255.91</time>
   <time name="total">  288.54  288.62</time>
   <energy>
    <i name="alphaZ">      6.18334092 </i>
    <i name="ewald">   2504.17778980 </i>
    <i name="hartreedc">  -2998.32827732 </i>
    <i name="XCdc">     57.29484462 </i>
    <i name="pawpsdc">    272.10683307 </i>
    <i name="pawaedc">   -277.23312749 </i>
    <i name="eentropy">     -0.00000521 </i>
    <i name="bandstr">   -189.72631869 </i>
    <i name="atom">    588.62352690 </i>
    <i name="e_fr_energy">    -36.90139339 </i>
    <i name="e_wo_entrp">    -36.90138818 </i>
    <i name="e_0_energy">    -36.90139079 </i>
   </energy>
  </scstep>
  <scstep>
   <time name="diag">   79.06   79.28</time>
   <time name="diis">  125.31  125.42</time>
   <time name="orth">    3.09    3.10</time>
   <time name="total">  240.10  240.45</time>
   <energy>
    <i name="e_fr_energy">    -36.90139339 </i>
    <i name="e_wo_entrp">    -36.90138818 </i>
    <i name="e_0_energy">    -36.90139079 </i>
   </energy>
  </scstep>
  <scstep>
   <time name="diag">   79.17   79.18</time>
   <time name="diis">  127.33  127.35</time>
   <time name="orth">    3.08    3.08</time>
   <time name="total">  242.17  242.31</time>
   <energy>
    <i name="e_fr_energy">    -36.90139339 </i>
    <i name="e_wo_entrp">    -36.90138818 </i>
    <i name="e_0_energy">    -36.90139079 </i>
   </energy>
  </scstep>
  <scstep>
   <time name="diag">   79.12   79.14</time>
   <time name="diis">  124.26  124.37</time>
   <time name="orth">    3.08    3.10</time>
   <time name="total">  239.06  239.34</time>
   <energy>
    <i name="e_fr_energy">    -36.90139339 </i>
    <i name="e_wo_entrp">    -36.90138818 </i>
    <i name="e_0_energy">    -36.90139079 </i>
   </energy>
  </scstep>
  <scstep>
   <time name="diag">   79.18   79.19</time>
   <time name="diis">  134.12  134.14</time>
   <time name="orth">    3.11    3.11</time>
   <time name="total">  249.04  249.74</time>
   <energy>
    <i name="e_fr_energy">    -36.90139339 </i>
    <i name="e_wo_entrp">    -36.90138818 </i>
    <i name="e_0_energy">    -36.90139079 </i>
   </energy>
  </scstep>
  <scstep>
   <time name="diag">   79.07   79.11</time>
   <time name="diis">  128.17  128.75</time>
   <time name="orth">    3.07    3.10</time>
   <time name="total">  242.78  243.79</time>
   <energy>
    <i name="e_fr_energy">    -36.90139339 </i>
    <i name="e_wo_entrp">    -36.90138818 </i>
    <i name="e_0_energy">    -36.90139079 </i>
   </energy>
  </scstep>
  <scstep>
   <time name="diag">   78.95   79.33</time>
   <time name="diis">  114.65  115.14</time>
   <time name="orth">    3.09    3.09</time>
   <time name="total">  229.20  230.34</time>
   <energy>
    <i name="e_fr_energy">    -36.90139339 </i>
    <i name="e_wo_entrp">    -36.90138818 </i>
    <i name="e_0_energy">    -36.90139079 </i>
   </energy>
  </scstep>
  <scstep>
   <time name="diag">   79.27   79.29</time>
   <time name="diis">  122.77  122.79</time>
   <time name="orth">    3.08    3.08</time>
   <time name="total">  207.44  207.54</time>
   <energy>
    <i name="alphaZ">      6.18334092 </i>
    <i name="ewald">   2504.17778980 </i>
    <i name="hartreedc">  -2998.32827664 </i>
    <i name="XCdc">     57.29484460 </i>
    <i name="pawpsdc">    272.10683278 </i>
    <i name="pawaedc">   -277.23312720 </i>
    <i name="eentropy">     -0.00000521 </i>
    <i name="bandstr">   -189.72631934 </i>
    <i name="atom">    588.62352690 </i>
    <i name="e_fr_energy">    -36.90139339 </i>
    <i name="e_wo_entrp">    -36.90138818 </i>
    <i name="e_0_energy">    -36.90139079 </i>
   </energy>
  </scstep>
  <structure>
   <crystal>
    <varray name="basis" >
     <v>       4.33693277       0.00000000       0.00000000 </v>
     <v>       0.00000000       2.46091771       0.00000000 </v>
     <v>       0.00000000       0.00000000      19.75463011 </v>
    </varray>
    <i name="volume">    210.83790140 </i>
    <varray name="rec_basis" >
     <v>       0.23057770       0.00000000       0.00000000 </v>
     <v>       0.00000000       0.40635247       0.00000000 </v>
     <v>       0.00000000       0.00000000       0.05062104 </v>
    </varray>
   </crystal>
   <varray name="positions" >
    <v>       0.99964638      -0.00000000      -0.00000000 </v>
    <v>       0.16702029       0.50000000       0.00000000 </v>
    <v>       0.49964638       0.50000000      -0.00000000 </v>
    <v>       0.66702029       0.00000000       0.00000000 </v>
   </varray>
  </structure>
  <varray name="forces" >
   <v>       0.00000141       0.00000000      -0.00000000 </v>
   <v>      -0.00000141      -0.00000000       0.00000000 </v>
   <v>       0.00000141      -0.00000000      -0.00000000 </v>
   <v>      -0.00000141       0.00000000       0.00000000 </v>
  </varray>
  <varray name="stress" >
   <v>     -24.77766417       0.00000000       0.00000000 </v>
   <v>       0.00000000      -0.00789858       0.00000000 </v>
   <v>       0.00000000       0.00000000      -0.01022610 </v>
  </varray>
  <energy>
   <i name="e_fr_energy">    -36.90139339 </i>
   <i name="e_wo_entrp">    -36.90139079 </i>
   <i name="e_0_energy">     -0.00000521 </i>
  </energy>
  <time name="totalsc"> 2040.26 2044.53</time>
 </calculation>
 <calculation>
  <scstep>
   <time name="dav">  323.32  323.53</time>
   <time name="total">  355.87  356.10</time>
   <energy>
    <i name="alphaZ">      6.18334092 </i>
    <i name="ewald">   2504.17779228 </i>
    <i name="hartreedc">  -2998.32827771 </i>
    <i name="XCdc">     57.29484467 </i>
    <i name="pawpsdc">    272.10683278 </i>
    <i name="pawaedc">   -277.23312721 </i>
    <i name="eentropy">     -0.00000521 </i>
    <i name="bandstr">   -189.72632082 </i>
    <i name="atom">    588.62352690 </i>
    <i name="e_fr_energy">    -36.90139339 </i>
    <i name="e_wo_entrp">    -36.90138818 </i>
    <i name="e_0_energy">    -36.90139079 </i>
   </energy>
  </scstep>
  <scstep>
   <time name="diag">   79.20   79.25</time>
   <time name="diis">  150.75  150.97</time>
   <time name="orth">    3.08    3.08</time>
   <time name="total">  265.60  265.95</time>
   <energy>
    <i name="e_fr_energy">    -36.90139339 </i>
    <i name="e_wo_entrp">    -36.90138818 </i>
    <i name="e_0_energy">    -36.90139079 </i>
   </energy>
  </scstep>
  <scstep>
   <time name="diag">   78.92   79.30</time>
   <time name="diis">  154.70  155.44</time>
   <time name="orth">    3.08    3.08</time>
   <time name="total">  269.13  270.46</time>
   <energy>
    <i name="e_fr_energy">    -36.90139339 </i>
    <i name="e_wo_entrp">    -36.90138818 </i>
    <i name="e_0_energy">    -36.90139079 </i>
   </energy>
  </scstep>
  <scstep>
   <time name="diag">   78.71   79.25</time>
   <time name="diis">  136.98  137.97</time>
   <time name="orth">    3.09    3.09</time>
   <time name="total">  251.27  252.94</time>
   <energy>
    <i name="e_fr_energy">    -36.90139339 </i>
    <i name="e_wo_entrp">    -36.90138818 </i>
    <i name="e_0_energy">    -36.90139079 </i>
   </energy>
  </scstep>
  <scstep>
   <time name="diag">   79.12   79.24</time>
   <time name="diis">  127.70  128.44</time>
   <time name="orth">    3.08    3.09</time>
   <time name="total">  242.15  244.35</time>
   <energy>
    <i name="e_fr_energy">    -36.90139339 </i>
    <i name="e_wo_entrp">    -36.90138818 </i>
    <i name="e_0_energy">    -36.90139079 </i>
   </energy>
  </scstep>
  <scstep>
   <time name="diag">   78.69   79.30</time>
   <time name="diis">  124.78  125.74</time>
   <time name="orth">    3.07    3.09</time>
   <time name="total">  238.90  240.75</time>
   <energy>
    <i name="e_fr_energy">    -36.90139339 </i>
    <i name="e_wo_entrp">    -36.90138818 </i>
    <i name="e_0_energy">    -36.90139079 </i>
   </energy>
  </scstep>
  <scstep>
   <time name="diag">   78.66   79.27</time>
   <time name="diis">  124.53  125.47</time>
   <time name="orth">    3.08    3.09</time>
   <time name="total">  238.41  240.48</time>
   <energy>
    <i name="e_fr_energy">    -36.90139339 </i>
    <i name="e_wo_entrp">    -36.90138818 </i>
    <i name="e_0_energy">    -36.90139079 </i>
   </energy>
  </scstep>
  <scstep>
   <time name="diag">   78.50   79.28</time>
   <time name="diis">  114.24  115.17</time>
   <time name="orth">    3.07    3.09</time>
   <time name="total">  198.13  199.93</time>
   <energy>
    <i name="alphaZ">      6.18334092 </i>
    <i name="ewald">   2504.17779228 </i>
    <i name="hartreedc">  -2998.32827908 </i>
    <i name="XCdc">     57.29484473 </i>
    <i name="pawpsdc">    272.10683556 </i>
    <i name="pawaedc">   -277.23313000 </i>
    <i name="eentropy">     -0.00000521 </i>
    <i name="bandstr">   -189.72631951 </i>
    <i name="atom">    588.62352690 </i>
    <i name="e_fr_energy">    -36.90139339 </i>
    <i name="e_wo_entrp">    -36.90138818 </i>
    <i name="e_0_energy">    -36.90139079 </i>
   </energy>
  </scstep>
  <structure>
   <crystal>
    <varray name="basis" >
     <v>       4.33693277       0.00000000       0.00000000 </v>
     <v>       0.00000000       2.46091771       0.00000000 </v>
     <v>       0.00000000       0.00000000      19.75463011 </v>
    </varray>
    <i name="volume">    210.83790140 </i>
    <varray name="rec_basis" >
     <v>       0.23057770       0.00000000       0.00000000 </v>
     <v>       0.00000000       0.40635247       0.00000000 </v>
     <v>       0.00000000       0.00000000       0.05062104 </v>
    </varray>
   </crystal>
   <varray name="positions" >
    <v>       0.99964643       0.00000000      -0.00000000 </v>
    <v>       0.16702024       0.50000000       0.00000000 </v>
    <v>       0.49964643       0.50000000      -0.00000000 </v>
    <v>       0.66702024       0.00000000       0.00000000 </v>
   </varray>
  </structure>
  <varray name="forces" >
   <v>      -0.00001435      -0.00000000       0.00000000 </v>
   <v>       0.00001435       0.00000000       0.00000000 </v>
   <v>      -0.00001435      -0.00000000       0.00000000 </v>
   <v>       0.00001435       0.00000000       0.00000000 </v>
  </varray>
  <varray name="stress" >
   <v>     -24.77768707       0.00000000       0.00000000 </v>
   <v>       0.00000000      -0.00785992       0.00000000 </v>
   <v>       0.00000000       0.00000000      -0.01022095 </v>
  </varray>
  <energy>
[...]
       <r>   -9.2999    1.0000 </r>
       <r>   -5.5468    1.0000 </r>
       <r>   -5.5468    1.0000 </r>
       <r>   -0.4625    0.0000 </r>
       <r>   -0.4625    0.0000 </r>
       <r>    4.4174    0.0000 </r>
       <r>    4.4174    0.0000 </r>
      </set>
      <set comment="kpoint 209">
       <r>  -18.7096    1.0000 </r>
       <r>  -16.9032    1.0000 </r>
       <r>  -14.1506    1.0000 </r>
       <r>  -12.4989    1.0000 </r>
       <r>  -12.3496    1.0000 </r>
       <r>  -10.8289    1.0000 </r>
       <r>   -6.3334    1.0000 </r>
       <r>   -4.4507    1.0000 </r>
       <r>   -1.1162    0.0000 </r>
       <r>    1.0470    0.0000 </r>
       <r>    5.2892    0.0000 </r>
       <r>    6.0663    0.0000 </r>
      </set>
      <set comment="kpoint 210">
       <r>  -18.7002    1.0000 </r>
       <r>  -16.8957    1.0000 </r>
       <r>  -14.2246    1.0000 </r>
       <r>  -12.5679    1.0000 </r>
       <r>  -12.2679    1.0000 </r>
       <r>  -10.7623    1.0000 </r>
       <r>   -6.3249    1.0000 </r>
       <r>   -4.4543    1.0000 </r>
       <r>   -1.1238    0.0000 </r>
       <r>    1.0233    0.0000 </r>
       <r>    5.3024    0.0000 </r>
       <r>    6.0818    0.0000 </r>
      </set>
      <set comment="kpoint 211">
       <r>  -18.6720    1.0000 </r>
       <r>  -16.8739    1.0000 </r>
       <r>  -14.4142    1.0000 </r>
       <r>  -12.7476    1.0000 </r>
       <r>  -12.0552    1.0000 </r>
       <r>  -10.5905    1.0000 </r>
       <r>   -6.2995    1.0000 </r>
       <r>   -4.4655    1.0000 </r>
       <r>   -1.1451    0.0000 </r>
       <r>    0.9536    0.0000 </r>
       <r>    5.3417    0.0000 </r>
       <r>    6.1280    0.0000 </r>
      </set>
      <set comment="kpoint 212">
       <r>  -18.6251    1.0000 </r>
       <r>  -16.8389    1.0000 </r>
       <r>  -14.6638    1.0000 </r>
       <r>  -12.9903    1.0000 </r>
       <r>  -11.7672    1.0000 </r>
       <r>  -10.3632    1.0000 </r>
       <r>   -6.2574    1.0000 </r>
       <r>   -4.4857    1.0000 </r>
       <r>   -1.1755    0.0000 </r>
       <r>    0.8428    0.0000 </r>
       <r>    5.4068    0.0000 </r>
       <r>    6.2038    0.0000 </r>
      </set>
      <set comment="kpoint 213">
       <r>  -18.5595    1.0000 </r>
       <r>  -16.7936    1.0000 </r>
       <r>  -14.9343    1.0000 </r>
       <r>  -13.2628    1.0000 </r>
       <r>  -11.4424    1.0000 </r>
       <r>  -10.1169    1.0000 </r>
       <r>   -6.1992    1.0000 </r>
       <r>   -4.5170    1.0000 </r>
       <r>   -1.2082    0.0000 </r>
       <r>    0.6975    0.0000 </r>
       <r>    5.4949    0.0000 </r>
       <r>    6.1842    0.0000 </r>
      </set>
      <set comment="kpoint 214">
       <r>  -18.4756    1.0000 </r>
       <r>  -16.7435    1.0000 </r>
       <r>  -15.2008    1.0000 </r>
       <r>  -13.5467    1.0000 </r>
       <r>  -11.1032    1.0000 </r>
       <r>   -9.8743    1.0000 </r>
       <r>   -6.1255    1.0000 </r>
       <r>   -4.5617    1.0000 </r>
       <r>   -1.2353    0.0000 </r>
       <r>    0.5259    0.0000 </r>
       <r>    5.5614    0.0000 </r>
       <r>    5.7472    0.0000 </r>
      </set>
      <set comment="kpoint 215">
       <r>  -18.3735    1.0000 </r>
       <r>  -16.7002    1.0000 </r>
       <r>  -15.4418    1.0000 </r>
       <r>  -13.8317    1.0000 </r>
       <r>  -10.7639    1.0000 </r>
       <r>   -9.6513    1.0000 </r>
       <r>   -6.0372    1.0000 </r>
       <r>   -4.6219    1.0000 </r>
       <r>   -1.2490    0.0000 </r>
       <r>    0.3359    0.0000 </r>
       <r>    5.2317    0.0000 </r>
       <r>    5.7880    0.0000 </r>
      </set>
      <set comment="kpoint 216">
       <r>  -18.2538    1.0000 </r>
       <r>  -16.6860    1.0000 </r>
       <r>  -15.6293    1.0000 </r>
       <r>  -14.1117    1.0000 </r>
       <r>  -10.4353    1.0000 </r>
       <r>   -9.4600    1.0000 </r>
       <r>   -5.9355    1.0000 </r>
       <r>   -4.6990    1.0000 </r>
       <r>   -1.2423    0.0000 </r>
       <r>    0.1352    0.0000 </r>
       <r>    4.8691    0.0000 </r>
       <r>    5.8395    0.0000 </r>
      </set>
      <set comment="kpoint 217">
       <r>  -18.1168    1.0000 </r>
       <r>  -16.7326    1.0000 </r>
       <r>  -15.7282    1.0000 </r>
       <r>  -14.3825    1.0000 </r>
       <r>  -10.1270    1.0000 </r>
       <r>   -9.3109    1.0000 </r>
       <r>   -5.8220    1.0000 </r>
       <r>   -4.7928    1.0000 </r>
       <r>   -1.2104    0.0000 </r>
       <r>   -0.0690    0.0000 </r>
       <r>    4.5769    0.0000 </r>
       <r>    5.3924    0.0000 </r>
      </set>
      <set comment="kpoint 218">
       <r>  -17.9635    1.0000 </r>
       <r>  -16.8536    1.0000 </r>
       <r>  -15.7229    1.0000 </r>
       <r>  -14.6410    1.0000 </r>
       <r>   -9.8480    1.0000 </r>
       <r>   -9.2126    1.0000 </r>
       <r>   -5.6984    1.0000 </r>
       <r>   -4.9021    1.0000 </r>
       <r>   -1.1506    0.0000 </r>
       <r>   -0.2706    0.0000 </r>
       <r>    4.3669    0.0000 </r>
       <r>    5.0041    0.0000 </r>
      </set>
      <set comment="kpoint 219">
       <r>  -17.7949    1.0000 </r>
       <r>  -17.0264    1.0000 </r>
       <r>  -15.6348    1.0000 </r>
       <r>  -14.8845    1.0000 </r>
       <r>   -9.6073    1.0000 </r>
       <r>   -9.1715    1.0000 </r>
       <r>   -5.5671    1.0000 </r>
       <r>   -5.0242    1.0000 </r>
       <r>   -1.0623    0.0000 </r>
       <r>   -0.4638    0.0000 </r>
       <r>    4.2463    0.0000 </r>
       <r>    4.6842    0.0000 </r>
      </set>
      <set comment="kpoint 220">
       <r>  -17.6127    1.0000 </r>
       <r>  -17.2212    1.0000 </r>
       <r>  -15.4927    1.0000 </r>
       <r>  -15.1102    1.0000 </r>
       <r>   -9.4132    1.0000 </r>
       <r>   -9.1914    1.0000 </r>
       <r>   -5.4306    1.0000 </r>
       <r>   -5.1555    1.0000 </r>
       <r>   -0.9466    0.0000 </r>
       <r>   -0.6438    0.0000 </r>
       <r>    4.2187    0.0000 </r>
       <r>    4.4419    0.0000 </r>
      </set>
      <set comment="kpoint 221">
       <r>  -17.4198    1.0000 </r>
       <r>  -17.4198    1.0000 </r>
       <r>  -15.3147    1.0000 </r>
       <r>  -15.3147    1.0000 </r>
       <r>   -9.2728    1.0000 </r>
       <r>   -9.2728    1.0000 </r>
       <r>   -5.2923    1.0000 </r>
       <r>   -5.2923    1.0000 </r>
       <r>   -0.8060    0.0000 </r>
       <r>   -0.8060    0.0000 </r>
       <r>    4.2849    0.0000 </r>
       <r>    4.2849    0.0000 </r>
      </set>
      <set comment="kpoint 222">
       <r>  -18.2833    1.0000 </r>
       <r>  -17.3763    1.0000 </r>
       <r>  -13.7683    1.0000 </r>
       <r>  -12.9417    1.0000 </r>
       <r>  -12.0011    1.0000 </r>
       <r>  -11.2359    1.0000 </r>
       <r>   -5.8738    1.0000 </r>
       <r>   -4.9269    1.0000 </r>
       <r>   -0.6081    0.0000 </r>
       <r>    0.4757    0.0000 </r>
       <r>    5.8932    0.0000 </r>
       <r>    6.6286    0.0000 </r>
      </set>
      <set comment="kpoint 223">
       <r>  -18.2741    1.0000 </r>
       <r>  -17.3678    1.0000 </r>
       <r>  -13.8426    1.0000 </r>
       <r>  -13.0129    1.0000 </r>
       <r>  -11.9219    1.0000 </r>
       <r>  -11.1645    1.0000 </r>
       <r>   -5.8667    1.0000 </r>
       <r>   -4.9249    1.0000 </r>
       <r>   -0.6226    0.0000 </r>
       <r>    0.4540    0.0000 </r>
       <r>    5.9063    0.0000 </r>
       <r>    6.6450    0.0000 </r>
      </set>
      <set comment="kpoint 224">
       <r>  -18.2463    1.0000 </r>
       <r>  -17.3425    1.0000 </r>
       <r>  -14.0336    1.0000 </r>
       <r>  -13.1976    1.0000 </r>
       <r>  -11.7164    1.0000 </r>
       <r>  -10.9799    1.0000 </r>
       <r>   -5.8452    1.0000 </r>
       <r>   -4.9194    1.0000 </r>
       <r>   -0.6645    0.0000 </r>
       <r>    0.3904    0.0000 </r>
       <r>    5.9455    0.0000 </r>
       <r>    6.6937    0.0000 </r>
      </set>
      <set comment="kpoint 225">
       <r>  -18.2003    1.0000 </r>
       <r>  -17.3008    1.0000 </r>
       <r>  -14.2871    1.0000 </r>
       <r>  -13.4456    1.0000 </r>
       <r>  -11.4398    1.0000 </r>
       <r>  -10.7339    1.0000 </r>
       <r>   -5.8100    1.0000 </r>
       <r>   -4.9113    1.0000 </r>
       <r>   -0.7292    0.0000 </r>
       <r>    0.2897    0.0000 </r>
       <r>    6.0096    0.0000 </r>
       <r>    6.7733    0.0000 </r>
      </set>
      <set comment="kpoint 226">
       <r>  -18.1360    1.0000 </r>
       <r>  -17.2436    1.0000 </r>
       <r>  -14.5665    1.0000 </r>
       <r>  -13.7226    1.0000 </r>
       <r>  -11.1303    1.0000 </r>
       <r>  -10.4639    1.0000 </r>
       <r>   -5.7616    1.0000 </r>
       <r>   -4.9025    1.0000 </r>
       <r>   -0.8095    0.0000 </r>
       <r>    0.1585    0.0000 </r>
       <r>    6.0910    0.0000 </r>
       <r>    6.4725    0.0000 </r>
      </set>
      <set comment="kpoint 227">
       <r>  -18.0540    1.0000 </r>
       <r>  -17.1725    1.0000 </r>
       <r>  -14.8512    1.0000 </r>
       <r>  -14.0097    1.0000 </r>
       <r>  -10.8106    1.0000 </r>
       <r>  -10.1926    1.0000 </r>
       <r>   -5.7013    1.0000 </r>
       <r>   -4.8954    1.0000 </r>
       <r>   -0.8970    0.0000 </r>
       <r>    0.0050    0.0000 </r>
       <r>    5.9138    0.0000 </r>
       <r>    6.2518    0.0000 </r>
      </set>
      <set comment="kpoint 228">
       <r>  -17.9546    1.0000 </r>
       <r>  -17.0904    1.0000 </r>
       <r>  -15.1283    1.0000 </r>
       <r>  -14.2966    1.0000 </r>
       <r>  -10.4952    1.0000 </r>
       <r>   -9.9353    1.0000 </r>
       <r>   -5.6303    1.0000 </r>
       <r>   -4.8929    1.0000 </r>
       <r>   -0.9825    0.0000 </r>
       <r>   -0.1625    0.0000 </r>
       <r>    5.4596    0.0000 </r>
       <r>    6.0125    0.0000 </r>
      </set>
      <set comment="kpoint 229">
       <r>  -17.8385    1.0000 </r>
       <r>  -17.0029    1.0000 </r>
       <r>  -15.3867    1.0000 </r>
       <r>  -14.5767    1.0000 </r>
       <r>  -10.1954    1.0000 </r>
       <r>   -9.7043    1.0000 </r>
       <r>   -5.5506    1.0000 </r>
       <r>   -4.8981    1.0000 </r>
       <r>   -1.0568    0.0000 </r>
       <r>   -0.3357    0.0000 </r>
       <r>    5.0536    0.0000 </r>
       <r>    5.5412    0.0000 </r>
      </set>
      <set comment="kpoint 230">
       <r>  -17.7069    1.0000 </r>
       <r>  -16.9208    1.0000 </r>
       <r>  -15.6119    1.0000 </r>
       <r>  -14.8456    1.0000 </r>
       <r>   -9.9211    1.0000 </r>
       <r>   -9.5099    1.0000 </r>
       <r>   -5.4645    1.0000 </r>
       <r>   -4.9141    1.0000 </r>
       <r>   -1.1118    0.0000 </r>
       <r>   -0.5068    0.0000 </r>
       <r>    4.7151    0.0000 </r>
       <r>    5.1254    0.0000 </r>
      </set>
      <set comment="kpoint 231">
       <r>  -17.5614    1.0000 </r>
       <r>  -16.8658    1.0000 </r>
       <r>  -15.7805    1.0000 </r>
       <r>  -15.0992    1.0000 </r>
       <r>   -9.6818    1.0000 </r>
       <r>   -9.3614    1.0000 </r>
       <r>   -5.3746    1.0000 </r>
       <r>   -4.9433    1.0000 </r>
       <r>   -1.1407    0.0000 </r>
       <r>   -0.6687    0.0000 </r>
       <r>    4.4542    0.0000 </r>
       <r>    4.7751    0.0000 </r>
      </set>
      <set comment="kpoint 232">
       <r>  -17.4049    1.0000 </r>
       <r>  -16.8698    1.0000 </r>
       <r>  -15.8589    1.0000 </r>
       <r>  -15.3332    1.0000 </r>
       <r>   -9.4863    1.0000 </r>
       <r>   -9.2664    1.0000 </r>
       <r>   -5.2841    1.0000 </r>
       <r>   -4.9870    1.0000 </r>
       <r>   -1.1390    0.0000 </r>
       <r>   -0.8148    0.0000 </r>
       <r>    4.2789    0.0000 </r>
       <r>    4.4996    0.0000 </r>
      </set>
      <set comment="kpoint 233">
       <r>  -17.2425    1.0000 </r>
       <r>  -16.9497    1.0000 </r>
       <r>  -15.8298    1.0000 </r>
       <r>  -15.5416    1.0000 </r>
       <r>   -9.3422    1.0000 </r>
       <r>   -9.2303    1.0000 </r>
       <r>   -5.1967    1.0000 </r>
       <r>   -5.0451    1.0000 </r>
       <r>   -1.1044    0.0000 </r>
       <r>   -0.9392    0.0000 </r>
       <r>    4.1947    0.0000 </r>
       <r>    4.3073    0.0000 </r>
      </set>
      <set comment="kpoint 234">
       <r>  -17.0842    1.0000 </r>
       <r>  -17.0842    1.0000 </r>
       <r>  -15.7137    1.0000 </r>
       <r>  -15.7137    1.0000 </r>
       <r>   -9.2557    1.0000 </r>
       <r>   -9.2557    1.0000 </r>
       <r>   -5.1158    1.0000 </r>
       <r>   -5.1158    1.0000 </r>
       <r>   -1.0370    0.0000 </r>
       <r>   -1.0370    0.0000 </r>
       <r>    4.2044    0.0000 </r>
       <r>    4.2044    0.0000 </r>
      </set>
      <set comment="kpoint 235">
       <r>  -17.8379    1.0000 </r>
       <r>  -17.8379    1.0000 </r>
       <r>  -13.3651    1.0000 </r>
       <r>  -13.3651    1.0000 </r>
       <r>  -11.6281    1.0000 </r>
       <r>  -11.6281    1.0000 </r>
       <r>   -5.4033    1.0000 </r>
       <r>   -5.4033    1.0000 </r>
       <r>   -0.0768    0.0000 </r>
       <r>   -0.0768    0.0000 </r>
       <r>    6.5292    0.0000 </r>
       <r>    6.5292    0.0000 </r>
      </set>
      <set comment="kpoint 236">
       <r>  -17.8289    1.0000 </r>
       <r>  -17.8289    1.0000 </r>
       <r>  -13.4382    1.0000 </r>
       <r>  -13.4382    1.0000 </r>
       <r>  -11.5524    1.0000 </r>
       <r>  -11.5524    1.0000 </r>
       <r>   -5.3981    1.0000 </r>
       <r>   -5.3981    1.0000 </r>
       <r>   -0.0956    0.0000 </r>
       <r>   -0.0956    0.0000 </r>
       <r>    6.5422    0.0000 </r>
       <r>    6.5422    0.0000 </r>
      </set>
      <set comment="kpoint 237">
       <r>  -17.8020    1.0000 </r>
       <r>  -17.8020    1.0000 </r>
       <r>  -13.6269    1.0000 </r>
       <r>  -13.6269    1.0000 </r>
       <r>  -11.3564    1.0000 </r>
       <r>  -11.3564    1.0000 </r>
       <r>   -5.3828    1.0000 </r>
       <r>   -5.3828    1.0000 </r>
       <r>   -0.1505    0.0000 </r>
       <r>   -0.1505    0.0000 </r>
       <r>    6.5809    0.0000 </r>
       <r>    6.5809    0.0000 </r>
      </set>
      <set comment="kpoint 238">
       <r>  -17.7574    1.0000 </r>
       <r>  -17.7574    1.0000 </r>
       <r>  -13.8790    1.0000 </r>
       <r>  -13.8790    1.0000 </r>
       <r>  -11.0940    1.0000 </r>
       <r>  -11.0940    1.0000 </r>
       <r>   -5.3580    1.0000 </r>
       <r>   -5.3580    1.0000 </r>
       <r>   -0.2368    0.0000 </r>
       <r>   -0.2368    0.0000 </r>
       <r>    6.6433    0.0000 </r>
       <r>    6.6433    0.0000 </r>
      </set>
      <set comment="kpoint 239">
       <r>  -17.6955    1.0000 </r>
       <r>  -17.6955    1.0000 </r>
       <r>  -14.1588    1.0000 </r>
       <r>  -14.1588    1.0000 </r>
       <r>  -10.8029    1.0000 </r>
       <r>  -10.8029    1.0000 </r>
       <r>   -5.3249    1.0000 </r>
       <r>   -5.3249    1.0000 </r>
       <r>   -0.3477    0.0000 </r>
       <r>   -0.3477    0.0000 </r>
       <r>    6.6735    0.0000 </r>
       <r>    6.6735    0.0000 </r>
      </set>
      <set comment="kpoint 240">
       <r>  -17.6169    1.0000 </r>
       <r>  -17.6169    1.0000 </r>
       <r>  -14.4471    1.0000 </r>
       <r>  -14.4471    1.0000 </r>
       <r>  -10.5058    1.0000 </r>
       <r>  -10.5058    1.0000 </r>
       <r>   -5.2851    1.0000 </r>
       <r>   -5.2851    1.0000 </r>
       <r>   -0.4748    0.0000 </r>
       <r>   -0.4748    0.0000 </r>
       <r>    6.2113    0.0000 </r>
       <r>    6.2113    0.0000 </r>
      </set>
      <set comment="kpoint 241">
       <r>  -17.5226    1.0000 </r>
       <r>  -17.5226    1.0000 </r>
       <r>  -14.7329    1.0000 </r>
       <r>  -14.7329    1.0000 </r>
       <r>  -10.2178    1.0000 </r>
       <r>  -10.2178    1.0000 </r>
       <r>   -5.2409    1.0000 </r>
       <r>   -5.2409    1.0000 </r>
       <r>   -0.6094    0.0000 </r>
       <r>   -0.6094    0.0000 </r>
       <r>    5.7199    0.0000 </r>
       <r>    5.7199    0.0000 </r>
      </set>
      <set comment="kpoint 242">
       <r>  -17.4143    1.0000 </r>
       <r>  -17.4143    1.0000 </r>
       <r>  -15.0089    1.0000 </r>
       <r>  -15.0089    1.0000 </r>
       <r>   -9.9505    1.0000 </r>
       <r>   -9.9505    1.0000 </r>
       <r>   -5.1950    1.0000 </r>
       <r>   -5.1950    1.0000 </r>
       <r>   -0.7425    0.0000 </r>
       <r>   -0.7425    0.0000 </r>
       <r>    5.2783    0.0000 </r>
       <r>    5.2783    0.0000 </r>
      </set>
      <set comment="kpoint 243">
       <r>  -17.2948    1.0000 </r>
       <r>  -17.2948    1.0000 </r>
       <r>  -15.2687    1.0000 </r>
       <r>  -15.2687    1.0000 </r>
       <r>   -9.7143    1.0000 </r>
       <r>   -9.7143    1.0000 </r>
       <r>   -5.1504    1.0000 </r>
       <r>   -5.1504    1.0000 </r>
       <r>   -0.8656    0.0000 </r>
       <r>   -0.8656    0.0000 </r>
       <r>    4.8987    0.0000 </r>
       <r>    4.8987    0.0000 </r>
      </set>
      <set comment="kpoint 244">
       <r>  -17.1696    1.0000 </r>
       <r>  -17.1696    1.0000 </r>
       <r>  -15.5049    1.0000 </r>
       <r>  -15.5049    1.0000 </r>
       <r>   -9.5187    1.0000 </r>
       <r>   -9.5187    1.0000 </r>
       <r>   -5.1107    1.0000 </r>
       <r>   -5.1107    1.0000 </r>
       <r>   -0.9708    0.0000 </r>
       <r>   -0.9708    0.0000 </r>
       <r>    4.5909    0.0000 </r>
       <r>    4.5909    0.0000 </r>
      </set>
      <set comment="kpoint 245">
       <r>  -17.0490    1.0000 </r>
       <r>  -17.0490    1.0000 </r>
       <r>  -15.7056    1.0000 </r>
       <r>  -15.7056    1.0000 </r>
       <r>   -9.3719    1.0000 </r>
       <r>   -9.3719    1.0000 </r>
       <r>   -5.0792    1.0000 </r>
       <r>   -5.0792    1.0000 </r>
       <r>   -1.0514    0.0000 </r>
       <r>   -1.0514    0.0000 </r>
       <r>    4.3638    0.0000 </r>
       <r>    4.3638    0.0000 </r>
      </set>
      <set comment="kpoint 246">
       <r>  -16.9538    1.0000 </r>
       <r>  -16.9538    1.0000 </r>
       <r>  -15.8492    1.0000 </r>
       <r>  -15.8492    1.0000 </r>
       <r>   -9.2808    1.0000 </r>
       <r>   -9.2808    1.0000 </r>
       <r>   -5.0589    1.0000 </r>
       <r>   -5.0589    1.0000 </r>
       <r>   -1.1021    0.0000 </r>
       <r>   -1.1021    0.0000 </r>
       <r>    4.2244    0.0000 </r>
       <r>    4.2244    0.0000 </r>
      </set>
      <set comment="kpoint 247">
       <r>  -16.9156    1.0000 </r>
       <r>  -16.9156    1.0000 </r>
       <r>  -15.9035    1.0000 </r>
       <r>  -15.9035    1.0000 </r>
       <r>   -9.2499    1.0000 </r>
       <r>   -9.2499    1.0000 </r>
       <r>   -5.0519    1.0000 </r>
       <r>   -5.0519    1.0000 </r>
       <r>   -1.1194    0.0000 </r>
       <r>   -1.1194    0.0000 </r>
       <r>    4.1774    0.0000 </r>
       <r>    4.1774    0.0000 </r>
      </set>
     </set>
    </set>
   </array>
  </eigenvalues>
  <separator name="orbital magnetization" >
   <v name="MAGDIPOLOUT">      0.00000000      0.00000000      0.00000000</v>
  </separator>
 </calculation>
 <structure name="finalpos" >
  <crystal>
   <varray name="basis" >
    <v>       4.33693277       0.00000000       0.00000000 </v>
    <v>       0.00000000       2.46091771       0.00000000 </v>
    <v>       0.00000000       0.00000000      19.75463011 </v>
   </varray>
   <i name="volume">    210.83790140 </i>
   <varray name="rec_basis" >
    <v>       0.23057770       0.00000000       0.00000000 </v>
    <v>       0.00000000       0.40635247       0.00000000 </v>
    <v>       0.00000000       0.00000000       0.05062104 </v>
   </varray>
  </crystal>
  <varray name="positions" >
   <v>       0.99964638       0.00000000      -0.00000000 </v>
   <v>       0.16702028       0.50000000       0.00000000 </v>
   <v>       0.49964638       0.50000000      -0.00000000 </v>
   <v>       0.66702028       0.00000000       0.00000000 </v>
  </varray>
 </structure>
</modeling>
