gr                                      
           1
     4.336933    0.000000    0.000000
     0.000000    2.460918    0.000000
     0.000000    0.000000   19.754630
   C 
   4
Direct configuration=     1
   0.99964215  0.00000000  0.00000000
   0.16702452  0.50000000  0.00000000
   0.49964215  0.50000000  0.00000000
   0.66702452  0.00000000  0.00000000
Direct configuration=     2
   0.99966289  0.00000000  0.00000000
   0.16700377  0.50000000 -0.00000000
   0.49966289  0.50000000  0.00000000
   0.66700377  0.00000000 -0.00000000
Direct configuration=     3
   0.99964639  0.00000000  0.00000000
   0.16702028  0.50000000 -0.00000000
   0.49964639  0.50000000  0.00000000
   0.66702028  0.00000000 -0.00000000
Direct configuration=     4
   0.99964637 -0.00000000 -0.00000000
   0.16702030  0.50000000  0.00000000
   0.49964637  0.50000000 -0.00000000
   0.66702030  0.00000000  0.00000000
Direct configuration=     5
   0.99964638 -0.00000000 -0.00000000
   0.16702029  0.50000000  0.00000000
   0.49964638  0.50000000 -0.00000000
   0.66702029  0.00000000  0.00000000
Direct configuration=     6
   0.99964638 -0.00000000 -0.00000000
   0.16702029  0.50000000  0.00000000
   0.49964638  0.50000000 -0.00000000
   0.66702029  0.00000000  0.00000000
Direct configuration=     7
   0.99964643  0.00000000 -0.00000000
   0.16702024  0.50000000  0.00000000
   0.49964643  0.50000000 -0.00000000
   0.66702024  0.00000000  0.00000000
Direct configuration=     8
   0.99964639  0.00000000 -0.00000000
   0.16702028  0.50000000  0.00000000
   0.49964639  0.50000000 -0.00000000
   0.66702028  0.00000000  0.00000000
Direct configuration=     9
   0.99964637 -0.00000000  0.00000000
   0.16702029  0.50000000 -0.00000000
   0.49964637  0.50000000  0.00000000
   0.66702029 -0.00000000 -0.00000000
Direct configuration=    10
   0.99964638  0.00000000 -0.00000000
   0.16702029  0.50000000  0.00000000
   0.49964638  0.50000000 -0.00000000
   0.66702029  0.00000000  0.00000000
Direct configuration=    11
   0.99964638  0.00000000 -0.00000000
   0.16702028  0.50000000  0.00000000
   0.49964638  0.50000000 -0.00000000
   0.66702028  0.00000000  0.00000000
