    4    4  400    1
  0.5270948E+02  0.4294410E-09  0.2464991E-09  0.1991727E-08  0.5000000E-15
  1.000000000000000E-004
  CAR 
 gr                                      
     16    247     12
 
  0.0000000E+00  0.0000000E+00  0.0000000E+00  0.1157407E-02
    1      -22.219469
    2      -17.069974
    3      -15.946618
    4      -10.332540
    5       -9.086215
    6       -5.831281
    7       -5.773871
    8       -5.156781
    9       -1.098298
   10        0.527923
   11        1.328449
   12        1.713403
 
  0.4166667E-01  0.0000000E+00  0.0000000E+00  0.2314815E-02
    1      -22.209319
    2      -17.223808
    3      -15.777575
    4      -10.320431
    5       -9.076178
    6       -5.874357
    7       -5.795930
    8       -5.221665
    9       -1.017469
   10        0.541682
   11        1.342393
   12        1.727517
 
  0.8333333E-01  0.0000000E+00  0.0000000E+00  0.2314815E-02
    1      -22.178875
    2      -17.547461
    3      -15.408376
    4      -10.284120
    5       -9.046119
    6       -6.001753
    7       -5.860902
    8       -5.402023
    9       -0.789445
   10        0.582963
   11        1.384221
   12        1.769858
 
  0.1250000E+00  0.0000000E+00  0.0000000E+00  0.2314815E-02
    1      -22.128155
    2      -17.914844
    3      -14.965364
    4      -10.223667
    5       -8.996190
    6       -6.208298
    7       -5.965368
    8       -5.665837
    9       -0.446751
   10        0.651775
   11        1.453920
   12        1.840430
 
  0.1666667E+00  0.0000000E+00  0.0000000E+00  0.2314815E-02
    1      -22.057194
    2      -18.287320
    3      -14.487607
    4      -10.139168
    5       -8.926653
    6       -6.486306
    7       -6.104232
    8       -5.981033
    9       -0.022318
   10        0.748124
   11        1.551469
   12        1.939233
 
  0.2083333E+00  0.0000000E+00  0.0000000E+00  0.2314815E-02
    1      -21.966042
    2      -18.652421
    3      -13.988197
    4      -10.030765
    5       -8.837885
    6       -6.826642
    7       -6.323485
    8       -6.271400
    9        0.458497
   10        0.872014
   11        1.676830
   12        2.066268
 
  0.2500000E+00  0.0000000E+00  0.0000000E+00  0.2314815E-02
    1      -21.854762
    2      -19.005061
    3      -13.473039
    4       -9.898647
    5       -8.730394
    6       -7.219694
    7       -6.676978
    8       -6.460430
    9        0.977830
   10        1.023435
   11        1.829951
   12        2.221536
 
  0.2916667E+00  0.0000000E+00  0.0000000E+00  0.2314815E-02
    1      -21.723433
    2      -19.342731
    3      -12.945696
    4       -9.743060
    5       -8.604827
    6       -7.656117
    7       -7.030922
    8       -6.665039
    9        1.202365
   10        1.522936
   11        2.010748
   12        2.405034
 
  0.3333333E+00  0.0000000E+00  0.0000000E+00  0.2314815E-02
    1      -21.572154
    2      -19.663996
    3      -12.408910
    4       -9.564314
    5       -8.462002
    6       -8.127279
    7       -7.378341
    8       -6.879428
    9        1.408768
   10        2.083933
   11        2.219089
   12        2.616757
 
  0.3750000E+00  0.0000000E+00  0.0000000E+00  0.2314815E-02
    1      -21.401041
    2      -19.967938
    3      -11.865202
    4       -9.362801
    5       -8.625481
    6       -8.302926
    7       -7.714523
    8       -7.098448
    9        1.642593
   10        2.454735
   11        2.651499
   12        2.856697
 
  0.4166667E+00  0.0000000E+00  0.0000000E+00  0.2314815E-02
    1      -21.210232
    2      -20.253921
    3      -11.317154
    4       -9.144004
    5       -9.139011
    6       -8.128836
    7       -8.036193
    8       -7.317638
    9        1.903770
   10        2.717188
   11        3.124840
   12        3.210594
 
  0.4583333E+00  0.0000000E+00  0.0000000E+00  0.2314815E-02
    1      -20.999893
    2      -20.521471
    3      -10.767581
    4       -9.677052
    5       -8.893559
    6       -8.341001
    7       -7.941237
    8       -7.533203
    9        2.192204
   10        2.850252
   11        3.005126
   12        3.421162
 
  0.5000000E+00  0.0000000E+00  0.0000000E+00  0.1157407E-02
    1      -20.770227
    2      -20.770227
    3      -10.219662
    4      -10.219662
    5       -8.627222
    6       -8.627222
    7       -7.741957
    8       -7.741957
    9        2.507764
   10        2.507764
   11        3.313036
   12        3.313036
 
  0.0000000E+00  0.2777778E-01  0.0000000E+00  0.2314815E-02
    1      -22.205769
    2      -17.058191
    3      -15.934987
    4      -10.316195
    5       -9.148159
    6       -5.860627
    7       -5.831149
    8       -5.140137
    9       -1.101922
   10        0.546503
   11        1.347260
   12        1.732444
 
  0.4166667E-01  0.2777778E-01  0.0000000E+00  0.4629630E-02
    1      -22.195620
    2      -17.211868
    3      -15.766151
    4      -10.304089
    5       -9.138106
    6       -5.911525
    7       -5.844725
    8       -5.205160
    9       -1.021069
   10        0.560262
   11        1.361204
   12        1.746558
 
  0.8333333E-01  0.2777778E-01  0.0000000E+00  0.4629630E-02
    1      -22.165180
    2      -17.535268
    3      -15.397357
    4      -10.267792
    5       -9.107999
    6       -6.043309
    7       -5.903446
    8       -5.385838
    9       -0.793071
   10        0.601545
   11        1.403029
   12        1.788900
 
  0.1250000E+00  0.2777778E-01  0.0000000E+00  0.4629630E-02
    1      -22.114468
    2      -17.902425
    3      -14.954828
    4      -10.207359
    5       -9.057986
    6       -6.248706
    7       -6.006307
    8       -5.649983
    9       -0.450624
   10        0.670359
   11        1.472725
   12        1.859472
 
  0.1666667E+00  0.2777778E-01  0.0000000E+00  0.4629630E-02
    1      -22.043518
    2      -18.274709
    3      -14.477636
    4      -10.122889
    5       -8.988325
    6       -6.522623
    7       -6.146003
    8       -5.965427
    9       -0.026753
   10        0.766713
   11        1.570267
   12        1.958276
 
  0.2083333E+00  0.2777778E-01  0.0000000E+00  0.4629630E-02
    1      -21.952380
    2      -18.639645
    3      -13.978890
    4      -10.014523
    5       -8.899383
    6       -6.857575
    7       -6.315143
    8       -6.308025
    9        0.453163
   10        0.890611
   11        1.695622
   12        2.085313
 
  0.2500000E+00  0.2777778E-01  0.0000000E+00  0.4629630E-02
    1      -21.841117
    2      -18.992145
    3      -13.464518
    4       -9.882451
    5       -8.791657
    6       -7.244916
    7       -6.661578
    8       -6.506584
    9        0.971284
   10        1.042040
   11        1.848736
   12        2.240583
 
  0.2916667E+00  0.2777778E-01  0.0000000E+00  0.4629630E-02
    1      -21.709811
    2      -19.329694
    3      -12.938106
    4       -9.726917
    5       -8.665781
    6       -7.675844
    7       -7.015521
    8       -6.713661
    9        1.220981
   10        1.514909
   11        2.029526
   12        2.424084
 
  0.3333333E+00  0.2777778E-01  0.0000000E+00  0.4629630E-02
    1      -21.558558
    2      -19.650854
    3      -12.402431
    4       -9.548233
    5       -8.522554
    6       -8.142004
    7       -7.362898
    8       -6.930370
    9        1.427396
   10        2.074233
   11        2.237862
   12        2.635811
 
  0.3750000E+00  0.2777778E-01  0.0000000E+00  0.4629630E-02
    1      -21.387477
    2      -19.954707
    3      -11.860049
    4       -9.346789
    5       -8.635803
    6       -8.362964
    7       -7.699014
    8       -7.151460
    9        1.661235
   10        2.473508
   11        2.640146
   12        2.875755
 
  0.4166667E+00  0.2777778E-01  0.0000000E+00  0.4629630E-02
    1      -21.196705
    2      -20.240612
    3      -11.313586
    4       -9.150535
    5       -9.123075
    6       -8.188221
    7       -8.020602
    8       -7.372437
    9        1.922428
   10        2.735974
   11        3.143905
   12        3.197670
 
  0.4583333E+00  0.2777778E-01  0.0000000E+00  0.4629630E-02
    1      -20.986409
    2      -20.508095
    3      -10.765912
    4       -9.680365
    5       -8.877705
    6       -8.325323
    7       -7.999804
    8       -7.589509
    9        2.210882
   10        2.869002
   11        3.023942
   12        3.440238
 
  0.5000000E+00  0.2777778E-01  0.0000000E+00  0.2314815E-02
    1      -20.756792
    2      -20.756792
    3      -10.220264
    4      -10.220264
    5       -8.611455
    6       -8.611455
    7       -7.799508
    8       -7.799508
    9        2.526469
   10        2.526469
   11        3.331788
   12        3.331788
 
  0.0000000E+00  0.5555556E-01  0.0000000E+00  0.2314815E-02
    1      -22.164678
    2      -17.022849
    3      -15.900242
    4      -10.267193
    5       -9.329019
    6       -5.998391
    7       -5.948007
    8       -5.090224
    9       -1.113623
   10        0.602245
   11        1.403689
   12        1.789568
 
  0.4166667E-01  0.5555556E-01  0.0000000E+00  0.4629630E-02
    1      -22.154534
    2      -17.176060
    3      -15.732025
    4      -10.255100
    5       -9.318915
    6       -6.051859
    7       -5.957080
    8       -5.155676
    9       -1.032692
   10        0.616005
   11        1.417630
   12        1.803682
 
  0.8333333E-01  0.5555556E-01  0.0000000E+00  0.4629630E-02
    1      -22.124107
    2      -17.498708
    3      -15.364447
    4      -10.218840
    5       -9.288649
    6       -6.184002
    7       -6.009972
    8       -5.337339
    9       -0.804764
   10        0.657291
   11        1.459447
   12        1.846025
 
  0.1250000E+00  0.5555556E-01  0.0000000E+00  0.4629630E-02
    1      -22.073417
    2      -17.865190
    3      -14.923386
    4      -10.158470
    5       -9.238361
    6       -6.382092
    7       -6.112009
    8       -5.602502
    9       -0.463062
   10        0.726111
   11        1.529130
   12        1.916599
 
  0.1666667E+00  0.5555556E-01  0.0000000E+00  0.4629630E-02
    1      -22.002501
    2      -18.236897
    3      -14.447920
    4      -10.074088
    5       -9.168287
    6       -6.642155
    7       -6.255885
    8       -5.918702
    9       -0.040912
   10        0.822476
   11        1.626655
   12        2.015405
 
  0.2083333E+00  0.5555556E-01  0.0000000E+00  0.4629630E-02
    1      -21.911406
    2      -18.601339
    3      -13.951212
    4       -9.965835
    5       -9.078771
    6       -6.959530
    7       -6.432439
    8       -6.261741
    9        0.436258
   10        0.946389
   11        1.751988
   12        2.142446
 
  0.2500000E+00  0.5555556E-01  0.0000000E+00  0.4629630E-02
    1      -21.800197
    2      -18.953415
    3      -13.439258
    4       -9.833901
    5       -8.970270
    6       -7.328182
    7       -6.632707
    8       -6.615474
    9        0.950675
   10        1.097840
   11        1.905078
   12        2.297722
 
  0.2916667E+00  0.5555556E-01  0.0000000E+00  0.4629630E-02
    1      -21.668958
    2      -19.290599
    3      -12.915728
    4       -9.678530
    5       -8.843373
    6       -7.741094
    7       -6.969410
    8       -6.848717
    9        1.276807
   10        1.489766
   11        2.085846
   12        2.481230
 
  0.3333333E+00  0.5555556E-01  0.0000000E+00  0.4629630E-02
    1      -21.517784
    2      -19.611446
    3      -12.383498
    4       -9.500033
    5       -8.698821
    6       -8.190888
    7       -7.316656
    8       -7.073714
    9        1.483253
   10        2.043943
   11        2.294165
   12        2.692966
 
  0.3750000E+00  0.5555556E-01  0.0000000E+00  0.4629630E-02
    1      -21.346796
    2      -19.915027
    3      -11.845248
    4       -9.298800
    5       -8.670362
    6       -8.537528
    7       -7.652564
    8       -7.302100
    9        1.717125
   10        2.529813
   11        2.604649
   12        2.932924
 
  0.4166667E+00  0.5555556E-01  0.0000000E+00  0.4629630E-02
    1      -21.156135
    2      -20.200699
    3      -11.303752
    4       -9.172841
    5       -9.075319
    6       -8.360618
    7       -7.973903
    8       -7.529287
    9        1.978357
   10        2.792317
   11        3.159798
   12        3.201091
 
  0.4583333E+00  0.5555556E-01  0.0000000E+00  0.4629630E-02
    1      -20.945968
    2      -20.467980
    3      -10.762054
    4       -9.692338
    5       -8.830199
    6       -8.278355
    7       -8.169467
    8       -7.751525
    9        2.266857
   10        2.925142
   11        3.080380
   12        3.497450
 
  0.5000000E+00  0.5555556E-01  0.0000000E+00  0.2314815E-02
    1      -20.716502
    2      -20.716502
    3      -10.223598
    4      -10.223598
    5       -8.564215
    6       -8.564215
    7       -7.965753
    8       -7.965753
    9        2.582509
   10        2.582509
   11        3.388003
   12        3.388003
 
  0.0000000E+00  0.8333333E-01  0.0000000E+00  0.2314815E-02
    1      -22.096233
    2      -16.963957
    3      -15.842860
    4      -10.185638
    5       -9.615271
    6       -6.263223
    7       -6.091480
    8       -5.007104
    9       -1.135882
   10        0.695160
   11        1.497712
   12        1.884778
 
  0.4166667E-01  0.8333333E-01  0.0000000E+00  0.4629630E-02
    1      -22.086096
    2      -17.116425
    3      -15.675656
    4      -10.173566
    5       -9.605064
    6       -6.310150
    7       -6.104008
    8       -5.073315
    9       -1.054798
   10        0.708919
   11        1.511648
   12        1.898892
 
  0.8333333E-01  0.8333333E-01  0.0000000E+00  0.4629630E-02
    1      -22.055691
    2      -17.437845
    3      -15.310123
    4      -10.137371
    5       -9.574482
    6       -6.436433
    7       -6.154002
    8       -5.256710
    9       -0.826955
   10        0.750203
   11        1.553451
   12        1.941235
 
  0.1250000E+00  0.8333333E-01  0.0000000E+00  0.4629630E-02
    1      -22.005040
    2      -17.803208
    3      -14.871578
    4      -10.077108
    5       -9.523643
    6       -6.624512
    7       -6.252945
    8       -5.523645
    9       -0.486517
   10        0.819025
   11        1.623110
   12        2.011809
 
  0.1666667E+00  0.8333333E-01  0.0000000E+00  0.4629630E-02
    1      -21.934178
    2      -18.173949
    3      -14.399105
    4       -9.992877
    5       -9.452749
    6       -6.865815
    7       -6.399853
    8       -5.841146
    9       -0.067328
   10        0.915396
   11        1.720603
   12        2.110618
 
  0.2083333E+00  0.8333333E-01  0.0000000E+00  0.4629630E-02
    1      -21.843155
    2      -18.537563
    3      -13.905961
    4       -9.884818
    5       -9.362087
    6       -7.156092
    7       -6.586821
    8       -6.184934
    9        0.405104
   10        1.039322
   11        1.845896
   12        2.237663
 
  0.2500000E+00  0.8333333E-01  0.0000000E+00  0.4629630E-02
    1      -21.732038
    2      -18.888928
    3      -13.398270
    4       -9.753121
    5       -9.252043
    6       -7.492549
    7       -6.802953
    8       -6.538962
    9        0.913130
   10        1.190794
   11        1.998941
   12        2.392945
 
  0.2916667E+00  0.8333333E-01  0.0000000E+00  0.4629630E-02
    1      -21.600909
    2      -19.225501
    3      -12.879862
    4       -9.598030
    5       -9.123108
    6       -7.872100
    7       -7.037187
    8       -6.892871
    9        1.369789
   10        1.444384
   11        2.179663
   12        2.576463
 
  0.3333333E+00  0.8333333E-01  0.0000000E+00  0.4629630E-02
    1      -21.449869
    2      -19.545820
    3      -12.353811
    4       -9.419855
    5       -8.975896
    6       -8.290425
    7       -7.280122
    8       -7.239879
    9        1.576268
   10        1.989596
   11        2.387948
   12        2.788212
 
  0.3750000E+00  0.8333333E-01  0.0000000E+00  0.4629630E-02
    1      -21.279038
    2      -19.848947
    3      -11.823042
    4       -9.218985
    5       -8.811163
    6       -8.741989
    7       -7.575420
    8       -7.524608
    9        1.810178
   10        2.540919
   11        2.623590
   12        3.028185
 
  0.4166667E+00  0.8333333E-01  0.0000000E+00  0.4629630E-02
    1      -21.088561
    2      -20.134225
    3      -11.290637
    4       -9.220636
    5       -8.995904
    6       -8.629835
    7       -7.896320
    8       -7.765459
    9        2.071449
   10        2.886159
   11        3.089364
   12        3.296373
 
  0.4583333E+00  0.8333333E-01  0.0000000E+00  0.4629630E-02
    1      -20.878611
    2      -20.401167
    3      -10.760010
    4       -9.720227
    5       -8.751218
    6       -8.433040
    7       -8.200304
    8       -7.998912
    9        2.359994
   10        3.018425
   11        3.174407
   12        3.592564
 
  0.5000000E+00  0.8333333E-01  0.0000000E+00  0.2314815E-02
    1      -20.649397
    2      -20.649397
    3      -10.235051
    4      -10.235051
    5       -8.485693
    6       -8.485693
    7       -8.222160
    8       -8.222160
    9        2.675703
   10        2.675703
   11        3.481501
   12        3.481501
 
  0.0000000E+00  0.1111111E+00  0.0000000E+00  0.2314815E-02
    1      -22.000493
    2      -16.881537
    3      -15.763738
    4      -10.071703
    5       -9.988073
    6       -6.608742
    7       -6.287901
    8       -4.890882
    9       -1.172807
   10        0.825256
   11        1.629293
   12        2.018076
 
  0.4166667E-01  0.1111111E+00  0.0000000E+00  0.4629630E-02
    1      -21.990367
    2      -17.033032
    3      -15.597916
    4      -10.059663
    5       -9.977683
    6       -6.654916
    7       -6.297147
    8       -4.958256
    9       -1.091446
   10        0.839011
   11        1.643220
   12        2.032189
 
  0.8333333E-01  0.1111111E+00  0.0000000E+00  0.4629630E-02
    1      -21.959995
    2      -17.352790
    3      -15.235295
    4      -10.023561
    5       -9.946542
    6       -6.780215
    7       -6.336603
    8       -5.144283
    9       -0.863634
   10        0.880286
   11        1.685000
   12        2.074531
 
  0.1250000E+00  0.1111111E+00  0.0000000E+00  0.4629630E-02
    1      -21.909397
    2      -17.716597
    3      -14.800446
    4       -9.963456
    5       -9.894728
    6       -6.964066
    7       -6.422352
    8       -5.413870
    9       -0.524989
   10        0.949094
   11        1.754620
   12        2.145104
 
  0.1666667E+00  0.1111111E+00  0.0000000E+00  0.4629630E-02
    1      -21.838612
    2      -18.085981
    3      -14.332453
    4       -9.879445
    5       -9.822374
    6       -7.193259
    7       -6.560187
    8       -5.733282
    9       -0.110121
   10        1.045454
   11        1.852058
   12        2.243912
 
  0.2083333E+00  0.1111111E+00  0.0000000E+00  0.4629630E-02
    1      -21.747691
    2      -18.448425
    3      -13.844723
    4       -9.771669
    5       -9.729668
    6       -7.460691
    7       -6.747228
    8       -6.078143
    9        0.355372
   10        1.169375
   11        1.977284
   12        2.370959
 
  0.2500000E+00  0.1111111E+00  0.0000000E+00  0.4629630E-02
    1      -21.636702
    2      -18.798783
    3      -13.343598
    4       -9.640319
    5       -9.616851
    6       -7.763187
    7       -6.974753
    8       -6.432570
    9        0.854039
   10        1.320852
   11        2.130250
   12        2.526246
 
  0.2916667E+00  0.1111111E+00  0.0000000E+00  0.4629630E-02
    1      -21.505728
    2      -19.134489
    3      -12.833190
    4       -9.485639
    5       -9.484222
    6       -8.100133
    7       -7.230453
    8       -6.786404
    9        1.373811
   10        1.499860
   11        2.310891
   12        2.709772
 
  0.3333333E+00  0.1111111E+00  0.0000000E+00  0.4629630E-02
    1      -21.354875
    2      -19.454061
    3      -12.316942
    4       -9.332133
    5       -9.307938
    6       -8.471889
    7       -7.500915
    8       -7.133032
    9        1.706358
   10        1.905807
   11        2.519104
   12        2.921532
 
  0.3750000E+00  0.1111111E+00  0.0000000E+00  0.4629630E-02
    1      -21.184265
    2      -19.756544
    3      -11.798252
    4       -9.160998
    5       -9.107601
    6       -8.877949
    7       -7.774192
    8       -7.468010
    9        1.940288
   10        2.442866
   11        2.754718
   12        3.161520
 
  0.4166667E+00  0.1111111E+00  0.0000000E+00  0.4629630E-02
    1      -20.994048
    2      -20.041267
    3      -11.280799
    4       -9.315720
    5       -8.971291
    6       -8.885110
    7       -8.041489
    8       -7.788250
    9        2.201578
   10        2.978235
   11        3.017373
   12        3.429727
 
  0.4583333E+00  0.1111111E+00  0.0000000E+00  0.4629630E-02
    1      -20.784404
    2      -20.307730
    3      -10.768750
    4       -9.780595
    5       -8.763580
    6       -8.641064
    7       -8.297313
    8       -8.091533
    9        2.490140
   10        3.148610
   11        3.305948
   12        3.499042
 
  0.5000000E+00  0.1111111E+00  0.0000000E+00  0.2314815E-02
    1      -20.555545
    2      -20.555545
    3      -10.266882
    4      -10.266882
    5       -8.538578
    6       -8.538578
    7       -8.376218
    8       -8.376218
    9        2.805864
   10        2.805864
   11        3.611461
   12        3.611461
 
  0.0000000E+00  0.1388889E+00  0.0000000E+00  0.2314815E-02
    1      -21.877548
    2      -16.775617
    3      -15.664396
    4      -10.426640
    5       -9.925640
    6       -7.016961
    7       -6.533081
    8       -4.741706
    9       -1.230029
   10        0.992536
   11        1.798372
   12        2.189464
 
  0.4166667E-01  0.1388889E+00  0.0000000E+00  0.4629630E-02
    1      -21.867435
    2      -16.925993
    3      -15.500295
    4      -10.415940
    5       -9.913642
    6       -7.064022
    7       -6.536696
    8       -4.810779
    9       -1.148171
   10        1.006284
   11        1.812288
   12        2.203576
 
  0.8333333E-01  0.1388889E+00  0.0000000E+00  0.4629630E-02
    1      -21.837104
    2      -17.243720
    3      -15.141538
    4      -10.383840
    5       -9.877669
    6       -7.191498
    7       -6.560341
    8       -5.000593
    9       -0.920178
   10        1.047535
   11        1.854030
   12        2.245914
 
  0.1250000E+00  0.1388889E+00  0.0000000E+00  0.4629630E-02
    1      -21.786577
    2      -17.605546
    3      -14.711829
    4      -10.330348
    5       -9.817777
    6       -7.376078
    7       -6.624488
    8       -5.273911
    9       -0.583811
   10        1.116309
   11        1.923587
   12        2.316482
 
  0.1666667E+00  0.1388889E+00  0.0000000E+00  0.4629630E-02
    1      -21.715892
    2      -17.973173
    3      -14.250242
    4      -10.255466
    5       -9.734066
    6       -7.601094
    7       -6.740719
    8       -5.595941
    9       -0.174733
   10        1.212630
   11        2.020937
   12        2.415286
 
  0.2083333E+00  0.1388889E+00  0.0000000E+00  0.4629630E-02
    1      -21.625103
    2      -18.334090
    3      -13.770429
    4      -10.159180
    5       -9.626678
    6       -7.856530
    7       -6.911563
    8       -5.942218
    9        0.281395
   10        1.336515
   11        2.146050
   12        2.542329
 
  0.2500000E+00  0.1388889E+00  0.0000000E+00  0.4629630E-02
    1      -21.514277
    2      -18.683131
    3      -13.279114
    4      -10.041442
    5       -9.495801
    6       -8.136769
    7       -7.132945
    8       -6.297118
    9        0.767448
   10        1.487963
   11        2.298881
   12        2.697616
 
  0.2916667E+00  0.1388889E+00  0.0000000E+00  0.4629630E-02
    1      -21.383505
    2      -19.017703
    3      -12.780939
    4       -9.902141
    5       -9.341683
    6       -8.439505
    7       -7.395880
    8       -6.650781
    9        1.271779
   10        1.666952
   11        2.479370
   12        2.881145
 
  0.3333333E+00  0.1388889E+00  0.0000000E+00  0.4629630E-02
    1      -21.232893
    2      -19.336298
    3      -12.280057
    4       -9.741062
    5       -9.164630
    6       -8.765222
    7       -7.687815
    8       -6.996829
    9        1.785974
   10        1.873438
   11        2.687432
   12        3.092912
 
  0.3750000E+00  0.1388889E+00  0.0000000E+00  0.4629630E-02
    1      -21.062570
    2      -19.637938
    3      -11.780804
    4       -9.557852
    5       -9.116470
    6       -8.965026
    7       -7.994175
    8       -7.330989
    9        2.107358
   10        2.303493
   11        2.922939
   12        3.332911
 
  0.4166667E+00  0.1388889E+00  0.0000000E+00  0.4629630E-02
    1      -20.872692
    2      -19.921936
    3      -11.288053
    4       -9.496338
    5       -9.352005
    6       -8.743347
    7       -8.300525
    8       -7.650286
    9        2.368632
   10        2.818833
   11        3.185650
   12        3.601133
 
  0.4583333E+00  0.1388889E+00  0.0000000E+00  0.4629630E-02
    1      -20.663446
    2      -20.187774
    3      -10.807360
    4       -9.906315
    5       -9.122942
    6       -8.595082
    7       -8.500186
    8       -7.952581
    9        2.657165
   10        3.315523
   11        3.326578
   12        3.474788
 
  0.5000000E+00  0.1388889E+00  0.0000000E+00  0.2314815E-02
    1      -20.435051
    2      -20.435051
    3      -10.344806
    4      -10.344806
    5       -8.870359
    6       -8.870359
    7       -8.236285
    8       -8.236285
    9        2.972843
   10        2.972843
   11        3.760668
   12        3.760668
 
  0.0000000E+00  0.1666667E+00  0.0000000E+00  0.2314815E-02
    1      -21.727514
    2      -16.646237
    3      -15.547390
    4      -10.910391
    5       -9.747784
    6       -7.471172
    7       -6.821992
    8       -4.559774
    9       -1.314429
   10        1.196990
   11        2.004871
   12        2.398946
 
  0.4166667E-01  0.1666667E+00  0.0000000E+00  0.4629630E-02
    1      -21.717418
    2      -16.795474
    3      -15.385314
    4      -10.899154
    5       -9.735843
    6       -7.519847
    7       -6.818796
    8       -4.631306
    9       -1.231659
   10        1.210725
   11        2.018767
   12        2.413056
 
  0.8333333E-01  0.1666667E+00  0.0000000E+00  0.4629630E-02
    1      -21.687138
    2      -17.110899
    3      -15.031581
    4      -10.865400
    5       -9.700037
    6       -7.651205
    7       -6.823521
    8       -4.826486
    9       -1.002938
   10        1.251938
   11        2.060448
   12        2.455388
 
  0.1250000E+00  0.1666667E+00  0.0000000E+00  0.4629630E-02
    1      -21.636698
    2      -17.470336
    3      -14.608992
    4      -10.808983
    5       -9.640427
    6       -7.839364
    7       -6.860758
    8       -5.104917
    9       -0.669169
   10        1.320653
   11        2.129903
   12        2.525946
 
  0.1666667E+00  0.1666667E+00  0.0000000E+00  0.4629630E-02
    1      -21.566136
    2      -17.835789
    3      -14.156640
    4      -10.729634
    5       -9.557110
    6       -8.065073
    7       -6.946963
    8       -5.430395
    9       -0.267386
   10        1.416899
   11        2.227106
   12        2.624736
 
  0.2083333E+00  0.1666667E+00  0.0000000E+00  0.4629630E-02
    1      -21.475507
    2      -18.194799
    3      -13.688617
    4      -10.626912
    5       -9.450231
    6       -8.316358
    7       -7.089245
    8       -5.778433
    9        0.176800
   10        1.540703
   11        2.352023
   12        2.751768
 
  0.2500000E+00  0.1666667E+00  0.0000000E+00  0.4629630E-02
    1      -21.364885
    2      -18.542188
    3      -13.212391
    4      -10.500129
    5       -9.319981
    6       -8.585840
    7       -7.287789
    8       -6.133824
    9        0.646810
   10        1.692074
   11        2.504606
   12        2.907044
 
  0.2916667E+00  0.1666667E+00  0.0000000E+00  0.4629630E-02
    1      -21.234360
    2      -18.875337
    3      -12.733671
    4      -10.348257
    5       -9.166604
    6       -8.869235
    7       -7.537595
    8       -6.487131
    9        1.131619
   10        1.870997
   11        2.684791
   12        3.090569
 
  0.3333333E+00  0.1666667E+00  0.0000000E+00  0.4629630E-02
    1      -21.084046
    2      -19.192707
    3      -12.258053
    4      -10.169822
    5       -9.164790
    6       -8.990410
    7       -7.829698
    8       -6.832303
    9        1.623433
   10        2.077426
   11        2.892495
   12        3.302337
 
  0.3750000E+00  0.1666667E+00  0.0000000E+00  0.4629630E-02
    1      -20.914079
    2      -19.493293
    3      -11.791685
    4       -9.962885
    5       -9.473176
    6       -8.791780
    7       -8.152105
    8       -7.165292
    9        2.116352
   10        2.311293
   11        3.127611
   12        3.542342
 
  0.4166667E+00  0.1666667E+00  0.0000000E+00  0.4629630E-02
    1      -20.724622
    2      -19.776384
    3      -11.341336
    4       -9.797456
    5       -9.725309
    6       -8.571186
    7       -8.490605
    8       -7.483276
    9        2.572506
   10        2.605636
   11        3.389995
   12        3.810573
 
  0.4583333E+00  0.1666667E+00  0.0000000E+00  0.4629630E-02
    1      -20.515868
    2      -20.041443
    3      -10.913692
    4      -10.142566
    5       -9.455697
    6       -8.829843
    7       -8.329212
    8       -7.784215
    9        2.860959
   10        3.087268
   11        3.519046
   12        3.679447
 
  0.5000000E+00  0.1666667E+00  0.0000000E+00  0.2314815E-02
    1      -20.288050
    2      -20.288050
    3      -10.513687
    4      -10.513687
    5       -9.155247
    6       -9.155247
    7       -8.066583
    8       -8.066583
    9        3.176523
   10        3.176523
   11        3.557663
   12        3.557663
 