       N       E                     dE             d eps       ncg     rms          rms(c)
DAV:   1     0.188080239436E+03    0.18808E+03   -0.10601E+04  5928   0.274E+03
DAV:   2    -0.944432187730E+01   -0.19752E+03   -0.17542E+03 10368   0.260E+02
DAV:   3    -0.383426072018E+02   -0.28898E+02   -0.28355E+02  7344   0.119E+02    0.732E+00
RMM:   4    -0.376922871555E+02    0.65032E+00   -0.95508E+00  5928   0.267E+01    0.422E+00
RMM:   5    -0.369333558927E+02    0.75893E+00   -0.27868E+00  5928   0.115E+01    0.713E-01
RMM:   6    -0.369350372168E+02   -0.16813E-02   -0.81278E-02  6350   0.203E+00    0.514E-01
RMM:   7    -0.369253555172E+02    0.96817E-02   -0.32084E-02  5946   0.156E+00    0.337E-01
RMM:   8    -0.369198788809E+02    0.54766E-02   -0.73593E-03  5928   0.568E-01    0.134E-01
RMM:   9    -0.369195370315E+02    0.34185E-03   -0.20205E-02  5928   0.841E-01    0.157E-01
RMM:  10    -0.369194486707E+02    0.88361E-04   -0.25109E-03  5928   0.362E-01    0.306E-02
RMM:  11    -0.369219998203E+02   -0.25511E-02   -0.73914E-04  5928   0.177E-01    0.458E-02
RMM:  12    -0.369224507369E+02   -0.45092E-03   -0.24792E-04  5937   0.104E-01    0.415E-03
RMM:  13    -0.369227089410E+02   -0.25820E-03   -0.48714E-05  6018   0.383E-02    0.459E-03
RMM:  14    -0.369227937045E+02   -0.84763E-04   -0.11915E-05  5941   0.199E-02    0.230E-03
RMM:  15    -0.369228017394E+02   -0.80349E-05   -0.13780E-06  5995   0.700E-03    0.763E-04
RMM:  16    -0.369228134651E+02   -0.11726E-04   -0.37943E-07  6013   0.357E-03    0.455E-04
RMM:  17    -0.369228170416E+02   -0.35765E-05   -0.21508E-08  6138   0.114E-03    0.605E-04
RMM:  18    -0.369228189103E+02   -0.18687E-05   -0.70209E-08  5928   0.182E-03    0.132E-04
RMM:  19    -0.369228192826E+02   -0.37225E-06   -0.53047E-09  5936   0.439E-04    0.183E-05
RMM:  20    -0.369228193245E+02   -0.41923E-07   -0.50359E-10  4497   0.119E-04    0.183E-05
RMM:  21    -0.369228193423E+02   -0.17794E-07   -0.18560E-10  4288   0.737E-05    0.719E-06
RMM:  22    -0.369228193423E+02   -0.50136E-10   -0.14179E-11  3892   0.469E-05
   1 F= -.36922819E+02 E0= -.36922774E+02  d E =-.369228E+02
       N       E                     dE             d eps       ncg     rms          rms(c)
DAV:   1    -0.369228185683E+02    0.77399E-06   -0.70254E-05  6640   0.788E-02    0.168E-03
RMM:   2    -0.369228186110E+02   -0.42721E-07   -0.11513E-06  5951   0.948E-03    0.120E-03
RMM:   3    -0.369228185766E+02    0.34445E-07   -0.20373E-07  5968   0.363E-03    0.309E-04
RMM:   4    -0.369228185729E+02    0.36291E-08   -0.12825E-08  6066   0.900E-04    0.865E-05
RMM:   5    -0.369228185736E+02   -0.64915E-09   -0.99281E-10  5225   0.223E-04    0.413E-05
RMM:   6    -0.369228185731E+02    0.46020E-09   -0.13742E-10  3831   0.986E-05    0.412E-06
RMM:   7    -0.369228185732E+02   -0.62641E-10   -0.10537E-11  3746   0.510E-05
   2 F= -.36922819E+02 E0= -.36922774E+02  d E =0.769142E-06
       N       E                     dE             d eps       ncg     rms          rms(c)
DAV:   1    -0.369228194023E+02   -0.82918E-06   -0.44754E-05  6632   0.629E-02    0.135E-03
RMM:   2    -0.369228194210E+02   -0.18656E-07   -0.69903E-07  5944   0.753E-03    0.955E-04
RMM:   3    -0.369228193982E+02    0.22713E-07   -0.12632E-07  5964   0.286E-03    0.234E-04
RMM:   4    -0.369228193962E+02    0.20872E-08   -0.75096E-09  6072   0.694E-04    0.688E-05
RMM:   5    -0.369228193961E+02    0.34447E-10   -0.57260E-10  4711   0.174E-04
   3 F= -.36922819E+02 E0= -.36922774E+02  d E =-.822936E-06
       N       E                     dE             d eps       ncg     rms          rms(c)
DAV:   1    -0.369228193958E+02    0.40018E-09    0.57028E-09  4704   0.849E-05    0.429E-06
RMM:   2    -0.369228193962E+02   -0.40950E-09   -0.44178E-13  2967   0.355E-05    0.227E-06
RMM:   3    -0.369228193959E+02    0.21646E-09   -0.79817E-12  2876   0.338E-05    0.239E-07
RMM:   4    -0.369228193962E+02   -0.22771E-09   -0.62609E-12  2653   0.297E-05    0.308E-07
RMM:   5    -0.369228193961E+02    0.42064E-10   -0.39551E-12  2415   0.258E-05
   4 F= -.36922819E+02 E0= -.36922774E+02  d E =-.129603E-10
       N       E                     dE             d eps       ncg     rms          rms(c)
DAV:   1    -0.369228193954E+02    0.80934E-09    0.57591E-09  4436   0.297E-05    0.873E-07
RMM:   2    -0.369228193961E+02   -0.68894E-09   -0.52127E-13  1514   0.110E-05    0.545E-07
RMM:   3    -0.369228193962E+02   -0.17030E-09    0.68636E-13  1458   0.109E-05    0.165E-08
RMM:   4    -0.369228193960E+02    0.19065E-09   -0.77128E-13  1427   0.106E-05    0.112E-08
RMM:   5    -0.369228193963E+02   -0.26512E-09   -0.72152E-13  1400   0.104E-05    0.763E-09
RMM:   6    -0.369228193963E+02    0.35698E-10    0.29306E-13  1387   0.104E-05
   5 F= -.36922819E+02 E0= -.36922774E+02  d E =-.130740E-09
       N       E                     dE             d eps       ncg     rms          rms(c)
DAV:   1    -0.369228193955E+02    0.81354E-09    0.53009E-09  6628   0.202E-04    0.432E-06
RMM:   2    -0.369228193958E+02   -0.35482E-09    0.14142E-12  2502   0.254E-05    0.275E-06
RMM:   3    -0.369228193961E+02   -0.28160E-09   -0.32593E-12  2826   0.272E-05    0.123E-07
RMM:   4    -0.369228193961E+02    0.51841E-10   -0.35645E-12  2342   0.257E-05    0.964E-08
RMM:   5    -0.369228193963E+02   -0.19179E-09   -0.15451E-12  1843   0.237E-05    0.184E-07
RMM:   6    -0.369228193960E+02    0.24454E-09   -0.35644E-13  1824   0.223E-05    0.194E-07
RMM:   7    -0.369228193958E+02    0.23476E-09   -0.12543E-13  1489   0.207E-05    0.193E-07
RMM:   8    -0.369228193960E+02   -0.23522E-09   -0.10033E-12  1179   0.198E-05    0.202E-07
RMM:   9    -0.369228193961E+02   -0.49795E-10   -0.22275E-12  1334   0.191E-05
   6 F= -.36922819E+02 E0= -.36922774E+02  d E =0.195769E-09
       N       E                     dE             d eps       ncg     rms          rms(c)
DAV:   1    -0.369228193955E+02    0.53001E-09    0.51232E-09  6780   0.238E-04    0.538E-06
RMM:   2    -0.369228193960E+02   -0.55911E-09    0.19868E-12  2386   0.269E-05    0.340E-06
RMM:   3    -0.369228193961E+02   -0.25466E-10   -0.29247E-12  2783   0.292E-05    0.136E-07
RMM:   4    -0.369228193960E+02    0.61732E-10   -0.27754E-12  1909   0.274E-05    0.140E-07
RMM:   5    -0.369228193963E+02   -0.28206E-09   -0.15900E-12  1453   0.254E-05    0.183E-07
RMM:   6    -0.369228193961E+02    0.17940E-09   -0.36060E-12  1688   0.237E-05    0.290E-07
RMM:   7    -0.369228193961E+02    0.93223E-11   -0.23235E-12  1265   0.212E-05
   7 F= -.36922819E+02 E0= -.36922774E+02  d E =-.363798E-10
       N       E                     dE             d eps       ncg     rms          rms(c)
DAV:   1    -0.369228193954E+02    0.74044E-09    0.57613E-09  3592   0.299E-05    0.579E-07
RMM:   2    -0.369228193963E+02   -0.96634E-09    0.23603E-14   465   0.939E-06    0.356E-07
RMM:   3    -0.369228193960E+02    0.34504E-09   -0.48751E-13  1001   0.950E-06    0.758E-09
RMM:   4    -0.369228193962E+02   -0.25148E-09    0.62666E-14   579   0.950E-06    0.539E-09
RMM:   5    -0.369228193962E+02    0.69463E-10   -0.36707E-13   877   0.958E-06
   8 F= -.36922819E+02 E0= -.36922774E+02  d E =-.721911E-10
       N       E                     dE             d eps       ncg     rms          rms(c)
DAV:   1    -0.369228193955E+02    0.73464E-09    0.57639E-09  3572   0.196E-05    0.226E-07
RMM:   2    -0.369228193962E+02   -0.65825E-09    0.33348E-14   282   0.560E-06    0.139E-07
RMM:   3    -0.369228193961E+02    0.11744E-09    0.64064E-14   550   0.551E-06    0.416E-09
RMM:   4    -0.369228193961E+02    0.32969E-11   -0.90792E-14   204   0.551E-06    0.116E-09
RMM:   5    -0.369228193959E+02    0.18576E-09   -0.64146E-14   161   0.552E-06    0.725E-10
RMM:   6    -0.369228193962E+02   -0.34993E-09    0.24754E-14   384   0.551E-06    0.633E-10
RMM:   7    -0.369228193958E+02    0.43224E-09    0.12665E-14   637   0.551E-06    0.872E-10
RMM:   8    -0.369228193959E+02   -0.68439E-10   -0.20560E-14   652   0.551E-06
   9 F= -.36922819E+02 E0= -.36922774E+02  d E =0.327304E-09
       N       E                     dE             d eps       ncg     rms          rms(c)
DAV:   1    -0.369228193955E+02    0.31832E-09    0.57681E-09  3340   0.106E-05    0.224E-07
RMM:   2    -0.369228193963E+02   -0.82912E-09    0.00000E+00   365   0.279E-06    0.138E-07
RMM:   3    -0.369228193959E+02    0.38608E-09    0.00000E+00   422   0.275E-06    0.247E-09
RMM:   4    -0.369228193958E+02    0.70600E-10    0.00000E+00   498   0.275E-06    0.116E-09
RMM:   5    -0.369228193961E+02   -0.21873E-09    0.00000E+00   198   0.275E-06    0.254E-10
RMM:   6    -0.369228193960E+02    0.48431E-10    0.00000E+00   480   0.275E-06
  10 F= -.36922819E+02 E0= -.36922774E+02  d E =-.155978E-09
       N       E                     dE             d eps       ncg     rms          rms(c)
DAV:   1    -0.369228193955E+02    0.57548E-09    0.57590E-09  3228   0.308E-05    0.573E-07
RMM:   2    -0.369228193961E+02   -0.64551E-09    0.00000E+00   261   0.765E-06    0.354E-07
RMM:   3    -0.369228193963E+02   -0.14120E-09    0.00000E+00   392   0.756E-06    0.683E-09
RMM:   4    -0.369228193959E+02    0.40404E-09    0.00000E+00   270   0.756E-06    0.252E-09
RMM:   5    -0.369228193960E+02   -0.11323E-09    0.00000E+00   480   0.756E-06    0.268E-10
RMM:   6    -0.369228193961E+02   -0.92314E-10    0.00000E+00   360   0.756E-06
  11 F= -.36922819E+02 E0= -.36922774E+02  d E =-.611635E-10
       N       E                     dE             d eps       ncg     rms          rms(c)
DAV:   1    -0.369228193957E+02    0.24011E-09    0.57645E-09  3268   0.189E-05    0.349E-07
RMM:   2    -0.369228193959E+02   -0.19918E-09    0.00000E+00   394   0.488E-06    0.216E-07
RMM:   3    -0.369228193963E+02   -0.31582E-09    0.00000E+00   472   0.467E-06    0.515E-09
RMM:   4    -0.369228193961E+02    0.11710E-09    0.00000E+00   465   0.467E-06    0.196E-09
RMM:   5    -0.369228193960E+02    0.92655E-10    0.00000E+00   292   0.467E-06
  12 F= -.36922819E+02 E0= -.36922774E+02  d E =0.271712E-10
