gr                                      
           1
     4.294410    0.000000    0.000000
     0.000000    2.464991    0.000000
     0.000000    0.000000   19.917275
   C 
   4
Direct configuration=     1
   0.99987391  0.00000000  0.00000000
   0.16679275  0.50000000  0.00000000
   0.49987391  0.50000000  0.00000000
   0.66679275  0.00000000  0.00000000
Direct configuration=     2
   0.99989239  0.00000000 -0.00000000
   0.16677428  0.50000000  0.00000000
   0.49989239  0.50000000 -0.00000000
   0.66677428  0.00000000  0.00000000
Direct configuration=     3
   0.99987764  0.00000000 -0.00000000
   0.16678903  0.50000000  0.00000000
   0.49987764  0.50000000 -0.00000000
   0.66678903  0.00000000  0.00000000
Direct configuration=     4
   0.99987763  0.00000000 -0.00000000
   0.16678904  0.50000000  0.00000000
   0.49987763  0.50000000 -0.00000000
   0.66678904  0.00000000  0.00000000
Direct configuration=     5
   0.99987763  0.00000000 -0.00000000
   0.16678904  0.50000000  0.00000000
   0.49987763  0.50000000 -0.00000000
   0.66678904  0.00000000  0.00000000
Direct configuration=     6
   0.99987758 -0.00000000 -0.00000000
   0.16678908  0.50000000  0.00000000
   0.49987758  0.50000000 -0.00000000
   0.66678908 -0.00000000  0.00000000
Direct configuration=     7
   0.99987764  0.00000000 -0.00000000
   0.16678903  0.50000000  0.00000000
   0.49987764  0.50000000 -0.00000000
   0.66678903  0.00000000  0.00000000
Direct configuration=     8
   0.99987764  0.00000000 -0.00000000
   0.16678902  0.50000000  0.00000000
   0.49987764  0.50000000 -0.00000000
   0.66678902  0.00000000  0.00000000
Direct configuration=     9
   0.99987764  0.00000000 -0.00000000
   0.16678903  0.50000000  0.00000000
   0.49987764  0.50000000 -0.00000000
   0.66678903  0.00000000  0.00000000
Direct configuration=    10
   0.99987764  0.00000000  0.00000000
   0.16678903  0.50000000 -0.00000000
   0.49987764  0.50000000  0.00000000
   0.66678903  0.00000000 -0.00000000
Direct configuration=    11
   0.99987763  0.00000000  0.00000000
   0.16678904  0.50000000 -0.00000000
   0.49987763  0.50000000  0.00000000
   0.66678904  0.00000000 -0.00000000
Direct configuration=    12
   0.99987764  0.00000000  0.00000000
   0.16678903  0.50000000 -0.00000000
   0.49987764  0.50000000  0.00000000
   0.66678903  0.00000000 -0.00000000
