    4    4  400    1
  0.5270948E+02  0.4338429E-09  0.2460764E-09  0.1974905E-08  0.5000000E-15
  1.000000000000000E-004
  CAR 
 gr                                      
     16    247     12
 
  0.0000000E+00  0.0000000E+00  0.0000000E+00  0.1157407E-02
    1      -22.148255
    2      -17.168843
    3      -15.889928
    4      -10.277549
    5       -8.938801
    6       -5.924239
    7       -5.748331
    8       -5.249864
    9       -1.145353
   10        0.536494
   11        1.335811
   12        1.725046
 
  0.4166667E-01  0.0000000E+00  0.0000000E+00  0.2314815E-02
    1      -22.138309
    2      -17.302684
    3      -15.740996
    4      -10.265715
    5       -8.929071
    6       -5.967947
    7       -5.769350
    8       -5.311519
    9       -1.067858
   10        0.549962
   11        1.349467
   12        1.738871
 
  0.8333333E-01  0.0000000E+00  0.0000000E+00  0.2314815E-02
    1      -22.108475
    2      -17.599701
    3      -15.398784
    4      -10.230232
    5       -8.899931
    6       -6.097093
    7       -5.831290
    8       -5.483493
    9       -0.848524
   10        0.590371
   11        1.390431
   12        1.780347
 
  0.1250000E+00  0.0000000E+00  0.0000000E+00  0.2314815E-02
    1      -22.058774
    2      -17.948094
    3      -14.975329
    4      -10.171158
    5       -8.851534
    6       -6.306123
    7       -5.930969
    8       -5.736299
    9       -0.517327
   10        0.657736
   11        1.458688
   12        1.849476
 
  0.1666667E+00  0.0000000E+00  0.0000000E+00  0.2314815E-02
    1      -21.989239
    2      -18.306518
    3      -14.512390
    4      -10.088590
    5       -8.784140
    6       -6.586851
    7       -6.063626
    8       -6.039771
    9       -0.105262
   10        0.752070
   11        1.554215
   12        1.946263
 
  0.2083333E+00  0.0000000E+00  0.0000000E+00  0.2314815E-02
    1      -21.899920
    2      -18.660348
    3      -14.025179
    4       -9.982671
    5       -8.698126
    6       -6.929642
    7       -6.370726
    8       -6.223543
    9        0.363295
   10        0.873384
   11        1.676972
   12        2.070707
 
  0.2500000E+00  0.0000000E+00  0.0000000E+00  0.2314815E-02
    1      -21.790883
    2      -19.003423
    3      -13.520639
    4       -9.853590
    5       -8.593994
    6       -7.324472
    7       -6.713308
    8       -6.404638
    9        0.870882
   10        1.021673
   11        1.826899
   12        2.222811
 
  0.2916667E+00  0.0000000E+00  0.0000000E+00  0.2314815E-02
    1      -21.662208
    2      -19.332688
    3      -13.002826
    4       -9.701594
    5       -8.472391
    6       -7.761716
    7       -7.057029
    8       -6.600945
    9        1.196919
   10        1.404902
   11        2.003902
   12        2.402573
 
  0.3333333E+00  0.0000000E+00  0.0000000E+00  0.2314815E-02
    1      -21.513996
    2      -19.646411
    3      -12.474717
    4       -9.526995
    5       -8.334125
    6       -8.232590
    7       -7.394918
    8       -6.806923
    9        1.399088
   10        1.955525
   11        2.207826
   12        2.609988
 
  0.3750000E+00  0.0000000E+00  0.0000000E+00  0.2314815E-02
    1      -21.346367
    2      -19.943508
    3      -11.938930
    4       -9.330189
    5       -8.729342
    6       -8.180197
    7       -7.722241
    8       -7.017623
    9        1.628131
   10        2.438382
   11        2.513499
   12        2.845047
 
  0.4166667E+00  0.0000000E+00  0.0000000E+00  0.2314815E-02
    1      -21.159464
    2      -20.223235
    3      -11.398065
    4       -9.245270
    5       -9.111668
    6       -8.035693
    7       -8.011829
    8       -7.228734
    9        1.883982
   10        2.694951
   11        3.063760
   12        3.107739
 
  0.4583333E+00  0.0000000E+00  0.0000000E+00  0.2314815E-02
    1      -20.953462
    2      -20.485059
    3      -10.854907
    4       -9.774640
    5       -8.872052
    6       -8.332904
    7       -7.830508
    8       -7.436574
    9        2.166550
   10        2.811298
   11        2.975797
   12        3.398041
 
  0.5000000E+00  0.0000000E+00  0.0000000E+00  0.1157407E-02
    1      -20.728575
    2      -20.728575
    3      -10.312573
    4      -10.312573
    5       -8.612128
    6       -8.612128
    7       -7.638034
    8       -7.638034
    9        2.475715
   10        2.475715
   11        3.273098
   12        3.273098
 
  0.0000000E+00  0.2777778E-01  0.0000000E+00  0.2314815E-02
    1      -22.134487
    2      -17.156944
    3      -15.878213
    4      -10.261167
    5       -9.001470
    6       -5.951879
    7       -5.806553
    8       -5.233195
    9       -1.148347
   10        0.555159
   11        1.354684
   12        1.744153
 
  0.4166667E-01  0.2777778E-01  0.0000000E+00  0.4629630E-02
    1      -22.124541
    2      -17.290648
    3      -15.729464
    4      -10.249337
    5       -8.991726
    6       -5.997438
    7       -5.825090
    8       -5.294975
    9       -1.070835
   10        0.568627
   11        1.368339
   12        1.757978
 
  0.8333333E-01  0.2777778E-01  0.0000000E+00  0.4629630E-02
    1      -22.094712
    2      -17.587428
    3      -15.387630
    4      -10.213866
    5       -8.962545
    6       -6.128875
    7       -5.882961
    8       -5.467242
    9       -0.851532
   10        0.609036
   11        1.409300
   12        1.799454
 
  0.1250000E+00  0.2777778E-01  0.0000000E+00  0.4629630E-02
    1      -22.045018
    2      -17.935603
    3      -14.964636
    4      -10.154812
    5       -8.914077
    6       -6.337703
    7       -5.980211
    8       -5.720358
    9       -0.520567
   10        0.676402
   11        1.477554
   12        1.868584
 
  0.1666667E+00  0.2777778E-01  0.0000000E+00  0.4629630E-02
    1      -21.975494
    2      -18.293837
    3      -14.502235
    4      -10.072272
    5       -8.846577
    6       -6.615885
    7       -6.112304
    8       -6.024066
    9       -0.109026
   10        0.770740
   11        1.573076
   12        1.965371
 
  0.2083333E+00  0.2777778E-01  0.0000000E+00  0.4629630E-02
    1      -21.886190
    2      -18.647505
    3      -14.015655
    4       -9.966388
    5       -8.760415
    6       -6.954748
    7       -6.355165
    8       -6.272890
    9        0.358694
   10        0.892059
   11        1.695827
   12        2.089817
 
  0.2500000E+00  0.2777778E-01  0.0000000E+00  0.4629630E-02
    1      -21.777171
    2      -18.990441
    3      -13.511855
    4       -9.837351
    5       -8.656084
    6       -7.345097
    7       -6.697811
    8       -6.455314
    9        0.865152
   10        1.040355
   11        1.845748
   12        2.241923
 
  0.2916667E+00  0.2777778E-01  0.0000000E+00  0.4629630E-02
    1      -21.648519
    2      -19.319586
    3      -12.994914
    4       -9.685407
    5       -8.534218
    6       -7.777844
    7       -7.041536
    8       -6.653222
    9        1.215608
   10        1.397790
   11        2.022746
   12        2.421688
 
  0.3333333E+00  0.2777778E-01  0.0000000E+00  0.4629630E-02
    1      -21.500334
    2      -19.633205
    3      -12.467838
    4       -9.510867
    5       -8.395614
    6       -8.244509
    7       -7.379390
    8       -6.860836
    9        1.417787
   10        1.946848
   11        2.226667
   12        2.629106
 
  0.3750000E+00  0.2777778E-01  0.0000000E+00  0.4629630E-02
    1      -21.332736
    2      -19.930212
    3      -11.933276
    4       -9.314127
    5       -8.737482
    6       -8.241255
    7       -7.706653
    8       -7.073072
    9        1.646841
   10        2.457227
   11        2.503269
   12        2.864169
 
  0.4166667E+00  0.2777778E-01  0.0000000E+00  0.4629630E-02
    1      -21.145870
    2      -20.209861
    3      -11.393865
    4       -9.250106
    5       -9.095678
    6       -8.072344
    7       -8.020030
    8       -7.285557
    9        1.902705
   10        2.713812
   11        3.052965
   12        3.126868
 
  0.4583333E+00  0.2777778E-01  0.0000000E+00  0.4629630E-02
    1      -20.939912
    2      -20.471617
    3      -10.852434
    4       -9.776635
    5       -8.856141
    6       -8.317159
    7       -7.890349
    8       -7.494585
    9        2.185289
   10        2.830093
   11        2.994681
   12        3.417181
 
  0.5000000E+00  0.2777778E-01  0.0000000E+00  0.2314815E-02
    1      -20.715075
    2      -20.715075
    3      -10.312148
    4      -10.312148
    5       -8.596299
    6       -8.596299
    7       -7.697046
    8       -7.697046
    9        2.494475
   10        2.494475
   11        3.291786
   12        3.291786
 
  0.0000000E+00  0.5555556E-01  0.0000000E+00  0.2314815E-02
    1      -22.093189
    2      -17.121248
    3      -15.843213
    4      -10.212055
    5       -9.184421
    6       -6.034285
    7       -5.976490
    8       -5.183208
    9       -1.158146
   10        0.611153
   11        1.411295
   12        1.801474
 
  0.4166667E-01  0.5555556E-01  0.0000000E+00  0.4629630E-02
    1      -22.083248
    2      -17.254552
    3      -15.695009
    4      -10.200237
    5       -9.174633
    6       -6.093334
    7       -5.979684
    8       -5.245375
    9       -1.080575
   10        0.624620
   11        1.424948
   12        1.815300
 
  0.8333333E-01  0.5555556E-01  0.0000000E+00  0.4629630E-02
    1      -22.053432
    2      -17.550628
    3      -15.354314
    4      -10.164803
    5       -9.145316
    6       -6.234115
    7       -6.022972
    8       -5.418543
    9       -0.861361
   10        0.665031
   11        1.465902
   12        1.856776
 
  0.1250000E+00  0.5555556E-01  0.0000000E+00  0.4629630E-02
    1      -22.003761
    2      -17.898148
    3      -14.932720
    4      -10.105809
    5       -9.096611
    6       -6.441514
    7       -6.113872
    8       -5.672609
    9       -0.531102
   10        0.732399
   11        1.534144
   12        1.925907
 
  0.1666667E+00  0.5555556E-01  0.0000000E+00  0.4629630E-02
    1      -21.934272
    2      -18.255815
    3      -14.471959
    4      -10.023355
    5       -9.028758
    6       -6.710902
    7       -6.245507
    8       -5.977040
    9       -0.121162
   10        0.826743
   11        1.629651
   12        2.022696
 
  0.2083333E+00  0.5555556E-01  0.0000000E+00  0.4629630E-02
    1      -21.845012
    2      -18.608995
    3      -13.987307
    4       -9.917580
    5       -8.942104
    6       -7.036826
    7       -6.409311
    8       -6.308574
    9        0.344002
   10        0.948072
   11        1.752383
   12        2.147146
 
  0.2500000E+00  0.5555556E-01  0.0000000E+00  0.4629630E-02
    1      -21.736047
    2      -18.951512
    3      -13.485779
    4       -9.788676
    5       -8.837113
    6       -7.412584
    7       -6.651410
    8       -6.596889
    9        0.847006
   10        1.096382
   11        1.902284
   12        2.299256
 
  0.2916667E+00  0.5555556E-01  0.0000000E+00  0.4629630E-02
    1      -21.607463
    2      -19.280295
    3      -12.971530
    4       -9.636888
    5       -8.714381
    6       -7.830763
    7       -6.995146
    8       -6.800667
    9        1.271655
   10        1.375407
   11        2.079265
   12        2.479027
 
  0.3333333E+00  0.5555556E-01  0.0000000E+00  0.4629630E-02
    1      -21.459358
    2      -19.593602
    3      -12.447648
    4       -9.462529
    5       -8.574657
    6       -8.283851
    7       -7.332889
    8       -7.014110
    9        1.473857
   10        1.919650
   11        2.283177
   12        2.686454
 
  0.3750000E+00  0.5555556E-01  0.0000000E+00  0.4629630E-02
    1      -21.291856
    2      -19.890338
    3      -11.916888
    4       -9.265991
    5       -8.764695
    6       -8.418870
    7       -7.659965
    8       -7.231720
    9        1.702937
   10        2.471186
   11        2.513747
   12        2.921529
 
  0.4166667E+00  0.5555556E-01  0.0000000E+00  0.4629630E-02
    1      -21.105102
    2      -20.169754
    3      -11.382008
    4       -9.266765
    5       -9.047764
    6       -8.248159
    7       -7.973112
    8       -7.448937
    9        1.958830
   10        2.770379
   11        3.018340
   12        3.184243
 
  0.4583333E+00  0.5555556E-01  0.0000000E+00  0.4629630E-02
    1      -20.899274
    2      -20.431307
    3      -10.845980
    4       -9.784265
    5       -8.808465
    6       -8.269991
    7       -8.063915
    8       -7.662004
    9        2.241450
   10        2.886378
   11        3.051326
   12        3.474582
 
  0.5000000E+00  0.5555556E-01  0.0000000E+00  0.2314815E-02
    1      -20.674589
    2      -20.674589
    3      -10.312132
    4      -10.312132
    5       -8.548875
    6       -8.548875
    7       -7.867840
    8       -7.867840
    9        2.550684
   10        2.550684
   11        3.347737
   12        3.347737
 
  0.0000000E+00  0.8333333E-01  0.0000000E+00  0.2314815E-02
    1      -22.024399
    2      -17.061769
    3      -15.785386
    4      -10.130318
    5       -9.473909
    6       -6.245407
    7       -6.169926
    8       -5.099966
    9       -1.177196
   10        0.704479
   11        1.505623
   12        1.897012
 
  0.4166667E-01  0.8333333E-01  0.0000000E+00  0.4629630E-02
    1      -22.014465
    2      -17.194428
    3      -15.638079
    4      -10.118521
    5       -9.464031
    6       -6.306254
    7       -6.168353
    8       -5.162818
    9       -1.099510
   10        0.717945
   11        1.519271
   12        1.910837
 
  0.8333333E-01  0.8333333E-01  0.0000000E+00  0.4629630E-02
    1      -21.984672
    2      -17.489356
    3      -15.299299
    4      -10.083149
    5       -9.434439
    6       -6.446140
    7       -6.204116
    8       -5.337569
    9       -0.880420
   10        0.758352
   11        1.560212
   12        1.952314
 
  0.1250000E+00  0.8333333E-01  0.0000000E+00  0.4629630E-02
    1      -21.935041
    2      -17.835790
    3      -14.880094
    4      -10.024260
    5       -9.385257
    6       -6.644504
    7       -6.291460
    8       -5.593289
    9       -0.551358
   10        0.825717
   11        1.628433
   12        2.021445
 
  0.1666667E+00  0.8333333E-01  0.0000000E+00  0.4629630E-02
    1      -21.865607
    2      -18.192512
    3      -14.422169
    4       -9.941951
    5       -9.316696
    6       -6.896268
    7       -6.425621
    8       -5.898965
    9       -0.144178
   10        0.920060
   11        1.723910
   12        2.118235
 
  0.2083333E+00  0.8333333E-01  0.0000000E+00  0.4629630E-02
    1      -21.776421
    2      -18.544876
    3      -13.940872
    4       -9.836363
    5       -9.229056
    6       -7.198048
    7       -6.597566
    8       -6.231240
    9        0.316573
   10        1.041393
   11        1.846607
   12        2.242687
 
  0.2500000E+00  0.8333333E-01  0.0000000E+00  0.4629630E-02
    1      -21.667549
    2      -18.886691
    3      -13.443332
    4       -9.707688
    5       -9.122743
    6       -7.546299
    7       -6.796989
    8       -6.574390
    9        0.813609
   10        1.189715
   11        1.996470
   12        2.394803
 
  0.2916667E+00  0.8333333E-01  0.0000000E+00  0.4629630E-02
    1      -21.539077
    2      -19.214867
    3      -12.933836
    4       -9.556169
    5       -8.998277
    6       -7.936596
    7       -7.014126
    8       -6.918131
    9        1.334678
   10        1.365005
   11        2.173416
   12        2.574582
 
  0.3333333E+00  0.8333333E-01  0.0000000E+00  0.4629630E-02
    1      -21.391107
    2      -19.527650
    3      -12.415641
    4       -9.382120
    5       -8.856309
    6       -8.363524
    7       -7.255673
    8       -7.240736
    9        1.567229
   10        1.870523
   11        2.377306
   12        2.782020
 
  0.3750000E+00  0.8333333E-01  0.0000000E+00  0.4629630E-02
    1      -21.223764
    2      -19.823932
    3      -11.891704
    4       -9.185929
    5       -8.821032
    6       -8.697647
    7       -7.582418
    8       -7.470321
    9        1.796334
   10        2.413258
   11        2.607891
   12        3.017109
 
  0.4166667E+00  0.8333333E-01  0.0000000E+00  0.4629630E-02
    1      -21.037197
    2      -20.102956
    3      -11.365030
    4       -9.302944
    5       -8.968086
    6       -8.523282
    7       -7.895162
    8       -7.697897
    9        2.052253
   10        2.864607
   11        2.953909
   12        3.279842
 
  0.4583333E+00  0.8333333E-01  0.0000000E+00  0.4629630E-02
    1      -20.831588
    2      -20.364169
    3      -10.838886
    4       -9.803370
    5       -8.729199
    6       -8.334432
    7       -8.191604
    8       -7.919644
    9        2.334902
   10        2.979925
   11        3.145712
   12        3.458728
 
  0.5000000E+00  0.8333333E-01  0.0000000E+00  0.2314815E-02
    1      -20.607156
    2      -20.607156
    3      -10.316939
    4      -10.316939
    5       -8.470043
    6       -8.470043
    7       -8.132599
    8       -8.132599
    9        2.644173
   10        2.644173
   11        3.440411
   12        3.440411
 
  0.0000000E+00  0.1111111E+00  0.0000000E+00  0.2314815E-02
    1      -21.928176
    2      -16.978527
    3      -15.705598
    4      -10.016134
    5       -9.850835
    6       -6.595972
    7       -6.356272
    8       -4.983578
    9       -1.209568
   10        0.835140
   11        1.637627
   12        2.030768
 
  0.4166667E-01  0.1111111E+00  0.0000000E+00  0.4629630E-02
    1      -21.918253
    2      -17.110336
    3      -15.559524
    4      -10.004368
    5       -9.840798
    6       -6.644725
    7       -6.362888
    8       -5.047477
    9       -1.131668
   10        0.848602
   11        1.651269
   12        2.044592
 
  0.8333333E-01  0.1111111E+00  0.0000000E+00  0.4629630E-02
    1      -21.888493
    2      -17.403706
    3      -15.223464
    4       -9.969087
    5       -9.810717
    6       -6.773572
    7       -6.398544
    8       -5.224632
    9       -0.912679
   10        0.888996
   11        1.692188
   12        2.086067
 
  0.1250000E+00  0.1111111E+00  0.0000000E+00  0.4629630E-02
    1      -21.838917
    2      -17.748637
    3      -14.807751
    4       -9.910349
    5       -9.760685
    6       -6.960165
    7       -6.480829
    8       -5.482827
    9       -0.585322
   10        0.956344
   11        1.760373
   12        2.155195
 
  0.1666667E+00  0.1111111E+00  0.0000000E+00  0.4629630E-02
    1      -21.769561
    2      -18.104033
    3      -14.354043
    4       -9.828253
    5       -9.690857
    6       -7.192934
    7       -6.613550
    8       -5.790336
    9       -0.182173
   10        1.050668
   11        1.855802
   12        2.251984
 
  0.2083333E+00  0.1111111E+00  0.0000000E+00  0.4629630E-02
    1      -21.680478
    2      -18.455248
    3      -13.877808
    4       -9.722939
    5       -9.601454
    6       -7.466320
    7       -6.791953
    8       -6.123677
    9        0.272103
   10        1.171987
   11        1.978439
   12        2.376436
 
  0.2500000E+00  0.1111111E+00  0.0000000E+00  0.4629630E-02
    1      -21.571737
    2      -18.796070
    3      -13.386355
    4       -9.594598
    5       -9.492766
    6       -7.777867
    7       -7.006360
    8       -6.467258
    9        0.760383
   10        1.320300
   11        2.128236
   12        2.528556
 
  0.2916667E+00  0.1111111E+00  0.0000000E+00  0.4629630E-02
    1      -21.443423
    2      -19.123389
    3      -12.884208
    4       -9.443475
    5       -9.365163
    6       -8.126543
    7       -7.244781
    8       -6.810976
    9        1.270684
   10        1.495590
   11        2.305116
   12        2.708340
 
  0.3333333E+00  0.1111111E+00  0.0000000E+00  0.4629630E-02
    1      -21.295642
    2      -19.435430
    3      -12.374925
    4       -9.269881
    5       -9.219096
    6       -8.511153
    7       -7.495384
    8       -7.148195
    9        1.697818
   10        1.794111
   11        2.508960
   12        2.915787
 
  0.3750000E+00  0.1111111E+00  0.0000000E+00  0.4629630E-02
    1      -21.128523
    2      -19.731071
    3      -11.861841
    4       -9.074202
    5       -9.055114
    6       -8.929139
    7       -7.748395
    8       -7.474433
    9        1.926929
   10        2.323440
   11        2.739551
   12        3.150890
 
  0.4166667E+00  0.1111111E+00  0.0000000E+00  0.4629630E-02
    1      -20.942219
    2      -20.009540
    3      -11.348435
    4       -9.376296
    5       -8.873885
    6       -8.856921
    7       -7.996810
    8       -7.786568
    9        2.182851
   10        2.851770
   11        2.996398
   12        3.413639
 
  0.4583333E+00  0.1111111E+00  0.0000000E+00  0.4629630E-02
    1      -20.736918
    2      -20.270274
    3      -10.838551
    4       -9.847313
    5       -8.676222
    6       -8.618644
    7       -8.236039
    8       -8.082354
    9        2.465498
   10        3.110507
   11        3.277803
   12        3.366687
 
  0.5000000E+00  0.1111111E+00  0.0000000E+00  0.2314815E-02
    1      -20.512845
    2      -20.512845
    3      -10.336538
    4      -10.336538
    5       -8.463153
    6       -8.463153
    7       -8.360132
    8       -8.360132
    9        2.774762
   10        2.774762
   11        3.566983
   12        3.566983
 
  0.0000000E+00  0.1388889E+00  0.0000000E+00  0.2314815E-02
    1      -21.804607
    2      -16.871551
    3      -15.605307
    4      -10.294207
    5       -9.869759
    6       -7.009812
    7       -6.589853
    8       -4.834196
    9       -1.260870
   10        1.003129
   11        1.807251
   12        2.202743
 
  0.4166667E-01  0.1388889E+00  0.0000000E+00  0.4629630E-02
    1      -21.794699
    2      -17.002362
    3      -15.460786
    4      -10.283897
    5       -9.858034
    6       -7.056290
    7       -6.594118
    8       -4.899621
    9       -1.182576
   10        1.016583
   11        1.820881
   12        2.216566
 
  0.8333333E-01  0.1388889E+00  0.0000000E+00  0.4629630E-02
    1      -21.764981
    2      -17.293827
    3      -15.128327
    4      -10.252978
    5       -9.822877
    6       -7.181765
    7       -6.619866
    8       -5.080230
    9       -0.963531
   10        1.056953
   11        1.861766
   12        2.258037
 
  0.1250000E+00  0.1388889E+00  0.0000000E+00  0.4629630E-02
    1      -21.715476
    2      -17.636854
    3      -14.717427
    4      -10.201483
    5       -9.764346
    6       -7.363471
    7       -6.686744
    8       -5.341910
    9       -0.638353
   10        1.124263
   11        1.929893
   12        2.327159
 
  0.1666667E+00  0.1388889E+00  0.0000000E+00  0.4629630E-02
    1      -21.646222
    2      -17.990543
    3      -14.269691
    4      -10.129461
    5       -9.682540
    6       -7.585967
    7       -6.804722
    8       -5.651935
    9       -0.240617
   10        1.218542
   11        2.025242
   12        2.423941
 
  0.2083333E+00  0.1388889E+00  0.0000000E+00  0.4629630E-02
    1      -21.557273
    2      -18.340265
    3      -13.800773
    4      -10.036976
    5       -9.577600
    6       -7.840411
    7       -6.974767
    8       -5.986693
    9        0.204901
   10        1.339815
   11        2.147780
   12        2.548387
 
  0.2500000E+00  0.1388889E+00  0.0000000E+00  0.4629630E-02
    1      -21.448699
    2      -18.679793
    3      -13.318296
    4       -9.924092
    5       -9.449716
    6       -8.122221
    7       -7.191461
    8       -6.330803
    9        0.681346
   10        1.488086
   11        2.297460
   12        2.700503
 
  0.2916667E+00  0.1388889E+00  0.0000000E+00  0.4629630E-02
    1      -21.320589
    2      -19.005992
    3      -12.827209
    4       -9.790860
    5       -9.299134
    6       -8.429955
    7       -7.444777
    8       -6.674427
    9        1.177109
   10        1.663342
   11        2.474216
   12        2.880289
 
  0.3333333E+00  0.1388889E+00  0.0000000E+00  0.4629630E-02
    1      -21.173054
    2      -19.317066
    3      -12.331639
    4       -9.637303
    5       -9.126163
    6       -8.764514
    7       -7.721723
    8       -7.011148
    9        1.683736
   10        1.865540
   11        2.677952
   12        3.087741
 
  0.3750000E+00  0.1388889E+00  0.0000000E+00  0.4629630E-02
    1      -21.006225
    2      -19.611870
    3      -11.835658
    4       -9.463397
    5       -9.127892
    6       -8.931186
    7       -8.008369
    8       -7.336648
    9        2.094623
   10        2.194599
   11        2.908504
   12        3.322852
 
  0.4166667E+00  0.1388889E+00  0.0000000E+00  0.4629630E-02
    1      -20.820263
    2      -19.889615
    3      -11.343684
    4       -9.521382
    5       -9.269068
    6       -8.714683
    7       -8.292244
    8       -7.647914
    9        2.350510
   10        2.704045
   11        3.165515
   12        3.585613
 
  0.4583333E+00  0.1388889E+00  0.0000000E+00  0.4629630E-02
    1      -20.615362
    2      -20.149724
    3      -10.860686
    4       -9.944005
    5       -9.054241
    6       -8.564232
    7       -8.477249
    8       -7.942778
    9        2.633109
   10        3.206310
   11        3.277955
   12        3.447520
 
  0.5000000E+00  0.1388889E+00  0.0000000E+00  0.2314815E-02
    1      -20.391756
    2      -20.391756
    3      -10.392195
    4      -10.392195
    5       -8.819033
    6       -8.819033
    7       -8.219631
    8       -8.219631
    9        2.942304
   10        2.942304
   11        3.666046
   12        3.666046
 
  0.0000000E+00  0.1666667E+00  0.0000000E+00  0.2314815E-02
    1      -21.653810
    2      -16.740882
    3      -15.486955
    4      -10.783347
    5       -9.691535
    6       -7.469928
    7       -6.866370
    8       -4.652023
    9       -1.338010
   10        1.208429
   11        2.014410
   12        2.412940
 
  0.4166667E-01  0.1666667E+00  0.0000000E+00  0.4629630E-02
    1      -21.643919
    2      -16.870641
    3      -15.344299
    4      -10.772569
    5       -9.679864
    6       -7.516602
    7       -6.865338
    8       -4.719648
    9       -1.258979
   10        1.221870
   11        2.028021
   12        2.426760
 
  0.8333333E-01  0.1666667E+00  0.0000000E+00  0.4629630E-02
    1      -21.614253
    2      -17.159943
    3      -15.016490
    4      -10.740205
    5       -9.644870
    6       -7.643021
    7       -6.875392
    8       -4.905141
    9       -1.039432
   10        1.262203
   11        2.068850
   12        2.468224
 
  0.1250000E+00  0.1666667E+00  0.0000000E+00  0.4629630E-02
    1      -21.564836
    2      -17.500689
    3      -14.612179
    4      -10.686168
    5       -9.586611
    6       -7.825081
    7       -6.919074
    8       -5.171602
    9       -0.716764
   10        1.329453
   11        2.136884
   12        2.537335
 
  0.1666667E+00  0.1666667E+00  0.0000000E+00  0.4629630E-02
    1      -21.495706
    2      -17.852281
    3      -14.172925
    4      -10.610293
    5       -9.505187
    6       -8.044766
    7       -7.011220
    8       -5.484958
    9       -0.325865
   10        1.423652
   11        2.232098
   12        2.634102
 
  0.2083333E+00  0.1666667E+00  0.0000000E+00  0.4629630E-02
    1      -21.406921
    2      -18.200149
    3      -13.714727
    4      -10.512305
    5       -9.400739
    6       -8.290883
    7       -7.157731
    8       -5.821497
    9        0.108450
   10        1.544835
   11        2.354460
   12        2.758532
 
  0.2500000E+00  0.1666667E+00  0.0000000E+00  0.4629630E-02
    1      -21.298553
    2      -18.538062
    3      -13.245794
    4      -10.391774
    5       -9.273460
    6       -8.556685
    7       -7.357791
    8       -6.166187
    9        0.569780
   10        1.693017
   11        2.503922
   12        2.910635
 
  0.2916667E+00  0.1666667E+00  0.0000000E+00  0.4629630E-02
    1      -21.170695
    2      -18.862863
    3      -12.771925
    4      -10.248044
    5       -9.123594
    6       -8.838537
    7       -7.605505
    8       -6.509570
    9        1.047073
   10        1.868188
   11        2.680422
   12        3.090412
 
  0.3333333E+00  0.1666667E+00  0.0000000E+00  0.4629630E-02
    1      -21.023462
    2      -19.172728
    3      -12.298393
    4      -10.080165
    5       -9.135422
    6       -8.951448
    7       -7.891075
    8       -6.845535
    9        1.532442
   10        2.070311
   11        2.883879
   12        3.297861
 
  0.3750000E+00  0.1666667E+00  0.0000000E+00  0.4629630E-02
    1      -20.856993
    2      -19.466487
    3      -11.830748
    4       -9.886850
    5       -9.448758
    6       -8.757405
    7       -8.201806
    8       -7.169976
    9        2.019868
   10        2.299319
   11        3.114185
   12        3.532975
 
  0.4166667E+00  0.1666667E+00  0.0000000E+00  0.4629630E-02
    1      -20.671456
    2      -19.743330
    3      -11.375102
    4       -9.782034
    5       -9.666584
    6       -8.541939
    7       -8.523205
    8       -7.480031
    9        2.504474
   10        2.555125
   11        3.371186
   12        3.795743
 
  0.4583333E+00  0.1666667E+00  0.0000000E+00  0.4629630E-02
    1      -20.467052
    2      -20.002662
    3      -10.937897
    4      -10.139666
    5       -9.418116
    6       -8.840632
    7       -8.305635
    8       -7.773629
    9        2.837620
   10        2.982084
   11        3.482144
   12        3.654454
 
  0.5000000E+00  0.1666667E+00  0.0000000E+00  0.2314815E-02
    1      -20.244023
    2      -20.244023
    3      -10.524921
    4      -10.524921
    5       -9.141646
    6       -9.141646
    7       -8.049224
    8       -8.049224
    9        3.146678
   10        3.146678
   11        3.448899
   12        3.448899
 