<?xml version="1.0" encoding="ISO-8859-1"?>
<modeling>
 <generator>
  <i name="program" type="string">vasp </i>
  <i name="version" type="string">5.3.5  </i>
  <i name="subversion" type="string">31Mar14 (build Mar 02 2015 18:14:16) complex                          parallel </i>
  <i name="platform" type="string">LinuxIFC </i>
  <i name="date" type="string">2018 08 08 </i>
  <i name="time" type="string">18:31:36 </i>
 </generator>
 <incar>
  <i type="string" name="SYSTEM">  gr</i>
  <i type="string" name="PREC">accurate : accuracy</i>
  <i type="string" name="ALGO"> FAST.</i>
  <i type="int" name="NELM">   100</i>
  <i type="int" name="NELMDL">    -3</i>
  <i type="int" name="NELMIN">     5</i>
  <i type="int" name="IBRION">     1</i>
  <i name="EDIFF">      0.00000000</i>
  <i name="EDIFFG">     -0.00000100</i>
  <i type="int" name="NSW">   400</i>
  <i type="int" name="ISIF">     2</i>
  <i name="ENCUT">   2000.00000000</i>
  <i type="int" name="ISMEAR">     0</i>
  <i name="SIGMA">      0.05000000</i>
  <i type="int" name="NWRITE">     2</i>
  <i type="logical" name="LWAVE"> F  </i>
  <i type="logical" name="LCHARG"> F  </i>
  <i type="int" name="NELM">   100</i>
 </incar>
 <kpoints>
  <generation param="Gamma">
   <v type="int" name="divisions">      24       36        1 </v>
   <v name="usershift">      0.00000000       0.00000000       0.00000000 </v>
   <v name="genvec1">      0.04166667       0.00000000       0.00000000 </v>
   <v name="genvec2">      0.00000000       0.02777778       0.00000000 </v>
   <v name="genvec3">      0.00000000       0.00000000       1.00000000 </v>
   <v name="shift">      0.00000000       0.00000000       0.00000000 </v>
  </generation>
  <varray name="kpointlist" >
   <v>       0.00000000       0.00000000       0.00000000 </v>
   <v>       0.04166667       0.00000000       0.00000000 </v>
   <v>       0.08333333       0.00000000       0.00000000 </v>
   <v>       0.12500000       0.00000000       0.00000000 </v>
   <v>       0.16666667       0.00000000       0.00000000 </v>
   <v>       0.20833333       0.00000000       0.00000000 </v>
   <v>       0.25000000       0.00000000       0.00000000 </v>
   <v>       0.29166667       0.00000000       0.00000000 </v>
   <v>       0.33333333       0.00000000       0.00000000 </v>
   <v>       0.37500000       0.00000000       0.00000000 </v>
   <v>       0.41666667       0.00000000       0.00000000 </v>
   <v>       0.45833333       0.00000000       0.00000000 </v>
   <v>       0.50000000       0.00000000       0.00000000 </v>
   <v>       0.00000000       0.02777778       0.00000000 </v>
   <v>       0.04166667       0.02777778       0.00000000 </v>
   <v>       0.08333333       0.02777778       0.00000000 </v>
   <v>       0.12500000       0.02777778       0.00000000 </v>
   <v>       0.16666667       0.02777778       0.00000000 </v>
   <v>       0.20833333       0.02777778       0.00000000 </v>
   <v>       0.25000000       0.02777778       0.00000000 </v>
   <v>       0.29166667       0.02777778       0.00000000 </v>
   <v>       0.33333333       0.02777778       0.00000000 </v>
   <v>       0.37500000       0.02777778       0.00000000 </v>
   <v>       0.41666667       0.02777778       0.00000000 </v>
   <v>       0.45833333       0.02777778       0.00000000 </v>
   <v>       0.50000000       0.02777778       0.00000000 </v>
   <v>       0.00000000       0.05555556       0.00000000 </v>
   <v>       0.04166667       0.05555556       0.00000000 </v>
   <v>       0.08333333       0.05555556       0.00000000 </v>
   <v>       0.12500000       0.05555556       0.00000000 </v>
   <v>       0.16666667       0.05555556       0.00000000 </v>
   <v>       0.20833333       0.05555556       0.00000000 </v>
   <v>       0.25000000       0.05555556       0.00000000 </v>
   <v>       0.29166667       0.05555556       0.00000000 </v>
   <v>       0.33333333       0.05555556       0.00000000 </v>
   <v>       0.37500000       0.05555556       0.00000000 </v>
   <v>       0.41666667       0.05555556       0.00000000 </v>
   <v>       0.45833333       0.05555556       0.00000000 </v>
   <v>       0.50000000       0.05555556       0.00000000 </v>
   <v>       0.00000000       0.08333333       0.00000000 </v>
   <v>       0.04166667       0.08333333       0.00000000 </v>
   <v>       0.08333333       0.08333333       0.00000000 </v>
   <v>       0.12500000       0.08333333       0.00000000 </v>
   <v>       0.16666667       0.08333333       0.00000000 </v>
   <v>       0.20833333       0.08333333       0.00000000 </v>
   <v>       0.25000000       0.08333333       0.00000000 </v>
   <v>       0.29166667       0.08333333       0.00000000 </v>
   <v>       0.33333333       0.08333333       0.00000000 </v>
   <v>       0.37500000       0.08333333       0.00000000 </v>
   <v>       0.41666667       0.08333333       0.00000000 </v>
   <v>       0.45833333       0.08333333       0.00000000 </v>
   <v>       0.50000000       0.08333333       0.00000000 </v>
   <v>       0.00000000       0.11111111       0.00000000 </v>
   <v>       0.04166667       0.11111111       0.00000000 </v>
   <v>       0.08333333       0.11111111       0.00000000 </v>
   <v>       0.12500000       0.11111111       0.00000000 </v>
   <v>       0.16666667       0.11111111       0.00000000 </v>
   <v>       0.20833333       0.11111111       0.00000000 </v>
   <v>       0.25000000       0.11111111       0.00000000 </v>
   <v>       0.29166667       0.11111111       0.00000000 </v>
   <v>       0.33333333       0.11111111       0.00000000 </v>
   <v>       0.37500000       0.11111111       0.00000000 </v>
   <v>       0.41666667       0.11111111       0.00000000 </v>
   <v>       0.45833333       0.11111111       0.00000000 </v>
   <v>       0.50000000       0.11111111       0.00000000 </v>
   <v>       0.00000000       0.13888889       0.00000000 </v>
   <v>       0.04166667       0.13888889       0.00000000 </v>
   <v>       0.08333333       0.13888889       0.00000000 </v>
   <v>       0.12500000       0.13888889       0.00000000 </v>
   <v>       0.16666667       0.13888889       0.00000000 </v>
   <v>       0.20833333       0.13888889       0.00000000 </v>
   <v>       0.25000000       0.13888889       0.00000000 </v>
   <v>       0.29166667       0.13888889       0.00000000 </v>
   <v>       0.33333333       0.13888889       0.00000000 </v>
   <v>       0.37500000       0.13888889       0.00000000 </v>
   <v>       0.41666667       0.13888889       0.00000000 </v>
   <v>       0.45833333       0.13888889       0.00000000 </v>
   <v>       0.50000000       0.13888889       0.00000000 </v>
   <v>       0.00000000       0.16666667       0.00000000 </v>
   <v>       0.04166667       0.16666667       0.00000000 </v>
   <v>       0.08333333       0.16666667       0.00000000 </v>
   <v>       0.12500000       0.16666667       0.00000000 </v>
   <v>       0.16666667       0.16666667       0.00000000 </v>
   <v>       0.20833333       0.16666667       0.00000000 </v>
   <v>       0.25000000       0.16666667       0.00000000 </v>
   <v>       0.29166667       0.16666667       0.00000000 </v>
   <v>       0.33333333       0.16666667       0.00000000 </v>
   <v>       0.37500000       0.16666667       0.00000000 </v>
   <v>       0.41666667       0.16666667       0.00000000 </v>
   <v>       0.45833333       0.16666667       0.00000000 </v>
   <v>       0.50000000       0.16666667       0.00000000 </v>
   <v>       0.00000000       0.19444444       0.00000000 </v>
   <v>       0.04166667       0.19444444       0.00000000 </v>
   <v>       0.08333333       0.19444444       0.00000000 </v>
   <v>       0.12500000       0.19444444       0.00000000 </v>
   <v>       0.16666667       0.19444444       0.00000000 </v>
   <v>       0.20833333       0.19444444       0.00000000 </v>
   <v>       0.25000000       0.19444444       0.00000000 </v>
   <v>       0.29166667       0.19444444       0.00000000 </v>
   <v>       0.33333333       0.19444444       0.00000000 </v>
   <v>       0.37500000       0.19444444       0.00000000 </v>
   <v>       0.41666667       0.19444444       0.00000000 </v>
   <v>       0.45833333       0.19444444       0.00000000 </v>
   <v>       0.50000000       0.19444444       0.00000000 </v>
   <v>       0.00000000       0.22222222       0.00000000 </v>
   <v>       0.04166667       0.22222222       0.00000000 </v>
   <v>       0.08333333       0.22222222       0.00000000 </v>
   <v>       0.12500000       0.22222222       0.00000000 </v>
   <v>       0.16666667       0.22222222       0.00000000 </v>
   <v>       0.20833333       0.22222222       0.00000000 </v>
   <v>       0.25000000       0.22222222       0.00000000 </v>
   <v>       0.29166667       0.22222222       0.00000000 </v>
   <v>       0.33333333       0.22222222       0.00000000 </v>
   <v>       0.37500000       0.22222222       0.00000000 </v>
   <v>       0.41666667       0.22222222       0.00000000 </v>
   <v>       0.45833333       0.22222222       0.00000000 </v>
   <v>       0.50000000       0.22222222       0.00000000 </v>
   <v>       0.00000000       0.25000000       0.00000000 </v>
   <v>       0.04166667       0.25000000       0.00000000 </v>
   <v>       0.08333333       0.25000000       0.00000000 </v>
   <v>       0.12500000       0.25000000       0.00000000 </v>
   <v>       0.16666667       0.25000000       0.00000000 </v>
   <v>       0.20833333       0.25000000       0.00000000 </v>
   <v>       0.25000000       0.25000000       0.00000000 </v>
   <v>       0.29166667       0.25000000       0.00000000 </v>
   <v>       0.33333333       0.25000000       0.00000000 </v>
   <v>       0.37500000       0.25000000       0.00000000 </v>
   <v>       0.41666667       0.25000000       0.00000000 </v>
   <v>       0.45833333       0.25000000       0.00000000 </v>
   <v>       0.50000000       0.25000000       0.00000000 </v>
   <v>       0.00000000       0.27777778       0.00000000 </v>
   <v>       0.04166667       0.27777778       0.00000000 </v>
   <v>       0.08333333       0.27777778       0.00000000 </v>
   <v>       0.12500000       0.27777778       0.00000000 </v>
   <v>       0.16666667       0.27777778       0.00000000 </v>
   <v>       0.20833333       0.27777778       0.00000000 </v>
   <v>       0.25000000       0.27777778       0.00000000 </v>
   <v>       0.29166667       0.27777778       0.00000000 </v>
   <v>       0.33333333       0.27777778       0.00000000 </v>
   <v>       0.37500000       0.27777778       0.00000000 </v>
   <v>       0.41666667       0.27777778       0.00000000 </v>
   <v>       0.45833333       0.27777778       0.00000000 </v>
   <v>       0.50000000       0.27777778       0.00000000 </v>
   <v>       0.00000000       0.30555556       0.00000000 </v>
   <v>       0.04166667       0.30555556       0.00000000 </v>
   <v>       0.08333333       0.30555556       0.00000000 </v>
   <v>       0.12500000       0.30555556       0.00000000 </v>
   <v>       0.16666667       0.30555556       0.00000000 </v>
   <v>       0.20833333       0.30555556       0.00000000 </v>
   <v>       0.25000000       0.30555556       0.00000000 </v>
   <v>       0.29166667       0.30555556       0.00000000 </v>
   <v>       0.33333333       0.30555556       0.00000000 </v>
   <v>       0.37500000       0.30555556       0.00000000 </v>
   <v>       0.41666667       0.30555556       0.00000000 </v>
   <v>       0.45833333       0.30555556       0.00000000 </v>
   <v>       0.50000000       0.30555556       0.00000000 </v>
   <v>       0.00000000       0.33333333       0.00000000 </v>
   <v>       0.04166667       0.33333333       0.00000000 </v>
   <v>       0.08333333       0.33333333       0.00000000 </v>
   <v>       0.12500000       0.33333333       0.00000000 </v>
   <v>       0.16666667       0.33333333       0.00000000 </v>
   <v>       0.20833333       0.33333333       0.00000000 </v>
   <v>       0.25000000       0.33333333       0.00000000 </v>
   <v>       0.29166667       0.33333333       0.00000000 </v>
   <v>       0.33333333       0.33333333       0.00000000 </v>
   <v>       0.37500000       0.33333333       0.00000000 </v>
   <v>       0.41666667       0.33333333       0.00000000 </v>
   <v>       0.45833333       0.33333333       0.00000000 </v>
   <v>       0.50000000       0.33333333       0.00000000 </v>
   <v>       0.00000000       0.36111111       0.00000000 </v>
   <v>       0.04166667       0.36111111       0.00000000 </v>
   <v>       0.08333333       0.36111111       0.00000000 </v>
   <v>       0.12500000       0.36111111       0.00000000 </v>
   <v>       0.16666667       0.36111111       0.00000000 </v>
   <v>       0.20833333       0.36111111       0.00000000 </v>
   <v>       0.25000000       0.36111111       0.00000000 </v>
   <v>       0.29166667       0.36111111       0.00000000 </v>
   <v>       0.33333333       0.36111111       0.00000000 </v>
   <v>       0.37500000       0.36111111       0.00000000 </v>
   <v>       0.41666667       0.36111111       0.00000000 </v>
   <v>       0.45833333       0.36111111       0.00000000 </v>
   <v>       0.50000000       0.36111111       0.00000000 </v>
   <v>       0.00000000       0.38888889       0.00000000 </v>
   <v>       0.04166667       0.38888889       0.00000000 </v>
   <v>       0.08333333       0.38888889       0.00000000 </v>
   <v>       0.12500000       0.38888889       0.00000000 </v>
   <v>       0.16666667       0.38888889       0.00000000 </v>
   <v>       0.20833333       0.38888889       0.00000000 </v>
   <v>       0.25000000       0.38888889       0.00000000 </v>
   <v>       0.29166667       0.38888889       0.00000000 </v>
   <v>       0.33333333       0.38888889       0.00000000 </v>
   <v>       0.37500000       0.38888889       0.00000000 </v>
   <v>       0.41666667       0.38888889       0.00000000 </v>
   <v>       0.45833333       0.38888889       0.00000000 </v>
   <v>       0.50000000       0.38888889       0.00000000 </v>
   <v>       0.00000000       0.41666667       0.00000000 </v>
   <v>       0.04166667       0.41666667       0.00000000 </v>
   <v>       0.08333333       0.41666667       0.00000000 </v>
   <v>       0.12500000       0.41666667       0.00000000 </v>
   <v>       0.16666667       0.41666667       0.00000000 </v>
   <v>       0.20833333       0.41666667       0.00000000 </v>
   <v>       0.25000000       0.41666667       0.00000000 </v>
   <v>       0.29166667       0.41666667       0.00000000 </v>
   <v>       0.33333333       0.41666667       0.00000000 </v>
   <v>       0.37500000       0.41666667       0.00000000 </v>
   <v>       0.41666667       0.41666667       0.00000000 </v>
   <v>       0.45833333       0.41666667       0.00000000 </v>
   <v>       0.50000000       0.41666667       0.00000000 </v>
   <v>       0.00000000       0.44444444       0.00000000 </v>
   <v>       0.04166667       0.44444444       0.00000000 </v>
   <v>       0.08333333       0.44444444       0.00000000 </v>
   <v>       0.12500000       0.44444444       0.00000000 </v>
   <v>       0.16666667       0.44444444       0.00000000 </v>
   <v>       0.20833333       0.44444444       0.00000000 </v>
   <v>       0.25000000       0.44444444       0.00000000 </v>
   <v>       0.29166667       0.44444444       0.00000000 </v>
   <v>       0.33333333       0.44444444       0.00000000 </v>
   <v>       0.37500000       0.44444444       0.00000000 </v>
   <v>       0.41666667       0.44444444       0.00000000 </v>
   <v>       0.45833333       0.44444444       0.00000000 </v>
   <v>       0.50000000       0.44444444       0.00000000 </v>
   <v>       0.00000000       0.47222222       0.00000000 </v>
   <v>       0.04166667       0.47222222       0.00000000 </v>
   <v>       0.08333333       0.47222222       0.00000000 </v>
   <v>       0.12500000       0.47222222       0.00000000 </v>
   <v>       0.16666667       0.47222222       0.00000000 </v>
   <v>       0.20833333       0.47222222       0.00000000 </v>
   <v>       0.25000000       0.47222222       0.00000000 </v>
   <v>       0.29166667       0.47222222       0.00000000 </v>
   <v>       0.33333333       0.47222222       0.00000000 </v>
   <v>       0.37500000       0.47222222       0.00000000 </v>
   <v>       0.41666667       0.47222222       0.00000000 </v>
   <v>       0.45833333       0.47222222       0.00000000 </v>
   <v>       0.50000000       0.47222222       0.00000000 </v>
   <v>       0.00000000       0.50000000       0.00000000 </v>
   <v>       0.04166667       0.50000000       0.00000000 </v>
   <v>       0.08333333       0.50000000       0.00000000 </v>
   <v>       0.12500000       0.50000000       0.00000000 </v>
   <v>       0.16666667       0.50000000       0.00000000 </v>
   <v>       0.20833333       0.50000000       0.00000000 </v>
   <v>       0.25000000       0.50000000       0.00000000 </v>
   <v>       0.29166667       0.50000000       0.00000000 </v>
   <v>       0.33333333       0.50000000       0.00000000 </v>
   <v>       0.37500000       0.50000000       0.00000000 </v>
   <v>       0.41666667       0.50000000       0.00000000 </v>
   <v>       0.45833333       0.50000000       0.00000000 </v>
   <v>       0.50000000       0.50000000       0.00000000 </v>
  </varray>
  <varray name="weights" >
   <v>       0.00115741 </v>
   <v>       0.00231481 </v>
   <v>       0.00231481 </v>
   <v>       0.00231481 </v>
   <v>       0.00231481 </v>
   <v>       0.00231481 </v>
   <v>       0.00231481 </v>
   <v>       0.00231481 </v>
   <v>       0.00231481 </v>
   <v>       0.00231481 </v>
   <v>       0.00231481 </v>
   <v>       0.00231481 </v>
   <v>       0.00115741 </v>
   <v>       0.00231481 </v>
   <v>       0.00462963 </v>
   <v>       0.00462963 </v>
   <v>       0.00462963 </v>
   <v>       0.00462963 </v>
   <v>       0.00462963 </v>
   <v>       0.00462963 </v>
   <v>       0.00462963 </v>
   <v>       0.00462963 </v>
   <v>       0.00462963 </v>
   <v>       0.00462963 </v>
   <v>       0.00462963 </v>
   <v>       0.00231481 </v>
   <v>       0.00231481 </v>
   <v>       0.00462963 </v>
   <v>       0.00462963 </v>
   <v>       0.00462963 </v>
   <v>       0.00462963 </v>
   <v>       0.00462963 </v>
   <v>       0.00462963 </v>
   <v>       0.00462963 </v>
   <v>       0.00462963 </v>
   <v>       0.00462963 </v>
   <v>       0.00462963 </v>
   <v>       0.00462963 </v>
   <v>       0.00231481 </v>
   <v>       0.00231481 </v>
   <v>       0.00462963 </v>
   <v>       0.00462963 </v>
   <v>       0.00462963 </v>
   <v>       0.00462963 </v>
   <v>       0.00462963 </v>
   <v>       0.00462963 </v>
   <v>       0.00462963 </v>
   <v>       0.00462963 </v>
   <v>       0.00462963 </v>
   <v>       0.00462963 </v>
   <v>       0.00462963 </v>
   <v>       0.00231481 </v>
   <v>       0.00231481 </v>
   <v>       0.00462963 </v>
   <v>       0.00462963 </v>
   <v>       0.00462963 </v>
   <v>       0.00462963 </v>
   <v>       0.00462963 </v>
   <v>       0.00462963 </v>
   <v>       0.00462963 </v>
   <v>       0.00462963 </v>
   <v>       0.00462963 </v>
   <v>       0.00462963 </v>
   <v>       0.00462963 </v>
   <v>       0.00231481 </v>
   <v>       0.00231481 </v>
   <v>       0.00462963 </v>
   <v>       0.00462963 </v>
   <v>       0.00462963 </v>
   <v>       0.00462963 </v>
   <v>       0.00462963 </v>
   <v>       0.00462963 </v>
   <v>       0.00462963 </v>
   <v>       0.00462963 </v>
   <v>       0.00462963 </v>
   <v>       0.00462963 </v>
   <v>       0.00462963 </v>
   <v>       0.00231481 </v>
   <v>       0.00231481 </v>
   <v>       0.00462963 </v>
   <v>       0.00462963 </v>
   <v>       0.00462963 </v>
   <v>       0.00462963 </v>
   <v>       0.00462963 </v>
   <v>       0.00462963 </v>
   <v>       0.00462963 </v>
   <v>       0.00462963 </v>
   <v>       0.00462963 </v>
   <v>       0.00462963 </v>
   <v>       0.00462963 </v>
   <v>       0.00231481 </v>
   <v>       0.00231481 </v>
   <v>       0.00462963 </v>
   <v>       0.00462963 </v>
   <v>       0.00462963 </v>
   <v>       0.00462963 </v>
   <v>       0.00462963 </v>
   <v>       0.00462963 </v>
   <v>       0.00462963 </v>
   <v>       0.00462963 </v>
   <v>       0.00462963 </v>
   <v>       0.00462963 </v>
   <v>       0.00462963 </v>
   <v>       0.00231481 </v>
   <v>       0.00231481 </v>
   <v>       0.00462963 </v>
   <v>       0.00462963 </v>
   <v>       0.00462963 </v>
   <v>       0.00462963 </v>
   <v>       0.00462963 </v>
   <v>       0.00462963 </v>
   <v>       0.00462963 </v>
   <v>       0.00462963 </v>
   <v>       0.00462963 </v>
   <v>       0.00462963 </v>
   <v>       0.00462963 </v>
   <v>       0.00231481 </v>
   <v>       0.00231481 </v>
   <v>       0.00462963 </v>
   <v>       0.00462963 </v>
   <v>       0.00462963 </v>
   <v>       0.00462963 </v>
   <v>       0.00462963 </v>
   <v>       0.00462963 </v>
   <v>       0.00462963 </v>
   <v>       0.00462963 </v>
   <v>       0.00462963 </v>
   <v>       0.00462963 </v>
   <v>       0.00462963 </v>
   <v>       0.00231481 </v>
   <v>       0.00231481 </v>
   <v>       0.00462963 </v>
   <v>       0.00462963 </v>
   <v>       0.00462963 </v>
   <v>       0.00462963 </v>
   <v>       0.00462963 </v>
   <v>       0.00462963 </v>
   <v>       0.00462963 </v>
   <v>       0.00462963 </v>
   <v>       0.00462963 </v>
   <v>       0.00462963 </v>
   <v>       0.00462963 </v>
   <v>       0.00231481 </v>
   <v>       0.00231481 </v>
   <v>       0.00462963 </v>
   <v>       0.00462963 </v>
   <v>       0.00462963 </v>
   <v>       0.00462963 </v>
   <v>       0.00462963 </v>
   <v>       0.00462963 </v>
   <v>       0.00462963 </v>
   <v>       0.00462963 </v>
   <v>       0.00462963 </v>
   <v>       0.00462963 </v>
   <v>       0.00462963 </v>
   <v>       0.00231481 </v>
   <v>       0.00231481 </v>
   <v>       0.00462963 </v>
   <v>       0.00462963 </v>
   <v>       0.00462963 </v>
   <v>       0.00462963 </v>
   <v>       0.00462963 </v>
   <v>       0.00462963 </v>
   <v>       0.00462963 </v>
   <v>       0.00462963 </v>
   <v>       0.00462963 </v>
   <v>       0.00462963 </v>
   <v>       0.00462963 </v>
   <v>       0.00231481 </v>
   <v>       0.00231481 </v>
   <v>       0.00462963 </v>
   <v>       0.00462963 </v>
   <v>       0.00462963 </v>
   <v>       0.00462963 </v>
   <v>       0.00462963 </v>
   <v>       0.00462963 </v>
   <v>       0.00462963 </v>
   <v>       0.00462963 </v>
   <v>       0.00462963 </v>
   <v>       0.00462963 </v>
   <v>       0.00462963 </v>
   <v>       0.00231481 </v>
   <v>       0.00231481 </v>
   <v>       0.00462963 </v>
   <v>       0.00462963 </v>
   <v>       0.00462963 </v>
   <v>       0.00462963 </v>
   <v>       0.00462963 </v>
   <v>       0.00462963 </v>
   <v>       0.00462963 </v>
   <v>       0.00462963 </v>
   <v>       0.00462963 </v>
   <v>       0.00462963 </v>
   <v>       0.00462963 </v>
   <v>       0.00231481 </v>
   <v>       0.00231481 </v>
   <v>       0.00462963 </v>
   <v>       0.00462963 </v>
   <v>       0.00462963 </v>
   <v>       0.00462963 </v>
   <v>       0.00462963 </v>
   <v>       0.00462963 </v>
   <v>       0.00462963 </v>
   <v>       0.00462963 </v>
   <v>       0.00462963 </v>
   <v>       0.00462963 </v>
   <v>       0.00462963 </v>
   <v>       0.00231481 </v>
   <v>       0.00231481 </v>
   <v>       0.00462963 </v>
   <v>       0.00462963 </v>
   <v>       0.00462963 </v>
   <v>       0.00462963 </v>
   <v>       0.00462963 </v>
   <v>       0.00462963 </v>
   <v>       0.00462963 </v>
   <v>       0.00462963 </v>
   <v>       0.00462963 </v>
   <v>       0.00462963 </v>
   <v>       0.00462963 </v>
   <v>       0.00231481 </v>
   <v>       0.00231481 </v>
   <v>       0.00462963 </v>
   <v>       0.00462963 </v>
   <v>       0.00462963 </v>
   <v>       0.00462963 </v>
   <v>       0.00462963 </v>
   <v>       0.00462963 </v>
   <v>       0.00462963 </v>
   <v>       0.00462963 </v>
   <v>       0.00462963 </v>
   <v>       0.00462963 </v>
   <v>       0.00462963 </v>
   <v>       0.00231481 </v>
   <v>       0.00115741 </v>
   <v>       0.00231481 </v>
   <v>       0.00231481 </v>
   <v>       0.00231481 </v>
   <v>       0.00231481 </v>
   <v>       0.00231481 </v>
   <v>       0.00231481 </v>
   <v>       0.00231481 </v>
   <v>       0.00231481 </v>
   <v>       0.00231481 </v>
   <v>       0.00231481 </v>
   <v>       0.00231481 </v>
   <v>       0.00115741 </v>
  </varray>
 </kpoints>
 <parameters>
  <separator name="general" >
   <i type="string" name="SYSTEM">gr</i>
   <i type="logical" name="LCOMPAT"> F  </i>
  </separator>
  <separator name="electronic" >
   <i type="string" name="PREC">accura</i>
   <i name="ENMAX">   2000.00000000</i>
   <i name="ENAUG">    644.87300000</i>
   <i name="EDIFF">      0.00000000</i>
   <i type="int" name="IALGO">    68</i>
   <i type="int" name="IWAVPR">    11</i>
   <i type="int" name="NBANDS">    12</i>
   <i name="NELECT">     16.00000000</i>
   <i type="int" name="TURBO">     0</i>
   <i type="int" name="IRESTART">     0</i>
   <i type="int" name="NREBOOT">     0</i>
   <i type="int" name="NMIN">     0</i>
   <i name="EREF">      0.00000000</i>
   <separator name="electronic smearing" >
    <i type="int" name="ISMEAR">     0</i>
    <i name="SIGMA">      0.05000000</i>
    <i name="KSPACING">      0.50000000</i>
    <i type="logical" name="KGAMMA"> T  </i>
   </separator>
   <separator name="electronic projectors" >
    <i type="logical" name="LREAL"> F  </i>
    <v name="ROPT">      0.00000000</v>
    <i type="int" name="LMAXPAW">  -100</i>
    <i type="int" name="LMAXMIX">     2</i>
    <i type="logical" name="NLSPLINE"> F  </i>
   </separator>
   <separator name="electronic startup" >
    <i type="int" name="ISTART">     0</i>
    <i type="int" name="ICHARG">     2</i>
    <i type="int" name="INIWAV">     1</i>
   </separator>
   <separator name="electronic spin" >
    <i type="int" name="ISPIN">     1</i>
    <i type="logical" name="LNONCOLLINEAR"> F  </i>
    <v name="MAGMOM">      1.00000000      1.00000000      1.00000000      1.00000000</v>
    <i name="NUPDOWN">     -1.00000000</i>
    <i type="logical" name="LSORBIT"> F  </i>
    <v name="SAXIS">      0.00000000      0.00000000      1.00000000</v>
    <i type="logical" name="LSPIRAL"> F  </i>
    <v name="QSPIRAL">      0.00000000      0.00000000      0.00000000</v>
    <i type="logical" name="LZEROZ"> F  </i>
   </separator>
   <separator name="electronic exchange-correlation" >
    <i type="logical" name="LASPH"> F  </i>
    <i type="logical" name="LMETAGGA"> F  </i>
   </separator>
   <separator name="electronic convergence" >
    <i type="int" name="NELM">   100</i>
    <i type="int" name="NELMDL">    -3</i>
    <i type="int" name="NELMIN">     5</i>
    <i name="ENINI">   2000.00000000</i>
    <separator name="electronic convergence detail" >
     <i type="logical" name="LDIAG"> T  </i>
     <i type="logical" name="LSUBROT"> F  </i>
     <i name="WEIMIN">      0.00100000</i>
     <i name="EBREAK">      0.00000000</i>
     <i name="DEPER">      0.30000000</i>
     <i type="int" name="NRMM">     4</i>
     <i name="TIME">      0.40000000</i>
    </separator>
   </separator>
   <separator name="electronic mixer" >
    <i name="AMIX">      0.40000000</i>
    <i name="BMIX">      1.00000000</i>
    <i name="AMIN">      0.10000000</i>
    <i name="AMIX_MAG">      1.60000000</i>
    <i name="BMIX_MAG">      1.00000000</i>
    <separator name="electronic mixer details" >
     <i type="int" name="IMIX">     4</i>
     <i type="int" name="MAXMIX">   -45</i>
     <i name="WC">    100.00000000</i>
     <i type="int" name="INIMIX">     1</i>
     <i type="int" name="MIXPRE">     1</i>
     <i type="int" name="MREMOVE">     5</i>
    </separator>
   </separator>
   <separator name="electronic dipolcorrection" >
    <i type="logical" name="LDIPOL"> F  </i>
    <i type="logical" name="LMONO"> F  </i>
    <i type="int" name="IDIPOL">     0</i>
    <i name="EPSILON">      1.00000000</i>
    <v name="DIPOL">   -100.00000000   -100.00000000   -100.00000000</v>
    <i name="EFIELD">      0.00000000</i>
   </separator>
  </separator>
  <separator name="grids" >
   <i type="int" name="NGX">    64</i>
   <i type="int" name="NGY">    36</i>
   <i type="int" name="NGZ">   288</i>
   <i type="int" name="NGXF">   128</i>
   <i type="int" name="NGYF">    72</i>
   <i type="int" name="NGZF">   576</i>
   <i type="logical" name="ADDGRID"> F  </i>
  </separator>
  <separator name="ionic" >
   <i type="int" name="NSW">   400</i>
   <i type="int" name="IBRION">     1</i>
   <i type="int" name="ISIF">     2</i>
   <i name="PSTRESS">      0.00000000</i>
   <i name="EDIFFG">     -0.00000100</i>
   <i type="int" name="NFREE">     0</i>
   <i name="POTIM">      0.50000000</i>
   <i name="SMASS">     -3.00000000</i>
   <i name="SCALEE">      1.00000000</i>
  </separator>
  <separator name="ionic md" >
   <i name="TEBEG">      0.00010000</i>
   <i name="TEEND">      0.00010000</i>
   <i type="int" name="NBLOCK">     1</i>
   <i type="int" name="KBLOCK">   400</i>
   <i type="int" name="NPACO">   256</i>
   <i name="APACO">     16.00000000</i>
  </separator>
  <separator name="symmetry" >
   <i type="int" name="ISYM">     2</i>
   <i name="SYMPREC">      0.00001000</i>
  </separator>
  <separator name="dos" >
   <i type="logical" name="LORBIT"> F  </i>
   <v name="RWIGS">     -1.00000000</v>
   <i type="int" name="NEDOS">   301</i>
   <i name="EMIN">     10.00000000</i>
   <i name="EMAX">    -10.00000000</i>
   <i name="EFERMI">      0.00000000</i>
  </separator>
  <separator name="writing" >
   <i type="int" name="NWRITE">     2</i>
   <i type="logical" name="LWAVE"> F  </i>
   <i type="logical" name="LCHARG"> F  </i>
   <i type="logical" name="LPARD"> F  </i>
   <i type="logical" name="LVTOT"> F  </i>
   <i type="logical" name="LVHAR"> F  </i>
   <i type="logical" name="LELF"> F  </i>
   <i type="logical" name="LOPTICS"> F  </i>
   <v name="STM">      0.00000000      0.00000000      0.00000000      0.00000000      0.00000000      0.00000000      0.00000000</v>
  </separator>
  <separator name="performance" >
   <i type="int" name="NPAR">     4</i>
   <i type="int" name="NSIM">     4</i>
   <i type="int" name="NBLK">    -1</i>
   <i type="logical" name="LPLANE"> T  </i>
   <i type="logical" name="LSCALAPACK"> F  </i>
   <i type="logical" name="LSCAAWARE"> F  </i>
   <i type="logical" name="LSCALU"> F  </i>
   <i type="logical" name="LASYNC"> F  </i>
   <i type="logical" name="LORBITALREAL"> F  </i>
  </separator>
  <separator name="miscellaneous" >
   <i type="int" name="IDIOT">     3</i>
   <i type="logical" name="LMUSIC"> F  </i>
   <v name="POMASS">     12.01100000</v>
   <v name="DARWINR">      0.00000000</v>
   <v name="DARWINV">      1.00000000</v>
   <i type="logical" name="LCORR"> T  </i>
  </separator>
  <i type="logical" name="GGA_COMPAT"> T  </i>
  <i type="logical" name="LBERRY"> F  </i>
  <i type="int" name="ICORELEVEL">     0</i>
  <i type="logical" name="LDAU"> F  </i>
  <i type="int" name="I_CONSTRAINED_M">     0</i>
  <separator name="electronic exchange-correlation" >
   <i type="string" name="GGA">--</i>
   <i type="int" name="VOSKOWN">     0</i>
   <i type="logical" name="LHFCALC"> F  </i>
   <i type="string" name="PRECFOCK"></i>
   <i type="logical" name="LSYMGRAD"> F  </i>
   <i type="logical" name="LHFONE"> F  </i>
   <i type="logical" name="LRHFCALC"> F  </i>
   <i type="logical" name="LTHOMAS"> F  </i>
   <i type="logical" name="LMODELHF"> F  </i>
   <i name="ENCUT4O">     -1.00000000</i>
   <i type="int" name="EXXOEP">     0</i>
   <i type="int" name="FOURORBIT">     0</i>
   <i name="AEXX">      0.00000000</i>
   <i name="HFALPHA">      0.00000000</i>
   <i name="MCALPHA">      0.00000000</i>
   <i name="ALDAX">      1.00000000</i>
   <i name="AGGAX">      1.00000000</i>
   <i name="ALDAC">      1.00000000</i>
   <i name="AGGAC">      1.00000000</i>
   <i type="int" name="NKREDX">     1</i>
   <i type="int" name="NKREDY">     1</i>
   <i type="int" name="NKREDZ">     1</i>
   <i type="logical" name="SHIFTRED"> F  </i>
   <i type="logical" name="ODDONLY"> F  </i>
   <i type="logical" name="EVENONLY"> F  </i>
   <i type="int" name="LMAXFOCK">     0</i>
   <i type="int" name="NMAXFOCKAE">     0</i>
   <i type="logical" name="LFOCKAEDFT"> F  </i>
   <i name="HFSCREEN">      0.00000000</i>
   <i name="HFSCREENC">      0.00000000</i>
   <i type="int" name="NBANDSGWLOW">     0</i>
  </separator>
  <separator name="vdW DFT" >
   <i type="logical" name="LUSE_VDW"> F  </i>
   <i name="Zab_VDW">     -0.84910000</i>
   <i name="PARAM1">      0.12340000</i>
   <i name="PARAM2">      1.00000000</i>
   <i name="PARAM3">      0.00000000</i>
  </separator>
  <separator name="model GW" >
   <i type="int" name="MODEL_GW">     0</i>
   <i name="MODEL_EPS0">     31.62568521</i>
   <i name="MODEL_ALPHA">      1.00000000</i>
  </separator>
  <separator name="linear response parameters" >
   <i type="logical" name="LEPSILON"> F  </i>
   <i type="logical" name="LRPA"> F  </i>
   <i type="logical" name="LNABLA"> F  </i>
   <i type="logical" name="LVEL"> F  </i>
   <i type="int" name="KINTER">     0</i>
   <i name="CSHIFT">      0.10000000</i>
   <i name="OMEGAMAX">     -1.00000000</i>
   <i name="DEG_THRESHOLD">      0.00200000</i>
  </separator>
  <separator name="orbital magnetization" >
   <i type="logical" name="NUCIND"> F  </i>
   <v name="MAGPOS">      0.00000000      0.00000000      0.00000000</v>
   <i type="logical" name="LNICSALL"> T  </i>
   <i type="logical" name="ORBITALMAG"> F  </i>
   <i type="logical" name="LMAGBLOCH"> F  </i>
   <i type="logical" name="LCHIMAG"> F  </i>
   <i type="logical" name="LGAUGE"> T  </i>
   <i type="int" name="MAGATOM">     0</i>
   <v name="MAGDIPOL">      0.00000000      0.00000000      0.00000000</v>
   <v name="AVECCONST">      0.00000000      0.00000000      0.00000000</v>
  </separator>
  <separator name="response functions" >
   <i type="logical" name="LADDER"> F  </i>
   <i type="logical" name="LFXC"> F  </i>
   <i type="logical" name="LHARTREE"> T  </i>
   <i type="int" name="IBSE">     0</i>
   <i type="logical" name="LTCTE"> F  </i>
   <i type="logical" name="LTETE"> F  </i>
   <i type="logical" name="LTRIPLET"> F  </i>
   <i type="logical" name="LFXCEPS"> F  </i>
   <i type="logical" name="LFXHEG"> F  </i>
   <i type="logical" name="L2ORDER"> F  </i>
   <i type="logical" name="LUSEW"> F  </i>
   <i name="ENCUTGW">     -2.00000000</i>
   <i name="ENCUTGWSOFT">     -2.00000000</i>
   <i name="ENCUTLF">     -1.00000000</i>
   <i type="int" name="LMAXMP2">    -1</i>
   <i name="SCISSOR">      0.00000000</i>
   <i type="int" name="NOMEGA">     0</i>
   <i type="int" name="NOMEGAR">     0</i>
   <i type="int" name="NBANDSGW">    -1</i>
   <i type="int" name="NBANDSO">    -1</i>
   <i type="int" name="NBANDSV">    -1</i>
   <i type="int" name="NELM">   100</i>
   <i type="int" name="DIM">     3</i>
   <i type="int" name="ANTIRES">     0</i>
   <i name="OMEGAMAX">    -30.00000000</i>
   <i name="OMEGAMIN">    -30.00000000</i>
   <i name="OMEGATL">   -200.00000000</i>
   <i type="int" name="OMEGAGRID">     0</i>
   <i name="CSHIFT">     -0.10000000</i>
   <i type="logical" name="SELFENERGY"> F  </i>
   <i type="logical" name="LSPECTRAL"> F  </i>
   <i type="logical" name="ODDONLYGW"> F  </i>
   <i type="logical" name="EVENONLYGW"> F  </i>
   <i type="int" name="NKREDLFX">     1</i>
   <i type="int" name="NKREDLFY">     1</i>
   <i type="int" name="NKREDLFZ">     1</i>
   <i type="int" name="MAXMEM">  1800</i>
   <i type="int" name="TELESCOPE">     0</i>
   <i type="int" name="TAUPAR">     1</i>
  </separator>
  <separator name="External order field" >
   <i name="OFIELD_KAPPA">      0.00000000</i>
   <v name="OFIELD_K">      0.00000000      0.00000000      0.00000000</v>
   <i name="OFIELD_Q6_NEAR">      0.00000000</i>
   <i name="OFIELD_Q6_FAR">      0.00000000</i>
   <i name="OFIELD_A">      0.00000000</i>
  </separator>
 </parameters>
 <atominfo>
  <atoms>       4 </atoms>
  <types>       1 </types>
  <array name="atoms" >
   <dimension dim="1">ion</dimension>
   <field type="string">element</field>
   <field type="int">atomtype</field>
   <set>
    <rc><c>C </c><c>   1</c></rc>
    <rc><c>C </c><c>   1</c></rc>
    <rc><c>C </c><c>   1</c></rc>
    <rc><c>C </c><c>   1</c></rc>
   </set>
  </array>
  <array name="atomtypes" >
   <dimension dim="1">type</dimension>
   <field type="int">atomspertype</field>
   <field type="string">element</field>
   <field>mass</field>
   <field>valence</field>
   <field type="string">pseudopotential</field>
   <set>
    <rc><c>   4</c><c>C </c><c>     12.01100000</c><c>      4.00000000</c><c> PAW_PBE C 08Apr2002                    </c></rc>
   </set>
  </array>
 </atominfo>
 <structure name="initialpos" >
  <crystal>
   <varray name="basis" >
    <v>       4.33842856       0.00000000       0.00000000 </v>
    <v>       0.00000000       2.46076388       0.00000000 </v>
    <v>       0.00000000       0.00000000      19.74905369 </v>
   </varray>
   <i name="volume">    210.83790140 </i>
   <varray name="rec_basis" >
    <v>       0.23049821       0.00000000       0.00000000 </v>
    <v>       0.00000000       0.40637788       0.00000000 </v>
    <v>       0.00000000       0.00000000       0.05063534 </v>
   </varray>
  </crystal>
  <varray name="positions" >
   <v>       0.99964215       0.00000000       0.00000000 </v>
   <v>       0.16702452       0.50000000       0.00000000 </v>
   <v>       0.49964215       0.50000000       0.00000000 </v>
   <v>       0.66702452       0.00000000       0.00000000 </v>
  </varray>
 </structure>
 <calculation>
  <scstep>
   <time name="dav">  289.97  290.91</time>
   <time name="total">  292.39  293.38</time>
   <energy>
    <i name="alphaZ">      6.18334092 </i>
    <i name="ewald">   2502.31206971 </i>
    <i name="hartreedc">  -2930.22229336 </i>
    <i name="XCdc">     54.92606244 </i>
    <i name="pawpsdc">    151.32577238 </i>
    <i name="pawaedc">   -155.92769107 </i>
    <i name="eentropy">     -0.00180650 </i>
    <i name="bandstr">    -30.01893307 </i>
    <i name="atom">    588.62352690 </i>
    <i name="e_fr_energy">    187.20004835 </i>
    <i name="e_wo_entrp">    187.20185486 </i>
    <i name="e_0_energy">    187.20095161 </i>
   </energy>
  </scstep>
  <scstep>
   <time name="dav">  441.39  444.06</time>
   <time name="total">  441.39  444.12</time>
   <energy>
    <i name="e_fr_energy">     -9.26595018 </i>
    <i name="e_wo_entrp">     -9.26563526 </i>
    <i name="e_0_energy">     -9.26579272 </i>
   </energy>
  </scstep>
  <scstep>
   <time name="dav">  333.86  336.35</time>
   <time name="total">  363.75  366.50</time>
   <energy>
    <i name="e_fr_energy">    -38.23458211 </i>
    <i name="e_wo_entrp">    -38.23458066 </i>
    <i name="e_0_energy">    -38.23458138 </i>
   </energy>
  </scstep>
  <scstep>
   <time name="diag">   78.23   78.63</time>
   <time name="diis">  326.09  328.57</time>
   <time name="orth">    3.08    3.08</time>
   <time name="total">  439.47  442.71</time>
   <energy>
    <i name="e_fr_energy">    -37.64436971 </i>
    <i name="e_wo_entrp">    -37.64436671 </i>
    <i name="e_0_energy">    -37.64436821 </i>
   </energy>
  </scstep>
  <scstep>
   <time name="diag">   78.20   78.64</time>
   <time name="diis">  322.29  323.52</time>
   <time name="orth">    3.09    3.09</time>
   <time name="total">  435.95  437.66</time>
   <energy>
    <i name="e_fr_energy">    -36.91039723 </i>
    <i name="e_wo_entrp">    -36.91039215 </i>
    <i name="e_0_energy">    -36.91039469 </i>
   </energy>
  </scstep>
  <scstep>
   <time name="diag">   78.63   78.65</time>
   <time name="diis">  355.59  355.72</time>
   <time name="orth">    3.10    3.10</time>
   <time name="total">  469.59  469.80</time>
   <energy>
    <i name="e_fr_energy">    -36.91180358 </i>
    <i name="e_wo_entrp">    -36.91179880 </i>
    <i name="e_0_energy">    -36.91180119 </i>
   </energy>
  </scstep>
  <scstep>
   <time name="diag">   78.58   78.60</time>
   <time name="diis">  325.23  325.34</time>
   <time name="orth">    3.09    3.09</time>
   <time name="total">  439.25  439.83</time>
   <energy>
    <i name="e_fr_energy">    -36.90271569 </i>
    <i name="e_wo_entrp">    -36.90271159 </i>
    <i name="e_0_energy">    -36.90271364 </i>
   </energy>
  </scstep>
  <scstep>
   <time name="diag">   78.57   78.60</time>
   <time name="diis">  330.26  330.34</time>
   <time name="orth">    3.10    3.10</time>
   <time name="total">  444.21  445.29</time>
   <energy>
    <i name="e_fr_energy">    -36.89740800 </i>
    <i name="e_wo_entrp">    -36.89740372 </i>
    <i name="e_0_energy">    -36.89740586 </i>
   </energy>
  </scstep>
  <scstep>
   <time name="diag">   78.58   78.63</time>
   <time name="diis">  318.34  318.64</time>
   <time name="orth">    3.07    3.08</time>
   <time name="total">  432.31  432.74</time>
   <energy>
    <i name="e_fr_energy">    -36.89712767 </i>
    <i name="e_wo_entrp">    -36.89712306 </i>
    <i name="e_0_energy">    -36.89712537 </i>
   </energy>
  </scstep>
  <scstep>
   <time name="diag">   78.60   78.66</time>
   <time name="diis">  318.61  319.42</time>
   <time name="orth">    3.07    3.09</time>
   <time name="total">  432.50  434.24</time>
   <energy>
    <i name="e_fr_energy">    -36.89701365 </i>
    <i name="e_wo_entrp">    -36.89700923 </i>
    <i name="e_0_energy">    -36.89701144 </i>
   </energy>
  </scstep>
  <scstep>
   <time name="diag">   78.28   78.63</time>
   <time name="diis">  319.58  320.99</time>
   <time name="orth">    3.10    3.10</time>
   <time name="total">  433.30  435.12</time>
   <energy>
    <i name="e_fr_energy">    -36.89943622 </i>
    <i name="e_wo_entrp">    -36.89943188 </i>
    <i name="e_0_energy">    -36.89943405 </i>
   </energy>
  </scstep>
  <scstep>
   <time name="diag">   78.55   78.58</time>
   <time name="diis">  320.83  320.90</time>
   <time name="orth">    3.09    3.10</time>
   <time name="total">  434.86  434.97</time>
   <energy>
    <i name="e_fr_energy">    -36.89989616 </i>
    <i name="e_wo_entrp">    -36.89989175 </i>
    <i name="e_0_energy">    -36.89989396 </i>
   </energy>
  </scstep>
  <scstep>
   <time name="diag">   78.55   78.57</time>
   <time name="diis">  327.05  327.13</time>
   <time name="orth">    3.08    3.08</time>
   <time name="total">  440.97  441.21</time>
   <energy>
    <i name="e_fr_energy">    -36.90014367 </i>
    <i name="e_wo_entrp">    -36.90013925 </i>
    <i name="e_0_energy">    -36.90014146 </i>
   </energy>
  </scstep>
  <scstep>
   <time name="diag">   77.90   78.52</time>
   <time name="diis">  317.24  320.63</time>
   <time name="orth">    3.07    3.09</time>
   <time name="total">  430.23  434.60</time>
   <energy>
    <i name="e_fr_energy">    -36.90022603 </i>
    <i name="e_wo_entrp">    -36.90022163 </i>
    <i name="e_0_energy">    -36.90022383 </i>
   </energy>
  </scstep>
  <scstep>
   <time name="diag">   78.23   78.46</time>
   <time name="diis">  317.92  320.19</time>
   <time name="orth">    3.07    3.10</time>
   <time name="total">  430.97  434.10</time>
   <energy>
    <i name="e_fr_energy">    -36.90023668 </i>
    <i name="e_wo_entrp">    -36.90023227 </i>
    <i name="e_0_energy">    -36.90023448 </i>
   </energy>
  </scstep>
  <scstep>
   <time name="diag">   77.85   78.60</time>
   <time name="diis">  313.27  317.17</time>
   <time name="orth">    3.08    3.08</time>
   <time name="total">  426.08  431.14</time>
   <energy>
    <i name="e_fr_energy">    -36.90024894 </i>
    <i name="e_wo_entrp">    -36.90024453 </i>
    <i name="e_0_energy">    -36.90024674 </i>
   </energy>
  </scstep>
  <scstep>
   <time name="diag">   78.07   78.58</time>
   <time name="diis">  322.10  325.17</time>
   <time name="orth">    3.08    3.08</time>
   <time name="total">  435.21  439.22</time>
   <energy>
    <i name="e_fr_energy">    -36.90025405 </i>
    <i name="e_wo_entrp">    -36.90024965 </i>
    <i name="e_0_energy">    -36.90025185 </i>
   </energy>
  </scstep>
  <scstep>
   <time name="diag">   78.07   78.60</time>
   <time name="diis">  313.09  316.20</time>
   <time name="orth">    3.08    3.08</time>
   <time name="total">  426.47  430.29</time>
   <energy>
    <i name="e_fr_energy">    -36.90025515 </i>
    <i name="e_wo_entrp">    -36.90025075 </i>
    <i name="e_0_energy">    -36.90025295 </i>
   </energy>
  </scstep>
  <scstep>
   <time name="diag">   78.05   78.40</time>
   <time name="diis">  329.04  330.73</time>
   <time name="orth">    3.07    3.07</time>
   <time name="total">  442.32  444.52</time>
   <energy>
    <i name="e_fr_energy">    -36.90025592 </i>
    <i name="e_wo_entrp">    -36.90025151 </i>
    <i name="e_0_energy">    -36.90025371 </i>
   </energy>
  </scstep>
  <scstep>
   <time name="diag">   77.86   78.47</time>
   <time name="diis">  247.09  249.19</time>
   <time name="orth">    3.08    3.09</time>
   <time name="total">  360.27  363.13</time>
   <energy>
    <i name="e_fr_energy">    -36.90025596 </i>
    <i name="e_wo_entrp">    -36.90025156 </i>
    <i name="e_0_energy">    -36.90025376 </i>
   </energy>
  </scstep>
  <scstep>
   <time name="diag">   78.51   78.57</time>
   <time name="diis">  240.49  240.93</time>
   <time name="orth">    3.09    3.09</time>
   <time name="total">  353.81  354.48</time>
   <energy>
    <i name="e_fr_energy">    -36.90025598 </i>
    <i name="e_wo_entrp">    -36.90025157 </i>
    <i name="e_0_energy">    -36.90025378 </i>
   </energy>
  </scstep>
  <scstep>
   <time name="diag">   78.46   78.66</time>
   <time name="diis">  217.30  217.62</time>
   <time name="orth">    3.09    3.10</time>
   <time name="total">  329.93  330.57</time>
   <energy>
    <i name="e_fr_energy">    -36.90025598 </i>
    <i name="e_wo_entrp">    -36.90025157 </i>
    <i name="e_0_energy">    -36.90025378 </i>
   </energy>
  </scstep>
  <scstep>
   <time name="diag">   78.42   78.64</time>
   <time name="diis">  206.22  208.34</time>
   <time name="orth">    3.07    3.07</time>
   <time name="total">  319.36  321.99</time>
   <energy>
    <i name="e_fr_energy">    -36.90025598 </i>
    <i name="e_wo_entrp">    -36.90025157 </i>
    <i name="e_0_energy">    -36.90025378 </i>
   </energy>
  </scstep>
  <scstep>
   <time name="diag">   77.90   78.67</time>
   <time name="diis">  192.37  194.34</time>
   <time name="orth">    3.06    3.09</time>
   <time name="total">  304.12  307.19</time>
   <energy>
    <i name="e_fr_energy">    -36.90025598 </i>
    <i name="e_wo_entrp">    -36.90025157 </i>
    <i name="e_0_energy">    -36.90025378 </i>
   </energy>
  </scstep>
  <scstep>
   <time name="diag">   78.66   78.68</time>
   <time name="diis">  184.88  185.02</time>
   <time name="orth">    3.07    3.07</time>
   <time name="total">  268.93  269.10</time>
   <energy>
    <i name="alphaZ">      6.18334092 </i>
    <i name="ewald">   2502.31206971 </i>
    <i name="hartreedc">  -2996.46714589 </i>
    <i name="XCdc">     57.28966001 </i>
    <i name="pawpsdc">    271.99493904 </i>
    <i name="pawaedc">   -277.12072832 </i>
    <i name="eentropy">     -0.00000441 </i>
    <i name="bandstr">   -189.71591394 </i>
    <i name="atom">    588.62352690 </i>
    <i name="e_fr_energy">    -36.90025598 </i>
    <i name="e_wo_entrp">    -36.90025157 </i>
    <i name="e_0_energy">    -36.90025378 </i>
   </energy>
  </scstep>
  <structure>
   <crystal>
    <varray name="basis" >
     <v>       4.33842856       0.00000000       0.00000000 </v>
     <v>       0.00000000       2.46076388       0.00000000 </v>
     <v>       0.00000000       0.00000000      19.74905369 </v>
    </varray>
    <i name="volume">    210.83790140 </i>
    <varray name="rec_basis" >
     <v>       0.23049821       0.00000000       0.00000000 </v>
     <v>       0.00000000       0.40637788       0.00000000 </v>
     <v>       0.00000000       0.00000000       0.05063534 </v>
    </varray>
   </crystal>
   <varray name="positions" >
    <v>       0.99964215       0.00000000       0.00000000 </v>
    <v>       0.16702452       0.50000000       0.00000000 </v>
    <v>       0.49964215       0.50000000       0.00000000 </v>
    <v>       0.66702452       0.00000000       0.00000000 </v>
   </varray>
  </structure>
  <varray name="forces" >
   <v>      -0.00148937       0.00000000       0.00000000 </v>
   <v>       0.00148937      -0.00000000      -0.00000000 </v>
   <v>      -0.00148937      -0.00000000       0.00000000 </v>
   <v>       0.00148937       0.00000000      -0.00000000 </v>
  </varray>
  <varray name="stress" >
   <v>     -25.35413153       0.00000000       0.00000000 </v>
   <v>       0.00000000       0.01050613       0.00000000 </v>
   <v>       0.00000000       0.00000000      -0.01032623 </v>
  </varray>
  <energy>
   <i name="e_fr_energy">    -36.90025598 </i>
   <i name="e_wo_entrp">    -36.90025378 </i>
   <i name="e_0_energy">     -0.00000441 </i>
  </energy>
  <time name="totalsc">10127.3710177.79</time>
 </calculation>
 <calculation>
  <scstep>
   <time name="dav">  305.82  306.00</time>
   <time name="total">  337.26  337.44</time>
   <energy>
    <i name="alphaZ">      6.18334092 </i>
    <i name="ewald">   2502.31112704 </i>
    <i name="hartreedc">  -2996.46673671 </i>
    <i name="XCdc">     57.28963324 </i>
    <i name="pawpsdc">    271.99494016 </i>
    <i name="pawaedc">   -277.12072944 </i>
    <i name="eentropy">     -0.00000475 </i>
    <i name="bandstr">   -189.71535272 </i>
    <i name="atom">    588.62352690 </i>
    <i name="e_fr_energy">    -36.90025535 </i>
    <i name="e_wo_entrp">    -36.90025060 </i>
    <i name="e_0_energy">    -36.90025298 </i>
   </energy>
  </scstep>
  <scstep>
   <time name="diag">   78.76   78.79</time>
   <time name="diis">  317.34  317.70</time>
   <time name="orth">    3.07    3.08</time>
   <time name="total">  430.24  430.66</time>
   <energy>
    <i name="e_fr_energy">    -36.90025539 </i>
    <i name="e_wo_entrp">    -36.90025064 </i>
    <i name="e_0_energy">    -36.90025302 </i>
   </energy>
  </scstep>
  <scstep>
   <time name="diag">   78.65   78.72</time>
   <time name="diis">  320.48  320.83</time>
   <time name="orth">    3.09    3.10</time>
   <time name="total">  433.17  433.85</time>
   <energy>
    <i name="e_fr_energy">    -36.90025536 </i>
    <i name="e_wo_entrp">    -36.90025063 </i>
    <i name="e_0_energy">    -36.90025300 </i>
   </energy>
  </scstep>
  <scstep>
   <time name="diag">   78.73   78.79</time>
   <time name="diis">  325.74  326.98</time>
   <time name="orth">    3.08    3.10</time>
   <time name="total">  437.72  439.21</time>
   <energy>
    <i name="e_fr_energy">    -36.90025535 </i>
    <i name="e_wo_entrp">    -36.90025063 </i>
    <i name="e_0_energy">    -36.90025299 </i>
   </energy>
  </scstep>
  <scstep>
   <time name="diag">   78.36   78.77</time>
   <time name="diis">  271.58  271.81</time>
   <time name="orth">    3.10    3.10</time>
   <time name="total">  384.85  385.74</time>
   <energy>
    <i name="e_fr_energy">    -36.90025535 </i>
    <i name="e_wo_entrp">    -36.90025063 </i>
    <i name="e_0_energy">    -36.90025299 </i>
   </energy>
  </scstep>
  <scstep>
   <time name="diag">   78.72   78.75</time>
   <time name="diis">  209.98  210.05</time>
   <time name="orth">    3.10    3.10</time>
   <time name="total">  294.14  294.25</time>
   <energy>
    <i name="alphaZ">      6.18334092 </i>
    <i name="ewald">   2502.31112704 </i>
    <i name="hartreedc">  -2996.46638800 </i>
    <i name="XCdc">     57.28961783 </i>
    <i name="pawpsdc">    271.99332316 </i>
    <i name="pawaedc">   -277.11910545 </i>
    <i name="eentropy">     -0.00000473 </i>
    <i name="bandstr">   -189.71569303 </i>
    <i name="atom">    588.62352690 </i>
    <i name="e_fr_energy">    -36.90025535 </i>
    <i name="e_wo_entrp">    -36.90025063 </i>
    <i name="e_0_energy">    -36.90025299 </i>
   </energy>
  </scstep>
  <structure>
   <crystal>
    <varray name="basis" >
     <v>       4.33842856       0.00000000       0.00000000 </v>
     <v>       0.00000000       2.46076388       0.00000000 </v>
     <v>       0.00000000       0.00000000      19.74905369 </v>
    </varray>
    <i name="volume">    210.83790140 </i>
    <varray name="rec_basis" >
     <v>       0.23049821       0.00000000       0.00000000 </v>
     <v>       0.00000000       0.40637788       0.00000000 </v>
     <v>       0.00000000       0.00000000       0.05063534 </v>
    </varray>
   </crystal>
   <varray name="positions" >
    <v>       0.99962559       0.00000000       0.00000000 </v>
    <v>       0.16704108       0.50000000      -0.00000000 </v>
    <v>       0.49962559       0.50000000       0.00000000 </v>
    <v>       0.66704108       0.00000000      -0.00000000 </v>
   </varray>
  </structure>
  <varray name="forces" >
   <v>       0.00578676      -0.00000000       0.00000000 </v>
   <v>      -0.00578676       0.00000000      -0.00000000 </v>
   <v>       0.00578676       0.00000000       0.00000000 </v>
   <v>      -0.00578676      -0.00000000      -0.00000000 </v>
  </varray>
  <varray name="stress" >
   <v>     -25.33744655       0.00000000       0.00000000 </v>
   <v>       0.00000000      -0.01343580       0.00000000 </v>
   <v>       0.00000000       0.00000000      -0.01039671 </v>
  </varray>
  <energy>
   <i name="e_fr_energy">    -36.90025535 </i>
   <i name="e_wo_entrp">    -36.90025299 </i>
   <i name="e_0_energy">     -0.00000473 </i>
  </energy>
  <time name="totalsc"> 2417.85 2421.70</time>
 </calculation>
 <calculation>
  <scstep>
   <time name="dav">  319.32  319.50</time>
   <time name="total">  350.85  351.04</time>
   <energy>
    <i name="alphaZ">      6.18334092 </i>
    <i name="ewald">   2502.31187617 </i>
    <i name="hartreedc">  -2996.46670065 </i>
    <i name="XCdc">     57.28963885 </i>
    <i name="pawpsdc">    271.99331816 </i>
    <i name="pawaedc">   -277.11910041 </i>
    <i name="eentropy">     -0.00000445 </i>
    <i name="bandstr">   -189.71615152 </i>
    <i name="atom">    588.62352690 </i>
    <i name="e_fr_energy">    -36.90025601 </i>
    <i name="e_wo_entrp">    -36.90025156 </i>
    <i name="e_0_energy">    -36.90025379 </i>
   </energy>
  </scstep>
  <scstep>
   <time name="diag">   78.60   78.61</time>
   <time name="diis">  317.77  317.82</time>
   <time name="orth">    3.08    3.08</time>
   <time name="total">  430.76  430.83</time>
   <energy>
    <i name="e_fr_energy">    -36.90025604 </i>
    <i name="e_wo_entrp">    -36.90025158 </i>
    <i name="e_0_energy">    -36.90025381 </i>
   </energy>
  </scstep>
  <scstep>
   <time name="diag">   78.60   78.62</time>
   <time name="diis">  320.09  320.26</time>
   <time name="orth">    3.10    3.10</time>
   <time name="total">  432.42  432.62</time>
   <energy>
    <i name="e_fr_energy">    -36.90025603 </i>
    <i name="e_wo_entrp">    -36.90025155 </i>
    <i name="e_0_energy">    -36.90025379 </i>
   </energy>
  </scstep>
  <scstep>
   <time name="diag">   78.61   78.62</time>
   <time name="diis">  326.93  326.98</time>
   <time name="orth">    3.10    3.10</time>
   <time name="total">  440.01  440.12</time>
   <energy>
    <i name="e_fr_energy">    -36.90025602 </i>
    <i name="e_wo_entrp">    -36.90025155 </i>
    <i name="e_0_energy">    -36.90025379 </i>
   </energy>
  </scstep>
  <scstep>
   <time name="diag">   78.56   78.58</time>
   <time name="diis">  246.55  246.70</time>
   <time name="orth">    3.10    3.10</time>
   <time name="total">  359.16  359.34</time>
   <energy>
    <i name="e_fr_energy">    -36.90025602 </i>
    <i name="e_wo_entrp">    -36.90025155 </i>
    <i name="e_0_energy">    -36.90025379 </i>
   </energy>
  </scstep>
  <scstep>
   <time name="diag">   78.61   78.63</time>
   <time name="diis">  208.63  208.95</time>
   <time name="orth">    3.08    3.08</time>
   <time name="total">  292.60  292.97</time>
   <energy>
    <i name="alphaZ">      6.18334092 </i>
    <i name="ewald">   2502.31187617 </i>
    <i name="hartreedc">  -2996.46695763 </i>
    <i name="XCdc">     57.28965100 </i>
    <i name="pawpsdc">    271.99459885 </i>
    <i name="pawaedc">   -277.12038674 </i>
    <i name="eentropy">     -0.00000447 </i>
    <i name="bandstr">   -189.71590103 </i>
    <i name="atom">    588.62352690 </i>
    <i name="e_fr_energy">    -36.90025602 </i>
    <i name="e_wo_entrp">    -36.90025155 </i>
    <i name="e_0_energy">    -36.90025379 </i>
   </energy>
  </scstep>
  <structure>
   <crystal>
    <varray name="basis" >
     <v>       4.33842856       0.00000000       0.00000000 </v>
     <v>       0.00000000       2.46076388       0.00000000 </v>
     <v>       0.00000000       0.00000000      19.74905369 </v>
    </varray>
    <i name="volume">    210.83790140 </i>
    <varray name="rec_basis" >
     <v>       0.23049821       0.00000000       0.00000000 </v>
     <v>       0.00000000       0.40637788       0.00000000 </v>
     <v>       0.00000000       0.00000000       0.05063534 </v>
    </varray>
   </crystal>
   <varray name="positions" >
    <v>       0.99963876      -0.00000000       0.00000000 </v>
    <v>       0.16702791       0.50000000      -0.00000000 </v>
    <v>       0.49963876       0.50000000       0.00000000 </v>
    <v>       0.66702791      -0.00000000      -0.00000000 </v>
   </varray>
  </structure>
  <varray name="forces" >
   <v>       0.00001002      -0.00000000      -0.00000000 </v>
   <v>      -0.00001002       0.00000000       0.00000000 </v>
   <v>       0.00001002       0.00000000      -0.00000000 </v>
   <v>      -0.00001002      -0.00000000       0.00000000 </v>
  </varray>
  <varray name="stress" >
   <v>     -25.35055970       0.00000000       0.00000000 </v>
   <v>       0.00000000       0.00546272       0.00000000 </v>
   <v>       0.00000000       0.00000000      -0.01027747 </v>
  </varray>
  <energy>
   <i name="e_fr_energy">    -36.90025602 </i>
   <i name="e_wo_entrp">    -36.90025379 </i>
   <i name="e_0_energy">     -0.00000447 </i>
  </energy>
  <time name="totalsc"> 2405.85 2407.50</time>
 </calculation>
 <calculation>
  <scstep>
   <time name="dav">  259.56  259.66</time>
   <time name="total">  290.73  290.83</time>
   <energy>
    <i name="alphaZ">      6.18334092 </i>
    <i name="ewald">   2502.31187748 </i>
    <i name="hartreedc">  -2996.46696613 </i>
    <i name="XCdc">     57.28965125 </i>
    <i name="pawpsdc">    271.99460305 </i>
    <i name="pawaedc">   -277.12039100 </i>
    <i name="eentropy">     -0.00000447 </i>
    <i name="bandstr">   -189.71589402 </i>
    <i name="atom">    588.62352690 </i>
    <i name="e_fr_energy">    -36.90025602 </i>
    <i name="e_wo_entrp">    -36.90025155 </i>
    <i name="e_0_energy">    -36.90025379 </i>
   </energy>
  </scstep>
  <scstep>
   <time name="diag">   78.75   78.77</time>
   <time name="diis">  188.53  188.67</time>
   <time name="orth">    3.13    3.13</time>
   <time name="total">  301.73  301.89</time>
   <energy>
    <i name="e_fr_energy">    -36.90025602 </i>
    <i name="e_wo_entrp">    -36.90025155 </i>
    <i name="e_0_energy">    -36.90025379 </i>
   </energy>
  </scstep>
  <scstep>
   <time name="diag">   78.65   78.67</time>
   <time name="diis">  183.36  183.58</time>
   <time name="orth">    3.08    3.08</time>
   <time name="total">  295.48  295.72</time>
   <energy>
    <i name="e_fr_energy">    -36.90025602 </i>
    <i name="e_wo_entrp">    -36.90025155 </i>
    <i name="e_0_energy">    -36.90025379 </i>
   </energy>
  </scstep>
  <scstep>
   <time name="diag">   78.63   78.64</time>
   <time name="diis">  175.11  175.16</time>
   <time name="orth">    3.11    3.11</time>
   <time name="total">  287.63  287.70</time>
   <energy>
    <i name="e_fr_energy">    -36.90025602 </i>
    <i name="e_wo_entrp">    -36.90025155 </i>
    <i name="e_0_energy">    -36.90025379 </i>
   </energy>
  </scstep>
  <scstep>
   <time name="diag">   78.71   78.74</time>
   <time name="diis">  170.03  170.12</time>
   <time name="orth">    3.10    3.10</time>
   <time name="total">  282.70  283.77</time>
   <energy>
    <i name="e_fr_energy">    -36.90025602 </i>
    <i name="e_wo_entrp">    -36.90025155 </i>
    <i name="e_0_energy">    -36.90025379 </i>
   </energy>
  </scstep>
  <scstep>
   <time name="diag">   78.43   78.71</time>
   <time name="diis">  161.34  163.05</time>
   <time name="orth">    3.07    3.10</time>
   <time name="total">  245.14  247.21</time>
   <energy>
    <i name="alphaZ">      6.18334092 </i>
    <i name="ewald">   2502.31187748 </i>
    <i name="hartreedc">  -2996.46698210 </i>
    <i name="XCdc">     57.28965137 </i>
    <i name="pawpsdc">    271.99460823 </i>
    <i name="pawaedc">   -277.12039613 </i>
    <i name="eentropy">     -0.00000447 </i>
    <i name="bandstr">   -189.71587822 </i>
    <i name="atom">    588.62352690 </i>
    <i name="e_fr_energy">    -36.90025602 </i>
    <i name="e_wo_entrp">    -36.90025155 </i>
    <i name="e_0_energy">    -36.90025379 </i>
   </energy>
  </scstep>
  <structure>
   <crystal>
    <varray name="basis" >
     <v>       4.33842856       0.00000000       0.00000000 </v>
     <v>       0.00000000       2.46076388       0.00000000 </v>
     <v>       0.00000000       0.00000000      19.74905369 </v>
    </varray>
    <i name="volume">    210.83790140 </i>
    <varray name="rec_basis" >
     <v>       0.23049821       0.00000000       0.00000000 </v>
     <v>       0.00000000       0.40637788       0.00000000 </v>
     <v>       0.00000000       0.00000000       0.05063534 </v>
    </varray>
   </crystal>
   <varray name="positions" >
    <v>       0.99963878      -0.00000000      -0.00000000 </v>
    <v>       0.16702788       0.50000000       0.00000000 </v>
    <v>       0.49963878       0.50000000      -0.00000000 </v>
    <v>       0.66702788      -0.00000000       0.00000000 </v>
   </varray>
  </structure>
  <varray name="forces" >
   <v>      -0.00001317      -0.00000000       0.00000000 </v>
   <v>       0.00001317       0.00000000      -0.00000000 </v>
   <v>      -0.00001317       0.00000000       0.00000000 </v>
   <v>       0.00001317      -0.00000000      -0.00000000 </v>
  </varray>
  <varray name="stress" >
   <v>     -25.35073326       0.00000000       0.00000000 </v>
   <v>       0.00000000       0.00564316       0.00000000 </v>
   <v>       0.00000000       0.00000000      -0.01031776 </v>
  </varray>
  <energy>
   <i name="e_fr_energy">    -36.90025602 </i>
   <i name="e_wo_entrp">    -36.90025379 </i>
   <i name="e_0_energy">     -0.00000447 </i>
  </energy>
  <time name="totalsc"> 1802.28 1807.06</time>
 </calculation>
 <calculation>
  <scstep>
   <time name="dav">  250.55  252.51</time>
   <time name="total">  281.71  283.69</time>
   <energy>
    <i name="alphaZ">      6.18334092 </i>
    <i name="ewald">   2502.31187674 </i>
    <i name="hartreedc">  -2996.46698302 </i>
    <i name="XCdc">     57.28965137 </i>
    <i name="pawpsdc">    271.99460828 </i>
    <i name="pawaedc">   -277.12039619 </i>
    <i name="eentropy">     -0.00000447 </i>
    <i name="bandstr">   -189.71587655 </i>
    <i name="atom">    588.62352690 </i>
    <i name="e_fr_energy">    -36.90025602 </i>
    <i name="e_wo_entrp">    -36.90025155 </i>
    <i name="e_0_energy">    -36.90025379 </i>
   </energy>
  </scstep>
  <scstep>
   <time name="diag">   78.52   78.72</time>
   <time name="diis">  142.39  143.60</time>
   <time name="orth">    3.09    3.11</time>
   <time name="total">  255.40  257.05</time>
   <energy>
    <i name="e_fr_energy">    -36.90025602 </i>
    <i name="e_wo_entrp">    -36.90025155 </i>
    <i name="e_0_energy">    -36.90025379 </i>
   </energy>
  </scstep>
  <scstep>
   <time name="diag">   78.13   78.77</time>
   <time name="diis">  140.68  141.73</time>
   <time name="orth">    3.09    3.11</time>
   <time name="total">  253.61  255.61</time>
   <energy>
    <i name="e_fr_energy">    -36.90025602 </i>
    <i name="e_wo_entrp">    -36.90025155 </i>
    <i name="e_0_energy">    -36.90025379 </i>
   </energy>
  </scstep>
  <scstep>
   <time name="diag">   78.46   78.73</time>
   <time name="diis">  139.60  140.05</time>
   <time name="orth">    3.11    3.11</time>
   <time name="total">  252.19  252.98</time>
   <energy>
    <i name="e_fr_energy">    -36.90025602 </i>
    <i name="e_wo_entrp">    -36.90025155 </i>
    <i name="e_0_energy">    -36.90025379 </i>
   </energy>
  </scstep>
  <scstep>
   <time name="diag">   78.60   78.62</time>
   <time name="diis">  149.81  149.84</time>
   <time name="orth">    3.08    3.08</time>
   <time name="total">  263.96  264.03</time>
   <energy>
    <i name="e_fr_energy">    -36.90025602 </i>
    <i name="e_wo_entrp">    -36.90025155 </i>
    <i name="e_0_energy">    -36.90025379 </i>
   </energy>
  </scstep>
  <scstep>
   <time name="diag">   78.67   78.68</time>
   <time name="diis">  146.78  147.22</time>
   <time name="orth">    3.09    3.10</time>
   <time name="total">  230.92  231.40</time>
   <energy>
    <i name="alphaZ">      6.18334092 </i>
    <i name="ewald">   2502.31187674 </i>
    <i name="hartreedc">  -2996.46698184 </i>
    <i name="XCdc">     57.28965131 </i>
    <i name="pawpsdc">    271.99460735 </i>
    <i name="pawaedc">   -277.12039525 </i>
    <i name="eentropy">     -0.00000447 </i>
    <i name="bandstr">   -189.71587769 </i>
    <i name="atom">    588.62352690 </i>
    <i name="e_fr_energy">    -36.90025602 </i>
    <i name="e_wo_entrp">    -36.90025155 </i>
    <i name="e_0_energy">    -36.90025379 </i>
   </energy>
  </scstep>
  <structure>
   <crystal>
    <varray name="basis" >
     <v>       4.33842856       0.00000000       0.00000000 </v>
     <v>       0.00000000       2.46076388       0.00000000 </v>
     <v>       0.00000000       0.00000000      19.74905369 </v>
    </varray>
    <i name="volume">    210.83790140 </i>
    <varray name="rec_basis" >
     <v>       0.23049821       0.00000000       0.00000000 </v>
     <v>       0.00000000       0.40637788       0.00000000 </v>
     <v>       0.00000000       0.00000000       0.05063534 </v>
    </varray>
   </crystal>
   <varray name="positions" >
    <v>       0.99963877      -0.00000000      -0.00000000 </v>
    <v>       0.16702790       0.50000000       0.00000000 </v>
    <v>       0.49963877       0.50000000      -0.00000000 </v>
    <v>       0.66702790      -0.00000000       0.00000000 </v>
   </varray>
  </structure>
  <varray name="forces" >
   <v>      -0.00000136       0.00000000       0.00000000 </v>
   <v>       0.00000136       0.00000000       0.00000000 </v>
   <v>      -0.00000136      -0.00000000       0.00000000 </v>
   <v>       0.00000136       0.00000000       0.00000000 </v>
  </varray>
  <varray name="stress" >
   <v>     -25.35068882       0.00000000       0.00000000 </v>
   <v>       0.00000000       0.00559568       0.00000000 </v>
   <v>       0.00000000       0.00000000      -0.01032737 </v>
  </varray>
  <energy>
   <i name="e_fr_energy">    -36.90025602 </i>
   <i name="e_wo_entrp">    -36.90025379 </i>
   <i name="e_0_energy">     -0.00000447 </i>
  </energy>
  <time name="totalsc"> 1638.77 1646.23</time>
 </calculation>
 <calculation>
  <scstep>
   <time name="dav">  248.77  248.98</time>
   <time name="total">  281.24  281.46</time>
   <energy>
    <i name="alphaZ">      6.18334092 </i>
    <i name="ewald">   2502.31187665 </i>
    <i name="hartreedc">  -2996.46698181 </i>
    <i name="XCdc">     57.28965131 </i>
    <i name="pawpsdc">    271.99460735 </i>
    <i name="pawaedc">   -277.12039525 </i>
    <i name="eentropy">     -0.00000447 </i>
    <i name="bandstr">   -189.71587763 </i>
    <i name="atom">    588.62352690 </i>
    <i name="e_fr_energy">    -36.90025602 </i>
    <i name="e_wo_entrp">    -36.90025155 </i>
    <i name="e_0_energy">    -36.90025379 </i>
   </energy>
  </scstep>
  <scstep>
   <time name="diag">   78.50   78.68</time>
   <time name="diis">  130.82  130.85</time>
   <time name="orth">    3.08    3.08</time>
   <time name="total">  244.87  245.15</time>
   <energy>
    <i name="e_fr_energy">    -36.90025602 </i>
    <i name="e_wo_entrp">    -36.90025155 </i>
    <i name="e_0_energy">    -36.90025379 </i>
   </energy>
  </scstep>
  <scstep>
   <time name="diag">   78.70   78.71</time>
   <time name="diis">  139.90  139.93</time>
   <time name="orth">    3.10    3.10</time>
   <time name="total">  254.18  254.25</time>
   <energy>
    <i name="e_fr_energy">    -36.90025602 </i>
    <i name="e_wo_entrp">    -36.90025155 </i>
    <i name="e_0_energy">    -36.90025379 </i>
   </energy>
  </scstep>
  <scstep>
   <time name="diag">   78.64   78.65</time>
   <time name="diis">  132.86  133.04</time>
   <time name="orth">    3.09    3.11</time>
   <time name="total">  246.95  247.32</time>
   <energy>
    <i name="e_fr_energy">    -36.90025602 </i>
    <i name="e_wo_entrp">    -36.90025155 </i>
    <i name="e_0_energy">    -36.90025379 </i>
   </energy>
  </scstep>
  <scstep>
   <time name="diag">   78.34   78.74</time>
   <time name="diis">  130.91  131.35</time>
   <time name="orth">    3.10    3.10</time>
   <time name="total">  214.70  215.58</time>
   <energy>
    <i name="alphaZ">      6.18334092 </i>
    <i name="ewald">   2502.31187665 </i>
    <i name="hartreedc">  -2996.46698218 </i>
    <i name="XCdc">     57.28965132 </i>
    <i name="pawpsdc">    271.99460738 </i>
    <i name="pawaedc">   -277.12039528 </i>
    <i name="eentropy">     -0.00000447 </i>
    <i name="bandstr">   -189.71587727 </i>
    <i name="atom">    588.62352690 </i>
    <i name="e_fr_energy">    -36.90025602 </i>
    <i name="e_wo_entrp">    -36.90025155 </i>
    <i name="e_0_energy">    -36.90025379 </i>
   </energy>
  </scstep>
  <structure>
   <crystal>
    <varray name="basis" >
     <v>       4.33842856       0.00000000       0.00000000 </v>
     <v>       0.00000000       2.46076388       0.00000000 </v>
     <v>       0.00000000       0.00000000      19.74905369 </v>
    </varray>
    <i name="volume">    210.83790140 </i>
    <varray name="rec_basis" >
     <v>       0.23049821       0.00000000       0.00000000 </v>
     <v>       0.00000000       0.40637788       0.00000000 </v>
     <v>       0.00000000       0.00000000       0.05063534 </v>
    </varray>
   </crystal>
   <varray name="positions" >
    <v>       0.99963877      -0.00000000      -0.00000000 </v>
    <v>       0.16702790       0.50000000       0.00000000 </v>
    <v>       0.49963877       0.50000000      -0.00000000 </v>
    <v>       0.66702790      -0.00000000       0.00000000 </v>
   </varray>
  </structure>
  <varray name="forces" >
   <v>      -0.00000141       0.00000000      -0.00000000 </v>
   <v>       0.00000141      -0.00000000       0.00000000 </v>
   <v>      -0.00000141       0.00000000      -0.00000000 </v>
   <v>       0.00000141      -0.00000000       0.00000000 </v>
  </varray>
  <varray name="stress" >
   <v>     -25.35069292       0.00000000       0.00000000 </v>
   <v>       0.00000000       0.00559921       0.00000000 </v>
   <v>       0.00000000       0.00000000      -0.01032306 </v>
  </varray>
  <energy>
   <i name="e_fr_energy">    -36.90025602 </i>
   <i name="e_wo_entrp">    -36.90025379 </i>
   <i name="e_0_energy">     -0.00000447 </i>
  </energy>
  <time name="totalsc"> 1343.41 1345.46</time>
 </calculation>
 <calculation>
  <scstep>
   <time name="dav">  317.78  317.87</time>
   <time name="total">  350.27  350.39</time>
   <energy>
    <i name="alphaZ">      6.18334092 </i>
    <i name="ewald">   2502.31187906 </i>
    <i name="hartreedc">  -2996.46698324 </i>
    <i name="XCdc">     57.28965139 </i>
    <i name="pawpsdc">    271.99460738 </i>
    <i name="pawaedc">   -277.12039527 </i>
    <i name="eentropy">     -0.00000447 </i>
    <i name="bandstr">   -189.71587869 </i>
    <i name="atom">    588.62352690 </i>
    <i name="e_fr_energy">    -36.90025602 </i>
    <i name="e_wo_entrp">    -36.90025155 </i>
    <i name="e_0_energy">    -36.90025379 </i>
   </energy>
  </scstep>
  <scstep>
   <time name="diag">   78.69   78.73</time>
   <time name="diis">  148.56  148.60</time>
   <time name="orth">    3.10    3.11</time>
   <time name="total">  262.78  262.96</time>
   <energy>
    <i name="e_fr_energy">    -36.90025602 </i>
    <i name="e_wo_entrp">    -36.90025155 </i>
    <i name="e_0_energy">    -36.90025379 </i>
   </energy>
  </scstep>
  <scstep>
   <time name="diag">   78.68   78.69</time>
   <time name="diis">  155.83  155.85</time>
   <time name="orth">    3.11    3.12</time>
   <time name="total">  270.08  270.26</time>
   <energy>
    <i name="e_fr_energy">    -36.90025602 </i>
    <i name="e_wo_entrp">    -36.90025155 </i>
    <i name="e_0_energy">    -36.90025379 </i>
   </energy>
  </scstep>
  <scstep>
   <time name="diag">   78.67   78.69</time>
   <time name="diis">  129.54  129.59</time>
   <time name="orth">    3.09    3.09</time>
   <time name="total">  243.63  243.79</time>
   <energy>
    <i name="e_fr_energy">    -36.90025602 </i>
    <i name="e_wo_entrp">    -36.90025155 </i>
    <i name="e_0_energy">    -36.90025379 </i>
   </energy>
  </scstep>
  <scstep>
   <time name="diag">   78.59   78.61</time>
   <time name="diis">  125.31  125.33</time>
   <time name="orth">    3.09    3.09</time>
   <time name="total">  239.38  239.44</time>
   <energy>
    <i name="e_fr_energy">    -36.90025602 </i>
    <i name="e_wo_entrp">    -36.90025155 </i>
    <i name="e_0_energy">    -36.90025379 </i>
   </energy>
  </scstep>
  <scstep>
   <time name="diag">   78.61   78.62</time>
   <time name="diis">  129.61  129.67</time>
   <time name="orth">    3.08    3.09</time>
   <time name="total">  243.70  244.48</time>
   <energy>
    <i name="e_fr_energy">    -36.90025602 </i>
    <i name="e_wo_entrp">    -36.90025155 </i>
    <i name="e_0_energy">    -36.90025379 </i>
   </energy>
  </scstep>
  <scstep>
   <time name="diag">   78.67   78.72</time>
   <time name="diis">  119.80  119.83</time>
   <time name="orth">    3.10    3.10</time>
   <time name="total">  233.94  234.11</time>
   <energy>
    <i name="e_fr_energy">    -36.90025602 </i>
    <i name="e_wo_entrp">    -36.90025155 </i>
    <i name="e_0_energy">    -36.90025379 </i>
   </energy>
  </scstep>
  <scstep>
   <time name="diag">   78.64   78.67</time>
   <time name="diis">  135.07  135.10</time>
   <time name="orth">    3.11    3.11</time>
   <time name="total">  219.22  219.28</time>
   <energy>
    <i name="alphaZ">      6.18334092 </i>
    <i name="ewald">   2502.31187906 </i>
    <i name="hartreedc">  -2996.46698329 </i>
    <i name="XCdc">     57.28965138 </i>
    <i name="pawpsdc">    271.99460753 </i>
    <i name="pawaedc">   -277.12039540 </i>
    <i name="eentropy">     -0.00000447 </i>
    <i name="bandstr">   -189.71587865 </i>
    <i name="atom">    588.62352690 </i>
    <i name="e_fr_energy">    -36.90025602 </i>
    <i name="e_wo_entrp">    -36.90025155 </i>
    <i name="e_0_energy">    -36.90025379 </i>
   </energy>
  </scstep>
  <structure>
   <crystal>
    <varray name="basis" >
     <v>       4.33842856       0.00000000       0.00000000 </v>
     <v>       0.00000000       2.46076388       0.00000000 </v>
     <v>       0.00000000       0.00000000      19.74905369 </v>
    </varray>
    <i name="volume">    210.83790140 </i>
    <varray name="rec_basis" >
     <v>       0.23049821       0.00000000       0.00000000 </v>
     <v>       0.00000000       0.40637788       0.00000000 </v>
     <v>       0.00000000       0.00000000       0.05063534 </v>
    </varray>
   </crystal>
   <varray name="positions" >
    <v>       0.99963881      -0.00000000       0.00000000 </v>
    <v>       0.16702786       0.50000000      -0.00000000 </v>
    <v>       0.49963881       0.50000000       0.00000000 </v>
    <v>       0.66702786      -0.00000000      -0.00000000 </v>
   </varray>
  </structure>
  <varray name="forces" >
   <v>      -0.00001788      -0.00000000      -0.00000000 </v>
   <v>       0.00001788      -0.00000000       0.00000000 </v>
   <v>      -0.00001788      -0.00000000      -0.00000000 </v>
   <v>       0.00001788       0.00000000       0.00000000 </v>
  </varray>
  <varray name="stress" >
   <v>     -25.35071834       0.00000000       0.00000000 </v>
   <v>       0.00000000       0.00564506       0.00000000 </v>
   <v>       0.00000000       0.00000000      -0.01032608 </v>
  </varray>
  <energy>
   <i name="e_fr_energy">    -36.90025602 </i>
   <i name="e_wo_entrp">    -36.90025379 </i>
   <i name="e_0_energy">     -0.00000447 </i>
  </energy>
  <time name="totalsc"> 2164.06 2165.89</time>
 </calculation>
 <calculation>
  <scstep>
   <time name="dav">  310.70  311.02</time>
   <time name="total">  343.22  343.56</time>
   <energy>
    <i name="alphaZ">      6.18334092 </i>
    <i name="ewald">   2502.31187644 </i>
    <i name="hartreedc">  -2996.46698170 </i>
    <i name="XCdc">     57.28965127 </i>
    <i name="pawpsdc">    271.99460625 </i>
    <i name="pawaedc">   -277.12039411 </i>
    <i name="eentropy">     -0.00000447 </i>
    <i name="bandstr">   -189.71587754 </i>
    <i name="atom">    588.62352690 </i>
    <i name="e_fr_energy">    -36.90025602 </i>
    <i name="e_wo_entrp">    -36.90025155 </i>
    <i name="e_0_energy">    -36.90025379 </i>
   </energy>
  </scstep>
  <scstep>
   <time name="diag">   78.69   78.70</time>
   <time name="diis">  150.63  150.66</time>
   <time name="orth">    3.11    3.11</time>
   <time name="total">  264.74  264.79</time>
   <energy>
    <i name="e_fr_energy">    -36.90025602 </i>
    <i name="e_wo_entrp">    -36.90025155 </i>
    <i name="e_0_energy">    -36.90025379 </i>
   </energy>
  </scstep>
  <scstep>
   <time name="diag">   78.70   78.73</time>
   <time name="diis">  150.17  150.20</time>
   <time name="orth">    3.10    3.10</time>
   <time name="total">  264.36  264.46</time>
   <energy>
    <i name="e_fr_energy">    -36.90025602 </i>
    <i name="e_wo_entrp">    -36.90025155 </i>
    <i name="e_0_energy">    -36.90025379 </i>
   </energy>
  </scstep>
  <scstep>
   <time name="diag">   78.62   78.64</time>
   <time name="diis">  141.71  141.74</time>
   <time name="orth">    3.11    3.11</time>
   <time name="total">  255.71  255.95</time>
   <energy>
    <i name="e_fr_energy">    -36.90025602 </i>
    <i name="e_wo_entrp">    -36.90025155 </i>
    <i name="e_0_energy">    -36.90025379 </i>
   </energy>
  </scstep>
  <scstep>
   <time name="diag">   78.67   78.69</time>
   <time name="diis">  128.32  128.41</time>
   <time name="orth">    3.08    3.08</time>
   <time name="total">  242.52  242.64</time>
   <energy>
    <i name="e_fr_energy">    -36.90025602 </i>
    <i name="e_wo_entrp">    -36.90025155 </i>
    <i name="e_0_energy">    -36.90025379 </i>
   </energy>
  </scstep>
  <scstep>
   <time name="diag">   78.66   78.68</time>
   <time name="diis">  120.67  120.70</time>
   <time name="orth">    3.08    3.08</time>
   <time name="total">  234.83  234.93</time>
   <energy>
    <i name="e_fr_energy">    -36.90025602 </i>
    <i name="e_wo_entrp">    -36.90025155 </i>
    <i name="e_0_energy">    -36.90025379 </i>
   </energy>
  </scstep>
  <scstep>
   <time name="diag">   78.70   78.72</time>
   <time name="diis">  115.65  115.68</time>
   <time name="orth">    3.10    3.10</time>
   <time name="total">  229.73  232.20</time>
   <energy>
    <i name="e_fr_energy">    -36.90025602 </i>
    <i name="e_wo_entrp">    -36.90025155 </i>
    <i name="e_0_energy">    -36.90025379 </i>
   </energy>
  </scstep>
  <scstep>
   <time name="diag">   78.69   78.72</time>
   <time name="diis">  126.94  126.96</time>
   <time name="orth">    3.10    3.10</time>
   <time name="total">  211.11  211.17</time>
   <energy>
    <i name="alphaZ">      6.18334092 </i>
[...]
       <r>   -9.3021    1.0000 </r>
       <r>   -5.5457    1.0000 </r>
       <r>   -5.5457    1.0000 </r>
       <r>   -0.4635    0.0000 </r>
       <r>   -0.4635    0.0000 </r>
       <r>    4.4077    0.0000 </r>
       <r>    4.4077    0.0000 </r>
      </set>
      <set comment="kpoint 209">
       <r>  -18.7066    1.0000 </r>
       <r>  -16.8998    1.0000 </r>
       <r>  -14.1529    1.0000 </r>
       <r>  -12.5007    1.0000 </r>
       <r>  -12.3479    1.0000 </r>
       <r>  -10.8275    1.0000 </r>
       <r>   -6.3314    1.0000 </r>
       <r>   -4.4489    1.0000 </r>
       <r>   -1.1192    0.0000 </r>
       <r>    1.0439    0.0000 </r>
       <r>    5.2902    0.0000 </r>
       <r>    6.0670    0.0000 </r>
      </set>
      <set comment="kpoint 210">
       <r>  -18.6972    1.0000 </r>
       <r>  -16.8924    1.0000 </r>
       <r>  -14.2267    1.0000 </r>
       <r>  -12.5695    1.0000 </r>
       <r>  -12.2665    1.0000 </r>
       <r>  -10.7611    1.0000 </r>
       <r>   -6.3229    1.0000 </r>
       <r>   -4.4524    1.0000 </r>
       <r>   -1.1268    0.0000 </r>
       <r>    1.0202    0.0000 </r>
       <r>    5.3033    0.0000 </r>
       <r>    6.0825    0.0000 </r>
      </set>
      <set comment="kpoint 211">
       <r>  -18.6690    1.0000 </r>
       <r>  -16.8705    1.0000 </r>
       <r>  -14.4158    1.0000 </r>
       <r>  -12.7487    1.0000 </r>
       <r>  -12.0544    1.0000 </r>
       <r>  -10.5899    1.0000 </r>
       <r>   -6.2975    1.0000 </r>
       <r>   -4.4637    1.0000 </r>
       <r>   -1.1479    0.0000 </r>
       <r>    0.9506    0.0000 </r>
       <r>    5.3427    0.0000 </r>
       <r>    6.1286    0.0000 </r>
      </set>
      <set comment="kpoint 212">
       <r>  -18.6221    1.0000 </r>
       <r>  -16.8356    1.0000 </r>
       <r>  -14.6648    1.0000 </r>
       <r>  -12.9909    1.0000 </r>
       <r>  -11.7669    1.0000 </r>
       <r>  -10.3631    1.0000 </r>
       <r>   -6.2555    1.0000 </r>
       <r>   -4.4840    1.0000 </r>
       <r>   -1.1781    0.0000 </r>
       <r>    0.8400    0.0000 </r>
       <r>    5.4077    0.0000 </r>
       <r>    6.2044    0.0000 </r>
      </set>
      <set comment="kpoint 213">
       <r>  -18.5566    1.0000 </r>
       <r>  -16.7903    1.0000 </r>
       <r>  -14.9347    1.0000 </r>
       <r>  -13.2629    1.0000 </r>
       <r>  -11.4426    1.0000 </r>
       <r>  -10.1172    1.0000 </r>
       <r>   -6.1973    1.0000 </r>
       <r>   -4.5154    1.0000 </r>
       <r>   -1.2106    0.0000 </r>
       <r>    0.6950    0.0000 </r>
       <r>    5.4956    0.0000 </r>
       <r>    6.1733    0.0000 </r>
      </set>
      <set comment="kpoint 214">
       <r>  -18.4727    1.0000 </r>
       <r>  -16.7404    1.0000 </r>
       <r>  -15.2008    1.0000 </r>
       <r>  -13.5464    1.0000 </r>
       <r>  -11.1039    1.0000 </r>
       <r>   -9.8750    1.0000 </r>
       <r>   -6.1236    1.0000 </r>
       <r>   -4.5602    1.0000 </r>
       <r>   -1.2374    0.0000 </r>
       <r>    0.5236    0.0000 </r>
       <r>    5.5583    0.0000 </r>
       <r>    5.7401    0.0000 </r>
      </set>
      <set comment="kpoint 215">
       <r>  -18.3708    1.0000 </r>
       <r>  -16.6973    1.0000 </r>
       <r>  -15.4413    1.0000 </r>
       <r>  -13.8311    1.0000 </r>
       <r>  -10.7649    1.0000 </r>
       <r>   -9.6523    1.0000 </r>
       <r>   -6.0354    1.0000 </r>
       <r>   -4.6205    1.0000 </r>
       <r>   -1.2508    0.0000 </r>
       <r>    0.3338    0.0000 </r>
       <r>    5.2216    0.0000 </r>
       <r>    5.7881    0.0000 </r>
      </set>
      <set comment="kpoint 216">
       <r>  -18.2511    1.0000 </r>
       <r>  -16.6833    1.0000 </r>
       <r>  -15.6284    1.0000 </r>
       <r>  -14.1107    1.0000 </r>
       <r>  -10.4366    1.0000 </r>
       <r>   -9.4613    1.0000 </r>
       <r>   -5.9338    1.0000 </r>
       <r>   -4.6976    1.0000 </r>
       <r>   -1.2438    0.0000 </r>
       <r>    0.1334    0.0000 </r>
       <r>    4.8589    0.0000 </r>
       <r>    5.8289    0.0000 </r>
      </set>
      <set comment="kpoint 217">
       <r>  -18.1143    1.0000 </r>
       <r>  -16.7302    1.0000 </r>
       <r>  -15.7268    1.0000 </r>
       <r>  -14.3813    1.0000 </r>
       <r>  -10.1285    1.0000 </r>
       <r>   -9.3125    1.0000 </r>
       <r>   -5.8204    1.0000 </r>
       <r>   -4.7916    1.0000 </r>
       <r>   -1.2117    0.0000 </r>
       <r>   -0.0706    0.0000 </r>
       <r>    4.5668    0.0000 </r>
       <r>    5.3820    0.0000 </r>
      </set>
      <set comment="kpoint 218">
       <r>  -17.9610    1.0000 </r>
       <r>  -16.8515    1.0000 </r>
       <r>  -15.7211    1.0000 </r>
       <r>  -14.6395    1.0000 </r>
       <r>   -9.8498    1.0000 </r>
       <r>   -9.2144    1.0000 </r>
       <r>   -5.6969    1.0000 </r>
       <r>   -4.9009    1.0000 </r>
       <r>   -1.1517    0.0000 </r>
       <r>   -0.2719    0.0000 </r>
       <r>    4.3570    0.0000 </r>
       <r>    4.9939    0.0000 </r>
      </set>
      <set comment="kpoint 219">
       <r>  -17.7925    1.0000 </r>
       <r>  -17.0244    1.0000 </r>
       <r>  -15.6328    1.0000 </r>
       <r>  -14.8828    1.0000 </r>
       <r>   -9.6092    1.0000 </r>
       <r>   -9.1734    1.0000 </r>
       <r>   -5.5656    1.0000 </r>
       <r>   -5.0230    1.0000 </r>
       <r>   -1.0633    0.0000 </r>
       <r>   -0.4650    0.0000 </r>
       <r>    4.2364    0.0000 </r>
       <r>    4.6743    0.0000 </r>
      </set>
      <set comment="kpoint 220">
       <r>  -17.6105    1.0000 </r>
       <r>  -17.2192    1.0000 </r>
       <r>  -15.4907    1.0000 </r>
       <r>  -15.1084    1.0000 </r>
       <r>   -9.4152    1.0000 </r>
       <r>   -9.1934    1.0000 </r>
       <r>   -5.4293    1.0000 </r>
       <r>   -5.1543    1.0000 </r>
       <r>   -0.9476    0.0000 </r>
       <r>   -0.6448    0.0000 </r>
       <r>    4.2090    0.0000 </r>
       <r>    4.4321    0.0000 </r>
      </set>
      <set comment="kpoint 221">
       <r>  -17.4177    1.0000 </r>
       <r>  -17.4177    1.0000 </r>
       <r>  -15.3128    1.0000 </r>
       <r>  -15.3128    1.0000 </r>
       <r>   -9.2748    1.0000 </r>
       <r>   -9.2748    1.0000 </r>
       <r>   -5.2910    1.0000 </r>
       <r>   -5.2910    1.0000 </r>
       <r>   -0.8070    0.0000 </r>
       <r>   -0.8070    0.0000 </r>
       <r>    4.2751    0.0000 </r>
       <r>    4.2751    0.0000 </r>
      </set>
      <set comment="kpoint 222">
       <r>  -18.2802    1.0000 </r>
       <r>  -17.3730    1.0000 </r>
       <r>  -13.7705    1.0000 </r>
       <r>  -12.9436    1.0000 </r>
       <r>  -11.9995    1.0000 </r>
       <r>  -11.2344    1.0000 </r>
       <r>   -5.8718    1.0000 </r>
       <r>   -4.9249    1.0000 </r>
       <r>   -0.6111    0.0000 </r>
       <r>    0.4726    0.0000 </r>
       <r>    5.8943    0.0000 </r>
       <r>    6.6293    0.0000 </r>
      </set>
      <set comment="kpoint 223">
       <r>  -18.2710    1.0000 </r>
       <r>  -17.3645    1.0000 </r>
       <r>  -13.8445    1.0000 </r>
       <r>  -13.0146    1.0000 </r>
       <r>  -11.9205    1.0000 </r>
       <r>  -11.1632    1.0000 </r>
       <r>   -5.8647    1.0000 </r>
       <r>   -4.9230    1.0000 </r>
       <r>   -0.6256    0.0000 </r>
       <r>    0.4509    0.0000 </r>
       <r>    5.9074    0.0000 </r>
       <r>    6.6456    0.0000 </r>
      </set>
      <set comment="kpoint 224">
       <r>  -18.2433    1.0000 </r>
       <r>  -17.3392    1.0000 </r>
       <r>  -14.0350    1.0000 </r>
       <r>  -13.1988    1.0000 </r>
       <r>  -11.7156    1.0000 </r>
       <r>  -10.9791    1.0000 </r>
       <r>   -5.8432    1.0000 </r>
       <r>   -4.9175    1.0000 </r>
       <r>   -0.6674    0.0000 </r>
       <r>    0.3875    0.0000 </r>
       <r>    5.9465    0.0000 </r>
       <r>    6.6943    0.0000 </r>
      </set>
      <set comment="kpoint 225">
       <r>  -18.1972    1.0000 </r>
       <r>  -17.2976    1.0000 </r>
       <r>  -14.2880    1.0000 </r>
       <r>  -13.4463    1.0000 </r>
       <r>  -11.4395    1.0000 </r>
       <r>  -10.7337    1.0000 </r>
       <r>   -5.8080    1.0000 </r>
       <r>   -4.9095    1.0000 </r>
       <r>   -0.7318    0.0000 </r>
       <r>    0.2869    0.0000 </r>
       <r>    6.0106    0.0000 </r>
       <r>    6.7739    0.0000 </r>
      </set>
      <set comment="kpoint 226">
       <r>  -18.1330    1.0000 </r>
       <r>  -17.2404    1.0000 </r>
       <r>  -14.5669    1.0000 </r>
       <r>  -13.7228    1.0000 </r>
       <r>  -11.1305    1.0000 </r>
       <r>  -10.4642    1.0000 </r>
       <r>   -5.7597    1.0000 </r>
       <r>   -4.9008    1.0000 </r>
       <r>   -0.8120    0.0000 </r>
       <r>    0.1560    0.0000 </r>
       <r>    6.0915    0.0000 </r>
       <r>    6.4617    0.0000 </r>
      </set>
      <set comment="kpoint 227">
       <r>  -18.0511    1.0000 </r>
       <r>  -17.1694    1.0000 </r>
       <r>  -14.8512    1.0000 </r>
       <r>  -14.0096    1.0000 </r>
       <r>  -10.8112    1.0000 </r>
       <r>  -10.1932    1.0000 </r>
       <r>   -5.6995    1.0000 </r>
       <r>   -4.8937    1.0000 </r>
       <r>   -0.8992    0.0000 </r>
       <r>    0.0027    0.0000 </r>
       <r>    5.9039    0.0000 </r>
       <r>    6.2516    0.0000 </r>
      </set>
      <set comment="kpoint 228">
       <r>  -17.9517    1.0000 </r>
       <r>  -17.0874    1.0000 </r>
       <r>  -15.1280    1.0000 </r>
       <r>  -14.2961    1.0000 </r>
       <r>  -10.4961    1.0000 </r>
       <r>   -9.9364    1.0000 </r>
       <r>   -5.6286    1.0000 </r>
       <r>   -4.8913    1.0000 </r>
       <r>   -0.9844    0.0000 </r>
       <r>   -0.1645    0.0000 </r>
       <r>    5.4491    0.0000 </r>
       <r>    6.0017    0.0000 </r>
      </set>
      <set comment="kpoint 229">
       <r>  -17.8358    1.0000 </r>
       <r>  -16.9999    1.0000 </r>
       <r>  -15.3860    1.0000 </r>
       <r>  -14.5759    1.0000 </r>
       <r>  -10.1966    1.0000 </r>
       <r>   -9.7056    1.0000 </r>
       <r>   -5.5490    1.0000 </r>
       <r>   -4.8966    1.0000 </r>
       <r>   -1.0585    0.0000 </r>
       <r>   -0.3374    0.0000 </r>
       <r>    5.0432    0.0000 </r>
       <r>    5.5306    0.0000 </r>
      </set>
      <set comment="kpoint 230">
       <r>  -17.7042    1.0000 </r>
       <r>  -16.9180    1.0000 </r>
       <r>  -15.6109    1.0000 </r>
       <r>  -14.8445    1.0000 </r>
       <r>   -9.9227    1.0000 </r>
       <r>   -9.5115    1.0000 </r>
       <r>   -5.4629    1.0000 </r>
       <r>   -4.9127    1.0000 </r>
       <r>   -1.1132    0.0000 </r>
       <r>   -0.5083    0.0000 </r>
       <r>    4.7049    0.0000 </r>
       <r>    5.1150    0.0000 </r>
      </set>
      <set comment="kpoint 231">
       <r>  -17.5588    1.0000 </r>
       <r>  -16.8632    1.0000 </r>
       <r>  -15.7792    1.0000 </r>
       <r>  -15.0979    1.0000 </r>
       <r>   -9.6836    1.0000 </r>
       <r>   -9.3632    1.0000 </r>
       <r>   -5.3730    1.0000 </r>
       <r>   -4.9419    1.0000 </r>
       <r>   -1.1419    0.0000 </r>
       <r>   -0.6700    0.0000 </r>
       <r>    4.4441    0.0000 </r>
       <r>    4.7649    0.0000 </r>
      </set>
      <set comment="kpoint 232">
       <r>  -17.4024    1.0000 </r>
       <r>  -16.8674    1.0000 </r>
       <r>  -15.8574    1.0000 </r>
       <r>  -15.3317    1.0000 </r>
       <r>   -9.4882    1.0000 </r>
       <r>   -9.2683    1.0000 </r>
       <r>   -5.2827    1.0000 </r>
       <r>   -4.9857    1.0000 </r>
       <r>   -1.1401    0.0000 </r>
       <r>   -0.8160    0.0000 </r>
       <r>    4.2690    0.0000 </r>
       <r>    4.4896    0.0000 </r>
      </set>
      <set comment="kpoint 233">
       <r>  -17.2401    1.0000 </r>
       <r>  -16.9474    1.0000 </r>
       <r>  -15.8281    1.0000 </r>
       <r>  -15.5399    1.0000 </r>
       <r>   -9.3442    1.0000 </r>
       <r>   -9.2322    1.0000 </r>
       <r>   -5.1953    1.0000 </r>
       <r>   -5.0437    1.0000 </r>
       <r>   -1.1054    0.0000 </r>
       <r>   -0.9403    0.0000 </r>
       <r>    4.1849    0.0000 </r>
       <r>    4.2974    0.0000 </r>
      </set>
      <set comment="kpoint 234">
       <r>  -17.0819    1.0000 </r>
       <r>  -17.0819    1.0000 </r>
       <r>  -15.7119    1.0000 </r>
       <r>  -15.7119    1.0000 </r>
       <r>   -9.2577    1.0000 </r>
       <r>   -9.2577    1.0000 </r>
       <r>   -5.1145    1.0000 </r>
       <r>   -5.1145    1.0000 </r>
       <r>   -1.0381    0.0000 </r>
       <r>   -1.0381    0.0000 </r>
       <r>    4.1946    0.0000 </r>
       <r>    4.1946    0.0000 </r>
      </set>
      <set comment="kpoint 235">
       <r>  -17.8347    1.0000 </r>
       <r>  -17.8347    1.0000 </r>
       <r>  -13.3672    1.0000 </r>
       <r>  -13.3672    1.0000 </r>
       <r>  -11.6265    1.0000 </r>
       <r>  -11.6265    1.0000 </r>
       <r>   -5.4013    1.0000 </r>
       <r>   -5.4013    1.0000 </r>
       <r>   -0.0799    0.0000 </r>
       <r>   -0.0799    0.0000 </r>
       <r>    6.5303    0.0000 </r>
       <r>    6.5303    0.0000 </r>
      </set>
      <set comment="kpoint 236">
       <r>  -17.8257    1.0000 </r>
       <r>  -17.8257    1.0000 </r>
       <r>  -13.4400    1.0000 </r>
       <r>  -13.4400    1.0000 </r>
       <r>  -11.5511    1.0000 </r>
       <r>  -11.5511    1.0000 </r>
       <r>   -5.3961    1.0000 </r>
       <r>   -5.3961    1.0000 </r>
       <r>   -0.0987    0.0000 </r>
       <r>   -0.0987    0.0000 </r>
       <r>    6.5433    0.0000 </r>
       <r>    6.5433    0.0000 </r>
      </set>
      <set comment="kpoint 237">
       <r>  -17.7988    1.0000 </r>
       <r>  -17.7988    1.0000 </r>
       <r>  -13.6282    1.0000 </r>
       <r>  -13.6282    1.0000 </r>
       <r>  -11.3557    1.0000 </r>
       <r>  -11.3557    1.0000 </r>
       <r>   -5.3808    1.0000 </r>
       <r>   -5.3808    1.0000 </r>
       <r>   -0.1534    0.0000 </r>
       <r>   -0.1534    0.0000 </r>
       <r>    6.5820    0.0000 </r>
       <r>    6.5820    0.0000 </r>
      </set>
      <set comment="kpoint 238">
       <r>  -17.7543    1.0000 </r>
       <r>  -17.7543    1.0000 </r>
       <r>  -13.8797    1.0000 </r>
       <r>  -13.8797    1.0000 </r>
       <r>  -11.0937    1.0000 </r>
       <r>  -11.0937    1.0000 </r>
       <r>   -5.3561    1.0000 </r>
       <r>   -5.3561    1.0000 </r>
       <r>   -0.2395    0.0000 </r>
       <r>   -0.2395    0.0000 </r>
       <r>    6.6443    0.0000 </r>
       <r>    6.6443    0.0000 </r>
      </set>
      <set comment="kpoint 239">
       <r>  -17.6924    1.0000 </r>
       <r>  -17.6924    1.0000 </r>
       <r>  -14.1591    1.0000 </r>
       <r>  -14.1591    1.0000 </r>
       <r>  -10.8031    1.0000 </r>
       <r>  -10.8031    1.0000 </r>
       <r>   -5.3230    1.0000 </r>
       <r>   -5.3230    1.0000 </r>
       <r>   -0.3502    0.0000 </r>
       <r>   -0.3502    0.0000 </r>
       <r>    6.6692    0.0000 </r>
       <r>    6.6692    0.0000 </r>
      </set>
      <set comment="kpoint 240">
       <r>  -17.6139    1.0000 </r>
       <r>  -17.6139    1.0000 </r>
       <r>  -14.4470    1.0000 </r>
       <r>  -14.4470    1.0000 </r>
       <r>  -10.5064    1.0000 </r>
       <r>  -10.5064    1.0000 </r>
       <r>   -5.2833    1.0000 </r>
       <r>   -5.2833    1.0000 </r>
       <r>   -0.4771    0.0000 </r>
       <r>   -0.4771    0.0000 </r>
       <r>    6.2005    0.0000 </r>
       <r>    6.2005    0.0000 </r>
      </set>
      <set comment="kpoint 241">
       <r>  -17.5196    1.0000 </r>
       <r>  -17.5196    1.0000 </r>
       <r>  -14.7325    1.0000 </r>
       <r>  -14.7325    1.0000 </r>
       <r>  -10.2188    1.0000 </r>
       <r>  -10.2188    1.0000 </r>
       <r>   -5.2392    1.0000 </r>
       <r>   -5.2392    1.0000 </r>
       <r>   -0.6114    0.0000 </r>
       <r>   -0.6114    0.0000 </r>
       <r>    5.7092    0.0000 </r>
       <r>    5.7092    0.0000 </r>
      </set>
      <set comment="kpoint 242">
       <r>  -17.4114    1.0000 </r>
       <r>  -17.4114    1.0000 </r>
       <r>  -15.0082    1.0000 </r>
       <r>  -15.0082    1.0000 </r>
       <r>   -9.9518    1.0000 </r>
       <r>   -9.9518    1.0000 </r>
       <r>   -5.1933    1.0000 </r>
       <r>   -5.1933    1.0000 </r>
       <r>   -0.7442    0.0000 </r>
       <r>   -0.7442    0.0000 </r>
       <r>    5.2678    0.0000 </r>
       <r>    5.2678    0.0000 </r>
      </set>
      <set comment="kpoint 243">
       <r>  -17.2920    1.0000 </r>
       <r>  -17.2920    1.0000 </r>
       <r>  -15.2678    1.0000 </r>
       <r>  -15.2678    1.0000 </r>
       <r>   -9.7159    1.0000 </r>
       <r>   -9.7159    1.0000 </r>
       <r>   -5.1488    1.0000 </r>
       <r>   -5.1488    1.0000 </r>
       <r>   -0.8671    0.0000 </r>
       <r>   -0.8671    0.0000 </r>
       <r>    4.8884    0.0000 </r>
       <r>    4.8884    0.0000 </r>
      </set>
      <set comment="kpoint 244">
       <r>  -17.1669    1.0000 </r>
       <r>  -17.1669    1.0000 </r>
       <r>  -15.5037    1.0000 </r>
       <r>  -15.5037    1.0000 </r>
       <r>   -9.5204    1.0000 </r>
       <r>   -9.5204    1.0000 </r>
       <r>   -5.1092    1.0000 </r>
       <r>   -5.1092    1.0000 </r>
       <r>   -0.9721    0.0000 </r>
       <r>   -0.9721    0.0000 </r>
       <r>    4.5808    0.0000 </r>
       <r>    4.5808    0.0000 </r>
      </set>
      <set comment="kpoint 245">
       <r>  -17.0465    1.0000 </r>
       <r>  -17.0465    1.0000 </r>
       <r>  -15.7042    1.0000 </r>
       <r>  -15.7042    1.0000 </r>
       <r>   -9.3738    1.0000 </r>
       <r>   -9.3738    1.0000 </r>
       <r>   -5.0777    1.0000 </r>
       <r>   -5.0777    1.0000 </r>
       <r>   -1.0526    0.0000 </r>
       <r>   -1.0526    0.0000 </r>
       <r>    4.3538    0.0000 </r>
       <r>    4.3538    0.0000 </r>
      </set>
      <set comment="kpoint 246">
       <r>  -16.9513    1.0000 </r>
       <r>  -16.9513    1.0000 </r>
       <r>  -15.8477    1.0000 </r>
       <r>  -15.8477    1.0000 </r>
       <r>   -9.2828    1.0000 </r>
       <r>   -9.2828    1.0000 </r>
       <r>   -5.0575    1.0000 </r>
       <r>   -5.0575    1.0000 </r>
       <r>   -1.1032    0.0000 </r>
       <r>   -1.1032    0.0000 </r>
       <r>    4.2145    0.0000 </r>
       <r>    4.2145    0.0000 </r>
      </set>
      <set comment="kpoint 247">
       <r>  -16.9132    1.0000 </r>
       <r>  -16.9132    1.0000 </r>
       <r>  -15.9019    1.0000 </r>
       <r>  -15.9019    1.0000 </r>
       <r>   -9.2519    1.0000 </r>
       <r>   -9.2519    1.0000 </r>
       <r>   -5.0505    1.0000 </r>
       <r>   -5.0505    1.0000 </r>
       <r>   -1.1205    0.0000 </r>
       <r>   -1.1205    0.0000 </r>
       <r>    4.1675    0.0000 </r>
       <r>    4.1675    0.0000 </r>
      </set>
     </set>
    </set>
   </array>
  </eigenvalues>
  <separator name="orbital magnetization" >
   <v name="MAGDIPOLOUT">      0.00000000      0.00000000      0.00000000</v>
  </separator>
 </calculation>
 <structure name="finalpos" >
  <crystal>
   <varray name="basis" >
    <v>       4.33842856       0.00000000       0.00000000 </v>
    <v>       0.00000000       2.46076388       0.00000000 </v>
    <v>       0.00000000       0.00000000      19.74905369 </v>
   </varray>
   <i name="volume">    210.83790140 </i>
   <varray name="rec_basis" >
    <v>       0.23049821       0.00000000       0.00000000 </v>
    <v>       0.00000000       0.40637788       0.00000000 </v>
    <v>       0.00000000       0.00000000       0.05063534 </v>
   </varray>
  </crystal>
  <varray name="positions" >
   <v>       0.99963876       0.00000000      -0.00000000 </v>
   <v>       0.16702791       0.50000000       0.00000000 </v>
   <v>       0.49963876       0.50000000      -0.00000000 </v>
   <v>       0.66702791      -0.00000000       0.00000000 </v>
  </varray>
 </structure>
</modeling>
