gr                                      
           1
     4.338429    0.000000    0.000000
     0.000000    2.460764    0.000000
     0.000000    0.000000   19.749054
   C 
   4
Direct configuration=     1
   0.99964215  0.00000000  0.00000000
   0.16702452  0.50000000  0.00000000
   0.49964215  0.50000000  0.00000000
   0.66702452  0.00000000  0.00000000
Direct configuration=     2
   0.99962559  0.00000000  0.00000000
   0.16704108  0.50000000 -0.00000000
   0.49962559  0.50000000  0.00000000
   0.66704108  0.00000000 -0.00000000
Direct configuration=     3
   0.99963876 -0.00000000  0.00000000
   0.16702791  0.50000000 -0.00000000
   0.49963876  0.50000000  0.00000000
   0.66702791 -0.00000000 -0.00000000
Direct configuration=     4
   0.99963878 -0.00000000 -0.00000000
   0.16702788  0.50000000  0.00000000
   0.49963878  0.50000000 -0.00000000
   0.66702788 -0.00000000  0.00000000
Direct configuration=     5
   0.99963877 -0.00000000 -0.00000000
   0.16702790  0.50000000  0.00000000
   0.49963877  0.50000000 -0.00000000
   0.66702790 -0.00000000  0.00000000
Direct configuration=     6
   0.99963877 -0.00000000 -0.00000000
   0.16702790  0.50000000  0.00000000
   0.49963877  0.50000000 -0.00000000
   0.66702790 -0.00000000  0.00000000
Direct configuration=     7
   0.99963881 -0.00000000  0.00000000
   0.16702786  0.50000000 -0.00000000
   0.49963881  0.50000000  0.00000000
   0.66702786 -0.00000000 -0.00000000
Direct configuration=     8
   0.99963877  0.00000000 -0.00000000
   0.16702790  0.50000000  0.00000000
   0.49963877  0.50000000 -0.00000000
   0.66702790 -0.00000000  0.00000000
Direct configuration=     9
   0.99963875  0.00000000 -0.00000000
   0.16702792  0.50000000  0.00000000
   0.49963875  0.50000000 -0.00000000
   0.66702792 -0.00000000  0.00000000
Direct configuration=    10
   0.99963876  0.00000000 -0.00000000
   0.16702791  0.50000000  0.00000000
   0.49963876  0.50000000 -0.00000000
   0.66702791 -0.00000000  0.00000000
