    4    4  400    1
  0.5270948E+02  0.4269557E-09  0.2479143E-09  0.1991885E-08  0.5000000E-15
  1.000000000000000E-004
  CAR 
 gr                                      
     16    247     12
 
  0.0000000E+00  0.0000000E+00  0.0000000E+00  0.1157407E-02
    1      -22.220133
    2      -16.958440
    3      -15.951305
    4      -10.333053
    5       -9.224162
    6       -5.829899
    7       -5.774609
    8       -5.069898
    9       -1.086522
   10        0.527843
   11        1.328380
   12        1.713295
 
  0.4166667E-01  0.0000000E+00  0.0000000E+00  0.2314815E-02
    1      -22.209859
    2      -17.128966
    3      -15.765560
    4      -10.320794
    5       -9.213930
    6       -5.852701
    7       -5.816867
    8       -5.137090
    9       -1.003563
   10        0.541778
   11        1.342489
   12        1.727576
 
  0.8333333E-01  0.0000000E+00  0.0000000E+00  0.2314815E-02
    1      -22.179040
    2      -17.471782
    3      -15.377173
    4      -10.284036
    5       -9.183283
    6       -5.941938
    7       -5.919834
    8       -5.323297
    9       -0.770229
   10        0.583581
   11        1.384810
   12        1.770417
 
  0.1250000E+00  0.0000000E+00  0.0000000E+00  0.2314815E-02
    1      -22.127697
    2      -17.851597
    3      -14.921698
    4      -10.222837
    5       -9.132376
    6       -6.145006
    7       -6.027697
    8       -5.594499
    9       -0.421058
   10        0.653257
   11        1.455333
   12        1.841820
 
  0.1666667E+00  0.0000000E+00  0.0000000E+00  0.2314815E-02
    1      -22.055863
    2      -18.232897
    3      -14.435099
    4      -10.137293
    5       -9.061468
    6       -6.418863
    7       -6.170938
    8       -5.917239
    9        0.009615
   10        0.750807
   11        1.554036
   12        1.941787
 
  0.2083333E+00  0.0000000E+00  0.0000000E+00  0.2314815E-02
    1      -21.963589
    2      -18.604938
    3      -13.928769
    4      -10.027545
    5       -8.970937
    6       -6.754866
    7       -6.343180
    8       -6.266805
    9        0.495824
   10        0.876226
   11        1.680885
   12        2.070316
 
  0.2500000E+00  0.0000000E+00  0.0000000E+00  0.2314815E-02
    1      -21.850935
    2      -18.963412
    3      -13.407872
    4       -9.893783
    5       -8.861288
    6       -7.143828
    7       -6.626829
    8       -6.537716
    9        1.019539
   10        1.029500
   11        1.835832
   12        2.227407
 
  0.2916667E+00  0.0000000E+00  0.0000000E+00  0.2314815E-02
    1      -21.717984
    2      -19.306185
    3      -12.875633
    4       -9.736250
    5       -8.733171
    6       -7.576719
    7       -6.986734
    8       -6.748036
    9        1.210602
   10        1.568033
   11        2.018801
   12        2.413057
 
  0.3333333E+00  0.0000000E+00  0.0000000E+00  0.2314815E-02
    1      -21.564831
    2      -19.632020
    3      -12.334649
    4       -9.555256
    5       -8.587401
    6       -8.045111
    7       -7.339598
    8       -6.968162
    9        1.419495
   10        2.131543
   11        2.229675
   12        2.627260
 
  0.3750000E+00  0.0000000E+00  0.0000000E+00  0.2314815E-02
    1      -21.391592
    2      -19.940112
    3      -11.787388
    4       -9.351190
    5       -8.541410
    6       -8.424989
    7       -7.680766
    8       -7.192810
    9        1.656123
   10        2.468246
   11        2.701067
   12        2.870006
 
  0.4166667E+00  0.0000000E+00  0.0000000E+00  0.2314815E-02
    1      -21.198402
    2      -20.229886
    3      -11.236430
    4       -9.124536
    5       -9.058930
    6       -8.247174
    7       -8.007006
    8       -7.417420
    9        1.920412
   10        2.734097
   11        3.141278
   12        3.252106
 
  0.4583333E+00  0.0000000E+00  0.0000000E+00  0.2314815E-02
    1      -20.985422
    2      -20.500911
    3      -10.684623
    4       -9.591861
    5       -8.875906
    6       -8.316007
    7       -8.055469
    8       -7.638132
    9        2.212259
   10        2.877946
   11        3.026130
   12        3.441046
 
  0.5000000E+00  0.0000000E+00  0.0000000E+00  0.1157407E-02
    1      -20.752849
    2      -20.752849
    3      -10.135195
    4      -10.135195
    5       -8.606067
    6       -8.606067
    7       -7.851712
    8       -7.851712
    9        2.531516
   10        2.531516
   11        3.339864
   12        3.339864
 
  0.0000000E+00  0.2777778E-01  0.0000000E+00  0.2314815E-02
    1      -22.206598
    2      -16.946814
    3      -15.939945
    4      -10.316904
    5       -9.285074
    6       -5.886030
    7       -5.805225
    8       -5.053442
    9       -1.090909
   10        0.546193
   11        1.346976
   12        1.732117
 
  0.4166667E-01  0.2777778E-01  0.0000000E+00  0.4629630E-02
    1      -22.196324
    2      -17.117179
    3      -15.754414
    4      -10.304649
    5       -9.274822
    6       -5.917053
    7       -5.838575
    8       -5.120786
    9       -1.007920
   10        0.560128
   11        1.361083
   12        1.746398
 
  0.8333333E-01  0.2777778E-01  0.0000000E+00  0.4629630E-02
    1      -22.165510
    2      -17.459746
    3      -15.366437
    4      -10.267904
    5       -9.244116
    6       -6.019503
    7       -5.926393
    8       -5.307338
    9       -0.774605
   10        0.601934
   11        1.403402
   12        1.789240
 
  0.1250000E+00  0.2777778E-01  0.0000000E+00  0.4629630E-02
    1      -22.114174
    2      -17.839337
    3      -14.911461
    4      -10.206726
    5       -9.193106
    6       -6.205765
    7       -6.048202
    8       -5.578893
    9       -0.425691
   10        0.671614
   11        1.473921
   12        1.860644
 
  0.1666667E+00  0.2777778E-01  0.0000000E+00  0.4629630E-02
    1      -22.042351
    2      -18.220446
    3      -14.425452
    4      -10.121212
    5       -9.122045
    6       -6.468127
    7       -6.199554
    8       -5.901890
    9        0.004384
   10        0.769170
   11        1.572617
   12        1.960611
 
  0.2083333E+00  0.2777778E-01  0.0000000E+00  0.4629630E-02
    1      -21.950090
    2      -18.592323
    3      -13.919822
    4      -10.011502
    5       -9.031300
    6       -6.794738
    7       -6.377650
    8       -6.251603
    9        0.489639
   10        0.894598
   11        1.699459
   12        2.089142
 
  0.2500000E+00  0.2777778E-01  0.0000000E+00  0.4629630E-02
    1      -21.837454
    2      -18.950656
    3      -13.399760
    4       -9.877787
    5       -8.921364
    6       -7.175507
    7       -6.611684
    8       -6.576964
    9        1.012069
   10        1.047882
   11        1.854397
   12        2.246236
 
  0.2916667E+00  0.2777778E-01  0.0000000E+00  0.4629630E-02
    1      -21.704525
    2      -19.293308
    3      -12.868520
    4       -9.720309
    5       -8.792868
    6       -7.601232
    7       -6.971582
    8       -6.791326
    9        1.228997
   10        1.558993
   11        2.037358
   12        2.431889
 
  0.3333333E+00  0.2777778E-01  0.0000000E+00  0.4629630E-02
    1      -21.551398
    2      -19.619039
    3      -12.328734
    4       -9.539379
    5       -8.646607
    6       -8.063440
    7       -7.324398
    8       -7.014875
    9        1.437903
   10        2.120725
   11        2.248224
   12        2.646096
 
  0.3750000E+00  0.2777778E-01  0.0000000E+00  0.4629630E-02
    1      -21.378190
    2      -19.927040
    3      -11.782913
    4       -9.335385
    5       -8.554480
    6       -8.483563
    7       -7.665492
    8       -7.242391
    9        1.674547
   10        2.486794
   11        2.688463
   12        2.888847
 
  0.4166667E+00  0.2777778E-01  0.0000000E+00  0.4629630E-02
    1      -21.185036
    2      -20.216737
    3      -11.233693
    4       -9.108811
    5       -9.067578
    6       -8.304945
    7       -7.991645
    8       -7.469379
    9        1.938855
   10        2.752655
   11        3.160128
   12        3.248371
 
  0.4583333E+00  0.2777778E-01  0.0000000E+00  0.4629630E-02
    1      -20.972099
    2      -20.487695
    3      -10.683984
    4       -9.596821
    5       -8.860266
    6       -8.300553
    7       -8.112226
    8       -7.692039
    9        2.230726
   10        2.896507
   11        3.044720
   12        3.459909
 
  0.5000000E+00  0.2777778E-01  0.0000000E+00  0.2314815E-02
    1      -20.739576
    2      -20.739576
    3      -10.137093
    4      -10.137093
    5       -8.590519
    6       -8.590519
    7       -7.907199
    8       -7.907199
    9        2.550017
   10        2.550017
   11        3.358441
   12        3.358441
 
  0.0000000E+00  0.5555556E-01  0.0000000E+00  0.2314815E-02
    1      -22.166001
    2      -16.911940
    3      -15.906026
    4      -10.268489
    5       -9.462910
    6       -6.049979
    7       -5.896281
    8       -5.004096
    9       -1.104896
   10        0.601247
   11        1.402756
   12        1.788584
 
  0.4166667E-01  0.5555556E-01  0.0000000E+00  0.4629630E-02
    1      -22.155731
    2      -17.081835
    3      -15.721130
    4      -10.256247
    5       -9.452595
    6       -6.087955
    7       -5.920670
    8       -5.071908
    9       -1.021808
   10        0.615183
   11        1.416861
   12        1.802865
 
  0.8333333E-01  0.5555556E-01  0.0000000E+00  0.4629630E-02
    1      -22.124930
    2      -17.423659
    3      -15.334391
    4      -10.219541
    5       -9.421695
    6       -6.199181
    7       -5.994042
    8       -5.259525
    9       -0.788540
   10        0.656994
   11        1.459171
   12        1.845708
 
  0.1250000E+00  0.5555556E-01  0.0000000E+00  0.4629630E-02
    1      -22.073616
    2      -17.802583
    3      -14.880932
    4      -10.158427
    5       -9.370348
    6       -6.378610
    7       -6.114254
    8       -5.532159
    9       -0.440405
   10        0.726683
   11        1.529675
   12        1.917114
 
  0.1666667E+00  0.5555556E-01  0.0000000E+00  0.4629630E-02
    1      -22.001826
    2      -18.183116
    3      -14.396730
    4      -10.073004
    5       -9.298785
    6       -6.621754
    7       -6.274800
    8       -5.855940
    9       -0.012154
   10        0.824255
   11        1.628352
   12        2.017085
 
  0.2083333E+00  0.5555556E-01  0.0000000E+00  0.4629630E-02
    1      -21.909607
    2      -18.554499
    3      -13.893256
    4       -9.963412
    5       -9.207339
    6       -6.924100
    7       -6.466638
    8       -6.206098
    9        0.470189
   10        0.949703
   11        1.755169
   12        2.145620
 
  0.2500000E+00  0.5555556E-01  0.0000000E+00  0.4629630E-02
    1      -21.797024
    2      -18.912408
    3      -13.375772
    4       -9.829839
    5       -9.096460
    6       -7.280023
    7       -6.680601
    8       -6.566348
    9        0.988697
   10        1.103014
   11        1.910080
   12        2.302720
 
  0.2916667E+00  0.5555556E-01  0.0000000E+00  0.4629630E-02
    1      -21.664161
    2      -19.254695
    3      -12.847629
    4       -9.672530
    5       -8.966720
    6       -7.682681
    7       -6.926221
    8       -6.908662
    9        1.284161
   10        1.530823
   11        2.093013
   12        2.488382
 
  0.3333333E+00  0.5555556E-01  0.0000000E+00  0.4629630E-02
    1      -21.511113
    2      -19.580112
    3      -12.311576
    4       -9.491795
    5       -8.818841
    6       -8.124603
    7       -7.278885
    8       -7.144189
    9        1.493102
   10        2.087096
   11        2.303856
   12        2.702600
 
  0.3750000E+00  0.5555556E-01  0.0000000E+00  0.4629630E-02
    1      -21.337997
    2      -19.887843
    3      -11.770269
    4       -9.288019
    5       -8.653713
    6       -8.598355
    7       -7.619752
    8       -7.381786
    9        1.729786
   10        2.542418
   11        2.649237
   12        2.945365
 
  0.4166667E+00  0.5555556E-01  0.0000000E+00  0.4629630E-02
    1      -21.144952
    2      -20.177306
    3      -11.226522
    4       -9.096990
    5       -9.061688
    6       -8.472427
    7       -7.945637
    8       -7.617066
    9        1.994139
   10        2.808309
   11        3.206137
   12        3.216666
 
  0.4583333E+00  0.5555556E-01  0.0000000E+00  0.4629630E-02
    1      -20.932143
    2      -20.448063
    3      -10.683467
    4       -9.614260
    5       -8.813406
    6       -8.276315
    7       -8.254259
    8       -7.846446
    9        2.286067
   10        2.952066
   11        3.100476
   12        3.516480
 
  0.5000000E+00  0.5555556E-01  0.0000000E+00  0.2314815E-02
    1      -20.699769
    2      -20.699769
    3      -10.144674
    4      -10.144674
    5       -8.543937
    6       -8.543937
    7       -8.066997
    8       -8.066997
    9        2.605440
   10        2.605440
   11        3.414152
   12        3.414152
 
  0.0000000E+00  0.8333333E-01  0.0000000E+00  0.2314815E-02
    1      -22.098378
    2      -16.853831
    3      -15.850065
    4      -10.187909
    5       -9.744323
    6       -6.309748
    7       -6.045454
    8       -4.921919
    9       -1.130951
   10        0.693020
   11        1.495699
   12        1.882699
 
  0.4166667E-01  0.8333333E-01  0.0000000E+00  0.4629630E-02
    1      -22.088116
    2      -17.022980
    3      -15.666203
    4      -10.175690
    5       -9.733884
    6       -6.351726
    7       -6.062658
    8       -4.990561
    9       -1.047671
   10        0.706956
   11        1.509798
   12        1.896980
 
  0.8333333E-01  0.8333333E-01  0.0000000E+00  0.4629630E-02
    1      -22.057336
    2      -17.363597
    3      -15.281550
    4      -10.139050
    5       -9.702604
    6       -6.469384
    7       -6.120559
    8       -5.180049
    9       -0.814444
   10        0.748769
   11        1.552093
   12        1.939823
 
  0.1250000E+00  0.8333333E-01  0.0000000E+00  0.4629630E-02
    1      -22.006060
    2      -17.741411
    3      -14.830702
    4      -10.078047
    5       -9.650594
    6       -6.648679
    7       -6.227375
    8       -5.454562
    9       -0.467622
   10        0.818464
   11        1.622570
   12        2.011231
 
  0.1666667E+00  0.8333333E-01  0.0000000E+00  0.4629630E-02
    1      -21.934324
    2      -18.120981
    3      -14.349650
    4       -9.992780
    5       -9.578042
    6       -6.879820
    7       -6.383679
    8       -5.779693
    9       -0.042502
   10        0.916048
   11        1.721211
   12        2.111205
 
  0.2083333E+00  0.8333333E-01  0.0000000E+00  0.4629630E-02
    1      -21.842176
    2      -18.491534
    3      -13.849969
    4       -9.883387
    5       -9.485216
    6       -7.157567
    7       -6.582890
    8       -6.130602
    9        0.434827
   10        1.041517
   11        1.847983
   12        2.239746
 
  0.2500000E+00  0.8333333E-01  0.0000000E+00  0.4629630E-02
    1      -21.729683
    2      -18.848730
    3      -13.337063
    4       -9.750060
    5       -9.372473
    6       -7.479515
    7       -6.813980
    8       -6.491127
    9        0.946585
   10        1.194857
   11        2.002841
   12        2.396854
 
  0.2916667E+00  0.8333333E-01  0.0000000E+00  0.4629630E-02
    1      -21.596929
    2      -19.190403
    3      -12.814467
    4       -9.593042
    5       -9.240264
    6       -7.844114
    7       -7.064504
    8       -6.850940
    9        1.376040
   10        1.480446
   11        2.185718
   12        2.582526
 
  0.3333333E+00  0.8333333E-01  0.0000000E+00  0.4629630E-02
    1      -21.444012
    2      -19.515291
    3      -12.285169
    4       -9.412641
    5       -9.089149
    6       -8.248803
    7       -7.323359
    8       -7.203330
    9        1.585023
   10        2.027253
   11        2.396514
   12        2.796758
 
  0.3750000E+00  0.8333333E-01  0.0000000E+00  0.4629630E-02
    1      -21.271051
    2      -19.822567
    3      -11.752121
    4       -9.209243
    5       -8.919811
    6       -8.689183
    7       -7.582222
    8       -7.543795
    9        1.821751
   10        2.579393
   11        2.635054
   12        3.039541
 
  0.4166667E+00  0.8333333E-01  0.0000000E+00  0.4629630E-02
    1      -21.078189
    2      -20.111638
    3      -11.218519
    4       -9.159446
    5       -8.983329
    6       -8.733071
    7       -7.869209
    8       -7.835486
    9        2.086154
   10        2.900990
   11        3.128584
   12        3.310867
 
  0.4583333E+00  0.8333333E-01  0.0000000E+00  0.4629630E-02
    1      -20.865595
    2      -20.382057
    3      -10.687970
    4       -9.653288
    5       -8.735500
    6       -8.529919
    7       -8.177333
    8       -8.079446
    9        2.378140
   10        3.044347
   11        3.193349
   12        3.610722
 
  0.5000000E+00  0.8333333E-01  0.0000000E+00  0.2314815E-02
    1      -20.633471
    2      -20.633471
    3      -10.164626
    4      -10.164626
    5       -8.466513
    6       -8.466513
    7       -8.311552
    8       -8.311552
    9        2.697593
   10        2.697593
   11        3.506909
   12        3.506909
 
  0.0000000E+00  0.1111111E+00  0.0000000E+00  0.2314815E-02
    1      -22.003792
    2      -16.772506
    3      -15.773041
    4      -10.110678
    5      -10.075336
    6       -6.648909
    7       -6.249051
    8       -4.807013
    9       -1.173145
   10        0.821529
   11        1.625767
   12        2.014465
 
  0.4166667E-01  0.1111111E+00  0.0000000E+00  0.4629630E-02
    1      -21.993540
    2      -16.940702
    3      -15.590575
    4      -10.100022
    5      -10.063149
    6       -6.693848
    7       -6.259156
    8       -4.876929
    9       -1.089520
   10        0.835463
   11        1.639858
   12        2.028746
 
  0.8333333E-01  0.1111111E+00  0.0000000E+00  0.4629630E-02
    1      -21.962792
    2      -17.279690
    3      -15.208902
    4      -10.068077
    5      -10.026606
    6       -6.817305
    7       -6.299435
    8       -5.069264
    9       -0.856239
   10        0.877268
   11        1.682126
   12        2.071588
 
  0.1250000E+00  0.1111111E+00  0.0000000E+00  0.4629630E-02
    1      -21.911569
    2      -17.655958
    3      -14.761920
    4      -10.014905
    5       -9.965766
    6       -6.999634
    7       -6.385324
    8       -5.346588
    9       -0.511266
   10        0.946955
   11        1.752561
   12        2.142996
 
  0.1666667E+00  0.1111111E+00  0.0000000E+00  0.4629630E-02
    1      -21.839908
    2      -18.034169
    3      -14.285627
    4       -9.940612
    5       -9.880725
    6       -7.226497
    7       -6.524133
    8       -5.673697
    9       -0.090699
   10        1.044535
   11        1.851141
   12        2.242970
 
  0.2083333E+00  0.1111111E+00  0.0000000E+00  0.4629630E-02
    1      -21.747860
    2      -18.403545
    3      -13.791763
    4       -9.845339
    5       -9.771625
    6       -7.489398
    7       -6.714767
    8       -6.025681
    9        0.379314
   10        1.170008
   11        1.977837
   12        2.371515
 
  0.2500000E+00  0.1111111E+00  0.0000000E+00  0.4629630E-02
    1      -21.635494
    2      -18.759728
    3      -13.285984
    4       -9.729264
    5       -9.638657
    6       -7.784087
    7       -6.949903
    8       -6.386568
    9        0.881227
   10        1.323363
   11        2.132604
   12        2.528629
 
  0.2916667E+00  0.1111111E+00  0.0000000E+00  0.4629630E-02
    1      -21.502893
    2      -19.100530
    3      -12.772166
    4       -9.592591
    5       -9.482064
    6       -8.109552
    7       -7.217834
    8       -6.746256
    9        1.403036
   10        1.504569
   11        2.315383
   12        2.714311
 
  0.3333333E+00  0.1111111E+00  0.0000000E+00  0.4629630E-02
    1      -21.350160
    2      -19.424668
    3      -12.253741
    4       -9.435541
    5       -9.302153
    6       -8.466887
    7       -7.504495
    8       -7.098211
    9        1.713582
   10        1.935978
   11        2.526083
   12        2.928556
 
  0.3750000E+00  0.1111111E+00  0.0000000E+00  0.4629630E-02
    1      -21.177419
    2      -19.731297
    3      -11.734253
    4       -9.258343
    5       -9.099310
    6       -8.857469
    7       -7.796036
    8       -7.438059
    9        1.950342
   10        2.473086
   11        2.764561
   12        3.171356
 
  0.4166667E+00  0.1111111E+00  0.0000000E+00  0.4629630E-02
    1      -20.984814
    2      -20.019813
    3      -11.217654
    4       -9.280930
    5       -9.061220
    6       -8.874011
    7       -8.081359
    8       -7.762762
    9        2.214776
   10        3.008028
   11        3.030541
   12        3.442704
 
  0.4583333E+00  0.1111111E+00  0.0000000E+00  0.4629630E-02
    1      -20.772524
    2      -20.289753
    3      -10.708502
    4       -9.734189
    5       -8.844404
    6       -8.626851
    7       -8.353325
    8       -8.070140
    9        2.506793
   10        3.173093
   11        3.323217
   12        3.530335
 
  0.5000000E+00  0.1111111E+00  0.0000000E+00  0.2314815E-02
    1      -20.540755
    2      -20.540755
    3      -10.212056
    4      -10.212056
    5       -8.608217
    6       -8.608217
    7       -8.358578
    8       -8.358578
    9        2.826282
   10        2.826282
   11        3.636332
   12        3.636332
 
  0.0000000E+00  0.1388889E+00  0.0000000E+00  0.2314815E-02
    1      -21.882331
    2      -16.667994
    3      -15.676617
    4      -10.541343
    5       -9.931015
    6       -7.049917
    7       -6.502253
    8       -4.659525
    9       -1.237010
   10        0.986785
   11        1.792904
   12        2.183887
 
  0.4166667E-01  0.1388889E+00  0.0000000E+00  0.4629630E-02
    1      -21.872093
    2      -16.835139
    3      -15.495857
    4      -10.530320
    5       -9.918872
    6       -7.097531
    7       -6.504851
    8       -4.731307
    9       -1.152774
   10        1.000710
   11        1.806981
   12        2.198167
 
  0.8333333E-01  0.1388889E+00  0.0000000E+00  0.4629630E-02
    1      -21.841385
    2      -17.172149
    3      -15.118168
    4      -10.497243
    5       -9.882461
    6       -7.226811
    7       -6.525407
    8       -4.927744
    9       -0.919159
   10        1.042494
   11        1.849209
   12        2.241006
 
  0.1250000E+00  0.1388889E+00  0.0000000E+00  0.4629630E-02
    1      -21.790231
    2      -17.546441
    3      -14.676628
    4      -10.442085
    5       -9.821841
    6       -7.413974
    7       -6.585158
    8       -5.209022
    9       -0.576509
   10        1.112151
   11        1.919575
   12        2.312409
 
  0.1666667E+00  0.1388889E+00  0.0000000E+00  0.4629630E-02
    1      -21.718668
    2      -17.922882
    3      -14.207228
    4      -10.364786
    5       -9.737109
    6       -7.641353
    7       -6.697097
    8       -5.538831
    9       -0.162012
   10        1.209699
   11        2.018057
   12        2.412380
 
  0.2083333E+00  0.1388889E+00  0.0000000E+00  0.4629630E-02
    1      -21.626750
    2      -18.290715
    3      -13.721991
    4      -10.265238
    5       -9.628409
    6       -7.897984
    7       -6.865143
    8       -5.892219
    9        0.298175
   10        1.335145
   11        2.144626
   12        2.540923
 
  0.2500000E+00  0.1388889E+00  0.0000000E+00  0.4629630E-02
    1      -21.514547
    2      -18.645567
    3      -13.227034
    4      -10.143249
    5       -9.495931
    6       -8.177370
    7       -7.086486
    8       -6.253522
    9        0.786892
   10        1.488483
   11        2.299237
   12        2.698038
 
  0.2916667E+00  0.1388889E+00  0.0000000E+00  0.4629630E-02
    1      -21.382145
    2      -18.985224
    3      -12.726879
    4       -9.998495
    5       -9.339919
    6       -8.476321
    7       -7.353284
    8       -6.612962
    9        1.292596
   10        1.669683
   11        2.481833
   12        2.883726
 
  0.3333333E+00  0.1388889E+00  0.0000000E+00  0.4629630E-02
    1      -21.229651
    2      -19.308377
    3      -12.225842
    4       -9.830468
    5       -9.160680
    6       -8.794531
    7       -7.653904
    8       -6.964257
    9        1.807018
   10        1.878698
   11        2.692338
   12        3.097980
 
  0.3750000E+00  0.1388889E+00  0.0000000E+00  0.4629630E-02
    1      -21.057193
    2      -19.614159
    3      -11.728629
    4       -9.638409
    5       -9.134241
    6       -8.958598
    7       -7.974088
    8       -7.303209
    9        2.115461
   10        2.323791
   11        2.930640
   12        3.340794
 
  0.4166667E+00  0.1388889E+00  0.0000000E+00  0.4629630E-02
    1      -20.864926
    2      -19.901946
    3      -11.240645
    4       -9.499314
    5       -9.421306
    6       -8.734146
    7       -8.298547
    8       -7.626900
    9        2.379893
   10        2.837652
   11        3.196568
   12        3.612159
 
  0.4583333E+00  0.1388889E+00  0.0000000E+00  0.4629630E-02
    1      -20.653031
    2      -20.171260
    3      -10.768012
    4       -9.893293
    5       -9.178089
    6       -8.613320
    7       -8.487911
    8       -7.933228
    9        2.671897
   10        3.338131
   11        3.343784
   12        3.489686
 
  0.5000000E+00  0.1388889E+00  0.0000000E+00  0.2314815E-02
    1      -20.421724
    2      -20.421724
    3      -10.317096
    4      -10.317096
    5       -8.908266
    6       -8.908266
    7       -8.220629
    8       -8.220629
    9        2.991358
   10        2.991358
   11        3.791261
   12        3.791261
 
  0.0000000E+00  0.1666667E+00  0.0000000E+00  0.2314815E-02
    1      -21.734114
    2      -16.540334
    3      -15.563593
    4      -11.015746
    5       -9.755277
    6       -7.496415
    7       -6.799416
    8       -4.479644
    9       -1.329231
   10        1.188781
   11        1.997030
   12        2.390968
 
  0.4166667E-01  0.1666667E+00  0.0000000E+00  0.4629630E-02
    1      -21.723892
    2      -16.706507
    3      -15.384790
    4      -11.004092
    5       -9.743191
    6       -7.546686
    7       -6.794100
    8       -4.554141
    9       -1.243892
   10        1.202694
   11        2.011086
   12        2.405245
 
  0.8333333E-01  0.1666667E+00  0.0000000E+00  0.4629630E-02
    1      -21.693236
    2      -17.041296
    3      -15.012339
    4      -10.969064
    5       -9.706953
    6       -7.682036
    7       -6.793362
    8       -4.756401
    9       -1.009274
   10        1.244441
   11        2.053248
   12        2.448079
 
  0.1250000E+00  0.1666667E+00  0.0000000E+00  0.4629630E-02
    1      -21.642167
    2      -17.413187
    3      -14.578468
    4      -10.910444
    5       -9.646622
    6       -7.875177
    7       -6.823473
    8       -5.043089
    9       -0.669222
   10        1.314041
   11        2.123501
   12        2.519472
 
  0.1666667E+00  0.1666667E+00  0.0000000E+00  0.4629630E-02
    1      -21.570725
    2      -17.787421
    3      -14.119185
    4      -10.827834
    5       -9.562297
    6       -8.105838
    7       -6.902324
    8       -5.376439
    9       -0.262328
   10        1.411520
   11        2.221821
   12        2.619432
 
  0.2083333E+00  0.1666667E+00  0.0000000E+00  0.4629630E-02
    1      -21.478966
    2      -18.153313
    3      -13.647046
    4      -10.720583
    5       -9.454122
    6       -8.361405
    7       -7.038125
    8       -5.731554
    9        0.185401
   10        1.536895
   11        2.348170
   12        2.747964
 
  0.2500000E+00  0.1666667E+00  0.0000000E+00  0.4629630E-02
    1      -21.366963
    2      -18.506485
    3      -13.169078
    4      -10.587691
    5       -9.322290
    6       -8.634013
    7       -7.231977
    8       -6.093253
    9        0.657439
   10        1.690168
   11        2.502498
   12        2.905072
 
  0.2916667E+00  0.1666667E+00  0.0000000E+00  0.4629630E-02
    1      -21.234806
    2      -18.844696
    3      -12.691113
    4      -10.427680
    5       -9.167045
    6       -8.918881
    7       -7.479704
    8       -6.452223
    9        1.142937
   10        1.871316
   11        2.684735
   12        3.090758
 
  0.3333333E+00  0.1666667E+00  0.0000000E+00  0.4629630E-02
    1      -21.082608
    2      -19.166609
    3      -12.219206
    4      -10.238490
    5       -9.213645
    6       -8.988697
    7       -7.773129
    8       -6.802526
    9        1.634290
   10        2.080290
   11        2.894788
   12        3.305016
 
  0.3750000E+00  0.1666667E+00  0.0000000E+00  0.4629630E-02
    1      -20.910504
    2      -19.471326
    3      -11.760109
    4      -10.017552
    5       -9.518226
    6       -8.787626
    7       -8.101057
    8       -7.140200
    9        2.125794
   10        2.317017
   11        3.132531
   12        3.547839
 
  0.4166667E+00  0.1666667E+00  0.0000000E+00  0.4629630E-02
    1      -20.718656
    2      -19.758199
    3      -11.320978
    4       -9.834914
    5       -9.762380
    6       -8.564303
    7       -8.449992
    8       -7.462481
    9        2.581405
   10        2.612893
   11        3.397761
   12        3.819216
 
  0.4583333E+00  0.1666667E+00  0.0000000E+00  0.4629630E-02
    1      -20.507253
    2      -20.026730
    3      -10.908019
    4      -10.168286
    5       -9.472142
    6       -8.804812
    7       -8.319308
    8       -7.767368
    9        2.873345
   10        3.091730
   11        3.539350
   12        3.689720
 
  0.5000000E+00  0.1666667E+00  0.0000000E+00  0.2314815E-02
    1      -20.276522
    2      -20.276522
    3      -10.524293
    4      -10.524293
    5       -9.150024
    6       -9.150024
    7       -8.053362
    8       -8.053362
    9        3.192711
   10        3.192711
   11        3.558574
   12        3.558574
 