       N       E                     dE             d eps       ncg     rms          rms(c)
DAV:   1     0.187963404696E+03    0.18796E+03   -0.10607E+04  5928   0.275E+03
DAV:   2    -0.936627665399E+01   -0.19733E+03   -0.17502E+03 10448   0.261E+02
DAV:   3    -0.383441893317E+02   -0.28978E+02   -0.28317E+02  7456   0.119E+02    0.730E+00
RMM:   4    -0.376939821813E+02    0.65021E+00   -0.94581E+00  5928   0.261E+01    0.423E+00
RMM:   5    -0.369339806378E+02    0.76000E+00   -0.28909E+00  5936   0.116E+01    0.742E-01
RMM:   6    -0.369353148070E+02   -0.13342E-02   -0.84934E-02  6359   0.202E+00    0.526E-01
RMM:   7    -0.369259191376E+02    0.93957E-02   -0.34803E-02  5940   0.162E+00    0.349E-01
RMM:   8    -0.369200240972E+02    0.58950E-02   -0.78680E-03  5931   0.587E-01    0.137E-01
RMM:   9    -0.369197157995E+02    0.30830E-03   -0.21258E-02  5928   0.864E-01    0.163E-01
RMM:  10    -0.369195466522E+02    0.16915E-03   -0.26893E-03  5928   0.374E-01    0.294E-02
RMM:  11    -0.369221060488E+02   -0.25594E-02   -0.79907E-04  5930   0.185E-01    0.477E-02
RMM:  12    -0.369225467586E+02   -0.44071E-03   -0.24533E-04  5936   0.104E-01    0.545E-03
RMM:  13    -0.369228061192E+02   -0.25936E-03   -0.56543E-05  5998   0.428E-02    0.474E-03
RMM:  14    -0.369228918103E+02   -0.85691E-04   -0.12273E-05  5939   0.203E-02    0.231E-03
RMM:  15    -0.369229000001E+02   -0.81898E-05   -0.15290E-06  6016   0.736E-03    0.817E-04
RMM:  16    -0.369229117664E+02   -0.11766E-04   -0.39893E-07  6011   0.366E-03    0.440E-04
RMM:  17    -0.369229156208E+02   -0.38544E-05   -0.33408E-08  6087   0.147E-03    0.760E-04
RMM:  18    -0.369229172631E+02   -0.16423E-05   -0.71224E-08  5928   0.189E-03    0.691E-05
RMM:  19    -0.369229178298E+02   -0.56678E-06   -0.78271E-09  6032   0.459E-04    0.185E-05
RMM:  20    -0.369229178810E+02   -0.51113E-07   -0.81890E-10  4489   0.147E-04    0.306E-05
RMM:  21    -0.369229179016E+02   -0.20647E-07   -0.32441E-10  4452   0.106E-04    0.508E-06
RMM:  22    -0.369229179013E+02    0.28035E-09   -0.57516E-12  3884   0.449E-05    0.200E-06
RMM:  23    -0.369229179020E+02   -0.69360E-09   -0.13264E-11  3544   0.374E-05    0.126E-06
RMM:  24    -0.369229179019E+02    0.96065E-10   -0.60785E-12  3111   0.288E-05
   1 F= -.36922918E+02 E0= -.36922872E+02  d E =-.369229E+02
       N       E                     dE             d eps       ncg     rms          rms(c)
DAV:   1    -0.369229153997E+02    0.25023E-05   -0.22314E-04  6320   0.141E-01    0.301E-03
RMM:   2    -0.369229155219E+02   -0.12224E-06   -0.36459E-06  5933   0.169E-02    0.215E-03
RMM:   3    -0.369229154160E+02    0.10596E-06   -0.63496E-07  5966   0.643E-03    0.537E-04
RMM:   4    -0.369229154036E+02    0.12389E-07   -0.37993E-08  6067   0.155E-03    0.154E-04
RMM:   5    -0.369229154043E+02   -0.71668E-09   -0.29519E-09  6102   0.389E-04    0.729E-05
RMM:   6    -0.369229154042E+02    0.11676E-09   -0.44610E-10  5194   0.167E-04    0.609E-06
RMM:   7    -0.369229154039E+02    0.28808E-09   -0.17918E-11  3766   0.536E-05    0.317E-06
RMM:   8    -0.369229154043E+02   -0.37767E-09   -0.14621E-11  3341   0.410E-05    0.147E-06
RMM:   9    -0.369229154040E+02    0.30889E-09   -0.75093E-12  3005   0.319E-05    0.552E-07
RMM:  10    -0.369229154043E+02   -0.29127E-09   -0.19790E-12  2750   0.268E-05    0.225E-07
RMM:  11    -0.369229154038E+02    0.43394E-09   -0.24739E-12  2554   0.239E-05    0.791E-07
RMM:  12    -0.369229154043E+02   -0.48067E-09   -0.20060E-12  2335   0.213E-05    0.448E-07
RMM:  13    -0.369229154040E+02    0.25091E-09   -0.12501E-12  2244   0.201E-05    0.663E-08
RMM:  14    -0.369229154038E+02    0.25000E-09   -0.11411E-12  2124   0.191E-05    0.134E-07
RMM:  15    -0.369229154041E+02   -0.27353E-09   -0.27542E-13  2032   0.187E-05    0.924E-08
RMM:  16    -0.369229154038E+02    0.30695E-09   -0.45856E-13  1950   0.182E-05    0.211E-08
RMM:  17    -0.369229154040E+02   -0.23590E-09   -0.37834E-13  1896   0.178E-05    0.405E-08
RMM:  18    -0.369229154042E+02   -0.17974E-09   -0.54471E-13  1792   0.174E-05    0.310E-08
RMM:  19    -0.369229154040E+02    0.18531E-09   -0.44615E-14  1742   0.168E-05    0.427E-08
RMM:  20    -0.369229154038E+02    0.14654E-09   -0.23964E-13  1677   0.167E-05    0.419E-08
RMM:  21    -0.369229154038E+02    0.51273E-10   -0.16701E-12  1636   0.164E-05
   2 F= -.36922915E+02 E0= -.36922871E+02  d E =0.249812E-05
       N       E                     dE             d eps       ncg     rms          rms(c)
DAV:   1    -0.369229180835E+02   -0.26796E-05   -0.14307E-04  6636   0.113E-01    0.242E-03
RMM:   2    -0.369229181535E+02   -0.70017E-07   -0.22650E-06  5928   0.135E-02    0.172E-03
RMM:   3    -0.369229180743E+02    0.79221E-07   -0.39838E-07  5960   0.509E-03    0.414E-04
RMM:   4    -0.369229180685E+02    0.58109E-08   -0.22798E-08  6073   0.120E-03    0.123E-04
RMM:   5    -0.369229180681E+02    0.35573E-09   -0.17757E-09  5891   0.307E-04    0.582E-05
RMM:   6    -0.369229180681E+02    0.56275E-10   -0.27680E-10  4325   0.135E-04
   3 F= -.36922918E+02 E0= -.36922872E+02  d E =-.266427E-05
       N       E                     dE             d eps       ncg     rms          rms(c)
DAV:   1    -0.369229180675E+02    0.65643E-09    0.57321E-09  4600   0.630E-05    0.345E-06
RMM:   2    -0.369229180681E+02   -0.67121E-09   -0.33395E-13  2640   0.255E-05    0.217E-06
RMM:   3    -0.369229180680E+02    0.89017E-10   -0.38180E-12  2681   0.265E-05    0.856E-08
RMM:   4    -0.369229180681E+02   -0.24784E-10   -0.31609E-13  2381   0.247E-05    0.596E-08
RMM:   5    -0.369229180679E+02    0.12233E-09   -0.27424E-12  2191   0.236E-05    0.915E-08
RMM:   6    -0.369229180680E+02   -0.15916E-11   -0.76842E-13  1992   0.217E-05
   4 F= -.36922918E+02 E0= -.36922872E+02  d E =0.113914E-09
       N       E                     dE             d eps       ncg     rms          rms(c)
DAV:   1    -0.369229180676E+02    0.36175E-09    0.57556E-09  4480   0.388E-05    0.316E-07
RMM:   2    -0.369229180682E+02   -0.62346E-09    0.54491E-13  1462   0.125E-05    0.192E-07
RMM:   3    -0.369229180678E+02    0.40495E-09   -0.90882E-13  1432   0.125E-05    0.174E-08
RMM:   4    -0.369229180677E+02    0.96179E-10   -0.20848E-13  1402   0.122E-05    0.162E-08
RMM:   5    -0.369229180680E+02   -0.24988E-09   -0.47226E-13  1418   0.121E-05    0.112E-08
RMM:   6    -0.369229180680E+02   -0.25921E-10   -0.35412E-13  1406   0.121E-05
   5 F= -.36922918E+02 E0= -.36922872E+02  d E =-.347882E-10
       N       E                     dE             d eps       ncg     rms          rms(c)
DAV:   1    -0.369229180676E+02    0.36584E-09    0.57712E-09  4328   0.183E-05    0.486E-07
RMM:   2    -0.369229180682E+02   -0.65438E-09   -0.10839E-13  1115   0.639E-06    0.301E-07
RMM:   3    -0.369229180677E+02    0.53979E-09   -0.15798E-13   901   0.627E-06    0.604E-09
RMM:   4    -0.369229180678E+02   -0.13085E-09   -0.39516E-14  1017   0.623E-06    0.281E-09
RMM:   5    -0.369229180682E+02   -0.31389E-09   -0.75660E-14   822   0.621E-06    0.926E-10
RMM:   6    -0.369229180680E+02    0.14597E-09   -0.71959E-14   934   0.622E-06    0.876E-10
RMM:   7    -0.369229180681E+02   -0.47635E-10    0.12615E-13   701   0.621E-06
   6 F= -.36922918E+02 E0= -.36922872E+02  d E =-.692353E-10
       N       E                     dE             d eps       ncg     rms          rms(c)
DAV:   1    -0.369229180673E+02    0.67666E-09    0.32423E-09  6904   0.473E-04    0.101E-05
RMM:   2    -0.369229180679E+02   -0.61868E-09   -0.11178E-11  3182   0.573E-05    0.698E-06
RMM:   3    -0.369229180677E+02    0.25011E-09   -0.13854E-11  3279   0.530E-05    0.166E-06
RMM:   4    -0.369229180681E+02   -0.38403E-09   -0.10850E-11  2874   0.391E-05    0.587E-07
RMM:   5    -0.369229180682E+02   -0.87766E-10   -0.39602E-12  2557   0.313E-05
   7 F= -.36922918E+02 E0= -.36922872E+02  d E =-.116074E-09
       N       E                     dE             d eps       ncg     rms          rms(c)
DAV:   1    -0.369229180674E+02    0.65063E-09    0.28958E-09  6348   0.506E-04    0.114E-05
RMM:   2    -0.369229180681E+02   -0.63721E-09   -0.11854E-11  3041   0.581E-05    0.779E-06
RMM:   3    -0.369229180677E+02    0.39563E-09   -0.14918E-11  3290   0.543E-05    0.180E-06
RMM:   4    -0.369229180677E+02   -0.59117E-10   -0.10998E-11  2541   0.388E-05    0.630E-07
RMM:   5    -0.369229180680E+02   -0.26785E-09   -0.79213E-12  2164   0.313E-05    0.149E-06
RMM:   6    -0.369229180679E+02    0.70258E-10   -0.21971E-12  2216   0.263E-05
   8 F= -.36922918E+02 E0= -.36922872E+02  d E =0.240107E-09
       N       E                     dE             d eps       ncg     rms          rms(c)
DAV:   1    -0.369229180674E+02    0.57207E-09    0.57648E-09  4300   0.275E-05    0.700E-07
RMM:   2    -0.369229180677E+02   -0.28888E-09   -0.10068E-13   458   0.985E-06    0.430E-07
RMM:   3    -0.369229180681E+02   -0.40473E-09    0.19799E-14   585   0.100E-05    0.904E-09
RMM:   4    -0.369229180680E+02    0.11221E-09   -0.48990E-13   635   0.994E-06    0.406E-09
RMM:   5    -0.369229180678E+02    0.20009E-09    0.18360E-13   580   0.993E-06    0.325E-09
RMM:   6    -0.369229180680E+02   -0.18667E-09   -0.12541E-13   519   0.989E-06    0.355E-09
RMM:   7    -0.369229180682E+02   -0.24704E-09   -0.40790E-14   438   0.989E-06    0.554E-09
RMM:   8    -0.369229180680E+02    0.20373E-09    0.21666E-13   469   0.978E-06    0.661E-09
RMM:   9    -0.369229180680E+02    0.10118E-10   -0.27513E-13   480   0.964E-06
   9 F= -.36922918E+02 E0= -.36922872E+02  d E =-.993623E-10
       N       E                     dE             d eps       ncg     rms          rms(c)
DAV:   1    -0.369229180673E+02    0.73635E-09    0.57739E-09  3228   0.129E-05    0.172E-07
RMM:   2    -0.369229180680E+02   -0.73510E-09    0.44615E-14   373   0.443E-06    0.105E-07
RMM:   3    -0.369229180678E+02    0.27433E-09   -0.86844E-14   203   0.443E-06    0.263E-09
RMM:   4    -0.369229180680E+02   -0.24181E-09    0.10181E-13   636   0.443E-06    0.114E-09
RMM:   5    -0.369229180682E+02   -0.20464E-09    0.55429E-14   392   0.443E-06    0.297E-10
RMM:   6    -0.369229180679E+02    0.30741E-09    0.00000E+00   200   0.442E-06    0.277E-10
RMM:   7    -0.369229180679E+02   -0.42064E-10    0.00000E+00   425   0.442E-06
  10 F= -.36922918E+02 E0= -.36922872E+02  d E =0.843556E-10
