<?xml version="1.0" encoding="ISO-8859-1"?>
<modeling>
 <generator>
  <i name="program" type="string">vasp </i>
  <i name="version" type="string">5.3.5  </i>
  <i name="subversion" type="string">31Mar14 (build Mar 02 2015 18:14:16) complex                          parallel </i>
  <i name="platform" type="string">LinuxIFC </i>
  <i name="date" type="string">2018 08 09 </i>
  <i name="time" type="string">18:43:49 </i>
 </generator>
 <incar>
  <i type="string" name="SYSTEM">  gr</i>
  <i type="string" name="PREC">accurate : accuracy</i>
  <i type="string" name="ALGO"> FAST.</i>
  <i type="int" name="NELM">   100</i>
  <i type="int" name="NELMDL">    -3</i>
  <i type="int" name="NELMIN">     5</i>
  <i type="int" name="IBRION">     1</i>
  <i name="EDIFF">      0.00000000</i>
  <i name="EDIFFG">     -0.00000100</i>
  <i type="int" name="NSW">   400</i>
  <i type="int" name="ISIF">     2</i>
  <i name="ENCUT">   2000.00000000</i>
  <i type="int" name="ISMEAR">     0</i>
  <i name="SIGMA">      0.05000000</i>
  <i type="int" name="NWRITE">     2</i>
  <i type="logical" name="LWAVE"> F  </i>
  <i type="logical" name="LCHARG"> F  </i>
  <i type="int" name="NELM">   100</i>
 </incar>
 <kpoints>
  <generation param="Gamma">
   <v type="int" name="divisions">      24       36        1 </v>
   <v name="usershift">      0.00000000       0.00000000       0.00000000 </v>
   <v name="genvec1">      0.04166667       0.00000000       0.00000000 </v>
   <v name="genvec2">      0.00000000       0.02777778       0.00000000 </v>
   <v name="genvec3">      0.00000000       0.00000000       1.00000000 </v>
   <v name="shift">      0.00000000       0.00000000       0.00000000 </v>
  </generation>
  <varray name="kpointlist" >
   <v>       0.00000000       0.00000000       0.00000000 </v>
   <v>       0.04166667       0.00000000       0.00000000 </v>
   <v>       0.08333333       0.00000000       0.00000000 </v>
   <v>       0.12500000       0.00000000       0.00000000 </v>
   <v>       0.16666667       0.00000000       0.00000000 </v>
   <v>       0.20833333       0.00000000       0.00000000 </v>
   <v>       0.25000000       0.00000000       0.00000000 </v>
   <v>       0.29166667       0.00000000       0.00000000 </v>
   <v>       0.33333333       0.00000000       0.00000000 </v>
   <v>       0.37500000       0.00000000       0.00000000 </v>
   <v>       0.41666667       0.00000000       0.00000000 </v>
   <v>       0.45833333       0.00000000       0.00000000 </v>
   <v>       0.50000000       0.00000000       0.00000000 </v>
   <v>       0.00000000       0.02777778       0.00000000 </v>
   <v>       0.04166667       0.02777778       0.00000000 </v>
   <v>       0.08333333       0.02777778       0.00000000 </v>
   <v>       0.12500000       0.02777778       0.00000000 </v>
   <v>       0.16666667       0.02777778       0.00000000 </v>
   <v>       0.20833333       0.02777778       0.00000000 </v>
   <v>       0.25000000       0.02777778       0.00000000 </v>
   <v>       0.29166667       0.02777778       0.00000000 </v>
   <v>       0.33333333       0.02777778       0.00000000 </v>
   <v>       0.37500000       0.02777778       0.00000000 </v>
   <v>       0.41666667       0.02777778       0.00000000 </v>
   <v>       0.45833333       0.02777778       0.00000000 </v>
   <v>       0.50000000       0.02777778       0.00000000 </v>
   <v>       0.00000000       0.05555556       0.00000000 </v>
   <v>       0.04166667       0.05555556       0.00000000 </v>
   <v>       0.08333333       0.05555556       0.00000000 </v>
   <v>       0.12500000       0.05555556       0.00000000 </v>
   <v>       0.16666667       0.05555556       0.00000000 </v>
   <v>       0.20833333       0.05555556       0.00000000 </v>
   <v>       0.25000000       0.05555556       0.00000000 </v>
   <v>       0.29166667       0.05555556       0.00000000 </v>
   <v>       0.33333333       0.05555556       0.00000000 </v>
   <v>       0.37500000       0.05555556       0.00000000 </v>
   <v>       0.41666667       0.05555556       0.00000000 </v>
   <v>       0.45833333       0.05555556       0.00000000 </v>
   <v>       0.50000000       0.05555556       0.00000000 </v>
   <v>       0.00000000       0.08333333       0.00000000 </v>
   <v>       0.04166667       0.08333333       0.00000000 </v>
   <v>       0.08333333       0.08333333       0.00000000 </v>
   <v>       0.12500000       0.08333333       0.00000000 </v>
   <v>       0.16666667       0.08333333       0.00000000 </v>
   <v>       0.20833333       0.08333333       0.00000000 </v>
   <v>       0.25000000       0.08333333       0.00000000 </v>
   <v>       0.29166667       0.08333333       0.00000000 </v>
   <v>       0.33333333       0.08333333       0.00000000 </v>
   <v>       0.37500000       0.08333333       0.00000000 </v>
   <v>       0.41666667       0.08333333       0.00000000 </v>
   <v>       0.45833333       0.08333333       0.00000000 </v>
   <v>       0.50000000       0.08333333       0.00000000 </v>
   <v>       0.00000000       0.11111111       0.00000000 </v>
   <v>       0.04166667       0.11111111       0.00000000 </v>
   <v>       0.08333333       0.11111111       0.00000000 </v>
   <v>       0.12500000       0.11111111       0.00000000 </v>
   <v>       0.16666667       0.11111111       0.00000000 </v>
   <v>       0.20833333       0.11111111       0.00000000 </v>
   <v>       0.25000000       0.11111111       0.00000000 </v>
   <v>       0.29166667       0.11111111       0.00000000 </v>
   <v>       0.33333333       0.11111111       0.00000000 </v>
   <v>       0.37500000       0.11111111       0.00000000 </v>
   <v>       0.41666667       0.11111111       0.00000000 </v>
   <v>       0.45833333       0.11111111       0.00000000 </v>
   <v>       0.50000000       0.11111111       0.00000000 </v>
   <v>       0.00000000       0.13888889       0.00000000 </v>
   <v>       0.04166667       0.13888889       0.00000000 </v>
   <v>       0.08333333       0.13888889       0.00000000 </v>
   <v>       0.12500000       0.13888889       0.00000000 </v>
   <v>       0.16666667       0.13888889       0.00000000 </v>
   <v>       0.20833333       0.13888889       0.00000000 </v>
   <v>       0.25000000       0.13888889       0.00000000 </v>
   <v>       0.29166667       0.13888889       0.00000000 </v>
   <v>       0.33333333       0.13888889       0.00000000 </v>
   <v>       0.37500000       0.13888889       0.00000000 </v>
   <v>       0.41666667       0.13888889       0.00000000 </v>
   <v>       0.45833333       0.13888889       0.00000000 </v>
   <v>       0.50000000       0.13888889       0.00000000 </v>
   <v>       0.00000000       0.16666667       0.00000000 </v>
   <v>       0.04166667       0.16666667       0.00000000 </v>
   <v>       0.08333333       0.16666667       0.00000000 </v>
   <v>       0.12500000       0.16666667       0.00000000 </v>
   <v>       0.16666667       0.16666667       0.00000000 </v>
   <v>       0.20833333       0.16666667       0.00000000 </v>
   <v>       0.25000000       0.16666667       0.00000000 </v>
   <v>       0.29166667       0.16666667       0.00000000 </v>
   <v>       0.33333333       0.16666667       0.00000000 </v>
   <v>       0.37500000       0.16666667       0.00000000 </v>
   <v>       0.41666667       0.16666667       0.00000000 </v>
   <v>       0.45833333       0.16666667       0.00000000 </v>
   <v>       0.50000000       0.16666667       0.00000000 </v>
   <v>       0.00000000       0.19444444       0.00000000 </v>
   <v>       0.04166667       0.19444444       0.00000000 </v>
   <v>       0.08333333       0.19444444       0.00000000 </v>
   <v>       0.12500000       0.19444444       0.00000000 </v>
   <v>       0.16666667       0.19444444       0.00000000 </v>
   <v>       0.20833333       0.19444444       0.00000000 </v>
   <v>       0.25000000       0.19444444       0.00000000 </v>
   <v>       0.29166667       0.19444444       0.00000000 </v>
   <v>       0.33333333       0.19444444       0.00000000 </v>
   <v>       0.37500000       0.19444444       0.00000000 </v>
   <v>       0.41666667       0.19444444       0.00000000 </v>
   <v>       0.45833333       0.19444444       0.00000000 </v>
   <v>       0.50000000       0.19444444       0.00000000 </v>
   <v>       0.00000000       0.22222222       0.00000000 </v>
   <v>       0.04166667       0.22222222       0.00000000 </v>
   <v>       0.08333333       0.22222222       0.00000000 </v>
   <v>       0.12500000       0.22222222       0.00000000 </v>
   <v>       0.16666667       0.22222222       0.00000000 </v>
   <v>       0.20833333       0.22222222       0.00000000 </v>
   <v>       0.25000000       0.22222222       0.00000000 </v>
   <v>       0.29166667       0.22222222       0.00000000 </v>
   <v>       0.33333333       0.22222222       0.00000000 </v>
   <v>       0.37500000       0.22222222       0.00000000 </v>
   <v>       0.41666667       0.22222222       0.00000000 </v>
   <v>       0.45833333       0.22222222       0.00000000 </v>
   <v>       0.50000000       0.22222222       0.00000000 </v>
   <v>       0.00000000       0.25000000       0.00000000 </v>
   <v>       0.04166667       0.25000000       0.00000000 </v>
   <v>       0.08333333       0.25000000       0.00000000 </v>
   <v>       0.12500000       0.25000000       0.00000000 </v>
   <v>       0.16666667       0.25000000       0.00000000 </v>
   <v>       0.20833333       0.25000000       0.00000000 </v>
   <v>       0.25000000       0.25000000       0.00000000 </v>
   <v>       0.29166667       0.25000000       0.00000000 </v>
   <v>       0.33333333       0.25000000       0.00000000 </v>
   <v>       0.37500000       0.25000000       0.00000000 </v>
   <v>       0.41666667       0.25000000       0.00000000 </v>
   <v>       0.45833333       0.25000000       0.00000000 </v>
   <v>       0.50000000       0.25000000       0.00000000 </v>
   <v>       0.00000000       0.27777778       0.00000000 </v>
   <v>       0.04166667       0.27777778       0.00000000 </v>
   <v>       0.08333333       0.27777778       0.00000000 </v>
   <v>       0.12500000       0.27777778       0.00000000 </v>
   <v>       0.16666667       0.27777778       0.00000000 </v>
   <v>       0.20833333       0.27777778       0.00000000 </v>
   <v>       0.25000000       0.27777778       0.00000000 </v>
   <v>       0.29166667       0.27777778       0.00000000 </v>
   <v>       0.33333333       0.27777778       0.00000000 </v>
   <v>       0.37500000       0.27777778       0.00000000 </v>
   <v>       0.41666667       0.27777778       0.00000000 </v>
   <v>       0.45833333       0.27777778       0.00000000 </v>
   <v>       0.50000000       0.27777778       0.00000000 </v>
   <v>       0.00000000       0.30555556       0.00000000 </v>
   <v>       0.04166667       0.30555556       0.00000000 </v>
   <v>       0.08333333       0.30555556       0.00000000 </v>
   <v>       0.12500000       0.30555556       0.00000000 </v>
   <v>       0.16666667       0.30555556       0.00000000 </v>
   <v>       0.20833333       0.30555556       0.00000000 </v>
   <v>       0.25000000       0.30555556       0.00000000 </v>
   <v>       0.29166667       0.30555556       0.00000000 </v>
   <v>       0.33333333       0.30555556       0.00000000 </v>
   <v>       0.37500000       0.30555556       0.00000000 </v>
   <v>       0.41666667       0.30555556       0.00000000 </v>
   <v>       0.45833333       0.30555556       0.00000000 </v>
   <v>       0.50000000       0.30555556       0.00000000 </v>
   <v>       0.00000000       0.33333333       0.00000000 </v>
   <v>       0.04166667       0.33333333       0.00000000 </v>
   <v>       0.08333333       0.33333333       0.00000000 </v>
   <v>       0.12500000       0.33333333       0.00000000 </v>
   <v>       0.16666667       0.33333333       0.00000000 </v>
   <v>       0.20833333       0.33333333       0.00000000 </v>
   <v>       0.25000000       0.33333333       0.00000000 </v>
   <v>       0.29166667       0.33333333       0.00000000 </v>
   <v>       0.33333333       0.33333333       0.00000000 </v>
   <v>       0.37500000       0.33333333       0.00000000 </v>
   <v>       0.41666667       0.33333333       0.00000000 </v>
   <v>       0.45833333       0.33333333       0.00000000 </v>
   <v>       0.50000000       0.33333333       0.00000000 </v>
   <v>       0.00000000       0.36111111       0.00000000 </v>
   <v>       0.04166667       0.36111111       0.00000000 </v>
   <v>       0.08333333       0.36111111       0.00000000 </v>
   <v>       0.12500000       0.36111111       0.00000000 </v>
   <v>       0.16666667       0.36111111       0.00000000 </v>
   <v>       0.20833333       0.36111111       0.00000000 </v>
   <v>       0.25000000       0.36111111       0.00000000 </v>
   <v>       0.29166667       0.36111111       0.00000000 </v>
   <v>       0.33333333       0.36111111       0.00000000 </v>
   <v>       0.37500000       0.36111111       0.00000000 </v>
   <v>       0.41666667       0.36111111       0.00000000 </v>
   <v>       0.45833333       0.36111111       0.00000000 </v>
   <v>       0.50000000       0.36111111       0.00000000 </v>
   <v>       0.00000000       0.38888889       0.00000000 </v>
   <v>       0.04166667       0.38888889       0.00000000 </v>
   <v>       0.08333333       0.38888889       0.00000000 </v>
   <v>       0.12500000       0.38888889       0.00000000 </v>
   <v>       0.16666667       0.38888889       0.00000000 </v>
   <v>       0.20833333       0.38888889       0.00000000 </v>
   <v>       0.25000000       0.38888889       0.00000000 </v>
   <v>       0.29166667       0.38888889       0.00000000 </v>
   <v>       0.33333333       0.38888889       0.00000000 </v>
   <v>       0.37500000       0.38888889       0.00000000 </v>
   <v>       0.41666667       0.38888889       0.00000000 </v>
   <v>       0.45833333       0.38888889       0.00000000 </v>
   <v>       0.50000000       0.38888889       0.00000000 </v>
   <v>       0.00000000       0.41666667       0.00000000 </v>
   <v>       0.04166667       0.41666667       0.00000000 </v>
   <v>       0.08333333       0.41666667       0.00000000 </v>
   <v>       0.12500000       0.41666667       0.00000000 </v>
   <v>       0.16666667       0.41666667       0.00000000 </v>
   <v>       0.20833333       0.41666667       0.00000000 </v>
   <v>       0.25000000       0.41666667       0.00000000 </v>
   <v>       0.29166667       0.41666667       0.00000000 </v>
   <v>       0.33333333       0.41666667       0.00000000 </v>
   <v>       0.37500000       0.41666667       0.00000000 </v>
   <v>       0.41666667       0.41666667       0.00000000 </v>
   <v>       0.45833333       0.41666667       0.00000000 </v>
   <v>       0.50000000       0.41666667       0.00000000 </v>
   <v>       0.00000000       0.44444444       0.00000000 </v>
   <v>       0.04166667       0.44444444       0.00000000 </v>
   <v>       0.08333333       0.44444444       0.00000000 </v>
   <v>       0.12500000       0.44444444       0.00000000 </v>
   <v>       0.16666667       0.44444444       0.00000000 </v>
   <v>       0.20833333       0.44444444       0.00000000 </v>
   <v>       0.25000000       0.44444444       0.00000000 </v>
   <v>       0.29166667       0.44444444       0.00000000 </v>
   <v>       0.33333333       0.44444444       0.00000000 </v>
   <v>       0.37500000       0.44444444       0.00000000 </v>
   <v>       0.41666667       0.44444444       0.00000000 </v>
   <v>       0.45833333       0.44444444       0.00000000 </v>
   <v>       0.50000000       0.44444444       0.00000000 </v>
   <v>       0.00000000       0.47222222       0.00000000 </v>
   <v>       0.04166667       0.47222222       0.00000000 </v>
   <v>       0.08333333       0.47222222       0.00000000 </v>
   <v>       0.12500000       0.47222222       0.00000000 </v>
   <v>       0.16666667       0.47222222       0.00000000 </v>
   <v>       0.20833333       0.47222222       0.00000000 </v>
   <v>       0.25000000       0.47222222       0.00000000 </v>
   <v>       0.29166667       0.47222222       0.00000000 </v>
   <v>       0.33333333       0.47222222       0.00000000 </v>
   <v>       0.37500000       0.47222222       0.00000000 </v>
   <v>       0.41666667       0.47222222       0.00000000 </v>
   <v>       0.45833333       0.47222222       0.00000000 </v>
   <v>       0.50000000       0.47222222       0.00000000 </v>
   <v>       0.00000000       0.50000000       0.00000000 </v>
   <v>       0.04166667       0.50000000       0.00000000 </v>
   <v>       0.08333333       0.50000000       0.00000000 </v>
   <v>       0.12500000       0.50000000       0.00000000 </v>
   <v>       0.16666667       0.50000000       0.00000000 </v>
   <v>       0.20833333       0.50000000       0.00000000 </v>
   <v>       0.25000000       0.50000000       0.00000000 </v>
   <v>       0.29166667       0.50000000       0.00000000 </v>
   <v>       0.33333333       0.50000000       0.00000000 </v>
   <v>       0.37500000       0.50000000       0.00000000 </v>
   <v>       0.41666667       0.50000000       0.00000000 </v>
   <v>       0.45833333       0.50000000       0.00000000 </v>
   <v>       0.50000000       0.50000000       0.00000000 </v>
  </varray>
  <varray name="weights" >
   <v>       0.00115741 </v>
   <v>       0.00231481 </v>
   <v>       0.00231481 </v>
   <v>       0.00231481 </v>
   <v>       0.00231481 </v>
   <v>       0.00231481 </v>
   <v>       0.00231481 </v>
   <v>       0.00231481 </v>
   <v>       0.00231481 </v>
   <v>       0.00231481 </v>
   <v>       0.00231481 </v>
   <v>       0.00231481 </v>
   <v>       0.00115741 </v>
   <v>       0.00231481 </v>
   <v>       0.00462963 </v>
   <v>       0.00462963 </v>
   <v>       0.00462963 </v>
   <v>       0.00462963 </v>
   <v>       0.00462963 </v>
   <v>       0.00462963 </v>
   <v>       0.00462963 </v>
   <v>       0.00462963 </v>
   <v>       0.00462963 </v>
   <v>       0.00462963 </v>
   <v>       0.00462963 </v>
   <v>       0.00231481 </v>
   <v>       0.00231481 </v>
   <v>       0.00462963 </v>
   <v>       0.00462963 </v>
   <v>       0.00462963 </v>
   <v>       0.00462963 </v>
   <v>       0.00462963 </v>
   <v>       0.00462963 </v>
   <v>       0.00462963 </v>
   <v>       0.00462963 </v>
   <v>       0.00462963 </v>
   <v>       0.00462963 </v>
   <v>       0.00462963 </v>
   <v>       0.00231481 </v>
   <v>       0.00231481 </v>
   <v>       0.00462963 </v>
   <v>       0.00462963 </v>
   <v>       0.00462963 </v>
   <v>       0.00462963 </v>
   <v>       0.00462963 </v>
   <v>       0.00462963 </v>
   <v>       0.00462963 </v>
   <v>       0.00462963 </v>
   <v>       0.00462963 </v>
   <v>       0.00462963 </v>
   <v>       0.00462963 </v>
   <v>       0.00231481 </v>
   <v>       0.00231481 </v>
   <v>       0.00462963 </v>
   <v>       0.00462963 </v>
   <v>       0.00462963 </v>
   <v>       0.00462963 </v>
   <v>       0.00462963 </v>
   <v>       0.00462963 </v>
   <v>       0.00462963 </v>
   <v>       0.00462963 </v>
   <v>       0.00462963 </v>
   <v>       0.00462963 </v>
   <v>       0.00462963 </v>
   <v>       0.00231481 </v>
   <v>       0.00231481 </v>
   <v>       0.00462963 </v>
   <v>       0.00462963 </v>
   <v>       0.00462963 </v>
   <v>       0.00462963 </v>
   <v>       0.00462963 </v>
   <v>       0.00462963 </v>
   <v>       0.00462963 </v>
   <v>       0.00462963 </v>
   <v>       0.00462963 </v>
   <v>       0.00462963 </v>
   <v>       0.00462963 </v>
   <v>       0.00231481 </v>
   <v>       0.00231481 </v>
   <v>       0.00462963 </v>
   <v>       0.00462963 </v>
   <v>       0.00462963 </v>
   <v>       0.00462963 </v>
   <v>       0.00462963 </v>
   <v>       0.00462963 </v>
   <v>       0.00462963 </v>
   <v>       0.00462963 </v>
   <v>       0.00462963 </v>
   <v>       0.00462963 </v>
   <v>       0.00462963 </v>
   <v>       0.00231481 </v>
   <v>       0.00231481 </v>
   <v>       0.00462963 </v>
   <v>       0.00462963 </v>
   <v>       0.00462963 </v>
   <v>       0.00462963 </v>
   <v>       0.00462963 </v>
   <v>       0.00462963 </v>
   <v>       0.00462963 </v>
   <v>       0.00462963 </v>
   <v>       0.00462963 </v>
   <v>       0.00462963 </v>
   <v>       0.00462963 </v>
   <v>       0.00231481 </v>
   <v>       0.00231481 </v>
   <v>       0.00462963 </v>
   <v>       0.00462963 </v>
   <v>       0.00462963 </v>
   <v>       0.00462963 </v>
   <v>       0.00462963 </v>
   <v>       0.00462963 </v>
   <v>       0.00462963 </v>
   <v>       0.00462963 </v>
   <v>       0.00462963 </v>
   <v>       0.00462963 </v>
   <v>       0.00462963 </v>
   <v>       0.00231481 </v>
   <v>       0.00231481 </v>
   <v>       0.00462963 </v>
   <v>       0.00462963 </v>
   <v>       0.00462963 </v>
   <v>       0.00462963 </v>
   <v>       0.00462963 </v>
   <v>       0.00462963 </v>
   <v>       0.00462963 </v>
   <v>       0.00462963 </v>
   <v>       0.00462963 </v>
   <v>       0.00462963 </v>
   <v>       0.00462963 </v>
   <v>       0.00231481 </v>
   <v>       0.00231481 </v>
   <v>       0.00462963 </v>
   <v>       0.00462963 </v>
   <v>       0.00462963 </v>
   <v>       0.00462963 </v>
   <v>       0.00462963 </v>
   <v>       0.00462963 </v>
   <v>       0.00462963 </v>
   <v>       0.00462963 </v>
   <v>       0.00462963 </v>
   <v>       0.00462963 </v>
   <v>       0.00462963 </v>
   <v>       0.00231481 </v>
   <v>       0.00231481 </v>
   <v>       0.00462963 </v>
   <v>       0.00462963 </v>
   <v>       0.00462963 </v>
   <v>       0.00462963 </v>
   <v>       0.00462963 </v>
   <v>       0.00462963 </v>
   <v>       0.00462963 </v>
   <v>       0.00462963 </v>
   <v>       0.00462963 </v>
   <v>       0.00462963 </v>
   <v>       0.00462963 </v>
   <v>       0.00231481 </v>
   <v>       0.00231481 </v>
   <v>       0.00462963 </v>
   <v>       0.00462963 </v>
   <v>       0.00462963 </v>
   <v>       0.00462963 </v>
   <v>       0.00462963 </v>
   <v>       0.00462963 </v>
   <v>       0.00462963 </v>
   <v>       0.00462963 </v>
   <v>       0.00462963 </v>
   <v>       0.00462963 </v>
   <v>       0.00462963 </v>
   <v>       0.00231481 </v>
   <v>       0.00231481 </v>
   <v>       0.00462963 </v>
   <v>       0.00462963 </v>
   <v>       0.00462963 </v>
   <v>       0.00462963 </v>
   <v>       0.00462963 </v>
   <v>       0.00462963 </v>
   <v>       0.00462963 </v>
   <v>       0.00462963 </v>
   <v>       0.00462963 </v>
   <v>       0.00462963 </v>
   <v>       0.00462963 </v>
   <v>       0.00231481 </v>
   <v>       0.00231481 </v>
   <v>       0.00462963 </v>
   <v>       0.00462963 </v>
   <v>       0.00462963 </v>
   <v>       0.00462963 </v>
   <v>       0.00462963 </v>
   <v>       0.00462963 </v>
   <v>       0.00462963 </v>
   <v>       0.00462963 </v>
   <v>       0.00462963 </v>
   <v>       0.00462963 </v>
   <v>       0.00462963 </v>
   <v>       0.00231481 </v>
   <v>       0.00231481 </v>
   <v>       0.00462963 </v>
   <v>       0.00462963 </v>
   <v>       0.00462963 </v>
   <v>       0.00462963 </v>
   <v>       0.00462963 </v>
   <v>       0.00462963 </v>
   <v>       0.00462963 </v>
   <v>       0.00462963 </v>
   <v>       0.00462963 </v>
   <v>       0.00462963 </v>
   <v>       0.00462963 </v>
   <v>       0.00231481 </v>
   <v>       0.00231481 </v>
   <v>       0.00462963 </v>
   <v>       0.00462963 </v>
   <v>       0.00462963 </v>
   <v>       0.00462963 </v>
   <v>       0.00462963 </v>
   <v>       0.00462963 </v>
   <v>       0.00462963 </v>
   <v>       0.00462963 </v>
   <v>       0.00462963 </v>
   <v>       0.00462963 </v>
   <v>       0.00462963 </v>
   <v>       0.00231481 </v>
   <v>       0.00231481 </v>
   <v>       0.00462963 </v>
   <v>       0.00462963 </v>
   <v>       0.00462963 </v>
   <v>       0.00462963 </v>
   <v>       0.00462963 </v>
   <v>       0.00462963 </v>
   <v>       0.00462963 </v>
   <v>       0.00462963 </v>
   <v>       0.00462963 </v>
   <v>       0.00462963 </v>
   <v>       0.00462963 </v>
   <v>       0.00231481 </v>
   <v>       0.00115741 </v>
   <v>       0.00231481 </v>
   <v>       0.00231481 </v>
   <v>       0.00231481 </v>
   <v>       0.00231481 </v>
   <v>       0.00231481 </v>
   <v>       0.00231481 </v>
   <v>       0.00231481 </v>
   <v>       0.00231481 </v>
   <v>       0.00231481 </v>
   <v>       0.00231481 </v>
   <v>       0.00231481 </v>
   <v>       0.00115741 </v>
  </varray>
 </kpoints>
 <parameters>
  <separator name="general" >
   <i type="string" name="SYSTEM">gr</i>
   <i type="logical" name="LCOMPAT"> F  </i>
  </separator>
  <separator name="electronic" >
   <i type="string" name="PREC">accura</i>
   <i name="ENMAX">   2000.00000000</i>
   <i name="ENAUG">    644.87300000</i>
   <i name="EDIFF">      0.00000000</i>
   <i type="int" name="IALGO">    68</i>
   <i type="int" name="IWAVPR">    11</i>
   <i type="int" name="NBANDS">    12</i>
   <i name="NELECT">     16.00000000</i>
   <i type="int" name="TURBO">     0</i>
   <i type="int" name="IRESTART">     0</i>
   <i type="int" name="NREBOOT">     0</i>
   <i type="int" name="NMIN">     0</i>
   <i name="EREF">      0.00000000</i>
   <separator name="electronic smearing" >
    <i type="int" name="ISMEAR">     0</i>
    <i name="SIGMA">      0.05000000</i>
    <i name="KSPACING">      0.50000000</i>
    <i type="logical" name="KGAMMA"> T  </i>
   </separator>
   <separator name="electronic projectors" >
    <i type="logical" name="LREAL"> F  </i>
    <v name="ROPT">      0.00000000</v>
    <i type="int" name="LMAXPAW">  -100</i>
    <i type="int" name="LMAXMIX">     2</i>
    <i type="logical" name="NLSPLINE"> F  </i>
   </separator>
   <separator name="electronic startup" >
    <i type="int" name="ISTART">     0</i>
    <i type="int" name="ICHARG">     2</i>
    <i type="int" name="INIWAV">     1</i>
   </separator>
   <separator name="electronic spin" >
    <i type="int" name="ISPIN">     1</i>
    <i type="logical" name="LNONCOLLINEAR"> F  </i>
    <v name="MAGMOM">      1.00000000      1.00000000      1.00000000      1.00000000</v>
    <i name="NUPDOWN">     -1.00000000</i>
    <i type="logical" name="LSORBIT"> F  </i>
    <v name="SAXIS">      0.00000000      0.00000000      1.00000000</v>
    <i type="logical" name="LSPIRAL"> F  </i>
    <v name="QSPIRAL">      0.00000000      0.00000000      0.00000000</v>
    <i type="logical" name="LZEROZ"> F  </i>
   </separator>
   <separator name="electronic exchange-correlation" >
    <i type="logical" name="LASPH"> F  </i>
    <i type="logical" name="LMETAGGA"> F  </i>
   </separator>
   <separator name="electronic convergence" >
    <i type="int" name="NELM">   100</i>
    <i type="int" name="NELMDL">    -3</i>
    <i type="int" name="NELMIN">     5</i>
    <i name="ENINI">   2000.00000000</i>
    <separator name="electronic convergence detail" >
     <i type="logical" name="LDIAG"> T  </i>
     <i type="logical" name="LSUBROT"> F  </i>
     <i name="WEIMIN">      0.00100000</i>
     <i name="EBREAK">      0.00000000</i>
     <i name="DEPER">      0.30000000</i>
     <i type="int" name="NRMM">     4</i>
     <i name="TIME">      0.40000000</i>
    </separator>
   </separator>
   <separator name="electronic mixer" >
    <i name="AMIX">      0.40000000</i>
    <i name="BMIX">      1.00000000</i>
    <i name="AMIN">      0.10000000</i>
    <i name="AMIX_MAG">      1.60000000</i>
    <i name="BMIX_MAG">      1.00000000</i>
    <separator name="electronic mixer details" >
     <i type="int" name="IMIX">     4</i>
     <i type="int" name="MAXMIX">   -45</i>
     <i name="WC">    100.00000000</i>
     <i type="int" name="INIMIX">     1</i>
     <i type="int" name="MIXPRE">     1</i>
     <i type="int" name="MREMOVE">     5</i>
    </separator>
   </separator>
   <separator name="electronic dipolcorrection" >
    <i type="logical" name="LDIPOL"> F  </i>
    <i type="logical" name="LMONO"> F  </i>
    <i type="int" name="IDIPOL">     0</i>
    <i name="EPSILON">      1.00000000</i>
    <v name="DIPOL">   -100.00000000   -100.00000000   -100.00000000</v>
    <i name="EFIELD">      0.00000000</i>
   </separator>
  </separator>
  <separator name="grids" >
   <i type="int" name="NGX">    64</i>
   <i type="int" name="NGY">    36</i>
   <i type="int" name="NGZ">   294</i>
   <i type="int" name="NGXF">   128</i>
   <i type="int" name="NGYF">    72</i>
   <i type="int" name="NGZF">   588</i>
   <i type="logical" name="ADDGRID"> F  </i>
  </separator>
  <separator name="ionic" >
   <i type="int" name="NSW">   400</i>
   <i type="int" name="IBRION">     1</i>
   <i type="int" name="ISIF">     2</i>
   <i name="PSTRESS">      0.00000000</i>
   <i name="EDIFFG">     -0.00000100</i>
   <i type="int" name="NFREE">     0</i>
   <i name="POTIM">      0.50000000</i>
   <i name="SMASS">     -3.00000000</i>
   <i name="SCALEE">      1.00000000</i>
  </separator>
  <separator name="ionic md" >
   <i name="TEBEG">      0.00010000</i>
   <i name="TEEND">      0.00010000</i>
   <i type="int" name="NBLOCK">     1</i>
   <i type="int" name="KBLOCK">   400</i>
   <i type="int" name="NPACO">   256</i>
   <i name="APACO">     16.00000000</i>
  </separator>
  <separator name="symmetry" >
   <i type="int" name="ISYM">     2</i>
   <i name="SYMPREC">      0.00001000</i>
  </separator>
  <separator name="dos" >
   <i type="logical" name="LORBIT"> F  </i>
   <v name="RWIGS">     -1.00000000</v>
   <i type="int" name="NEDOS">   301</i>
   <i name="EMIN">     10.00000000</i>
   <i name="EMAX">    -10.00000000</i>
   <i name="EFERMI">      0.00000000</i>
  </separator>
  <separator name="writing" >
   <i type="int" name="NWRITE">     2</i>
   <i type="logical" name="LWAVE"> F  </i>
   <i type="logical" name="LCHARG"> F  </i>
   <i type="logical" name="LPARD"> F  </i>
   <i type="logical" name="LVTOT"> F  </i>
   <i type="logical" name="LVHAR"> F  </i>
   <i type="logical" name="LELF"> F  </i>
   <i type="logical" name="LOPTICS"> F  </i>
   <v name="STM">      0.00000000      0.00000000      0.00000000      0.00000000      0.00000000      0.00000000      0.00000000</v>
  </separator>
  <separator name="performance" >
   <i type="int" name="NPAR">     4</i>
   <i type="int" name="NSIM">     4</i>
   <i type="int" name="NBLK">    -1</i>
   <i type="logical" name="LPLANE"> T  </i>
   <i type="logical" name="LSCALAPACK"> F  </i>
   <i type="logical" name="LSCAAWARE"> F  </i>
   <i type="logical" name="LSCALU"> F  </i>
   <i type="logical" name="LASYNC"> F  </i>
   <i type="logical" name="LORBITALREAL"> F  </i>
  </separator>
  <separator name="miscellaneous" >
   <i type="int" name="IDIOT">     3</i>
   <i type="logical" name="LMUSIC"> F  </i>
   <v name="POMASS">     12.01100000</v>
   <v name="DARWINR">      0.00000000</v>
   <v name="DARWINV">      1.00000000</v>
   <i type="logical" name="LCORR"> T  </i>
  </separator>
  <i type="logical" name="GGA_COMPAT"> T  </i>
  <i type="logical" name="LBERRY"> F  </i>
  <i type="int" name="ICORELEVEL">     0</i>
  <i type="logical" name="LDAU"> F  </i>
  <i type="int" name="I_CONSTRAINED_M">     0</i>
  <separator name="electronic exchange-correlation" >
   <i type="string" name="GGA">--</i>
   <i type="int" name="VOSKOWN">     0</i>
   <i type="logical" name="LHFCALC"> F  </i>
   <i type="string" name="PRECFOCK"></i>
   <i type="logical" name="LSYMGRAD"> F  </i>
   <i type="logical" name="LHFONE"> F  </i>
   <i type="logical" name="LRHFCALC"> F  </i>
   <i type="logical" name="LTHOMAS"> F  </i>
   <i type="logical" name="LMODELHF"> F  </i>
   <i name="ENCUT4O">     -1.00000000</i>
   <i type="int" name="EXXOEP">     0</i>
   <i type="int" name="FOURORBIT">     0</i>
   <i name="AEXX">      0.00000000</i>
   <i name="HFALPHA">      0.00000000</i>
   <i name="MCALPHA">      0.00000000</i>
   <i name="ALDAX">      1.00000000</i>
   <i name="AGGAX">      1.00000000</i>
   <i name="ALDAC">      1.00000000</i>
   <i name="AGGAC">      1.00000000</i>
   <i type="int" name="NKREDX">     1</i>
   <i type="int" name="NKREDY">     1</i>
   <i type="int" name="NKREDZ">     1</i>
   <i type="logical" name="SHIFTRED"> F  </i>
   <i type="logical" name="ODDONLY"> F  </i>
   <i type="logical" name="EVENONLY"> F  </i>
   <i type="int" name="LMAXFOCK">     0</i>
   <i type="int" name="NMAXFOCKAE">     0</i>
   <i type="logical" name="LFOCKAEDFT"> F  </i>
   <i name="HFSCREEN">      0.00000000</i>
   <i name="HFSCREENC">      0.00000000</i>
   <i type="int" name="NBANDSGWLOW">     0</i>
  </separator>
  <separator name="vdW DFT" >
   <i type="logical" name="LUSE_VDW"> F  </i>
   <i name="Zab_VDW">     -0.84910000</i>
   <i name="PARAM1">      0.12340000</i>
   <i name="PARAM2">      1.00000000</i>
   <i name="PARAM3">      0.00000000</i>
  </separator>
  <separator name="model GW" >
   <i type="int" name="MODEL_GW">     0</i>
   <i name="MODEL_EPS0">     31.62568521</i>
   <i name="MODEL_ALPHA">      1.00000000</i>
  </separator>
  <separator name="linear response parameters" >
   <i type="logical" name="LEPSILON"> F  </i>
   <i type="logical" name="LRPA"> F  </i>
   <i type="logical" name="LNABLA"> F  </i>
   <i type="logical" name="LVEL"> F  </i>
   <i type="int" name="KINTER">     0</i>
   <i name="CSHIFT">      0.10000000</i>
   <i name="OMEGAMAX">     -1.00000000</i>
   <i name="DEG_THRESHOLD">      0.00200000</i>
  </separator>
  <separator name="orbital magnetization" >
   <i type="logical" name="NUCIND"> F  </i>
   <v name="MAGPOS">      0.00000000      0.00000000      0.00000000</v>
   <i type="logical" name="LNICSALL"> T  </i>
   <i type="logical" name="ORBITALMAG"> F  </i>
   <i type="logical" name="LMAGBLOCH"> F  </i>
   <i type="logical" name="LCHIMAG"> F  </i>
   <i type="logical" name="LGAUGE"> T  </i>
   <i type="int" name="MAGATOM">     0</i>
   <v name="MAGDIPOL">      0.00000000      0.00000000      0.00000000</v>
   <v name="AVECCONST">      0.00000000      0.00000000      0.00000000</v>
  </separator>
  <separator name="response functions" >
   <i type="logical" name="LADDER"> F  </i>
   <i type="logical" name="LFXC"> F  </i>
   <i type="logical" name="LHARTREE"> T  </i>
   <i type="int" name="IBSE">     0</i>
   <i type="logical" name="LTCTE"> F  </i>
   <i type="logical" name="LTETE"> F  </i>
   <i type="logical" name="LTRIPLET"> F  </i>
   <i type="logical" name="LFXCEPS"> F  </i>
   <i type="logical" name="LFXHEG"> F  </i>
   <i type="logical" name="L2ORDER"> F  </i>
   <i type="logical" name="LUSEW"> F  </i>
   <i name="ENCUTGW">     -2.00000000</i>
   <i name="ENCUTGWSOFT">     -2.00000000</i>
   <i name="ENCUTLF">     -1.00000000</i>
   <i type="int" name="LMAXMP2">    -1</i>
   <i name="SCISSOR">      0.00000000</i>
   <i type="int" name="NOMEGA">     0</i>
   <i type="int" name="NOMEGAR">     0</i>
   <i type="int" name="NBANDSGW">    -1</i>
   <i type="int" name="NBANDSO">    -1</i>
   <i type="int" name="NBANDSV">    -1</i>
   <i type="int" name="NELM">   100</i>
   <i type="int" name="DIM">     3</i>
   <i type="int" name="ANTIRES">     0</i>
   <i name="OMEGAMAX">    -30.00000000</i>
   <i name="OMEGAMIN">    -30.00000000</i>
   <i name="OMEGATL">   -200.00000000</i>
   <i type="int" name="OMEGAGRID">     0</i>
   <i name="CSHIFT">     -0.10000000</i>
   <i type="logical" name="SELFENERGY"> F  </i>
   <i type="logical" name="LSPECTRAL"> F  </i>
   <i type="logical" name="ODDONLYGW"> F  </i>
   <i type="logical" name="EVENONLYGW"> F  </i>
   <i type="int" name="NKREDLFX">     1</i>
   <i type="int" name="NKREDLFY">     1</i>
   <i type="int" name="NKREDLFZ">     1</i>
   <i type="int" name="MAXMEM">  1800</i>
   <i type="int" name="TELESCOPE">     0</i>
   <i type="int" name="TAUPAR">     1</i>
  </separator>
  <separator name="External order field" >
   <i name="OFIELD_KAPPA">      0.00000000</i>
   <v name="OFIELD_K">      0.00000000      0.00000000      0.00000000</v>
   <i name="OFIELD_Q6_NEAR">      0.00000000</i>
   <i name="OFIELD_Q6_FAR">      0.00000000</i>
   <i name="OFIELD_A">      0.00000000</i>
  </separator>
 </parameters>
 <atominfo>
  <atoms>       4 </atoms>
  <types>       1 </types>
  <array name="atoms" >
   <dimension dim="1">ion</dimension>
   <field type="string">element</field>
   <field type="int">atomtype</field>
   <set>
    <rc><c>C </c><c>   1</c></rc>
    <rc><c>C </c><c>   1</c></rc>
    <rc><c>C </c><c>   1</c></rc>
    <rc><c>C </c><c>   1</c></rc>
   </set>
  </array>
  <array name="atomtypes" >
   <dimension dim="1">type</dimension>
   <field type="int">atomspertype</field>
   <field type="string">element</field>
   <field>mass</field>
   <field>valence</field>
   <field type="string">pseudopotential</field>
   <set>
    <rc><c>   4</c><c>C </c><c>     12.01100000</c><c>      4.00000000</c><c> PAW_PBE C 08Apr2002                    </c></rc>
   </set>
  </array>
 </atominfo>
 <structure name="initialpos" >
  <crystal>
   <varray name="basis" >
    <v>       4.26955718       0.00000000       0.00000000 </v>
    <v>       0.00000000       2.47914289       0.00000000 </v>
    <v>       0.00000000       0.00000000      19.91885139 </v>
   </varray>
   <i name="volume">    210.83790140 </i>
   <varray name="rec_basis" >
    <v>       0.23421633       0.00000000       0.00000000 </v>
    <v>       0.00000000       0.40336521       0.00000000 </v>
    <v>       0.00000000       0.00000000       0.05020370 </v>
   </varray>
  </crystal>
  <varray name="positions" >
   <v>       0.00013158       0.00000000       0.00000000 </v>
   <v>       0.16653509       0.50000000       0.00000000 </v>
   <v>       0.50013158       0.50000000       0.00000000 </v>
   <v>       0.66653509       0.00000000       0.00000000 </v>
  </varray>
 </structure>
 <calculation>
  <scstep>
   <time name="dav">  295.59  298.94</time>
   <time name="total">  298.08  301.57</time>
   <energy>
    <i name="alphaZ">      6.18334092 </i>
    <i name="ewald">   2559.39234573 </i>
    <i name="hartreedc">  -2985.59408923 </i>
    <i name="XCdc">     55.04226604 </i>
    <i name="pawpsdc">    151.32577238 </i>
    <i name="pawaedc">   -155.92769107 </i>
    <i name="eentropy">     -0.00150319 </i>
    <i name="bandstr">    -31.08056379 </i>
    <i name="atom">    588.62352690 </i>
    <i name="e_fr_energy">    187.96340470 </i>
    <i name="e_wo_entrp">    187.96490789 </i>
    <i name="e_0_energy">    187.96415629 </i>
   </energy>
  </scstep>
  <scstep>
   <time name="dav">  451.70  455.02</time>
   <time name="total">  451.71  455.03</time>
   <energy>
    <i name="e_fr_energy">     -9.36627665 </i>
    <i name="e_wo_entrp">     -9.36590832 </i>
    <i name="e_0_energy">     -9.36609249 </i>
   </energy>
  </scstep>
  <scstep>
   <time name="dav">  346.28  348.52</time>
   <time name="total">  375.55  378.21</time>
   <energy>
    <i name="e_fr_energy">    -38.34418933 </i>
    <i name="e_wo_entrp">    -38.34418869 </i>
    <i name="e_0_energy">    -38.34418901 </i>
   </energy>
  </scstep>
  <scstep>
   <time name="diag">   78.87   79.71</time>
   <time name="diis">  327.32  330.72</time>
   <time name="orth">    3.07    3.10</time>
   <time name="total">  440.70  445.50</time>
   <energy>
    <i name="e_fr_energy">    -37.69398218 </i>
    <i name="e_wo_entrp">    -37.69389769 </i>
    <i name="e_0_energy">    -37.69393993 </i>
   </energy>
  </scstep>
  <scstep>
   <time name="diag">   79.16   79.81</time>
   <time name="diis">  328.35  330.61</time>
   <time name="orth">    3.08    3.11</time>
   <time name="total">  441.88  445.20</time>
   <energy>
    <i name="e_fr_energy">    -36.93398064 </i>
    <i name="e_wo_entrp">    -36.93388724 </i>
    <i name="e_0_energy">    -36.93393394 </i>
   </energy>
  </scstep>
  <scstep>
   <time name="diag">   79.87   79.91</time>
   <time name="diis">  360.43  360.92</time>
   <time name="orth">    3.08    3.10</time>
   <time name="total">  474.56  475.33</time>
   <energy>
    <i name="e_fr_energy">    -36.93531481 </i>
    <i name="e_wo_entrp">    -36.93522173 </i>
    <i name="e_0_energy">    -36.93526827 </i>
   </energy>
  </scstep>
  <scstep>
   <time name="diag">   79.45   79.87</time>
   <time name="diis">  328.40  329.97</time>
   <time name="orth">    3.10    3.10</time>
   <time name="total">  442.43  444.44</time>
   <energy>
    <i name="e_fr_energy">    -36.92591914 </i>
    <i name="e_wo_entrp">    -36.92582742 </i>
    <i name="e_0_energy">    -36.92587328 </i>
   </energy>
  </scstep>
  <scstep>
   <time name="diag">   79.81   79.82</time>
   <time name="diis">  331.16  331.29</time>
   <time name="orth">    3.10    3.10</time>
   <time name="total">  445.70  445.87</time>
   <energy>
    <i name="e_fr_energy">    -36.92002410 </i>
    <i name="e_wo_entrp">    -36.91993206 </i>
    <i name="e_0_energy">    -36.91997808 </i>
   </energy>
  </scstep>
  <scstep>
   <time name="diag">   79.68   79.74</time>
   <time name="diis">  321.74  322.03</time>
   <time name="orth">    3.08    3.08</time>
   <time name="total">  435.95  436.38</time>
   <energy>
    <i name="e_fr_energy">    -36.91971580 </i>
    <i name="e_wo_entrp">    -36.91962314 </i>
    <i name="e_0_energy">    -36.91966947 </i>
   </energy>
  </scstep>
  <scstep>
   <time name="diag">   79.79   79.84</time>
   <time name="diis">  322.43  322.71</time>
   <time name="orth">    3.10    3.10</time>
   <time name="total">  436.88  437.30</time>
   <energy>
    <i name="e_fr_energy">    -36.91954665 </i>
    <i name="e_wo_entrp">    -36.91945438 </i>
    <i name="e_0_energy">    -36.91950051 </i>
   </energy>
  </scstep>
  <scstep>
   <time name="diag">   79.69   79.72</time>
   <time name="diis">  324.58  324.67</time>
   <time name="orth">    3.08    3.08</time>
   <time name="total">  438.59  438.88</time>
   <energy>
    <i name="e_fr_energy">    -36.92210605 </i>
    <i name="e_wo_entrp">    -36.92201395 </i>
    <i name="e_0_energy">    -36.92206000 </i>
   </energy>
  </scstep>
  <scstep>
   <time name="diag">   79.76   79.78</time>
   <time name="diis">  323.38  323.47</time>
   <time name="orth">    3.10    3.10</time>
   <time name="total">  437.95  438.09</time>
   <energy>
    <i name="e_fr_energy">    -36.92254676 </i>
    <i name="e_wo_entrp">    -36.92245449 </i>
    <i name="e_0_energy">    -36.92250062 </i>
   </energy>
  </scstep>
  <scstep>
   <time name="diag">   79.73   79.75</time>
   <time name="diis">  328.53  328.61</time>
   <time name="orth">    3.09    3.09</time>
   <time name="total">  442.99  443.11</time>
   <energy>
    <i name="e_fr_energy">    -36.92280612 </i>
    <i name="e_wo_entrp">    -36.92271382 </i>
    <i name="e_0_energy">    -36.92275997 </i>
   </energy>
  </scstep>
  <scstep>
   <time name="diag">   79.74   79.78</time>
   <time name="diis">  324.55  324.75</time>
   <time name="orth">    3.08    3.08</time>
   <time name="total">  438.79  439.09</time>
   <energy>
    <i name="e_fr_energy">    -36.92289181 </i>
    <i name="e_wo_entrp">    -36.92279957 </i>
    <i name="e_0_energy">    -36.92284569 </i>
   </energy>
  </scstep>
  <scstep>
   <time name="diag">   79.69   79.72</time>
   <time name="diis">  328.53  328.64</time>
   <time name="orth">    3.09    3.10</time>
   <time name="total">  442.90  443.06</time>
   <energy>
    <i name="e_fr_energy">    -36.92290000 </i>
    <i name="e_wo_entrp">    -36.92280774 </i>
    <i name="e_0_energy">    -36.92285387 </i>
   </energy>
  </scstep>
  <scstep>
   <time name="diag">   79.68   79.71</time>
   <time name="diis">  329.05  329.22</time>
   <time name="orth">    3.09    3.09</time>
   <time name="total">  443.77  444.00</time>
   <energy>
    <i name="e_fr_energy">    -36.92291177 </i>
    <i name="e_wo_entrp">    -36.92281948 </i>
    <i name="e_0_energy">    -36.92286563 </i>
   </energy>
  </scstep>
  <scstep>
   <time name="diag">   79.70   79.74</time>
   <time name="diis">  333.11  333.21</time>
   <time name="orth">    3.08    3.08</time>
   <time name="total">  447.37  447.58</time>
   <energy>
    <i name="e_fr_energy">    -36.92291562 </i>
    <i name="e_wo_entrp">    -36.92282336 </i>
    <i name="e_0_energy">    -36.92286949 </i>
   </energy>
  </scstep>
  <scstep>
   <time name="diag">   79.41   79.73</time>
   <time name="diis">  321.37  322.09</time>
   <time name="orth">    3.09    3.09</time>
   <time name="total">  435.74  436.81</time>
   <energy>
    <i name="e_fr_energy">    -36.92291726 </i>
    <i name="e_wo_entrp">    -36.92282500 </i>
    <i name="e_0_energy">    -36.92287113 </i>
   </energy>
  </scstep>
  <scstep>
   <time name="diag">   79.81   79.84</time>
   <time name="diis">  333.76  333.91</time>
   <time name="orth">    3.07    3.08</time>
   <time name="total">  448.39  448.58</time>
   <energy>
    <i name="e_fr_energy">    -36.92291783 </i>
    <i name="e_wo_entrp">    -36.92282556 </i>
    <i name="e_0_energy">    -36.92287170 </i>
   </energy>
  </scstep>
  <scstep>
   <time name="diag">   79.87   79.90</time>
   <time name="diis">  252.01  252.25</time>
   <time name="orth">    3.10    3.11</time>
   <time name="total">  367.10  367.51</time>
   <energy>
    <i name="e_fr_energy">    -36.92291788 </i>
    <i name="e_wo_entrp">    -36.92282561 </i>
    <i name="e_0_energy">    -36.92287175 </i>
   </energy>
  </scstep>
  <scstep>
   <time name="diag">   79.88   79.91</time>
   <time name="diis">  250.98  252.25</time>
   <time name="orth">    3.07    3.08</time>
   <time name="total">  365.56  367.02</time>
   <energy>
    <i name="e_fr_energy">    -36.92291790 </i>
    <i name="e_wo_entrp">    -36.92282564 </i>
    <i name="e_0_energy">    -36.92287177 </i>
   </energy>
  </scstep>
  <scstep>
   <time name="diag">   79.45   79.84</time>
   <time name="diis">  222.54  222.90</time>
   <time name="orth">    3.09    3.10</time>
   <time name="total">  336.87  337.69</time>
   <energy>
    <i name="e_fr_energy">    -36.92291790 </i>
    <i name="e_wo_entrp">    -36.92282564 </i>
    <i name="e_0_energy">    -36.92287177 </i>
   </energy>
  </scstep>
  <scstep>
   <time name="diag">   79.83   79.85</time>
   <time name="diis">  212.53  212.59</time>
   <time name="orth">    3.08    3.08</time>
   <time name="total">  327.06  327.20</time>
   <energy>
    <i name="e_fr_energy">    -36.92291790 </i>
    <i name="e_wo_entrp">    -36.92282564 </i>
    <i name="e_0_energy">    -36.92287177 </i>
   </energy>
  </scstep>
  <scstep>
   <time name="diag">   79.82   79.87</time>
   <time name="diis">  200.73  200.80</time>
   <time name="orth">    3.07    3.07</time>
   <time name="total">  286.00  286.15</time>
   <energy>
    <i name="alphaZ">      6.18334092 </i>
    <i name="ewald">   2559.39234573 </i>
    <i name="hartreedc">  -3053.40590334 </i>
    <i name="XCdc">     57.44745302 </i>
    <i name="pawpsdc">    275.42823078 </i>
    <i name="pawaedc">   -280.56957522 </i>
    <i name="eentropy">     -0.00009227 </i>
    <i name="bandstr">   -190.02224444 </i>
    <i name="atom">    588.62352690 </i>
    <i name="e_fr_energy">    -36.92291790 </i>
    <i name="e_wo_entrp">    -36.92282564 </i>
    <i name="e_0_energy">    -36.92287177 </i>
   </energy>
  </scstep>
  <structure>
   <crystal>
    <varray name="basis" >
     <v>       4.26955718       0.00000000       0.00000000 </v>
     <v>       0.00000000       2.47914289       0.00000000 </v>
     <v>       0.00000000       0.00000000      19.91885139 </v>
    </varray>
    <i name="volume">    210.83790140 </i>
    <varray name="rec_basis" >
     <v>       0.23421633       0.00000000       0.00000000 </v>
     <v>       0.00000000       0.40336521       0.00000000 </v>
     <v>       0.00000000       0.00000000       0.05020370 </v>
    </varray>
   </crystal>
   <varray name="positions" >
    <v>       0.00013158       0.00000000       0.00000000 </v>
    <v>       0.16653509       0.50000000       0.00000000 </v>
    <v>       0.50013158       0.50000000       0.00000000 </v>
    <v>       0.66653509       0.00000000       0.00000000 </v>
   </varray>
  </structure>
  <varray name="forces" >
   <v>      -0.00292952      -0.00000000       0.00000000 </v>
   <v>       0.00292952       0.00000000       0.00000000 </v>
   <v>      -0.00292952       0.00000000       0.00000000 </v>
   <v>       0.00292952      -0.00000000       0.00000000 </v>
  </varray>
  <varray name="stress" >
   <v>      -0.01881652       0.00000000       0.00000000 </v>
   <v>       0.00000000      -8.08385368       0.00000000 </v>
   <v>       0.00000000       0.00000000      -0.01006864 </v>
  </varray>
  <energy>
   <i name="e_fr_energy">    -36.92291790 </i>
   <i name="e_wo_entrp">    -36.92287177 </i>
   <i name="e_0_energy">     -0.00009227 </i>
  </energy>
  <time name="totalsc">10002.6310029.91</time>
 </calculation>
 <calculation>
  <scstep>
   <time name="dav">  308.38  308.53</time>
   <time name="total">  340.08  345.33</time>
   <energy>
    <i name="alphaZ">      6.18334092 </i>
    <i name="ewald">   2559.39295246 </i>
    <i name="hartreedc">  -3053.40616778 </i>
    <i name="XCdc">     57.44747029 </i>
    <i name="pawpsdc">    275.42823588 </i>
    <i name="pawaedc">   -280.56958041 </i>
    <i name="eentropy">     -0.00008778 </i>
    <i name="bandstr">   -190.02260588 </i>
    <i name="atom">    588.62352690 </i>
    <i name="e_fr_energy">    -36.92291540 </i>
    <i name="e_wo_entrp">    -36.92282762 </i>
    <i name="e_0_energy">    -36.92287151 </i>
   </energy>
  </scstep>
  <scstep>
   <time name="diag">   79.80   79.86</time>
   <time name="diis">  322.29  322.39</time>
   <time name="orth">    3.09    3.09</time>
   <time name="total">  436.78  436.94</time>
   <energy>
    <i name="e_fr_energy">    -36.92291552 </i>
    <i name="e_wo_entrp">    -36.92282759 </i>
    <i name="e_0_energy">    -36.92287155 </i>
   </energy>
  </scstep>
  <scstep>
   <time name="diag">   79.69   79.74</time>
   <time name="diis">  325.83  326.06</time>
   <time name="orth">    3.08    3.08</time>
   <time name="total">  440.34  440.66</time>
   <energy>
    <i name="e_fr_energy">    -36.92291542 </i>
    <i name="e_wo_entrp">    -36.92282721 </i>
    <i name="e_0_energy">    -36.92287131 </i>
   </energy>
  </scstep>
  <scstep>
   <time name="diag">   79.15   79.79</time>
   <time name="diis">  331.94  333.73</time>
   <time name="orth">    3.08    3.11</time>
   <time name="total">  446.02  448.69</time>
   <energy>
    <i name="e_fr_energy">    -36.92291540 </i>
    <i name="e_wo_entrp">    -36.92282726 </i>
    <i name="e_0_energy">    -36.92287133 </i>
   </energy>
  </scstep>
  <scstep>
   <time name="diag">   79.23   79.82</time>
   <time name="diis">  330.88  333.65</time>
   <time name="orth">    3.08    3.09</time>
   <time name="total">  444.83  448.44</time>
   <energy>
    <i name="e_fr_energy">    -36.92291540 </i>
    <i name="e_wo_entrp">    -36.92282727 </i>
    <i name="e_0_energy">    -36.92287134 </i>
   </energy>
  </scstep>
  <scstep>
   <time name="diag">   79.10   79.87</time>
   <time name="diis">  283.18  284.87</time>
   <time name="orth">    3.09    3.09</time>
   <time name="total">  397.16  399.95</time>
   <energy>
    <i name="e_fr_energy">    -36.92291540 </i>
    <i name="e_wo_entrp">    -36.92282726 </i>
    <i name="e_0_energy">    -36.92287133 </i>
   </energy>
  </scstep>
  <scstep>
   <time name="diag">   79.61   79.74</time>
   <time name="diis">  214.51  215.89</time>
   <time name="orth">    3.07    3.09</time>
   <time name="total">  328.69  330.41</time>
   <energy>
    <i name="e_fr_energy">    -36.92291540 </i>
    <i name="e_wo_entrp">    -36.92282726 </i>
    <i name="e_0_energy">    -36.92287133 </i>
   </energy>
  </scstep>
  <scstep>
   <time name="diag">   79.36   79.79</time>
   <time name="diis">  203.34  203.66</time>
   <time name="orth">    3.07    3.08</time>
   <time name="total">  317.68  318.48</time>
   <energy>
    <i name="e_fr_energy">    -36.92291540 </i>
    <i name="e_wo_entrp">    -36.92282726 </i>
    <i name="e_0_energy">    -36.92287133 </i>
   </energy>
  </scstep>
  <scstep>
   <time name="diag">   79.70   79.77</time>
   <time name="diis">  193.20  193.82</time>
   <time name="orth">    3.08    3.09</time>
   <time name="total">  307.43  308.36</time>
   <energy>
    <i name="e_fr_energy">    -36.92291540 </i>
    <i name="e_wo_entrp">    -36.92282726 </i>
    <i name="e_0_energy">    -36.92287133 </i>
   </energy>
  </scstep>
  <scstep>
   <time name="diag">   79.64   79.74</time>
   <time name="diis">  186.20  186.39</time>
   <time name="orth">    3.08    3.08</time>
   <time name="total">  300.35  300.70</time>
   <energy>
    <i name="e_fr_energy">    -36.92291540 </i>
    <i name="e_wo_entrp">    -36.92282726 </i>
    <i name="e_0_energy">    -36.92287133 </i>
   </energy>
  </scstep>
  <scstep>
   <time name="diag">   79.72   79.77</time>
   <time name="diis">  180.81  181.46</time>
   <time name="orth">    3.08    3.08</time>
   <time name="total">  295.61  296.48</time>
   <energy>
    <i name="e_fr_energy">    -36.92291540 </i>
    <i name="e_wo_entrp">    -36.92282726 </i>
    <i name="e_0_energy">    -36.92287133 </i>
   </energy>
  </scstep>
  <scstep>
   <time name="diag">   79.40   79.80</time>
   <time name="diis">  172.85  173.24</time>
   <time name="orth">    3.10    3.10</time>
   <time name="total">  287.00  287.86</time>
   <energy>
    <i name="e_fr_energy">    -36.92291540 </i>
    <i name="e_wo_entrp">    -36.92282726 </i>
    <i name="e_0_energy">    -36.92287133 </i>
   </energy>
  </scstep>
  <scstep>
   <time name="diag">   78.88   79.63</time>
   <time name="diis">  173.36  175.31</time>
   <time name="orth">    3.07    3.10</time>
   <time name="total">  287.68  290.78</time>
   <energy>
    <i name="e_fr_energy">    -36.92291540 </i>
    <i name="e_wo_entrp">    -36.92282726 </i>
    <i name="e_0_energy">    -36.92287133 </i>
   </energy>
  </scstep>
  <scstep>
   <time name="diag">   79.23   79.62</time>
   <time name="diis">  171.70  172.19</time>
   <time name="orth">    3.09    3.10</time>
   <time name="total">  286.37  287.39</time>
   <energy>
    <i name="e_fr_energy">    -36.92291540 </i>
    <i name="e_wo_entrp">    -36.92282726 </i>
    <i name="e_0_energy">    -36.92287133 </i>
   </energy>
  </scstep>
  <scstep>
   <time name="diag">   79.38   79.64</time>
   <time name="diis">  168.77  169.40</time>
   <time name="orth">    3.09    3.09</time>
   <time name="total">  283.22  284.56</time>
   <energy>
    <i name="e_fr_energy">    -36.92291540 </i>
    <i name="e_wo_entrp">    -36.92282726 </i>
    <i name="e_0_energy">    -36.92287133 </i>
   </energy>
  </scstep>
  <scstep>
   <time name="diag">   78.89   79.65</time>
   <time name="diis">  165.38  167.00</time>
   <time name="orth">    3.08    3.16</time>
   <time name="total">  279.58  282.20</time>
   <energy>
    <i name="e_fr_energy">    -36.92291540 </i>
    <i name="e_wo_entrp">    -36.92282726 </i>
    <i name="e_0_energy">    -36.92287133 </i>
   </energy>
  </scstep>
  <scstep>
   <time name="diag">   79.62   79.71</time>
   <time name="diis">  168.05  168.26</time>
   <time name="orth">    3.09    3.09</time>
   <time name="total">  283.03  283.50</time>
   <energy>
    <i name="e_fr_energy">    -36.92291540 </i>
    <i name="e_wo_entrp">    -36.92282726 </i>
    <i name="e_0_energy">    -36.92287133 </i>
   </energy>
  </scstep>
  <scstep>
   <time name="diag">   79.63   79.73</time>
   <time name="diis">  164.95  165.26</time>
   <time name="orth">    3.09    3.10</time>
   <time name="total">  280.11  280.60</time>
   <energy>
    <i name="e_fr_energy">    -36.92291540 </i>
    <i name="e_wo_entrp">    -36.92282726 </i>
    <i name="e_0_energy">    -36.92287133 </i>
   </energy>
  </scstep>
  <scstep>
   <time name="diag">   79.36   79.66</time>
   <time name="diis">  162.75  163.62</time>
   <time name="orth">    3.08    3.08</time>
   <time name="total">  277.44  278.79</time>
   <energy>
    <i name="e_fr_energy">    -36.92291540 </i>
    <i name="e_wo_entrp">    -36.92282726 </i>
    <i name="e_0_energy">    -36.92287133 </i>
   </energy>
  </scstep>
  <scstep>
   <time name="diag">   79.52   79.68</time>
   <time name="diis">  161.26  161.60</time>
   <time name="orth">    3.08    3.10</time>
   <time name="total">  276.22  276.92</time>
   <energy>
    <i name="e_fr_energy">    -36.92291540 </i>
    <i name="e_wo_entrp">    -36.92282726 </i>
    <i name="e_0_energy">    -36.92287133 </i>
   </energy>
  </scstep>
  <scstep>
   <time name="diag">   79.51   79.68</time>
   <time name="diis">  159.22  159.46</time>
   <time name="orth">    3.10    3.10</time>
   <time name="total">  244.21  244.75</time>
   <energy>
    <i name="alphaZ">      6.18334092 </i>
    <i name="ewald">   2559.39295246 </i>
    <i name="hartreedc">  -3053.40643429 </i>
    <i name="XCdc">     57.44748104 </i>
    <i name="pawpsdc">    275.42930470 </i>
    <i name="pawaedc">   -280.57065392 </i>
    <i name="eentropy">     -0.00008814 </i>
    <i name="bandstr">   -190.02234508 </i>
    <i name="atom">    588.62352690 </i>
    <i name="e_fr_energy">    -36.92291540 </i>
    <i name="e_wo_entrp">    -36.92282726 </i>
    <i name="e_0_energy">    -36.92287133 </i>
   </energy>
  </scstep>
  <structure>
   <crystal>
    <varray name="basis" >
     <v>       4.26955718       0.00000000       0.00000000 </v>
     <v>       0.00000000       2.47914289       0.00000000 </v>
     <v>       0.00000000       0.00000000      19.91885139 </v>
    </varray>
    <i name="volume">    210.83790140 </i>
    <varray name="rec_basis" >
     <v>       0.23421633       0.00000000       0.00000000 </v>
     <v>       0.00000000       0.40336521       0.00000000 </v>
     <v>       0.00000000       0.00000000       0.05020370 </v>
    </varray>
   </crystal>
   <varray name="positions" >
    <v>       0.00009848      -0.00000000       0.00000000 </v>
    <v>       0.16656819       0.50000000       0.00000000 </v>
    <v>       0.50009848       0.50000000       0.00000000 </v>
    <v>       0.66656819      -0.00000000       0.00000000 </v>
   </varray>
  </structure>
  <varray name="forces" >
   <v>       0.01179442       0.00000000      -0.00000000 </v>
   <v>      -0.01179442      -0.00000000       0.00000000 </v>
   <v>       0.01179442       0.00000000      -0.00000000 </v>
   <v>      -0.01179442      -0.00000000       0.00000000 </v>
  </varray>
  <varray name="stress" >
   <v>       0.02727468       0.00000000       0.00000000 </v>
   <v>       0.00000000      -8.12519949       0.00000000 </v>
   <v>       0.00000000       0.00000000      -0.01006055 </v>
  </varray>
  <energy>
   <i name="e_fr_energy">    -36.92291540 </i>
   <i name="e_wo_entrp">    -36.92287133 </i>
   <i name="e_0_energy">     -0.00008814 </i>
  </energy>
  <time name="totalsc"> 6940.39 6972.98</time>
 </calculation>
 <calculation>
  <scstep>
   <time name="dav">  315.98  317.75</time>
   <time name="total">  348.30  350.42</time>
   <energy>
    <i name="alphaZ">      6.18334092 </i>
    <i name="ewald">   2559.39246420 </i>
    <i name="hartreedc">  -3053.40622473 </i>
    <i name="XCdc">     57.44746721 </i>
    <i name="pawpsdc">    275.42930470 </i>
    <i name="pawaedc">   -280.57065392 </i>
    <i name="eentropy">     -0.00009173 </i>
    <i name="bandstr">   -190.02205163 </i>
    <i name="atom">    588.62352690 </i>
    <i name="e_fr_energy">    -36.92291808 </i>
    <i name="e_wo_entrp">    -36.92282635 </i>
    <i name="e_0_energy">    -36.92287222 </i>
   </energy>
  </scstep>
  <scstep>
   <time name="diag">   78.97   79.65</time>
   <time name="diis">  320.47  323.42</time>
   <time name="orth">    3.08    3.10</time>
   <time name="total">  434.61  438.64</time>
   <energy>
    <i name="e_fr_energy">    -36.92291815 </i>
    <i name="e_wo_entrp">    -36.92282654 </i>
    <i name="e_0_energy">    -36.92287235 </i>
   </energy>
  </scstep>
  <scstep>
   <time name="diag">   79.49   79.72</time>
   <time name="diis">  326.62  327.03</time>
   <time name="orth">    3.08    3.08</time>
   <time name="total">  441.75  442.49</time>
   <energy>
    <i name="e_fr_energy">    -36.92291807 </i>
    <i name="e_wo_entrp">    -36.92282667 </i>
    <i name="e_0_energy">    -36.92287237 </i>
   </energy>
  </scstep>
  <scstep>
   <time name="diag">   79.38   79.66</time>
   <time name="diis">  333.35  336.10</time>
   <time name="orth">    3.09    3.10</time>
   <time name="total">  447.95  451.30</time>
   <energy>
    <i name="e_fr_energy">    -36.92291807 </i>
    <i name="e_wo_entrp">    -36.92282662 </i>
    <i name="e_0_energy">    -36.92287234 </i>
   </energy>
  </scstep>
  <scstep>
   <time name="diag">   79.24   79.69</time>
   <time name="diis">  322.49  325.73</time>
   <time name="orth">    3.08    3.10</time>
   <time name="total">  437.01  441.20</time>
   <energy>
    <i name="e_fr_energy">    -36.92291807 </i>
    <i name="e_wo_entrp">    -36.92282661 </i>
    <i name="e_0_energy">    -36.92287234 </i>
   </energy>
  </scstep>
  <scstep>
   <time name="diag">   79.23   79.65</time>
   <time name="diis">  244.60  245.70</time>
   <time name="orth">    3.08    3.10</time>
   <time name="total">  329.30  330.86</time>
   <energy>
    <i name="alphaZ">      6.18334092 </i>
    <i name="ewald">   2559.39246420 </i>
    <i name="hartreedc">  -3053.40602438 </i>
    <i name="XCdc">     57.44745893 </i>
    <i name="pawpsdc">    275.42843203 </i>
    <i name="pawaedc">   -280.56977761 </i>
    <i name="eentropy">     -0.00009145 </i>
    <i name="bandstr">   -190.02224761 </i>
    <i name="atom">    588.62352690 </i>
    <i name="e_fr_energy">    -36.92291807 </i>
    <i name="e_wo_entrp">    -36.92282662 </i>
    <i name="e_0_energy">    -36.92287234 </i>
   </energy>
  </scstep>
  <structure>
   <crystal>
    <varray name="basis" >
     <v>       4.26955718       0.00000000       0.00000000 </v>
     <v>       0.00000000       2.47914289       0.00000000 </v>
     <v>       0.00000000       0.00000000      19.91885139 </v>
    </varray>
    <i name="volume">    210.83790140 </i>
    <varray name="rec_basis" >
     <v>       0.23421633       0.00000000       0.00000000 </v>
     <v>       0.00000000       0.40336521       0.00000000 </v>
     <v>       0.00000000       0.00000000       0.05020370 </v>
    </varray>
   </crystal>
   <varray name="positions" >
    <v>       0.00012499      -0.00000000      -0.00000000 </v>
    <v>       0.16654167       0.50000000       0.00000000 </v>
    <v>       0.50012499       0.50000000      -0.00000000 </v>
    <v>       0.66654167      -0.00000000       0.00000000 </v>
   </varray>
  </structure>
  <varray name="forces" >
   <v>       0.00000623      -0.00000000       0.00000000 </v>
   <v>      -0.00000623       0.00000000      -0.00000000 </v>
   <v>       0.00000623       0.00000000       0.00000000 </v>
   <v>      -0.00000623      -0.00000000      -0.00000000 </v>
  </varray>
  <varray name="stress" >
   <v>      -0.00956077       0.00000000       0.00000000 </v>
   <v>       0.00000000      -8.09217750       0.00000000 </v>
   <v>       0.00000000       0.00000000      -0.01008294 </v>
  </varray>
  <energy>
   <i name="e_fr_energy">    -36.92291807 </i>
   <i name="e_wo_entrp">    -36.92287234 </i>
   <i name="e_0_energy">     -0.00009145 </i>
  </energy>
  <time name="totalsc"> 2540.61 2557.16</time>
 </calculation>
 <calculation>
  <scstep>
   <time name="dav">  246.55  247.36</time>
   <time name="total">  278.99  279.91</time>
   <energy>
    <i name="alphaZ">      6.18334092 </i>
    <i name="ewald">   2559.39246394 </i>
    <i name="hartreedc">  -3053.40602023 </i>
    <i name="XCdc">     57.44745878 </i>
    <i name="pawpsdc">    275.42843670 </i>
    <i name="pawaedc">   -280.56978219 </i>
    <i name="eentropy">     -0.00009145 </i>
    <i name="bandstr">   -190.02225144 </i>
    <i name="atom">    588.62352690 </i>
    <i name="e_fr_energy">    -36.92291807 </i>
    <i name="e_wo_entrp">    -36.92282661 </i>
    <i name="e_0_energy">    -36.92287234 </i>
   </energy>
  </scstep>
  <scstep>
   <time name="diag">   79.58   79.66</time>
   <time name="diis">  193.43  193.84</time>
   <time name="orth">    3.08    3.08</time>
   <time name="total">  308.41  309.09</time>
   <energy>
    <i name="e_fr_energy">    -36.92291807 </i>
    <i name="e_wo_entrp">    -36.92282662 </i>
    <i name="e_0_energy">    -36.92287234 </i>
   </energy>
  </scstep>
  <scstep>
   <time name="diag">   79.11   79.64</time>
   <time name="diis">  193.33  194.87</time>
   <time name="orth">    3.08    3.08</time>
   <time name="total">  307.94  310.33</time>
   <energy>
    <i name="e_fr_energy">    -36.92291807 </i>
    <i name="e_wo_entrp">    -36.92282662 </i>
    <i name="e_0_energy">    -36.92287234 </i>
   </energy>
  </scstep>
  <scstep>
   <time name="diag">   79.06   79.63</time>
   <time name="diis">  183.48  185.22</time>
   <time name="orth">    3.08    3.08</time>
   <time name="total">  298.10  300.78</time>
   <energy>
    <i name="e_fr_energy">    -36.92291807 </i>
    <i name="e_wo_entrp">    -36.92282662 </i>
    <i name="e_0_energy">    -36.92287234 </i>
   </energy>
  </scstep>
  <scstep>
   <time name="diag">   79.07   79.65</time>
   <time name="diis">  178.49  179.96</time>
   <time name="orth">    3.08    3.10</time>
   <time name="total">  292.91  295.32</time>
   <energy>
    <i name="e_fr_energy">    -36.92291807 </i>
    <i name="e_wo_entrp">    -36.92282662 </i>
    <i name="e_0_energy">    -36.92287234 </i>
   </energy>
  </scstep>
  <scstep>
   <time name="diag">   79.13   79.65</time>
   <time name="diis">  172.63  173.08</time>
   <time name="orth">    3.07    3.08</time>
   <time name="total">  257.22  258.22</time>
   <energy>
    <i name="alphaZ">      6.18334092 </i>
    <i name="ewald">   2559.39246394 </i>
    <i name="hartreedc">  -3053.40601602 </i>
    <i name="XCdc">     57.44745874 </i>
    <i name="pawpsdc">    275.42844499 </i>
    <i name="pawaedc">   -280.56979048 </i>
    <i name="eentropy">     -0.00009145 </i>
    <i name="bandstr">   -190.02225562 </i>
    <i name="atom">    588.62352690 </i>
    <i name="e_fr_energy">    -36.92291807 </i>
    <i name="e_wo_entrp">    -36.92282662 </i>
    <i name="e_0_energy">    -36.92287234 </i>
   </energy>
  </scstep>
  <structure>
   <crystal>
    <varray name="basis" >
     <v>       4.26955718       0.00000000       0.00000000 </v>
     <v>       0.00000000       2.47914289       0.00000000 </v>
     <v>       0.00000000       0.00000000      19.91885139 </v>
    </varray>
    <i name="volume">    210.83790140 </i>
    <varray name="rec_basis" >
     <v>       0.23421633       0.00000000       0.00000000 </v>
     <v>       0.00000000       0.40336521       0.00000000 </v>
     <v>       0.00000000       0.00000000       0.05020370 </v>
    </varray>
   </crystal>
   <varray name="positions" >
    <v>       0.00012501      -0.00000000       0.00000000 </v>
    <v>       0.16654166       0.50000000      -0.00000000 </v>
    <v>       0.50012501       0.50000000       0.00000000 </v>
    <v>       0.66654166      -0.00000000      -0.00000000 </v>
   </varray>
  </structure>
  <varray name="forces" >
   <v>      -0.00001258      -0.00000000       0.00000000 </v>
   <v>       0.00001258       0.00000000      -0.00000000 </v>
   <v>      -0.00001258       0.00000000       0.00000000 </v>
   <v>       0.00001258      -0.00000000      -0.00000000 </v>
  </varray>
  <varray name="stress" >
   <v>      -0.00970739       0.00000000       0.00000000 </v>
   <v>       0.00000000      -8.09202487       0.00000000 </v>
   <v>       0.00000000       0.00000000      -0.01007285 </v>
  </varray>
  <energy>
   <i name="e_fr_energy">    -36.92291807 </i>
   <i name="e_wo_entrp">    -36.92287234 </i>
   <i name="e_0_energy">     -0.00009145 </i>
  </energy>
  <time name="totalsc"> 1845.26 1855.68</time>
 </calculation>
 <calculation>
  <scstep>
   <time name="dav">  243.01  243.62</time>
   <time name="total">  275.47  276.20</time>
   <energy>
    <i name="alphaZ">      6.18334092 </i>
    <i name="ewald">   2559.39246411 </i>
    <i name="hartreedc">  -3053.40601510 </i>
    <i name="XCdc">     57.44745874 </i>
    <i name="pawpsdc">    275.42844479 </i>
    <i name="pawaedc">   -280.56979027 </i>
    <i name="eentropy">     -0.00009145 </i>
    <i name="bandstr">   -190.02225671 </i>
    <i name="atom">    588.62352690 </i>
    <i name="e_fr_energy">    -36.92291807 </i>
    <i name="e_wo_entrp">    -36.92282662 </i>
    <i name="e_0_energy">    -36.92287234 </i>
   </energy>
  </scstep>
  <scstep>
   <time name="diag">   78.93   79.64</time>
   <time name="diis">  151.28  152.78</time>
   <time name="orth">    3.08    3.08</time>
   <time name="total">  265.61  268.16</time>
   <energy>
    <i name="e_fr_energy">    -36.92291807 </i>
    <i name="e_wo_entrp">    -36.92282662 </i>
    <i name="e_0_energy">    -36.92287234 </i>
   </energy>
  </scstep>
  <scstep>
   <time name="diag">   78.90   79.68</time>
   <time name="diis">  151.51  152.52</time>
   <time name="orth">    3.08    3.10</time>
   <time name="total">  265.77  267.88</time>
   <energy>
    <i name="e_fr_energy">    -36.92291807 </i>
    <i name="e_wo_entrp">    -36.92282662 </i>
    <i name="e_0_energy">    -36.92287234 </i>
   </energy>
  </scstep>
  <scstep>
   <time name="diag">   79.30   79.76</time>
   <time name="diis">  149.38  150.87</time>
   <time name="orth">    3.08    3.08</time>
   <time name="total">  264.25  266.58</time>
   <energy>
    <i name="e_fr_energy">    -36.92291807 </i>
    <i name="e_wo_entrp">    -36.92282662 </i>
    <i name="e_0_energy">    -36.92287234 </i>
   </energy>
  </scstep>
  <scstep>
   <time name="diag">   79.17   79.72</time>
   <time name="diis">  151.14  151.72</time>
   <time name="orth">    3.09    3.10</time>
   <time name="total">  265.68  266.98</time>
   <energy>
    <i name="e_fr_energy">    -36.92291807 </i>
    <i name="e_wo_entrp">    -36.92282662 </i>
    <i name="e_0_energy">    -36.92287234 </i>
   </energy>
  </scstep>
  <scstep>
   <time name="diag">   79.62   79.77</time>
   <time name="diis">  151.05  151.47</time>
   <time name="orth">    3.08    3.08</time>
   <time name="total">  236.15  236.75</time>
   <energy>
    <i name="alphaZ">      6.18334092 </i>
    <i name="ewald">   2559.39246411 </i>
    <i name="hartreedc">  -3053.40601305 </i>
    <i name="XCdc">     57.44745875 </i>
    <i name="pawpsdc">    275.42844525 </i>
    <i name="pawaedc">   -280.56979074 </i>
    <i name="eentropy">     -0.00009145 </i>
    <i name="bandstr">   -190.02225877 </i>
    <i name="atom">    588.62352690 </i>
    <i name="e_fr_energy">    -36.92291807 </i>
    <i name="e_wo_entrp">    -36.92282662 </i>
    <i name="e_0_energy">    -36.92287234 </i>
   </energy>
  </scstep>
  <structure>
   <crystal>
    <varray name="basis" >
     <v>       4.26955718       0.00000000       0.00000000 </v>
     <v>       0.00000000       2.47914289       0.00000000 </v>
     <v>       0.00000000       0.00000000      19.91885139 </v>
    </varray>
    <i name="volume">    210.83790140 </i>
    <varray name="rec_basis" >
     <v>       0.23421633       0.00000000       0.00000000 </v>
     <v>       0.00000000       0.40336521       0.00000000 </v>
     <v>       0.00000000       0.00000000       0.05020370 </v>
    </varray>
   </crystal>
   <varray name="positions" >
    <v>       0.00012500      -0.00000000       0.00000000 </v>
    <v>       0.16654167       0.50000000      -0.00000000 </v>
    <v>       0.50012500       0.50000000       0.00000000 </v>
    <v>       0.66654167      -0.00000000      -0.00000000 </v>
   </varray>
  </structure>
  <varray name="forces" >
   <v>      -0.00000248      -0.00000000       0.00000000 </v>
   <v>       0.00000248       0.00000000      -0.00000000 </v>
   <v>      -0.00000248       0.00000000       0.00000000 </v>
   <v>       0.00000248       0.00000000      -0.00000000 </v>
  </varray>
  <varray name="stress" >
   <v>      -0.00966390       0.00000000       0.00000000 </v>
   <v>       0.00000000      -8.09206612       0.00000000 </v>
   <v>       0.00000000       0.00000000      -0.01006935 </v>
  </varray>
  <energy>
   <i name="e_fr_energy">    -36.92291807 </i>
   <i name="e_wo_entrp">    -36.92287234 </i>
   <i name="e_0_energy">     -0.00009145 </i>
  </energy>
  <time name="totalsc"> 1674.83 1685.10</time>
 </calculation>
 <calculation>
  <scstep>
   <time name="dav">  240.27  242.14</time>
   <time name="total">  272.59  274.78</time>
   <energy>
    <i name="alphaZ">      6.18334092 </i>
    <i name="ewald">   2559.39246415 </i>
    <i name="hartreedc">  -3053.40601275 </i>
    <i name="XCdc">     57.44745875 </i>
    <i name="pawpsdc">    275.42844526 </i>
    <i name="pawaedc">   -280.56979075 </i>
    <i name="eentropy">     -0.00009145 </i>
    <i name="bandstr">   -190.02225910 </i>
    <i name="atom">    588.62352690 </i>
    <i name="e_fr_energy">    -36.92291807 </i>
    <i name="e_wo_entrp">    -36.92282662 </i>
    <i name="e_0_energy">    -36.92287234 </i>
   </energy>
  </scstep>
  <scstep>
   <time name="diag">   79.10   79.79</time>
   <time name="diis">  141.68  143.01</time>
   <time name="orth">    3.08    3.08</time>
   <time name="total">  255.70  258.17</time>
   <energy>
    <i name="e_fr_energy">    -36.92291807 </i>
    <i name="e_wo_entrp">    -36.92282662 </i>
    <i name="e_0_energy">    -36.92287234 </i>
   </energy>
  </scstep>
  <scstep>
   <time name="diag">   79.65   79.78</time>
   <time name="diis">  127.37  127.53</time>
   <time name="orth">    3.08    3.16</time>
   <time name="total">  242.42  242.90</time>
   <energy>
    <i name="e_fr_energy">    -36.92291807 </i>
    <i name="e_wo_entrp">    -36.92282662 </i>
    <i name="e_0_energy">    -36.92287234 </i>
   </energy>
  </scstep>
  <scstep>
   <time name="diag">   79.52   79.77</time>
   <time name="diis">  134.80  135.82</time>
   <time name="orth">    3.09    3.10</time>
   <time name="total">  249.72  251.29</time>
   <energy>
    <i name="e_fr_energy">    -36.92291807 </i>
    <i name="e_wo_entrp">    -36.92282662 </i>
    <i name="e_0_energy">    -36.92287234 </i>
   </energy>
  </scstep>
  <scstep>
   <time name="diag">   79.11   79.77</time>
   <time name="diis">  121.77  122.82</time>
   <time name="orth">    3.08    3.10</time>
   <time name="total">  236.11  238.12</time>
   <energy>
    <i name="e_fr_energy">    -36.92291807 </i>
    <i name="e_wo_entrp">    -36.92282662 </i>
    <i name="e_0_energy">    -36.92287234 </i>
   </energy>
  </scstep>
  <scstep>
   <time name="diag">   79.15   79.76</time>
   <time name="diis">  132.08  133.05</time>
   <time name="orth">    3.08    3.08</time>
   <time name="total">  246.37  248.23</time>
   <energy>
    <i name="e_fr_energy">    -36.92291807 </i>
    <i name="e_wo_entrp">    -36.92282662 </i>
    <i name="e_0_energy">    -36.92287234 </i>
   </energy>
  </scstep>
  <scstep>
   <time name="diag">   79.33   79.72</time>
   <time name="diis">  122.25  122.62</time>
   <time name="orth">    3.09    3.10</time>
   <time name="total">  207.07  207.87</time>
   <energy>
    <i name="alphaZ">      6.18334092 </i>
    <i name="ewald">   2559.39246415 </i>
    <i name="hartreedc">  -3053.40601312 </i>
    <i name="XCdc">     57.44745876 </i>
    <i name="pawpsdc">    275.42844557 </i>
    <i name="pawaedc">   -280.56979107 </i>
    <i name="eentropy">     -0.00009145 </i>
    <i name="bandstr">   -190.02225875 </i>
    <i name="atom">    588.62352690 </i>
    <i name="e_fr_energy">    -36.92291807 </i>
    <i name="e_wo_entrp">    -36.92282662 </i>
    <i name="e_0_energy">    -36.92287234 </i>
   </energy>
  </scstep>
  <structure>
   <crystal>
    <varray name="basis" >
     <v>       4.26955718       0.00000000       0.00000000 </v>
     <v>       0.00000000       2.47914289       0.00000000 </v>
     <v>       0.00000000       0.00000000      19.91885139 </v>
    </varray>
    <i name="volume">    210.83790140 </i>
    <varray name="rec_basis" >
     <v>       0.23421633       0.00000000       0.00000000 </v>
     <v>       0.00000000       0.40336521       0.00000000 </v>
     <v>       0.00000000       0.00000000       0.05020370 </v>
    </varray>
   </crystal>
   <varray name="positions" >
    <v>       0.00012500      -0.00000000       0.00000000 </v>
    <v>       0.16654167       0.50000000      -0.00000000 </v>
    <v>       0.50012500       0.50000000       0.00000000 </v>
    <v>       0.66654167      -0.00000000      -0.00000000 </v>
   </varray>
  </structure>
  <varray name="forces" >
   <v>      -0.00000254      -0.00000000       0.00000000 </v>
   <v>       0.00000254       0.00000000      -0.00000000 </v>
   <v>      -0.00000254       0.00000000       0.00000000 </v>
   <v>       0.00000254      -0.00000000      -0.00000000 </v>
  </varray>
  <varray name="stress" >
   <v>      -0.00967066       0.00000000       0.00000000 </v>
   <v>       0.00000000      -8.09205868       0.00000000 </v>
   <v>       0.00000000       0.00000000      -0.01006673 </v>
  </varray>
  <energy>
   <i name="e_fr_energy">    -36.92291807 </i>
   <i name="e_wo_entrp">    -36.92287234 </i>
   <i name="e_0_energy">     -0.00009145 </i>
  </energy>
  <time name="totalsc"> 1810.58 1822.76</time>
 </calculation>
 <calculation>
  <scstep>
   <time name="dav">  326.23  328.84</time>
   <time name="total">  358.39  361.30</time>
   <energy>
    <i name="alphaZ">      6.18334092 </i>
    <i name="ewald">   2559.39246213 </i>
    <i name="hartreedc">  -3053.40601228 </i>
    <i name="XCdc">     57.44745871 </i>
    <i name="pawpsdc">    275.42844557 </i>
    <i name="pawaedc">   -280.56979107 </i>
    <i name="eentropy">     -0.00009147 </i>
    <i name="bandstr">   -190.02225749 </i>
    <i name="atom">    588.62352690 </i>
    <i name="e_fr_energy">    -36.92291807 </i>
    <i name="e_wo_entrp">    -36.92282660 </i>
    <i name="e_0_energy">    -36.92287233 </i>
   </energy>
  </scstep>
  <scstep>
   <time name="diag">   79.24   79.82</time>
   <time name="diis">  191.75  193.34</time>
   <time name="orth">    3.08    3.08</time>
   <time name="total">  306.29  308.80</time>
   <energy>
    <i name="e_fr_energy">    -36.92291807 </i>
    <i name="e_wo_entrp">    -36.92282660 </i>
    <i name="e_0_energy">    -36.92287233 </i>
   </energy>
  </scstep>
  <scstep>
   <time name="diag">   79.30   79.75</time>
   <time name="diis">  193.37  194.34</time>
   <time name="orth">    3.08    3.08</time>
   <time name="total">  308.16  309.81</time>
   <energy>
    <i name="e_fr_energy">    -36.92291807 </i>
    <i name="e_wo_entrp">    -36.92282660 </i>
    <i name="e_0_energy">    -36.92287234 </i>
   </energy>
  </scstep>
  <scstep>
   <time name="diag">   79.49   79.82</time>
   <time name="diis">  182.55  183.83</time>
   <time name="orth">    3.09    3.10</time>
   <time name="total">  297.29  299.24</time>
   <energy>
    <i name="e_fr_energy">    -36.92291807 </i>
    <i name="e_wo_entrp">    -36.92282660 </i>
    <i name="e_0_energy">    -36.92287234 </i>
   </energy>
  </scstep>
  <scstep>
   <time name="diag">   79.12   79.73</time>
   <time name="diis">  173.57  174.99</time>
   <time name="orth">    3.08    3.10</time>
   <time name="total">  258.19  260.26</time>
   <energy>
    <i name="alphaZ">      6.18334092 </i>
    <i name="ewald">   2559.39246213 </i>
    <i name="hartreedc">  -3053.40601049 </i>
    <i name="XCdc">     57.44745863 </i>
    <i name="pawpsdc">    275.42843692 </i>
    <i name="pawaedc">   -280.56978235 </i>
    <i name="eentropy">     -0.00009147 </i>
    <i name="bandstr">   -190.02225927 </i>
    <i name="atom">    588.62352690 </i>
    <i name="e_fr_energy">    -36.92291807 </i>
    <i name="e_wo_entrp">    -36.92282660 </i>
[...]
       <r>   -9.1661    1.0000 </r>
       <r>   -5.6093    1.0000 </r>
       <r>   -5.6093    1.0000 </r>
       <r>   -0.4520    0.0000 </r>
       <r>   -0.4520    0.0000 </r>
       <r>    4.8347    0.0000 </r>
       <r>    4.8347    0.0000 </r>
      </set>
      <set comment="kpoint 209">
       <r>  -18.8400    1.0000 </r>
       <r>  -17.0696    1.0000 </r>
       <r>  -14.0123    1.0000 </r>
       <r>  -12.3989    1.0000 </r>
       <r>  -12.3988    1.0000 </r>
       <r>  -10.8794    1.0000 </r>
       <r>   -6.4357    1.0000 </r>
       <r>   -4.5626    1.0000 </r>
       <r>   -0.9868    0.0000 </r>
       <r>    1.1585    0.0000 </r>
       <r>    5.2057    0.0000 </r>
       <r>    5.9944    0.0000 </r>
      </set>
      <set comment="kpoint 210">
       <r>  -18.8303    1.0000 </r>
       <r>  -17.0619    1.0000 </r>
       <r>  -14.0999    1.0000 </r>
       <r>  -12.4799    1.0000 </r>
       <r>  -12.3033    1.0000 </r>
       <r>  -10.8005    1.0000 </r>
       <r>   -6.4269    1.0000 </r>
       <r>   -4.5654    1.0000 </r>
       <r>   -0.9968    0.0000 </r>
       <r>    1.1328    0.0000 </r>
       <r>    5.2193    0.0000 </r>
       <r>    6.0105    0.0000 </r>
      </set>
      <set comment="kpoint 211">
       <r>  -18.8011    1.0000 </r>
       <r>  -17.0391    1.0000 </r>
       <r>  -14.3168    1.0000 </r>
       <r>  -12.6844    1.0000 </r>
       <r>  -12.0628    1.0000 </r>
       <r>  -10.6032    1.0000 </r>
       <r>   -6.4005    1.0000 </r>
       <r>   -4.5741    1.0000 </r>
       <r>   -1.0249    0.0000 </r>
       <r>    1.0577    0.0000 </r>
       <r>    5.2601    0.0000 </r>
       <r>    6.0584    0.0000 </r>
      </set>
      <set comment="kpoint 212">
       <r>  -18.7526    1.0000 </r>
       <r>  -17.0024    1.0000 </r>
       <r>  -14.5928    1.0000 </r>
       <r>  -12.9520    1.0000 </r>
       <r>  -11.7476    1.0000 </r>
       <r>  -10.3497    1.0000 </r>
       <r>   -6.3569    1.0000 </r>
       <r>   -4.5904    1.0000 </r>
       <r>   -1.0658    0.0000 </r>
       <r>    0.9385    0.0000 </r>
       <r>    5.3278    0.0000 </r>
       <r>    6.1370    0.0000 </r>
      </set>
      <set comment="kpoint 213">
       <r>  -18.6849    1.0000 </r>
       <r>  -16.9546    1.0000 </r>
       <r>  -14.8860    1.0000 </r>
       <r>  -13.2462    1.0000 </r>
       <r>  -11.3994    1.0000 </r>
       <r>  -10.0799    1.0000 </r>
       <r>   -6.2965    1.0000 </r>
       <r>   -4.6165    1.0000 </r>
       <r>   -1.1120    0.0000 </r>
       <r>    0.7829    0.0000 </r>
       <r>    5.4212    0.0000 </r>
       <r>    6.2450    0.0000 </r>
      </set>
      <set comment="kpoint 214">
       <r>  -18.5982    1.0000 </r>
       <r>  -16.9006    1.0000 </r>
       <r>  -15.1724    1.0000 </r>
       <r>  -13.5488    1.0000 </r>
       <r>  -11.0403    1.0000 </r>
       <r>   -9.8167    1.0000 </r>
       <r>   -6.2201    1.0000 </r>
       <r>   -4.6552    1.0000 </r>
       <r>   -1.1543    0.0000 </r>
       <r>    0.5997    0.0000 </r>
       <r>    5.5357    0.0000 </r>
       <r>    6.1745    0.0000 </r>
      </set>
      <set comment="kpoint 215">
       <r>  -18.4929    1.0000 </r>
       <r>  -16.8509    1.0000 </r>
       <r>  -15.4326    1.0000 </r>
       <r>  -13.8502    1.0000 </r>
       <r>  -10.6838    1.0000 </r>
       <r>   -9.5755    1.0000 </r>
       <r>   -6.1287    1.0000 </r>
       <r>   -4.7091    1.0000 </r>
       <r>   -1.1835    0.0000 </r>
       <r>    0.3979    0.0000 </r>
       <r>    5.5981    0.0000 </r>
       <r>    5.8186    0.0000 </r>
      </set>
      <set comment="kpoint 216">
       <r>  -18.3693    1.0000 </r>
       <r>  -16.8251    1.0000 </r>
       <r>  -15.6417    1.0000 </r>
       <r>  -14.1445    1.0000 </r>
       <r>  -10.3404    1.0000 </r>
       <r>   -9.3684    1.0000 </r>
       <r>   -6.0236    1.0000 </r>
       <r>   -4.7802    1.0000 </r>
       <r>   -1.1916    0.0000 </r>
       <r>    0.1859    0.0000 </r>
       <r>    5.3085    0.0000 </r>
       <r>    5.9070    0.0000 </r>
      </set>
      <set comment="kpoint 217">
       <r>  -18.2281    1.0000 </r>
       <r>  -16.8537    1.0000 </r>
       <r>  -15.7664    1.0000 </r>
       <r>  -14.4280    1.0000 </r>
       <r>  -10.0196    1.0000 </r>
       <r>   -9.2058    1.0000 </r>
       <r>   -5.9064    1.0000 </r>
       <r>   -4.8692    1.0000 </r>
       <r>   -1.1726    0.0000 </r>
       <r>   -0.0288    0.0000 </r>
       <r>    5.0140    0.0000 </r>
       <r>    5.8413    0.0000 </r>
      </set>
      <set comment="kpoint 218">
       <r>  -18.0701    1.0000 </r>
       <r>  -16.9572    1.0000 </r>
       <r>  -15.7845    1.0000 </r>
       <r>  -14.6975    1.0000 </r>
       <r>   -9.7306    1.0000 </r>
       <r>   -9.0966    1.0000 </r>
       <r>   -5.7791    1.0000 </r>
       <r>   -4.9749    1.0000 </r>
       <r>   -1.1229    0.0000 </r>
       <r>   -0.2394    0.0000 </r>
       <r>    4.7981    0.0000 </r>
       <r>    5.4435    0.0000 </r>
      </set>
      <set comment="kpoint 219">
       <r>  -17.8968    1.0000 </r>
       <r>  -17.1204    1.0000 </r>
       <r>  -15.7099    1.0000 </r>
       <r>  -14.9503    1.0000 </r>
       <r>   -9.4824    1.0000 </r>
       <r>   -9.0474    1.0000 </r>
       <r>   -5.6443    1.0000 </r>
       <r>   -5.0951    1.0000 </r>
       <r>   -1.0416    0.0000 </r>
       <r>   -0.4399    0.0000 </r>
       <r>    4.6724    0.0000 </r>
       <r>    5.1158    0.0000 </r>
      </set>
      <set comment="kpoint 220">
       <r>  -17.7101    1.0000 </r>
       <r>  -17.3130    1.0000 </r>
       <r>  -15.5723    1.0000 </r>
       <r>  -15.1835    1.0000 </r>
       <r>   -9.2837    1.0000 </r>
       <r>   -9.0623    1.0000 </r>
       <r>   -5.5048    1.0000 </r>
       <r>   -5.2262    1.0000 </r>
       <r>   -0.9296    0.0000 </r>
       <r>   -0.6248    0.0000 </r>
       <r>    4.6422    0.0000 </r>
       <r>    4.8681    0.0000 </r>
      </set>
      <set comment="kpoint 221">
       <r>  -17.5134    1.0000 </r>
       <r>  -17.5134    1.0000 </r>
       <r>  -15.3930    1.0000 </r>
       <r>  -15.3930    1.0000 </r>
       <r>   -9.1419    1.0000 </r>
       <r>   -9.1419    1.0000 </r>
       <r>   -5.3642    1.0000 </r>
       <r>   -5.3642    1.0000 </r>
       <r>   -0.7895    0.0000 </r>
       <r>   -0.7895    0.0000 </r>
       <r>    4.7082    0.0000 </r>
       <r>    4.7082    0.0000 </r>
      </set>
      <set comment="kpoint 222">
       <r>  -18.4218    1.0000 </r>
       <r>  -17.5329    1.0000 </r>
       <r>  -13.6388    1.0000 </r>
       <r>  -12.8313    1.0000 </r>
       <r>  -12.0520    1.0000 </r>
       <r>  -11.2877    1.0000 </r>
       <r>   -5.9800    1.0000 </r>
       <r>   -5.0382    1.0000 </r>
       <r>   -0.4836    0.0000 </r>
       <r>    0.5912    0.0000 </r>
       <r>    5.7997    0.0000 </r>
       <r>    6.5526    0.0000 </r>
      </set>
      <set comment="kpoint 223">
       <r>  -18.4123    1.0000 </r>
       <r>  -17.5242    1.0000 </r>
       <r>  -13.7265    1.0000 </r>
       <r>  -12.9151    1.0000 </r>
       <r>  -11.9592    1.0000 </r>
       <r>  -11.2035    1.0000 </r>
       <r>   -5.9724    1.0000 </r>
       <r>   -5.0357    1.0000 </r>
       <r>   -0.5001    0.0000 </r>
       <r>    0.5675    0.0000 </r>
       <r>    5.8132    0.0000 </r>
       <r>    6.5696    0.0000 </r>
      </set>
      <set comment="kpoint 224">
       <r>  -18.3837    1.0000 </r>
       <r>  -17.4980    1.0000 </r>
       <r>  -13.9442    1.0000 </r>
       <r>  -13.1254    1.0000 </r>
       <r>  -11.7262    1.0000 </r>
       <r>  -10.9925    1.0000 </r>
       <r>   -5.9500    1.0000 </r>
       <r>   -5.0288    1.0000 </r>
       <r>   -0.5478    0.0000 </r>
       <r>    0.4986    0.0000 </r>
       <r>    5.8539    0.0000 </r>
       <r>    6.6199    0.0000 </r>
      </set>
      <set comment="kpoint 225">
       <r>  -18.3361    1.0000 </r>
       <r>  -17.4549    1.0000 </r>
       <r>  -14.2238    1.0000 </r>
       <r>  -13.3988    1.0000 </r>
       <r>  -11.4226    1.0000 </r>
       <r>  -10.7201    1.0000 </r>
       <r>   -5.9132    1.0000 </r>
       <r>   -5.0184    1.0000 </r>
       <r>   -0.6214    0.0000 </r>
       <r>    0.3895    0.0000 </r>
       <r>    5.9210    0.0000 </r>
       <r>    6.7022    0.0000 </r>
      </set>
      <set comment="kpoint 226">
       <r>  -18.2698    1.0000 </r>
       <r>  -17.3958    1.0000 </r>
       <r>  -14.5252    1.0000 </r>
       <r>  -13.6976    1.0000 </r>
       <r>  -11.0897    1.0000 </r>
       <r>  -10.4267    1.0000 </r>
       <r>   -5.8627    1.0000 </r>
       <r>   -5.0064    1.0000 </r>
       <r>   -0.7132    0.0000 </r>
       <r>    0.2479    0.0000 </r>
       <r>    6.0127    0.0000 </r>
       <r>    6.8145    0.0000 </r>
      </set>
      <set comment="kpoint 227">
       <r>  -18.1851    1.0000 </r>
       <r>  -17.3223    1.0000 </r>
       <r>  -14.8283    1.0000 </r>
       <r>  -14.0034    1.0000 </r>
       <r>  -10.7500    1.0000 </r>
       <r>  -10.1350    1.0000 </r>
       <r>   -5.7997    1.0000 </r>
       <r>   -4.9955    1.0000 </r>
       <r>   -0.8136    0.0000 </r>
       <r>    0.0828    0.0000 </r>
       <r>    6.1119    0.0000 </r>
       <r>    6.4521    0.0000 </r>
      </set>
      <set comment="kpoint 228">
       <r>  -18.0826    1.0000 </r>
       <r>  -17.2374    1.0000 </r>
       <r>  -15.1210    1.0000 </r>
       <r>  -14.3063    1.0000 </r>
       <r>  -10.4173    1.0000 </r>
       <r>   -9.8600    1.0000 </r>
       <r>   -5.7258    1.0000 </r>
       <r>   -4.9887    1.0000 </r>
       <r>   -0.9125    0.0000 </r>
       <r>   -0.0965    0.0000 </r>
       <r>    5.9080    0.0000 </r>
       <r>    6.3285    0.0000 </r>
      </set>
      <set comment="kpoint 229">
       <r>  -17.9630    1.0000 </r>
       <r>  -17.1465    1.0000 </r>
       <r>  -15.3929    1.0000 </r>
       <r>  -14.6004    1.0000 </r>
       <r>  -10.1026    1.0000 </r>
       <r>   -9.6135    1.0000 </r>
       <r>   -5.6428    1.0000 </r>
       <r>   -4.9895    1.0000 </r>
       <r>   -0.9999    0.0000 </r>
       <r>   -0.2812    0.0000 </r>
       <r>    5.5053    0.0000 </r>
       <r>    6.0008    0.0000 </r>
      </set>
      <set comment="kpoint 230">
       <r>  -17.8276    1.0000 </r>
       <r>  -17.0603    1.0000 </r>
       <r>  -15.6302    1.0000 </r>
       <r>  -14.8813    1.0000 </r>
       <r>   -9.8158    1.0000 </r>
       <r>   -9.4060    1.0000 </r>
       <r>   -5.5532    1.0000 </r>
       <r>   -5.0012    1.0000 </r>
       <r>   -1.0667    0.0000 </r>
       <r>   -0.4628    0.0000 </r>
       <r>    5.1596    0.0000 </r>
       <r>    5.5752    0.0000 </r>
      </set>
      <set comment="kpoint 231">
       <r>  -17.6782    1.0000 </r>
       <r>  -16.9993    1.0000 </r>
       <r>  -15.8107    1.0000 </r>
       <r>  -15.1450    1.0000 </r>
       <r>   -9.5664    1.0000 </r>
       <r>   -9.2469    1.0000 </r>
       <r>   -5.4601    1.0000 </r>
       <r>   -5.0268    1.0000 </r>
       <r>   -1.1055    0.0000 </r>
       <r>   -0.6336    0.0000 </r>
       <r>    4.8914    0.0000 </r>
       <r>    5.2160    0.0000 </r>
      </set>
      <set comment="kpoint 232">
       <r>  -17.5182    1.0000 </r>
       <r>  -16.9945    1.0000 </r>
       <r>  -15.9021    1.0000 </r>
       <r>  -15.3870    1.0000 </r>
       <r>   -9.3634    1.0000 </r>
       <r>   -9.1440    1.0000 </r>
       <r>   -5.3668    1.0000 </r>
       <r>   -5.0679    1.0000 </r>
       <r>   -1.1111    0.0000 </r>
       <r>   -0.7866    0.0000 </r>
       <r>    4.7102    0.0000 </r>
       <r>    4.9334    0.0000 </r>
      </set>
      <set comment="kpoint 233">
       <r>  -17.3535    1.0000 </r>
       <r>  -17.0654    1.0000 </r>
       <r>  -15.8842    1.0000 </r>
       <r>  -15.6004    1.0000 </r>
       <r>   -9.2148    1.0000 </r>
       <r>   -9.1030    1.0000 </r>
       <r>   -5.2772    1.0000 </r>
       <r>   -5.1245    1.0000 </r>
       <r>   -1.0809    0.0000 </r>
       <r>   -0.9155    0.0000 </r>
       <r>    4.6225    0.0000 </r>
       <r>    4.7363    0.0000 </r>
      </set>
      <set comment="kpoint 234">
       <r>  -17.1954    1.0000 </r>
       <r>  -17.1954    1.0000 </r>
       <r>  -15.7733    1.0000 </r>
       <r>  -15.7733    1.0000 </r>
       <r>   -9.1268    1.0000 </r>
       <r>   -9.1268    1.0000 </r>
       <r>   -5.1953    1.0000 </r>
       <r>   -5.1953    1.0000 </r>
       <r>   -1.0150    0.0000 </r>
       <r>   -1.0150    0.0000 </r>
       <r>    4.6314    0.0000 </r>
       <r>    4.6314    0.0000 </r>
      </set>
      <set comment="kpoint 235">
       <r>  -17.9852    1.0000 </r>
       <r>  -17.9852    1.0000 </r>
       <r>  -13.2449    1.0000 </r>
       <r>  -13.2449    1.0000 </r>
       <r>  -11.6799    1.0000 </r>
       <r>  -11.6799    1.0000 </r>
       <r>   -5.5125    1.0000 </r>
       <r>   -5.5125    1.0000 </r>
       <r>    0.0431    0.0000 </r>
       <r>    0.0431    0.0000 </r>
       <r>    6.4246    0.0000 </r>
       <r>    6.4246    0.0000 </r>
      </set>
      <set comment="kpoint 236">
       <r>  -17.9759    1.0000 </r>
       <r>  -17.9759    1.0000 </r>
       <r>  -13.3311    1.0000 </r>
       <r>  -13.3311    1.0000 </r>
       <r>  -11.5910    1.0000 </r>
       <r>  -11.5910    1.0000 </r>
       <r>   -5.5070    1.0000 </r>
       <r>   -5.5070    1.0000 </r>
       <r>    0.0223    0.0000 </r>
       <r>    0.0223    0.0000 </r>
       <r>    6.4381    0.0000 </r>
       <r>    6.4381    0.0000 </r>
      </set>
      <set comment="kpoint 237">
       <r>  -17.9481    1.0000 </r>
       <r>  -17.9481    1.0000 </r>
       <r>  -13.5461    1.0000 </r>
       <r>  -13.5461    1.0000 </r>
       <r>  -11.3681    1.0000 </r>
       <r>  -11.3681    1.0000 </r>
       <r>   -5.4906    1.0000 </r>
       <r>   -5.4906    1.0000 </r>
       <r>   -0.0380    0.0000 </r>
       <r>   -0.0380    0.0000 </r>
       <r>    6.4785    0.0000 </r>
       <r>    6.4785    0.0000 </r>
      </set>
      <set comment="kpoint 238">
       <r>  -17.9021    1.0000 </r>
       <r>  -17.9021    1.0000 </r>
       <r>  -13.8238    1.0000 </r>
       <r>  -13.8238    1.0000 </r>
       <r>  -11.0788    1.0000 </r>
       <r>  -11.0788    1.0000 </r>
       <r>   -5.4640    1.0000 </r>
       <r>   -5.4640    1.0000 </r>
       <r>   -0.1328    0.0000 </r>
       <r>   -0.1328    0.0000 </r>
       <r>    6.5448    0.0000 </r>
       <r>    6.5448    0.0000 </r>
      </set>
      <set comment="kpoint 239">
       <r>  -17.8382    1.0000 </r>
       <r>  -17.8382    1.0000 </r>
       <r>  -14.1256    1.0000 </r>
       <r>  -14.1256    1.0000 </r>
       <r>  -10.7643    1.0000 </r>
       <r>  -10.7643    1.0000 </r>
       <r>   -5.4285    1.0000 </r>
       <r>   -5.4285    1.0000 </r>
       <r>   -0.2543    0.0000 </r>
       <r>   -0.2543    0.0000 </r>
       <r>    6.6325    0.0000 </r>
       <r>    6.6325    0.0000 </r>
      </set>
      <set comment="kpoint 240">
       <r>  -17.7571    1.0000 </r>
       <r>  -17.7571    1.0000 </r>
       <r>  -14.4324    1.0000 </r>
       <r>  -14.4324    1.0000 </r>
       <r>  -10.4471    1.0000 </r>
       <r>  -10.4471    1.0000 </r>
       <r>   -5.3859    1.0000 </r>
       <r>   -5.3859    1.0000 </r>
       <r>   -0.3934    0.0000 </r>
       <r>   -0.3934    0.0000 </r>
       <r>    6.6313    0.0000 </r>
       <r>    6.6313    0.0000 </r>
      </set>
      <set comment="kpoint 241">
       <r>  -17.6600    1.0000 </r>
       <r>  -17.6600    1.0000 </r>
       <r>  -14.7339    1.0000 </r>
       <r>  -14.7339    1.0000 </r>
       <r>  -10.1416    1.0000 </r>
       <r>  -10.1416    1.0000 </r>
       <r>   -5.3384    1.0000 </r>
       <r>   -5.3384    1.0000 </r>
       <r>   -0.5402    0.0000 </r>
       <r>   -0.5402    0.0000 </r>
       <r>    6.1835    0.0000 </r>
       <r>    6.1835    0.0000 </r>
      </set>
      <set comment="kpoint 242">
       <r>  -17.5485    1.0000 </r>
       <r>  -17.5485    1.0000 </r>
       <r>  -15.0233    1.0000 </r>
       <r>  -15.0233    1.0000 </r>
       <r>   -9.8593    1.0000 </r>
       <r>   -9.8593    1.0000 </r>
       <r>   -5.2889    1.0000 </r>
       <r>   -5.2889    1.0000 </r>
       <r>   -0.6852    0.0000 </r>
       <r>   -0.6852    0.0000 </r>
       <r>    5.7356    0.0000 </r>
       <r>    5.7356    0.0000 </r>
      </set>
      <set comment="kpoint 243">
       <r>  -17.4259    1.0000 </r>
       <r>  -17.4259    1.0000 </r>
       <r>  -15.2944    1.0000 </r>
       <r>  -15.2944    1.0000 </r>
       <r>   -9.6103    1.0000 </r>
       <r>   -9.6103    1.0000 </r>
       <r>   -5.2409    1.0000 </r>
       <r>   -5.2409    1.0000 </r>
       <r>   -0.8191    0.0000 </r>
       <r>   -0.8191    0.0000 </r>
       <r>    5.3472    0.0000 </r>
       <r>    5.3472    0.0000 </r>
      </set>
      <set comment="kpoint 244">
       <r>  -17.2979    1.0000 </r>
       <r>  -17.2979    1.0000 </r>
       <r>  -15.5395    1.0000 </r>
       <r>  -15.5395    1.0000 </r>
       <r>   -9.4043    1.0000 </r>
       <r>   -9.4043    1.0000 </r>
       <r>   -5.1979    1.0000 </r>
       <r>   -5.1979    1.0000 </r>
       <r>   -0.9335    0.0000 </r>
       <r>   -0.9335    0.0000 </r>
       <r>    5.0312    0.0000 </r>
       <r>    5.0312    0.0000 </r>
      </set>
      <set comment="kpoint 245">
       <r>  -17.1754    1.0000 </r>
       <r>  -17.1754    1.0000 </r>
       <r>  -15.7463    1.0000 </r>
       <r>  -15.7463    1.0000 </r>
       <r>   -9.2499    1.0000 </r>
       <r>   -9.2499    1.0000 </r>
       <r>   -5.1638    1.0000 </r>
       <r>   -5.1638    1.0000 </r>
       <r>   -1.0212    0.0000 </r>
       <r>   -1.0212    0.0000 </r>
       <r>    4.7975    0.0000 </r>
       <r>    4.7975    0.0000 </r>
      </set>
      <set comment="kpoint 246">
       <r>  -17.0795    1.0000 </r>
       <r>  -17.0795    1.0000 </r>
       <r>  -15.8932    1.0000 </r>
       <r>  -15.8932    1.0000 </r>
       <r>   -9.1541    1.0000 </r>
       <r>   -9.1541    1.0000 </r>
       <r>   -5.1419    1.0000 </r>
       <r>   -5.1419    1.0000 </r>
       <r>   -1.0762    0.0000 </r>
       <r>   -1.0762    0.0000 </r>
       <r>    4.6540    0.0000 </r>
       <r>    4.6540    0.0000 </r>
      </set>
      <set comment="kpoint 247">
       <r>  -17.0414    1.0000 </r>
       <r>  -17.0414    1.0000 </r>
       <r>  -15.9483    1.0000 </r>
       <r>  -15.9483    1.0000 </r>
       <r>   -9.1216    1.0000 </r>
       <r>   -9.1216    1.0000 </r>
       <r>   -5.1343    1.0000 </r>
       <r>   -5.1343    1.0000 </r>
       <r>   -1.0950    0.0000 </r>
       <r>   -1.0950    0.0000 </r>
       <r>    4.6056    0.0000 </r>
       <r>    4.6056    0.0000 </r>
      </set>
     </set>
    </set>
   </array>
  </eigenvalues>
  <separator name="orbital magnetization" >
   <v name="MAGDIPOLOUT">      0.00000000      0.00000000      0.00000000</v>
  </separator>
 </calculation>
 <structure name="finalpos" >
  <crystal>
   <varray name="basis" >
    <v>       4.26955718       0.00000000       0.00000000 </v>
    <v>       0.00000000       2.47914289       0.00000000 </v>
    <v>       0.00000000       0.00000000      19.91885139 </v>
   </varray>
   <i name="volume">    210.83790140 </i>
   <varray name="rec_basis" >
    <v>       0.23421633       0.00000000       0.00000000 </v>
    <v>       0.00000000       0.40336521       0.00000000 </v>
    <v>       0.00000000       0.00000000       0.05020370 </v>
   </varray>
  </crystal>
  <varray name="positions" >
   <v>       0.00012499      -0.00000000       0.00000000 </v>
   <v>       0.16654168       0.50000000      -0.00000000 </v>
   <v>       0.50012499       0.50000000       0.00000000 </v>
   <v>       0.66654168      -0.00000000      -0.00000000 </v>
  </varray>
 </structure>
</modeling>
