gr                                      
           1
     4.269557    0.000000    0.000000
     0.000000    2.479143    0.000000
     0.000000    0.000000   19.918851
   C 
   4
Direct configuration=     1
   0.00013158  0.00000000  0.00000000
   0.16653509  0.50000000  0.00000000
   0.50013158  0.50000000  0.00000000
   0.66653509  0.00000000  0.00000000
Direct configuration=     2
   0.00009848 -0.00000000  0.00000000
   0.16656819  0.50000000  0.00000000
   0.50009848  0.50000000  0.00000000
   0.66656819 -0.00000000  0.00000000
Direct configuration=     3
   0.00012499 -0.00000000 -0.00000000
   0.16654167  0.50000000  0.00000000
   0.50012499  0.50000000 -0.00000000
   0.66654167 -0.00000000  0.00000000
Direct configuration=     4
   0.00012501 -0.00000000  0.00000000
   0.16654166  0.50000000 -0.00000000
   0.50012501  0.50000000  0.00000000
   0.66654166 -0.00000000 -0.00000000
Direct configuration=     5
   0.00012500 -0.00000000  0.00000000
   0.16654167  0.50000000 -0.00000000
   0.50012500  0.50000000  0.00000000
   0.66654167 -0.00000000 -0.00000000
Direct configuration=     6
   0.00012500 -0.00000000  0.00000000
   0.16654167  0.50000000 -0.00000000
   0.50012500  0.50000000  0.00000000
   0.66654167 -0.00000000 -0.00000000
Direct configuration=     7
   0.00012511 -0.00000000 -0.00000000
   0.16654156  0.50000000  0.00000000
   0.50012511  0.50000000 -0.00000000
   0.66654156  0.00000000  0.00000000
Direct configuration=     8
   0.00012499 -0.00000000  0.00000000
   0.16654168  0.50000000 -0.00000000
   0.50012499  0.50000000  0.00000000
   0.66654168 -0.00000000 -0.00000000
Direct configuration=     9
   0.00012499 -0.00000000  0.00000000
   0.16654168  0.50000000 -0.00000000
   0.50012499  0.50000000  0.00000000
   0.66654168 -0.00000000 -0.00000000
Direct configuration=    10
   0.00012499 -0.00000000  0.00000000
   0.16654168  0.50000000 -0.00000000
   0.50012499  0.50000000  0.00000000
   0.66654168 -0.00000000 -0.00000000
