    4    4  400    1
  0.5270948E+02  0.4269297E-09  0.2479883E-09  0.1991412E-08  0.5000000E-15
  1.000000000000000E-004
  CAR 
 gr                                      
     16    247     12
 
  0.0000000E+00  0.0000000E+00  0.0000000E+00  0.1157407E-02
    1      -22.218134
    2      -16.954561
    3      -15.950021
    4      -10.331509
    5       -9.228256
    6       -5.832565
    7       -5.773880
    8       -5.067339
    9       -1.087202
   10        0.528082
   11        1.328585
   12        1.713618
 
  0.4166667E-01  0.0000000E+00  0.0000000E+00  0.2314815E-02
    1      -22.207858
    2      -17.125452
    3      -15.763915
    4      -10.319249
    5       -9.218021
    6       -5.855381
    7       -5.816106
    8       -5.134577
    9       -1.004211
   10        0.542018
   11        1.342695
   12        1.727900
 
  0.8333333E-01  0.0000000E+00  0.0000000E+00  0.2314815E-02
    1      -22.177034
    2      -17.468644
    3      -15.375159
    4      -10.282488
    5       -9.187366
    6       -5.941088
    7       -5.922556
    8       -5.320893
    9       -0.770809
   10        0.583828
   11        1.385022
   12        1.770746
 
  0.1250000E+00  0.0000000E+00  0.0000000E+00  0.2314815E-02
    1      -22.125682
    2      -17.848678
    3      -14.919479
    4      -10.221283
    5       -9.136443
    6       -6.144019
    7       -6.030486
    8       -5.592223
    9       -0.421579
   10        0.653515
   11        1.455553
   12        1.842158
 
  0.1666667E+00  0.0000000E+00  0.0000000E+00  0.2314815E-02
    1      -22.053837
    2      -18.230123
    3      -14.432756
    4      -10.135731
    5       -9.065514
    6       -6.417706
    7       -6.173810
    8       -5.915080
    9        0.009116
   10        0.751079
   11        1.554267
   12        1.942137
 
  0.2083333E+00  0.0000000E+00  0.0000000E+00  0.2314815E-02
    1      -21.961547
    2      -18.602270
    3      -13.926347
    4      -10.025974
    5       -8.974956
    6       -6.753521
    7       -6.346149
    8       -6.264745
    9        0.495300
   10        0.876517
   11        1.681132
   12        2.070682
 
  0.2500000E+00  0.0000000E+00  0.0000000E+00  0.2314815E-02
    1      -21.848874
    2      -18.960830
    3      -13.405399
    4       -9.892200
    5       -8.865273
    6       -7.142292
    7       -6.624850
    8       -6.540787
    9        1.018944
   10        1.029812
   11        1.836097
   12        2.227792
 
  0.2916667E+00  0.0000000E+00  0.0000000E+00  0.2314815E-02
    1      -21.715901
    2      -19.303676
    3      -12.873131
    4       -9.734653
    5       -8.737116
    6       -7.574997
    7       -6.984821
    8       -6.751212
    9        1.210940
   10        1.567327
   11        2.019088
   12        2.413464
 
  0.3333333E+00  0.0000000E+00  0.0000000E+00  0.2314815E-02
    1      -21.562723
    2      -19.629575
    3      -12.332138
    4       -9.553642
    5       -8.591300
    6       -8.043218
    7       -7.337741
    8       -6.971442
    9        1.419860
   10        2.130695
   11        2.229988
   12        2.627692
 
  0.3750000E+00  0.0000000E+00  0.0000000E+00  0.2314815E-02
    1      -21.389455
    2      -19.937723
    3      -11.784884
    4       -9.349557
    5       -8.539366
    6       -8.428834
    7       -7.678955
    8       -7.196189
    9        1.656520
   10        2.468591
   11        2.700063
   12        2.870467
 
  0.4166667E+00  0.0000000E+00  0.0000000E+00  0.2314815E-02
    1      -21.196232
    2      -20.227550
    3      -11.233952
    4       -9.122882
    5       -9.056756
    6       -8.250959
    7       -8.005236
    8       -7.420893
    9        1.920844
   10        2.734478
   11        3.141772
   12        3.251692
 
  0.4583333E+00  0.0000000E+00  0.0000000E+00  0.2314815E-02
    1      -20.983216
    2      -20.498622
    3      -10.682190
    4       -9.589579
    5       -8.874228
    6       -8.314271
    7       -8.059186
    8       -7.641694
    9        2.212728
   10        2.878493
   11        3.026561
   12        3.441574
 
  0.5000000E+00  0.0000000E+00  0.0000000E+00  0.1157407E-02
    1      -20.750604
    2      -20.750604
    3      -10.132827
    4      -10.132827
    5       -8.604362
    6       -8.604362
    7       -7.855355
    8       -7.855355
    9        2.532024
   10        2.532024
   11        3.340366
   12        3.340366
 
  0.0000000E+00  0.2777778E-01  0.0000000E+00  0.2314815E-02
    1      -22.204606
    2      -16.942941
    3      -15.938675
    4      -10.315371
    5       -9.289126
    6       -5.888653
    7       -5.804524
    8       -5.050895
    9       -1.091617
   10        0.546420
   11        1.347170
   12        1.732428
 
  0.4166667E-01  0.2777778E-01  0.0000000E+00  0.4629630E-02
    1      -22.194331
    2      -17.113672
    3      -15.752782
    4      -10.303115
    5       -9.278871
    6       -5.919386
    7       -5.838146
    8       -5.118284
    9       -1.008596
   10        0.560357
   11        1.361279
   12        1.746710
 
  0.8333333E-01  0.2777778E-01  0.0000000E+00  0.4629630E-02
    1      -22.163512
    2      -17.456615
    3      -15.364437
    4      -10.266366
    5       -9.248156
    6       -6.020692
    7       -5.927059
    8       -5.304946
    9       -0.775212
   10        0.602169
   11        1.403603
   12        1.789557
 
  0.1250000E+00  0.2777778E-01  0.0000000E+00  0.4629630E-02
    1      -22.112167
    2      -17.836426
    3      -14.909255
    4      -10.205183
    5       -9.197130
    6       -6.205799
    7       -6.049950
    8       -5.576629
    9       -0.426239
   10        0.671860
   11        1.474129
   12        1.860970
 
  0.1666667E+00  0.2777778E-01  0.0000000E+00  0.4629630E-02
    1      -22.040332
    2      -18.217680
    3      -14.423123
    4      -10.119661
    5       -9.126047
    6       -6.467536
    7       -6.201837
    8       -5.899744
    9        0.003856
   10        0.769431
   11        1.572837
   12        1.960950
 
  0.2083333E+00  0.2777778E-01  0.0000000E+00  0.4629630E-02
    1      -21.948056
    2      -18.589663
    3      -13.917416
    4      -10.009942
    5       -9.035273
    6       -6.793752
    7       -6.380233
    8       -6.249556
    9        0.489086
   10        0.894877
   11        1.699694
   12        2.089497
 
  0.2500000E+00  0.2777778E-01  0.0000000E+00  0.4629630E-02
    1      -21.835402
    2      -18.948082
    3      -13.397304
    4       -9.876215
    5       -8.925301
    6       -7.174217
    7       -6.609718
    8       -6.579760
    9        1.011443
   10        1.048183
   11        1.854650
   12        2.246609
 
  0.2916667E+00  0.2777778E-01  0.0000000E+00  0.4629630E-02
    1      -21.702450
    2      -19.290807
    3      -12.866038
    4       -9.718723
    5       -8.796762
    6       -7.599688
    7       -6.969682
    8       -6.794294
    9        1.229323
   10        1.558253
   11        2.037633
   12        2.432285
 
  0.3333333E+00  0.2777778E-01  0.0000000E+00  0.4629630E-02
    1      -21.549298
    2      -19.616602
    3      -12.326245
    4       -9.537777
    5       -8.650450
    6       -8.061680
    7       -7.322553
    8       -7.017990
    9        1.438258
   10        2.119839
   11        2.248526
   12        2.646517
 
  0.3750000E+00  0.2777778E-01  0.0000000E+00  0.4629630E-02
    1      -21.376061
    2      -19.924660
    3      -11.780436
    4       -9.333763
    5       -8.552536
    6       -8.487349
    7       -7.663693
    8       -7.245637
    9        1.674933
   10        2.487127
   11        2.687417
   12        2.889298
 
  0.4166667E+00  0.2777778E-01  0.0000000E+00  0.4629630E-02
    1      -21.182874
    2      -20.214409
    3      -11.231247
    4       -9.107168
    5       -9.065481
    6       -8.308665
    7       -7.989886
    8       -7.472741
    9        1.939276
   10        2.753025
   11        3.160611
   12        3.247237
 
  0.4583333E+00  0.2777778E-01  0.0000000E+00  0.4629630E-02
    1      -20.969901
    2      -20.485415
    3      -10.681590
    4       -9.594599
    5       -8.858600
    6       -8.298829
    7       -8.115871
    8       -7.695506
    9        2.231184
   10        2.897045
   11        3.045139
   12        3.460427
 
  0.5000000E+00  0.2777778E-01  0.0000000E+00  0.2314815E-02
    1      -20.737338
    2      -20.737338
    3      -10.134772
    4      -10.134772
    5       -8.588825
    6       -8.588825
    7       -7.910760
    8       -7.910760
    9        2.550515
   10        2.550515
   11        3.358933
   12        3.358933
 
  0.0000000E+00  0.5555556E-01  0.0000000E+00  0.2314815E-02
    1      -22.164034
    2      -16.908086
    3      -15.904799
    4      -10.266988
    5       -9.466838
    6       -6.052482
    7       -5.895657
    8       -5.001581
    9       -1.105686
   10        0.601440
   11        1.402916
   12        1.788861
 
  0.4166667E-01  0.5555556E-01  0.0000000E+00  0.4629630E-02
    1      -22.153762
    2      -17.078347
    3      -15.719540
    4      -10.254745
    5       -9.456520
    6       -6.090253
    7       -5.920232
    8       -5.069439
    9       -1.022566
   10        0.615378
   11        1.417022
   12        1.803143
 
  0.8333333E-01  0.5555556E-01  0.0000000E+00  0.4629630E-02
    1      -22.122955
    2      -17.420551
    3      -15.332432
    4      -10.218036
    5       -9.425609
    6       -6.200993
    7       -5.994035
    8       -5.257168
    9       -0.789229
   10        0.657195
   11        1.459337
   12        1.845991
 
  0.1250000E+00  0.5555556E-01  0.0000000E+00  0.4629630E-02
    1      -22.071633
    2      -17.799695
    3      -14.878768
    4      -10.156917
    5       -9.374244
    6       -6.379826
    7       -6.114762
    8       -5.529932
    9       -0.441035
   10        0.726895
   11        1.529849
   12        1.917406
 
  0.1666667E+00  0.5555556E-01  0.0000000E+00  0.4629630E-02
    1      -21.999831
    2      -18.180373
    3      -14.394446
    4      -10.071486
    5       -9.302654
    6       -6.622348
    7       -6.275832
    8       -5.853832
    9       -0.012766
   10        0.824481
   11        1.628538
   12        2.017389
 
  0.2083333E+00  0.5555556E-01  0.0000000E+00  0.4629630E-02
    1      -21.907597
    2      -18.551863
    3      -13.890898
    4       -9.961884
    5       -9.211175
    6       -6.924104
    7       -6.468156
    8       -6.204089
    9        0.469546
   10        0.949949
   11        1.755370
   12        2.145941
 
  0.2500000E+00  0.5555556E-01  0.0000000E+00  0.4629630E-02
    1      -21.794995
    2      -18.909858
    3      -13.373371
    4       -9.828299
    5       -9.100252
    6       -7.279506
    7       -6.682541
    8       -6.564419
    9        0.987976
   10        1.103281
   11        1.910299
   12        2.303060
 
  0.2916667E+00  0.5555556E-01  0.0000000E+00  0.4629630E-02
    1      -21.662110
    2      -19.252218
    3      -12.845209
    4       -9.670977
    5       -8.970461
    6       -7.681724
    7       -6.924358
    8       -6.910952
    9        1.284453
   10        1.529982
   11        2.093253
   12        2.488744
 
  0.3333333E+00  0.5555556E-01  0.0000000E+00  0.4629630E-02
    1      -21.509036
    2      -19.577698
    3      -12.309158
    4       -9.490225
    5       -8.822520
    6       -8.123286
    7       -7.277077
    8       -7.146765
    9        1.493423
   10        2.086100
   11        2.304123
   12        2.702987
 
  0.3750000E+00  0.5555556E-01  0.0000000E+00  0.4629630E-02
    1      -21.335891
    2      -19.885486
    3      -11.767876
    4       -9.286432
    5       -8.657320
    6       -8.596748
    7       -7.617989
    8       -7.384598
    9        1.730138
   10        2.542716
   11        2.648067
   12        2.945782
 
  0.4166667E+00  0.5555556E-01  0.0000000E+00  0.4629630E-02
    1      -21.142814
    2      -20.175001
    3      -11.224178
    4       -9.095151
    5       -9.060079
    6       -8.475949
    7       -7.943913
    8       -7.620071
    9        1.994526
   10        2.808644
   11        3.204840
   12        3.217115
 
  0.4583333E+00  0.5555556E-01  0.0000000E+00  0.4629630E-02
    1      -20.929969
    2      -20.445805
    3      -10.681198
    4       -9.612238
    5       -8.811773
    6       -8.279736
    7       -8.252569
    8       -7.849614
    9        2.286492
   10        2.952573
   11        3.100859
   12        3.516966
 
  0.5000000E+00  0.5555556E-01  0.0000000E+00  0.2314815E-02
    1      -20.697555
    2      -20.697555
    3      -10.142511
    4      -10.142511
    5       -8.542278
    6       -8.542278
    7       -8.070302
    8       -8.070302
    9        2.605905
   10        2.605905
   11        3.414611
   12        3.414611
 
  0.0000000E+00  0.8333333E-01  0.0000000E+00  0.2314815E-02
    1      -22.096450
    2      -16.850007
    3      -15.848913
    4      -10.186462
    5       -9.748050
    6       -6.312064
    7       -6.044948
    8       -4.919457
    9       -1.131877
   10        0.693155
   11        1.495802
   12        1.882919
 
  0.4166667E-01  0.8333333E-01  0.0000000E+00  0.4629630E-02
    1      -22.086187
    2      -17.019526
    3      -15.664685
    4      -10.174242
    5       -9.737607
    6       -6.353945
    7       -6.062228
    8       -4.988147
    9       -1.048563
   10        0.707094
   11        1.509903
   12        1.897201
 
  0.8333333E-01  0.8333333E-01  0.0000000E+00  0.4629630E-02
    1      -22.055402
    2      -17.360526
    3      -15.279661
    4      -10.137599
    5       -9.706313
    6       -6.471401
    7       -6.120268
    8       -5.177752
    9       -0.815265
   10        0.748913
   11        1.552202
   12        1.940050
 
  0.1250000E+00  0.8333333E-01  0.0000000E+00  0.4629630E-02
    1      -22.004118
    2      -17.738562
    3      -14.828611
    4      -10.076591
    5       -9.654280
    6       -6.650460
    7       -6.227228
    8       -5.452398
    9       -0.468385
   10        0.818620
   11        1.622688
   12        2.011467
 
  0.1666667E+00  0.8333333E-01  0.0000000E+00  0.4629630E-02
    1      -21.932369
    2      -18.118277
    3      -14.347444
    4       -9.991316
    5       -9.581695
    6       -6.881304
    7       -6.383718
    8       -5.777648
    9       -0.043252
   10        0.916218
   11        1.721340
   12        2.111453
 
  0.2083333E+00  0.8333333E-01  0.0000000E+00  0.4629630E-02
    1      -21.840206
    2      -18.488937
    3      -13.847696
    4       -9.881914
    5       -9.488826
    6       -7.158659
    7       -6.583204
    8       -6.128657
    9        0.434040
   10        1.041706
   11        1.848126
   12        2.240010
 
  0.2500000E+00  0.8333333E-01  0.0000000E+00  0.4629630E-02
    1      -21.727695
    2      -18.846219
    3      -13.334758
    4       -9.748575
    5       -9.376027
    6       -7.480121
    7       -6.814668
    8       -6.489261
    9        0.945712
   10        1.195068
   11        2.003003
   12        2.397137
 
  0.2916667E+00  0.8333333E-01  0.0000000E+00  0.4629630E-02
    1      -21.594918
    2      -19.187965
    3      -12.812158
    4       -9.591543
    5       -9.243749
    6       -7.844182
    7       -7.065633
    8       -6.849140
    9        1.376276
   10        1.479441
   11        2.185902
   12        2.582832
 
  0.3333333E+00  0.8333333E-01  0.0000000E+00  0.4629630E-02
    1      -21.441975
    2      -19.512917
    3      -12.282882
    4       -9.411126
    5       -9.092551
    6       -8.248343
    7       -7.324933
    8       -7.201583
    9        1.585288
   10        2.026080
   11        2.396722
   12        2.797089
 
  0.3750000E+00  0.8333333E-01  0.0000000E+00  0.4629630E-02
    1      -21.268985
    2      -19.820250
    3      -11.749887
    4       -9.207710
    5       -8.923110
    6       -8.688255
    7       -7.584204
    8       -7.542092
    9        1.822048
   10        2.578027
   11        2.635293
   12        3.039901
 
  0.4166667E+00  0.8333333E-01  0.0000000E+00  0.4629630E-02
    1      -21.076091
    2      -20.109373
    3      -11.216371
    4       -9.158134
    5       -8.981776
    6       -8.736246
    7       -7.867544
    8       -7.837812
    9        2.086486
   10        2.901266
   11        3.127039
   12        3.311259
 
  0.4583333E+00  0.8333333E-01  0.0000000E+00  0.4629630E-02
    1      -20.863461
    2      -20.379839
    3      -10.685947
    4       -9.651671
    5       -8.733924
    6       -8.532942
    7       -8.175702
    8       -8.082055
    9        2.378511
   10        3.044801
   11        3.193674
   12        3.611343
 
  0.5000000E+00  0.8333333E-01  0.0000000E+00  0.2314815E-02
    1      -20.631297
    2      -20.631297
    3      -10.162776
    4      -10.162776
    5       -8.464911
    6       -8.464911
    7       -8.314390
    8       -8.314390
    9        2.698004
   10        2.698004
   11        3.507315
   12        3.507315
 
  0.0000000E+00  0.1111111E+00  0.0000000E+00  0.2314815E-02
    1      -22.001920
    2      -16.768724
    3      -15.771999
    4      -10.114131
    5      -10.073964
    6       -6.650989
    7       -6.248688
    8       -4.804626
    9       -1.174256
   10        0.821585
   11        1.625791
   12        2.014606
 
  0.4166667E-01  0.1111111E+00  0.0000000E+00  0.4629630E-02
    1      -21.991667
    2      -16.937297
    3      -15.589162
    4      -10.103470
    5      -10.061776
    6       -6.695897
    7       -6.258799
    8       -4.874594
    9       -1.090595
   10        0.835521
   11        1.639883
   12        2.028888
 
  0.8333333E-01  0.1111111E+00  0.0000000E+00  0.4629630E-02
    1      -21.960914
    2      -17.276672
    3      -15.207117
    4      -10.071507
    5      -10.025230
    6       -6.819306
    7       -6.299057
    8       -5.067051
    9       -0.857240
   10        0.877333
   11        1.682156
   12        2.071736
 
  0.1250000E+00  0.1111111E+00  0.0000000E+00  0.4629630E-02
    1      -21.909682
    2      -17.653165
    3      -14.759938
    4      -10.018305
    5       -9.964384
    6       -7.001588
    7       -6.384888
    8       -5.344513
    9       -0.512210
   10        0.947031
   11        1.752599
   12        2.143152
 
  0.1666667E+00  0.1111111E+00  0.0000000E+00  0.4629630E-02
    1      -21.838009
    2      -18.031521
    3      -14.283539
    4       -9.943967
    5       -9.879337
    6       -7.228379
    7       -6.523644
    8       -5.671743
    9       -0.091635
   10        1.044626
   11        1.851190
   12        2.243139
 
  0.2083333E+00  0.1111111E+00  0.0000000E+00  0.4629630E-02
    1      -21.745946
    2      -18.401005
    3      -13.789622
    4       -9.848635
    5       -9.770228
    6       -7.491146
    7       -6.714281
    8       -6.023826
    9        0.378333
   10        1.170118
   11        1.977900
   12        2.371699
 
  0.2500000E+00  0.1111111E+00  0.0000000E+00  0.4629630E-02
    1      -21.633561
    2      -18.757273
    3      -13.283831
    4       -9.732482
    5       -9.637249
    6       -7.785601
    7       -6.949525
    8       -6.384792
    9        0.880148
   10        1.323495
   11        2.132685
   12        2.528833
 
  0.2916667E+00  0.1111111E+00  0.0000000E+00  0.4629630E-02
    1      -21.500938
    2      -19.098148
    3      -12.770036
    4       -9.595710
    5       -9.480642
    6       -8.110709
    7       -7.217700
    8       -6.744543
    9        1.401813
   10        1.504727
   11        2.315485
   12        2.714537
 
  0.3333333E+00  0.1111111E+00  0.0000000E+00  0.4629630E-02
    1      -21.348179
    2      -19.422350
    3      -12.251672
    4       -9.438536
    5       -9.300716
    6       -8.467572
    7       -7.504742
    8       -7.096550
    9        1.713769
   10        1.934572
   11        2.526209
   12        2.928808
 
  0.3750000E+00  0.1111111E+00  0.0000000E+00  0.4629630E-02
    1      -21.175408
    2      -19.729036
    3      -11.732288
    4       -9.261182
    5       -9.097855
    6       -8.857611
    7       -7.796760
    8       -7.436441
    9        1.950561
   10        2.471467
   11        2.764717
   12        3.171637
 
  0.4166667E+00  0.1111111E+00  0.0000000E+00  0.4629630E-02
    1      -20.982772
    2      -20.017604
    3      -11.215847
    4       -9.280526
    5       -9.063861
    6       -8.872537
    7       -8.082582
    8       -7.761181
    9        2.215030
   10        3.006184
   11        3.030732
   12        3.443017
 
  0.4583333E+00  0.1111111E+00  0.0000000E+00  0.4629630E-02
    1      -20.770446
    2      -20.287591
    3      -10.706917
    4       -9.733301
    5       -8.846795
    6       -8.625355
    7       -8.355009
    8       -8.068591
    9        2.507086
   10        3.173471
   11        3.323458
   12        3.528392
 
  0.5000000E+00  0.1111111E+00  0.0000000E+00  0.2314815E-02
    1      -20.538636
    2      -20.538636
    3      -10.210774
    4      -10.210774
    5       -8.610292
    6       -8.610292
    7       -8.357057
    8       -8.357057
    9        2.826616
   10        2.826616
   11        3.636664
   12        3.636664
 
  0.0000000E+00  0.1388889E+00  0.0000000E+00  0.2314815E-02
    1      -21.880532
    2      -16.664267
    3      -15.675727
    4      -10.544455
    5       -9.929740
    6       -7.051724
    7       -6.502041
    8       -4.657233
    9       -1.238349
   10        0.986739
   11        1.792826
   12        2.183926
 
  0.4166667E-01  0.1388889E+00  0.0000000E+00  0.4629630E-02
    1      -21.870292
    2      -16.831798
    3      -15.494589
    4      -10.533423
    5       -9.917596
    6       -7.099349
    7       -6.504602
    8       -4.729073
    9       -1.154074
   10        1.000667
   11        1.806905
   12        2.198207
 
  0.8333333E-01  0.1388889E+00  0.0000000E+00  0.4629630E-02
    1      -21.839579
    2      -17.169201
    3      -15.116527
    4      -10.500321
    5       -9.881182
    6       -7.228669
    7       -6.525043
    8       -4.925641
    9       -0.920378
   10        1.042457
   11        1.849137
   12        2.241052
 
  0.1250000E+00  0.1388889E+00  0.0000000E+00  0.4629630E-02
    1      -21.788416
    2      -17.543721
    3      -14.674799
    4      -10.445120
    5       -9.820557
    6       -7.415890
    7       -6.584622
    8       -5.207063
    9       -0.577671
   10        1.112126
   11        1.919510
   12        2.312463
 
  0.1666667E+00  0.1388889E+00  0.0000000E+00  0.4629630E-02
    1      -21.716842
    2      -17.920308
    3      -14.205310
    4      -10.367758
    5       -9.735818
    6       -7.643321
    7       -6.696372
    8       -5.536996
    9       -0.163171
   10        1.209689
   11        2.018004
   12        2.412447
 
  0.2083333E+00  0.1388889E+00  0.0000000E+00  0.4629630E-02
    1      -21.624908
    2      -18.288248
    3      -13.720047
    4      -10.268124
    5       -9.627109
    6       -7.899971
    7       -6.864252
    8       -5.890482
    9        0.296961
   10        1.335154
   11        2.144586
   12        2.541005
 
  0.2500000E+00  0.1388889E+00  0.0000000E+00  0.4629630E-02
    1      -21.512685
    2      -18.643186
    3      -13.225113
    4      -10.146018
    5       -9.494620
    6       -8.179319
    7       -7.085490
    8       -6.251862
    9        0.785568
   10        1.488514
   11        2.299214
   12        2.698140
 
  0.2916667E+00  0.1388889E+00  0.0000000E+00  0.4629630E-02
    1      -21.380261
    2      -18.982914
    3      -12.725033
    4      -10.001114
    5       -9.338595
    6       -8.478152
    7       -7.352281
    8       -6.611363
    9        1.291115
   10        1.669740
   11        2.481830
   12        2.883850
 
  0.3333333E+00  0.1388889E+00  0.0000000E+00  0.4629630E-02
    1      -21.227742
    2      -19.306131
    3      -12.224127
    4       -9.832889
    5       -9.159342
    6       -8.796136
    7       -7.653025
    8       -6.962707
    9        1.805341
   10        1.878784
   11        2.692358
   12        3.098130
 
  0.3750000E+00  0.1388889E+00  0.0000000E+00  0.4629630E-02
    1      -21.055255
    2      -19.611970
    3      -11.727117
    4       -9.640572
    5       -9.135491
    6       -8.957244
    7       -7.973487
    8       -7.301700
    9        2.115580
   10        2.321885
   11        2.930687
   12        3.340974
 
  0.4166667E+00  0.1388889E+00  0.0000000E+00  0.4629630E-02
    1      -20.862955
    2      -19.899809
    3      -11.239423
    4       -9.500086
    5       -9.423137
    6       -8.732773
    7       -8.298374
    8       -7.625426
    9        2.380048
   10        2.835495
   11        3.196647
   12        3.612371
 
  0.4583333E+00  0.1388889E+00  0.0000000E+00  0.4629630E-02
    1      -20.651024
    2      -20.169171
    3      -10.767180
    4       -9.893508
    5       -9.179500
    6       -8.613676
    7       -8.486518
    8       -7.931784
    9        2.672091
   10        3.338411
   11        3.341376
   12        3.489811
 
  0.5000000E+00  0.1388889E+00  0.0000000E+00  0.2314815E-02
    1      -20.419677
    2      -20.419677
    3      -10.316754
    4      -10.316754
    5       -8.909174
    6       -8.909174
    7       -8.219212
    8       -8.219212
    9        2.991593
   10        2.991593
   11        3.791047
   12        3.791051
 
  0.0000000E+00  0.1666667E+00  0.0000000E+00  0.2314815E-02
    1      -21.732403
    2      -16.536675
    3      -15.562909
    4      -11.018443
    5       -9.754118
    6       -7.497928
    7       -6.799347
    8       -4.477470
    9       -1.330831
   10        1.188611
   11        1.996828
   12        2.390881
 
  0.4166667E-01  0.1666667E+00  0.0000000E+00  0.4629630E-02
    1      -21.722180
    2      -16.703246
    3      -15.383718
    4      -11.006778
    5       -9.742032
    6       -7.548236
    7       -6.793967
    8       -4.552031
    9       -1.245446
   10        1.202526
   11        2.010885
   12        2.405161
 
  0.8333333E-01  0.1666667E+00  0.0000000E+00  0.4629630E-02
    1      -21.691518
    2      -17.038439
    3      -15.010897
    4      -10.971712
    5       -9.705791
    6       -7.683680
    7       -6.793056
    8       -4.754436
    9       -1.010738
   10        1.244280
   11        2.053051
   12        2.447999
 
  0.1250000E+00  0.1666667E+00  0.0000000E+00  0.4629630E-02
    1      -21.640440
    2      -17.410559
    3      -14.576855
    4      -10.913029
    5       -9.645455
    6       -7.876941
    7       -6.822929
    8       -5.041277
    9       -0.670625
   10        1.313892
   11        2.123311
   12        2.519402
 
  0.1666667E+00  0.1666667E+00  0.0000000E+00  0.4629630E-02
    1      -21.568986
    2      -17.784939
    3      -14.117513
    4      -10.830323
    5       -9.561124
    6       -8.107720
    7       -6.901515
    8       -5.374753
    9       -0.263732
   10        1.411385
   11        2.221642
   12        2.619374
 
  0.2083333E+00  0.1666667E+00  0.0000000E+00  0.4629630E-02
    1      -21.477212
    2      -18.150938
    3      -13.645394
    4      -10.722937
    5       -9.452941
    6       -8.363385
    7       -7.037059
    8       -5.729965
    9        0.183933
   10        1.536780
   11        2.348004
   12        2.747922
 
  0.2500000E+00  0.1666667E+00  0.0000000E+00  0.4629630E-02
    1      -21.365190
    2      -18.504194
    3      -13.167518
    4      -10.589860
    5       -9.321099
    6       -8.636060
    7       -7.230689
    8       -6.091738
    9        0.655851
   10        1.690076
   11        2.502347
   12        2.905049
 
  0.2916667E+00  0.1666667E+00  0.0000000E+00  0.4629630E-02
    1      -21.233011
    2      -18.842477
    3      -12.689723
    4      -10.429600
    5       -9.165842
    6       -8.920952
    7       -7.478253
    8       -6.450766
    9        1.141182
   10        1.871251
   11        2.684601
   12        3.090757
 
  0.3333333E+00  0.1666667E+00  0.0000000E+00  0.4629630E-02
    1      -21.080787
    2      -19.164453
    3      -12.218080
    4      -10.240079
    5       -9.215680
    6       -8.987480
    7       -7.771599
    8       -6.801115
    9        1.632331
   10        2.080254
   11        2.894675
   12        3.305041
 
  0.3750000E+00  0.1666667E+00  0.0000000E+00  0.4629630E-02
    1      -20.908654
    2      -19.469226
    3      -11.759355
    4      -10.018712
    5       -9.520142
    6       -8.786394
    7       -8.099559
    8       -7.138826
    9        2.123600
   10        2.317014
   11        3.132438
   12        3.547893
 
  0.4166667E+00  0.1666667E+00  0.0000000E+00  0.4629630E-02
    1      -20.716773
    2      -19.756150
    3      -11.320708
    4       -9.836605
    5       -9.763013
    6       -8.563054
    7       -8.448661
    8       -7.461139
    9        2.581437
   10        2.610443
   11        3.397685
   12        3.819303
 
  0.4583333E+00  0.1666667E+00  0.0000000E+00  0.4629630E-02
    1      -20.505334
    2      -20.024729
    3      -10.908308
    4      -10.169622
    5       -9.472186
    6       -8.803805
    7       -8.318039
    8       -7.766054
    9        2.873417
   10        3.089005
   11        3.539509
   12        3.689615
 
  0.5000000E+00  0.1666667E+00  0.0000000E+00  0.2314815E-02
    1      -20.274564
    2      -20.274564
    3      -10.525145
    4      -10.525145
    5       -9.149492
    6       -9.149492
    7       -8.052071
    8       -8.052071
    9        3.192825
   10        3.192825
   11        3.555551
   12        3.555551
 