       N       E                     dE             d eps       ncg     rms          rms(c)
DAV:   1     0.189212943459E+03    0.18921E+03   -0.10619E+04  5928   0.275E+03
DAV:   2    -0.930242236910E+01   -0.19852E+03   -0.17610E+03 10372   0.260E+02
DAV:   3    -0.383662678802E+02   -0.29064E+02   -0.28395E+02  7412   0.119E+02    0.731E+00
RMM:   4    -0.376933523580E+02    0.67292E+00   -0.92934E+00  5929   0.261E+01    0.423E+00
RMM:   5    -0.369334026596E+02    0.75995E+00   -0.28374E+00  5933   0.115E+01    0.731E-01
RMM:   6    -0.369348827657E+02   -0.14801E-02   -0.83461E-02  6372   0.202E+00    0.522E-01
RMM:   7    -0.369254286794E+02    0.94541E-02   -0.33504E-02  5941   0.160E+00    0.345E-01
RMM:   8    -0.369197460011E+02    0.56827E-02   -0.74410E-03  5933   0.571E-01    0.138E-01
RMM:   9    -0.369193947507E+02    0.35125E-03   -0.21413E-02  5928   0.867E-01    0.163E-01
RMM:  10    -0.369192169606E+02    0.17779E-03   -0.27267E-03  5928   0.376E-01    0.301E-02
RMM:  11    -0.369217639410E+02   -0.25470E-02   -0.75579E-04  5932   0.180E-01    0.472E-02
RMM:  12    -0.369222161039E+02   -0.45216E-03   -0.24023E-04  5936   0.102E-01    0.560E-03
RMM:  13    -0.369224788271E+02   -0.26272E-03   -0.57410E-05  6002   0.433E-02    0.484E-03
RMM:  14    -0.369225642872E+02   -0.85460E-04   -0.12398E-05  5936   0.206E-02    0.234E-03
RMM:  15    -0.369225725019E+02   -0.82147E-05   -0.15845E-06  6008   0.760E-03    0.886E-04
RMM:  16    -0.369225840515E+02   -0.11550E-04   -0.42882E-07  6004   0.386E-03    0.462E-04
RMM:  17    -0.369225881760E+02   -0.41245E-05   -0.37089E-08  6096   0.152E-03    0.784E-04
RMM:  18    -0.369225896704E+02   -0.14944E-05   -0.69537E-08  5928   0.189E-03    0.723E-05
RMM:  19    -0.369225903513E+02   -0.68092E-06   -0.97163E-09  6065   0.500E-04    0.208E-05
RMM:  20    -0.369225904053E+02   -0.53969E-07   -0.84186E-10  4481   0.146E-04    0.301E-05
RMM:  21    -0.369225904262E+02   -0.20866E-07   -0.33723E-10  4455   0.108E-04    0.424E-06
RMM:  22    -0.369225904266E+02   -0.39029E-09   -0.21849E-12  3887   0.439E-05    0.235E-06
RMM:  23    -0.369225904271E+02   -0.48715E-09   -0.13660E-11  3517   0.371E-05    0.102E-06
RMM:  24    -0.369225904272E+02   -0.15109E-09   -0.52361E-12  3128   0.288E-05    0.446E-07
RMM:  25    -0.369225904271E+02    0.10584E-09   -0.39583E-12  2787   0.246E-05    0.853E-08
RMM:  26    -0.369225904269E+02    0.21907E-09   -0.18913E-12  2567   0.220E-05    0.920E-08
RMM:  27    -0.369225904271E+02   -0.25307E-09   -0.31981E-12  2402   0.207E-05    0.347E-08
RMM:  28    -0.369225904269E+02    0.21055E-09    0.32990E-13  2277   0.192E-05    0.426E-08
RMM:  29    -0.369225904269E+02    0.55707E-10   -0.12172E-12  2185   0.187E-05
   1 F= -.36922590E+02 E0= -.36922547E+02  d E =-.369226E+02
       N       E                     dE             d eps       ncg     rms          rms(c)
DAV:   1    -0.369225903214E+02    0.10548E-06   -0.93676E-06  6232   0.288E-02    0.616E-04
RMM:   2    -0.369225903271E+02   -0.56260E-08   -0.15221E-07  5938   0.347E-03    0.440E-04
RMM:   3    -0.369225903207E+02    0.63732E-08   -0.26530E-08  5965   0.131E-03    0.109E-04
RMM:   4    -0.369225903204E+02    0.34174E-09   -0.15693E-09  5988   0.315E-04    0.316E-05
RMM:   5    -0.369225903199E+02    0.43133E-09   -0.92766E-11  3880   0.826E-05    0.135E-05
RMM:   6    -0.369225903200E+02   -0.80945E-10   -0.18716E-11  3580   0.506E-05
   2 F= -.36922590E+02 E0= -.36922546E+02  d E =0.106865E-06
       N       E                     dE             d eps       ncg     rms          rms(c)
DAV:   1    -0.369225904324E+02   -0.11249E-06   -0.60053E-06  6612   0.231E-02    0.495E-04
RMM:   2    -0.369225904358E+02   -0.33733E-08   -0.94629E-08  5952   0.277E-03    0.352E-04
RMM:   3    -0.369225904340E+02    0.17722E-08   -0.16843E-08  5961   0.105E-03    0.845E-05
RMM:   4    -0.369225904331E+02    0.89085E-09   -0.96524E-10  5744   0.251E-04    0.251E-05
RMM:   5    -0.369225904335E+02   -0.42814E-09   -0.53255E-11  3781   0.697E-05    0.108E-05
RMM:   6    -0.369225904337E+02   -0.15598E-09   -0.12934E-11  3439   0.460E-05    0.208E-06
RMM:   7    -0.369225904332E+02    0.47226E-09   -0.10998E-11  3225   0.375E-05    0.738E-07
RMM:   8    -0.369225904337E+02   -0.48499E-09   -0.62230E-12  2918   0.309E-05    0.359E-07
RMM:   9    -0.369225904334E+02    0.32082E-09   -0.46940E-12  2665   0.275E-05    0.312E-08
RMM:  10    -0.369225904338E+02   -0.37380E-09   -0.25538E-12  2449   0.254E-05    0.561E-08
RMM:  11    -0.369225904334E+02    0.39120E-09   -0.14090E-12  2128   0.231E-05    0.617E-08
RMM:  12    -0.369225904335E+02   -0.11244E-09   -0.19867E-12  1983   0.215E-05    0.870E-08
RMM:  13    -0.369225904336E+02   -0.10596E-09    0.16602E-13  1799   0.201E-05    0.174E-07
RMM:  14    -0.369225904337E+02   -0.64574E-10   -0.11627E-12  1640   0.194E-05
   3 F= -.36922590E+02 E0= -.36922547E+02  d E =-.113657E-06
       N       E                     dE             d eps       ncg     rms          rms(c)
DAV:   1    -0.369225904327E+02    0.93269E-09    0.57658E-09  4588   0.221E-05    0.316E-07
RMM:   2    -0.369225904337E+02   -0.99794E-09    0.24725E-13  1238   0.854E-06    0.192E-07
RMM:   3    -0.369225904333E+02    0.38506E-09    0.56334E-15  1243   0.867E-06    0.123E-08
RMM:   4    -0.369225904334E+02   -0.10982E-09    0.29770E-14  1222   0.851E-06    0.548E-09
RMM:   5    -0.369225904336E+02   -0.18815E-09   -0.41757E-13  1203   0.839E-06    0.527E-09
RMM:   6    -0.369225904334E+02    0.20714E-09   -0.21123E-13   870   0.825E-06    0.497E-09
RMM:   7    -0.369225904333E+02    0.89585E-10   -0.17213E-13  1118   0.820E-06
   4 F= -.36922590E+02 E0= -.36922547E+02  d E =0.383125E-09
       N       E                     dE             d eps       ncg     rms          rms(c)
DAV:   1    -0.369225904329E+02    0.46521E-09    0.57667E-09  4408   0.958E-06    0.976E-08
RMM:   2    -0.369225904332E+02   -0.34584E-09    0.14844E-14   552   0.380E-06    0.597E-08
RMM:   3    -0.369225904333E+02   -0.22283E-10    0.12348E-13   970   0.383E-06    0.185E-09
RMM:   4    -0.369225904335E+02   -0.23260E-09   -0.23709E-13   707   0.389E-06    0.947E-10
RMM:   5    -0.369225904338E+02   -0.26489E-09   -0.31292E-14   445   0.381E-06    0.759E-10
RMM:   6    -0.369225904333E+02    0.47498E-09   -0.56046E-14   516   0.382E-06    0.556E-10
RMM:   7    -0.369225904334E+02   -0.15507E-09    0.95973E-14   957   0.381E-06    0.395E-10
RMM:   8    -0.369225904333E+02    0.11380E-09   -0.17023E-14   534   0.382E-06    0.311E-10
RMM:   9    -0.369225904336E+02   -0.22044E-09   -0.39063E-15   626   0.381E-06    0.409E-10
RMM:  10    -0.369225904337E+02   -0.11869E-09    0.62584E-14   450   0.381E-06    0.526E-10
RMM:  11    -0.369225904333E+02    0.40700E-09    0.47287E-14   314   0.381E-06    0.402E-10
RMM:  12    -0.369225904334E+02   -0.92541E-10   -0.97042E-15   862   0.382E-06
   5 F= -.36922590E+02 E0= -.36922547E+02  d E =-.809450E-10
