gr                                      
           1
     4.269297    0.000000    0.000000
     0.000000    2.479883    0.000000
     0.000000    0.000000   19.914121
   C 
   4
Direct configuration=     1
   0.00013158  0.00000000  0.00000000
   0.16653509  0.50000000  0.00000000
   0.50013158  0.50000000  0.00000000
   0.66653509  0.00000000  0.00000000
Direct configuration=     2
   0.00013836 -0.00000000 -0.00000000
   0.16652830  0.50000000  0.00000000
   0.50013836  0.50000000 -0.00000000
   0.66652830 -0.00000000  0.00000000
Direct configuration=     3
   0.00013293 -0.00000000 -0.00000000
   0.16653374  0.50000000  0.00000000
   0.50013293  0.50000000 -0.00000000
   0.66653374 -0.00000000  0.00000000
Direct configuration=     4
   0.00013293 -0.00000000  0.00000000
   0.16653374  0.50000000 -0.00000000
   0.50013293  0.50000000  0.00000000
   0.66653374 -0.00000000 -0.00000000
Direct configuration=     5
   0.00013293 -0.00000000  0.00000000
   0.16653374  0.50000000 -0.00000000
   0.50013293  0.50000000  0.00000000
   0.66653374 -0.00000000 -0.00000000
