    4    4  400    1
  0.5270948E+02  0.4251718E-09  0.2541815E-09  0.1950923E-08  0.5000000E-15
  1.000000000000000E-004
  CAR 
 gr                                      
     16    247     12
 
  0.0000000E+00  0.0000000E+00  0.0000000E+00  0.1157407E-02
    1      -22.046200
    2      -16.640074
    3      -15.844194
    4      -10.198807
    5       -9.531562
    6       -6.025346
    7       -5.739073
    8       -4.862621
    9       -1.161101
   10        0.549088
   11        1.346520
   12        1.742132
 
  0.4166667E-01  0.0000000E+00  0.0000000E+00  0.2314815E-02
    1      -22.035804
    2      -16.844052
    3      -15.625268
    4      -10.186486
    5       -9.521103
    6       -6.049335
    7       -5.778715
    8       -4.933625
    9       -1.075557
   10        0.563170
   11        1.360738
   12        1.756533
 
  0.8333333E-01  0.0000000E+00  0.0000000E+00  0.2314815E-02
    1      -22.004619
    2      -17.216749
    3      -15.207818
    4      -10.149540
    5       -9.489776
    6       -6.119904
    7       -5.896247
    8       -5.128915
    9       -0.836825
   10        0.605413
   11        1.403389
   12        1.799734
 
  0.1250000E+00  0.0000000E+00  0.0000000E+00  0.2314815E-02
    1      -21.952667
    2      -17.612809
    3      -14.737489
    4      -10.088027
    5       -9.437731
    6       -6.233111
    7       -6.087684
    8       -5.410410
    9       -0.483522
   10        0.675812
   11        1.474461
   12        1.871735
 
  0.1666667E+00  0.0000000E+00  0.0000000E+00  0.2314815E-02
    1      -21.879982
    2      -18.004425
    3      -14.242573
    4      -10.002043
    5       -9.365224
    6       -6.383132
    7       -6.346977
    8       -5.742308
    9       -0.052349
   10        0.774355
   11        1.573935
   12        1.972536
 
  0.2083333E+00  0.0000000E+00  0.0000000E+00  0.2314815E-02
    1      -21.786614
    2      -18.383985
    3      -13.731386
    4       -9.891728
    5       -9.272622
    6       -6.666719
    7       -6.563088
    8       -6.099302
    9        0.430126
   10        0.901026
   11        1.701782
   12        2.102133
 
  0.2500000E+00  0.0000000E+00  0.0000000E+00  0.2314815E-02
    1      -21.672627
    2      -18.748467
    3      -13.207877
    4       -9.757271
    5       -9.160420
    6       -7.038864
    7       -6.765820
    8       -6.465181
    9        0.946067
   10        1.055798
   11        1.857960
   12        2.260523
 
  0.2916667E+00  0.0000000E+00  0.0000000E+00  0.2314815E-02
    1      -21.538102
    2      -19.096327
    3      -12.674766
    4       -9.598912
    5       -9.029257
    6       -7.455299
    7       -6.984456
    8       -6.829712
    9        1.238639
   10        1.483216
   11        2.042409
   12        2.447700
 
  0.3333333E+00  0.0000000E+00  0.0000000E+00  0.2314815E-02
    1      -21.383135
    2      -19.426628
    3      -12.134446
    4       -9.416956
    5       -8.879932
    6       -7.908261
    7       -7.212746
    8       -7.186285
    9        1.449498
   10        2.032492
   11        2.255039
   12        2.663653
 
  0.3750000E+00  0.0000000E+00  0.0000000E+00  0.2314815E-02
    1      -21.207842
    2      -19.738726
    3      -11.589334
    4       -9.211786
    5       -8.713442
    6       -8.390590
    7       -7.530488
    8       -7.445221
    9        1.688313
   10        2.495703
   11        2.586295
   12        2.908359
 
  0.4166667E+00  0.0000000E+00  0.0000000E+00  0.2314815E-02
    1      -21.012357
    2      -20.032141
    3      -11.042039
    4       -8.983875
    5       -8.895838
    6       -8.531011
    7       -7.859265
    8       -7.677205
    9        1.954986
   10        2.764115
   11        3.135920
   12        3.181770
 
  0.4583333E+00  0.0000000E+00  0.0000000E+00  0.2314815E-02
    1      -20.796840
    2      -20.306494
    3      -10.495478
    4       -9.418298
    5       -8.733815
    6       -8.334137
    7       -8.170424
    8       -7.904770
    9        2.249370
   10        2.919834
   11        3.059538
   12        3.483742
 
  0.5000000E+00  0.0000000E+00  0.0000000E+00  0.1157407E-02
    1      -20.561479
    2      -20.561479
    3       -9.952965
    4       -9.952965
    5       -8.462349
    6       -8.462349
    7       -8.124648
    8       -8.124648
    9        2.571194
   10        2.571194
   11        3.378559
   12        3.378559
 
  0.0000000E+00  0.2777778E-01  0.0000000E+00  0.2314815E-02
    1      -22.033318
    2      -16.628937
    3      -15.834080
    4      -10.183540
    5       -9.589073
    6       -6.078380
    7       -5.771575
    8       -4.847044
    9       -1.167689
   10        0.566498
   11        1.364191
   12        1.760024
 
  0.4166667E-01  0.2777778E-01  0.0000000E+00  0.4629630E-02
    1      -22.022922
    2      -16.832839
    3      -15.615293
    4      -10.171223
    5       -9.578580
    6       -6.105145
    7       -5.807696
    8       -4.918234
    9       -1.082094
   10        0.580581
   11        1.378407
   12        1.774425
 
  0.8333333E-01  0.2777778E-01  0.0000000E+00  0.4629630E-02
    1      -21.991742
    2      -17.205348
    3      -15.198227
    4      -10.134291
    5       -9.547149
    6       -6.184815
    7       -5.914031
    8       -5.113936
    9       -0.843353
   10        0.622830
   11        1.421054
   12        1.817628
 
  0.1250000E+00  0.2777778E-01  0.0000000E+00  0.4629630E-02
    1      -21.939797
    2      -17.601206
    3      -14.728434
    4      -10.072801
    5       -9.494922
    6       -6.316991
    7       -6.083401
    8       -5.395833
    9       -0.490322
   10        0.693237
   11        1.492120
   12        1.889631
 
  0.1666667E+00  0.2777778E-01  0.0000000E+00  0.4629630E-02
    1      -21.867122
    2      -17.992637
    3      -14.234192
    4       -9.986849
    5       -9.422145
    6       -6.506936
    7       -6.299118
    8       -5.728009
    9       -0.059815
   10        0.791791
   11        1.591586
   12        1.990434
 
  0.2083333E+00  0.2777778E-01  0.0000000E+00  0.4629630E-02
    1      -21.773768
    2      -18.372033
    3      -13.723830
    4       -9.876576
    5       -9.329170
    6       -6.769380
    7       -6.532581
    8       -6.085150
    9        0.421594
   10        0.918475
   11        1.719423
   12        2.120034
 
  0.2500000E+00  0.2777778E-01  0.0000000E+00  0.4629630E-02
    1      -21.659798
    2      -18.736372
    3      -13.201328
    4       -9.742169
    5       -9.216470
    6       -7.106880
    7       -6.766328
    8       -6.451075
    9        0.936103
   10        1.073262
   11        1.875589
   12        2.278427
 
  0.2916667E+00  0.2777778E-01  0.0000000E+00  0.4629630E-02
    1      -21.525295
    2      -19.084109
    3      -12.669445
    4       -9.583871
    5       -9.084652
    6       -7.502828
    7       -7.002157
    8       -6.815582
    9        1.256117
   10        1.471502
   11        2.060024
   12        2.465609
 
  0.3333333E+00  0.2777778E-01  0.0000000E+00  0.4629630E-02
    1      -21.370354
    2      -19.414303
    3      -12.130631
    4       -9.401986
    5       -8.934480
    6       -7.942244
    7       -7.241117
    8       -7.172090
    9        1.466994
   10        2.018774
   11        2.272640
   12        2.681568
 
  0.3750000E+00  0.2777778E-01  0.0000000E+00  0.4629630E-02
    1      -21.195092
    2      -19.726310
    3      -11.587370
    4       -9.196895
    5       -8.766897
    6       -8.414824
    7       -7.516202
    8       -7.480882
    9        1.705827
   10        2.513294
   11        2.570439
   12        2.926283
 
  0.4166667E+00  0.2777778E-01  0.0000000E+00  0.4629630E-02
    1      -20.999643
    2      -20.019646
    3      -11.042361
    4       -8.969071
    5       -8.912718
    6       -8.583061
    7       -7.844875
    8       -7.718148
    9        1.972526
   10        2.781709
   11        3.118275
   12        3.199713
 
  0.4583333E+00  0.2777778E-01  0.0000000E+00  0.4629630E-02
    1      -20.784169
    2      -20.293931
    3      -10.498641
    4       -9.429486
    5       -8.719107
    6       -8.384381
    7       -8.155926
    8       -7.949668
    9        2.266948
   10        2.937668
   11        3.077167
   12        3.501736
 
  0.5000000E+00  0.2777778E-01  0.0000000E+00  0.2314815E-02
    1      -20.548858
    2      -20.548858
    3       -9.959680
    4       -9.959680
    5       -8.447744
    6       -8.447744
    7       -8.172564
    8       -8.172564
    9        2.588846
   10        2.588846
   11        3.396241
   12        3.396241
 
  0.0000000E+00  0.5555556E-01  0.0000000E+00  0.2314815E-02
    1      -21.994681
    2      -16.595531
    3      -15.803957
    4      -10.137771
    5       -9.756831
    6       -6.233366
    7       -5.867989
    8       -4.800331
    9       -1.188225
   10        0.618738
   11        1.417195
   12        1.813704
 
  0.4166667E-01  0.5555556E-01  0.0000000E+00  0.4629630E-02
    1      -21.984290
    2      -16.799230
    3      -15.585575
    4      -10.125468
    5       -9.746228
    6       -6.266259
    7       -5.895820
    8       -4.872097
    9       -1.102462
   10        0.632826
   11        1.431408
   12        1.828105
 
  0.8333333E-01  0.5555556E-01  0.0000000E+00  0.4629630E-02
    1      -21.953122
    2      -17.171183
    3      -15.169670
    4      -10.088577
    5       -9.714459
    6       -6.362697
    7       -5.979275
    8       -5.069070
    9       -0.863676
   10        0.675087
   11        1.474044
   12        1.871310
 
  0.1250000E+00  0.5555556E-01  0.0000000E+00  0.4629630E-02
    1      -21.901199
    2      -17.566433
    3      -14.701525
    4      -10.027156
    5       -9.661649
    6       -6.517436
    7       -6.117017
    8       -5.352198
    9       -0.511459
   10        0.745515
   11        1.545091
   12        1.943317
 
  0.1666667E+00  0.5555556E-01  0.0000000E+00  0.4629630E-02
    1      -21.828556
    2      -17.957303
    3      -14.209363
    4       -9.941303
    5       -9.588004
    6       -6.725282
    7       -6.304082
    8       -5.685222
    9       -0.082973
   10        0.844097
   11        1.644531
   12        2.044126
 
  0.2083333E+00  0.5555556E-01  0.0000000E+00  0.4629630E-02
    1      -21.735244
    2      -18.336205
    3      -13.701565
    4       -9.831156
    5       -9.493826
    6       -6.983429
    7       -6.530603
    8       -6.042805
    9        0.395195
   10        0.970814
   11        1.772334
   12        2.173733
 
  0.2500000E+00  0.5555556E-01  0.0000000E+00  0.4629630E-02
    1      -21.621327
    2      -18.700113
    3      -13.182204
    4       -9.696905
    5       -9.379511
    6       -7.291552
    7       -6.782901
    8       -6.408864
    9        0.905354
   10        1.125638
   11        1.928459
   12        2.332137
 
  0.2916667E+00  0.5555556E-01  0.0000000E+00  0.4629630E-02
    1      -21.486889
    2      -19.047478
    3      -12.654178
    4       -9.538790
    5       -9.245567
    6       -7.649159
    7       -7.047210
    8       -6.773295
    9        1.308533
   10        1.435441
   11        2.112850
   12        2.519330
 
  0.3333333E+00  0.5555556E-01  0.0000000E+00  0.4629630E-02
    1      -21.332026
    2      -19.377351
    3      -12.120115
    4       -9.357118
    5       -9.092622
    6       -8.052663
    7       -7.313427
    8       -7.129596
    9        1.519453
   10        1.976619
   11        2.325421
   12        2.735304
 
  0.3750000E+00  0.5555556E-01  0.0000000E+00  0.4629630E-02
    1      -21.156856
    2      -19.689081
    3      -11.582738
    4       -9.152268
    5       -8.921440
    6       -8.495384
    7       -7.575638
    8       -7.473426
    9        1.758336
   10        2.521725
   11        2.566040
   12        2.980044
 
  0.4166667E+00  0.5555556E-01  0.0000000E+00  0.4629630E-02
    1      -20.961517
    2      -19.982180
    3      -11.045057
    4       -8.969511
    5       -8.924713
    6       -8.732939
    7       -7.830410
    8       -7.801780
    9        2.025096
   10        2.834458
   11        3.063655
   12        3.253517
 
  0.4583333E+00  0.5555556E-01  0.0000000E+00  0.4629630E-02
    1      -20.746171
    2      -20.256260
    3      -10.510517
    4       -9.467602
    5       -8.675041
    6       -8.528206
    7       -8.112501
    8       -8.075355
    9        2.319611
   10        2.990900
   11        3.130022
   12        3.555854
 
  0.5000000E+00  0.5555556E-01  0.0000000E+00  0.2314815E-02
    1      -20.511011
    2      -20.511011
    3       -9.983126
    4       -9.983126
    5       -8.403991
    6       -8.403991
    7       -8.308518
    8       -8.308518
    9        2.641678
   10        2.641678
   11        3.449280
   12        3.449280
 
  0.0000000E+00  0.8333333E-01  0.0000000E+00  0.2314815E-02
    1      -21.930327
    2      -16.539869
    3      -15.754538
    4      -10.061594
    5      -10.021780
    6       -6.479157
    7       -6.025177
    8       -4.722541
    9       -1.224996
   10        0.705837
   11        1.505513
   12        1.903175
 
  0.4166667E-01  0.8333333E-01  0.0000000E+00  0.4629630E-02
    1      -21.919943
    2      -16.743307
    3      -15.536772
    4      -10.049315
    5      -10.010969
    6       -6.518491
    7       -6.043180
    8       -4.795329
    9       -1.138907
   10        0.719929
   11        1.519719
   12        1.917577
 
  0.8333333E-01  0.8333333E-01  0.0000000E+00  0.4629630E-02
    1      -21.888797
    2      -17.114368
    3      -15.122848
    4      -10.012496
    5       -9.978560
    6       -6.630199
    7       -6.101749
    8       -4.994541
    9       -0.899975
   10        0.762202
   11        1.562334
   12        1.960784
 
  0.1250000E+00  0.8333333E-01  0.0000000E+00  0.4629630E-02
    1      -21.836912
    2      -17.508603
    3      -14.657590
    4       -9.951195
    5       -9.924636
    6       -6.801187
    7       -6.208845
    8       -5.279813
    9       -0.549106
   10        0.832652
   11        1.633346
   12        2.032796
 
  0.1666667E+00  0.8333333E-01  0.0000000E+00  0.4629630E-02
    1      -21.764323
    2      -17.898528
    3      -14.169120
    4       -9.865509
    5       -9.849333
    6       -7.019458
    7       -6.368217
    8       -5.614288
    9       -0.124054
   10        0.931265
   11        1.732737
   12        2.133611
 
  0.2083333E+00  0.8333333E-01  0.0000000E+00  0.4629630E-02
    1      -21.671080
    2      -18.276591
    3      -13.665916
    4       -9.755579
    5       -9.752837
    6       -7.276787
    7       -6.577285
    8       -5.972614
    9        0.348589
   10        1.058022
   11        1.860476
   12        2.263228
 
  0.2500000E+00  0.8333333E-01  0.0000000E+00  0.4629630E-02
    1      -21.557252
    2      -18.639771
    3      -13.152249
    4       -9.635390
    5       -9.621594
    6       -7.568865
    7       -6.827836
    8       -6.338879
    9        0.851339
   10        1.212893
   11        2.016525
   12        2.421644
 
  0.2916667E+00  0.8333333E-01  0.0000000E+00  0.4629630E-02
    1      -21.422922
    2      -18.986506
    3      -12.631295
    4       -9.497279
    5       -9.463795
    6       -7.894810
    7       -7.107443
    8       -6.703159
    9        1.372388
   10        1.395840
   11        2.200828
   12        2.608853
 
  0.3333333E+00  0.8333333E-01  0.0000000E+00  0.4629630E-02
    1      -21.268190
    2      -19.315836
    3      -12.106060
    4       -9.338834
    5       -9.282489
    6       -8.255888
    7       -7.401618
    8       -7.059088
    9        1.606815
   10        1.903186
   11        2.413307
   12        2.824847
 
  0.3750000E+00  0.8333333E-01  0.0000000E+00  0.4629630E-02
    1      -21.093176
    2      -19.627099
    3      -11.579769
    4       -9.160413
    5       -9.078053
    6       -8.653173
    7       -7.696799
    8       -7.402421
    9        1.845756
   10        2.436990
   11        2.653847
   12        3.069615
 
  0.4166667E+00  0.8333333E-01  0.0000000E+00  0.4629630E-02
    1      -20.898021
    2      -19.919796
    3      -11.056100
    4       -9.085267
    5       -8.962390
    6       -8.850959
    7       -7.983035
    8       -7.730217
    9        2.112586
   10        2.922244
   11        2.967814
   12        3.343136
 
  0.4583333E+00  0.8333333E-01  0.0000000E+00  0.4629630E-02
    1      -20.682892
    2      -20.193532
    3      -10.539364
    4       -9.547798
    5       -8.745138
    6       -8.601792
    7       -8.254653
    8       -8.040361
    9        2.407197
   10        3.079022
   11        3.217983
   12        3.486491
 
  0.5000000E+00  0.8333333E-01  0.0000000E+00  0.2314815E-02
    1      -20.447986
    2      -20.447986
    3      -10.034637
    4      -10.034637
    5       -8.509048
    6       -8.509048
    7       -8.331284
    8       -8.331284
    9        2.729433
   10        2.729433
   11        3.537643
   12        3.537643
 
  0.0000000E+00  0.1111111E+00  0.0000000E+00  0.2314815E-02
    1      -21.840320
    2      -16.461970
    3      -15.687170
    4      -10.365613
    5       -9.955173
    6       -6.800442
    7       -6.238289
    8       -4.613769
    9       -1.281708
   10        0.827829
   11        1.629105
   12        2.028445
 
  0.4166667E-01  0.1111111E+00  0.0000000E+00  0.4629630E-02
    1      -21.829947
    2      -16.665230
    3      -15.470143
    4      -10.354447
    5       -9.942928
    6       -6.845412
    7       -6.246322
    8       -4.688139
    9       -1.195047
   10        0.841922
   11        1.643300
   12        2.042848
 
  0.8333333E-01  0.1111111E+00  0.0000000E+00  0.4629630E-02
    1      -21.798833
    2      -17.035118
    3      -15.059108
    4      -10.320950
    5       -9.906214
    6       -6.969736
    7       -6.279885
    8       -4.890766
    9       -0.955724
   10        0.884199
   11        1.685882
   12        2.086056
 
  0.1250000E+00  0.1111111E+00  0.0000000E+00  0.4629630E-02
    1      -21.747000
    2      -17.427922
    3      -14.598245
    4      -10.265123
    5       -9.845087
    6       -7.153350
    7       -6.355582
    8       -5.179240
    9       -0.606687
   10        0.954658
   11        1.756837
   12        2.158069
 
  0.1666667E+00  0.1111111E+00  0.0000000E+00  0.4629630E-02
    1      -21.674485
    2      -17.816495
    3      -14.115509
    4      -10.186961
    5       -9.759646
    6       -7.379804
    7       -6.483903
    8       -5.515831
    9       -0.186552
   10        1.053289
   11        1.856147
   12        2.258889
 
  0.2083333E+00  0.1111111E+00  0.0000000E+00  0.4629630E-02
    1      -21.581342
    2      -18.193356
    3      -13.619565
    4      -10.086433
    5       -9.650033
    6       -7.638189
    7       -6.667320
    8       -5.875201
    9        0.278137
   10        1.180074
   11        1.983780
   12        2.388514
 
  0.2500000E+00  0.1111111E+00  0.0000000E+00  0.4629630E-02
    1      -21.467641
    2      -18.555489
    3      -13.115052
    4       -9.963462
    5       -9.516437
    6       -7.921874
    7       -6.901930
    8       -6.241717
    9        0.770244
   10        1.334984
   11        2.139696
   12        2.546941
 
  0.2916667E+00  0.1111111E+00  0.0000000E+00  0.4629630E-02
    1      -21.333464
    2      -18.901319
    3      -12.605681
    4       -9.817889
    5       -9.359101
    6       -8.227651
    7       -7.179016
    8       -6.605727
    9        1.278347
   10        1.517976
   11        2.323840
   12        2.734166
 
  0.3333333E+00  0.1111111E+00  0.0000000E+00  0.4629630E-02
    1      -21.178917
    2      -19.229872
    3      -12.095194
    4       -9.649423
    5       -9.178329
    6       -8.555343
    7       -7.486288
    8       -6.961070
    9        1.729000
   10        1.794299
   11        2.536140
   12        2.950180
 
  0.3750000E+00  0.1111111E+00  0.0000000E+00  0.4629630E-02
    1      -21.004124
    2      -19.540466
    3      -11.587797
    4       -9.457587
    5       -8.974502
    6       -8.907298
    7       -7.809173
    8       -7.303643
    9        1.967992
   10        2.311825
   11        2.776498
   12        3.194974
 
  0.4166667E+00  0.1111111E+00  0.0000000E+00  0.4629630E-02
    1      -20.809230
    2      -19.832589
    3      -11.088410
    4       -9.287074
    5       -9.241689
    6       -8.748087
    7       -8.132694
    8       -7.630598
    9        2.234874
   10        2.825736
   11        3.044773
   12        3.468534
 
  0.4583333E+00  0.1111111E+00  0.0000000E+00  0.4629630E-02
    1      -20.594410
    2      -20.105833
    3      -10.602746
    4       -9.697183
    5       -9.000918
    6       -8.499665
    7       -8.444047
    8       -7.939879
    9        2.529549
   10        3.201689
   11        3.331277
   12        3.340682
 
  0.5000000E+00  0.1111111E+00  0.0000000E+00  0.2314815E-02
    1      -20.359865
    2      -20.359865
    3      -10.137048
    4      -10.137048
    5       -8.734759
    6       -8.734759
    7       -8.229958
    8       -8.229958
    9        2.851886
   10        2.851886
   11        3.661111
   12        3.661111
 
  0.0000000E+00  0.1388889E+00  0.0000000E+00  0.2314815E-02
    1      -21.724754
    2      -16.361867
    3      -15.604148
    4      -10.767839
    5       -9.818741
    6       -7.180775
    7       -6.501246
    8       -4.474155
    9       -1.363269
   10        0.984742
   11        1.787917
   12        2.189522
 
  0.4166667E-01  0.1388889E+00  0.0000000E+00  0.4629630E-02
    1      -21.714393
    2      -16.565265
    3      -15.387839
    4      -10.756084
    5       -9.806544
    6       -7.230571
    7       -6.499479
    8       -4.550860
    9       -1.275614
   10        0.998830
   11        1.802095
   12        2.203924
 
  0.8333333E-01  0.1388889E+00  0.0000000E+00  0.4629630E-02
    1      -21.683319
    2      -16.933782
    3      -14.980801
    4      -10.720770
    5       -9.769971
    6       -7.365579
    7       -6.508035
    8       -4.758430
    9       -1.035368
   10        1.041095
   11        1.844623
   12        2.247129
 
  0.1250000E+00  0.1388889E+00  0.0000000E+00  0.4629630E-02
    1      -21.631555
    2      -17.324723
    3      -14.526374
    4      -10.661743
    5       -9.709081
    6       -7.559922
    7       -6.550997
    8       -5.051398
    9       -0.688515
   10        1.111539
   11        1.915488
   12        2.319140
 
  0.1666667E+00  0.1388889E+00  0.0000000E+00  0.4629630E-02
    1      -21.559139
    2      -17.711499
    3      -14.052271
    4      -10.578717
    5       -9.623973
    6       -7.793827
    7       -6.644571
    8       -5.390850
    9       -0.274810
   10        1.210160
   11        2.014665
   12        2.419959
 
  0.2083333E+00  0.1388889E+00  0.0000000E+00  0.4629630E-02
    1      -21.466127
    2      -18.086754
    3      -13.567528
    4      -10.471224
    5       -9.514790
    6       -8.054719
    7       -6.795529
    8       -5.751553
    9        0.179384
   10        1.336946
   11        2.142121
   12        2.549587
 
  0.2500000E+00  0.1388889E+00  0.0000000E+00  0.4629630E-02
    1      -21.352587
    2      -18.447488
    3      -13.077489
    4      -10.338543
    5       -9.381724
    6       -8.334703
    7       -7.003620
    8       -6.118305
    9        0.657486
   10        1.491868
   11        2.297806
   12        2.708021
 
  0.2916667E+00  0.1388889E+00  0.0000000E+00  0.4629630E-02
    1      -21.218612
    2      -18.792113
    3      -12.586894
    4      -10.179604
    5       -9.225019
    6       -8.629063
    7       -7.263446
    8       -6.481850
    9        1.148664
   10        1.674884
   11        2.481659
   12        2.895257
 
  0.3333333E+00  0.1388889E+00  0.0000000E+00  0.4629630E-02
    1      -21.064307
    2      -19.119631
    3      -12.100861
    4       -9.992896
    5       -9.044980
    6       -8.935669
    7       -7.565787
    8       -6.836314
    9        1.645324
   10        1.885936
   11        2.693593
   12        3.111288
 
  0.3750000E+00  0.1388889E+00  0.0000000E+00  0.4629630E-02
    1      -20.889802
    2      -19.429337
    3      -11.625253
    4       -9.776480
    5       -9.254842
    6       -8.841987
    7       -7.898596
    8       -7.177786
    9        2.124955
   10        2.141744
   11        2.933497
   12        3.356104
 
  0.4166667E+00  0.1388889E+00  0.0000000E+00  0.4629630E-02
    1      -20.695252
    2      -19.720700
    3      -11.166576
    4       -9.589310
    5       -9.528319
    6       -8.616505
    7       -8.247772
    8       -7.503544
    9        2.391859
   10        2.633326
   11        3.201209
   12        3.629693
 
  0.4583333E+00  0.1388889E+00  0.0000000E+00  0.4629630E-02
    1      -20.480838
    2      -19.993294
    3      -10.731130
    4       -9.943746
    5       -9.247298
    6       -8.598123
    7       -8.369111
    8       -7.811614
    9        2.686549
   10        3.116140
   11        3.358760
   12        3.496393
 
  0.5000000E+00  0.1388889E+00  0.0000000E+00  0.2314815E-02
    1      -20.246769
    2      -20.246769
    3      -10.323292
    4      -10.323292
    5       -8.935100
    6       -8.935100
    7       -8.100515
    8       -8.100515
    9        3.008904
   10        3.008904
   11        3.586024
   12        3.586024
 
  0.0000000E+00  0.1666667E+00  0.0000000E+00  0.2314815E-02
    1      -21.583749
    2      -16.239601
    3      -15.509321
    4      -11.207592
    5       -9.652611
    6       -7.604737
    7       -6.807239
    8       -4.303881
    9       -1.475383
   10        1.176582
   11        1.981870
   12        2.386410
 
  0.4166667E-01  0.1666667E+00  0.0000000E+00  0.4629630E-02
    1      -21.573406
    2      -16.443856
    3      -15.293484
    4      -11.194838
    5       -9.640475
    6       -7.658800
    7       -6.795892
    8       -4.384026
    9       -1.385978
   10        1.190659
   11        1.996019
   12        2.400809
 
  0.8333333E-01  0.1666667E+00  0.0000000E+00  0.4629630E-02
    1      -21.542383
    2      -16.810928
    3      -14.891991
    4      -11.156425
    5       -9.604087
    6       -7.803288
    7       -6.779542
    8       -4.598649
    9       -1.143730
   10        1.232893
   11        2.038462
   12        2.444008
 
  0.1250000E+00  0.1666667E+00  0.0000000E+00  0.4629630E-02
    1      -21.490704
    2      -17.199530
    3      -14.447117
    4      -11.091883
    5       -9.543507
    6       -8.007347
    7       -6.788736
    8       -4.897743
    9       -0.799112
   10        1.303293
   11        2.109178
   12        2.516011
 
  0.1666667E+00  0.1666667E+00  0.0000000E+00  0.4629630E-02
    1      -21.418410
    2      -17.583993
    3      -13.986286
    4      -11.000348
    5       -9.458836
    6       -8.248502
    7       -6.844636
    8       -5.240892
    9       -0.393280
   10        1.401865
   11        2.208135
   12        2.616820
 
  0.2083333E+00  0.1666667E+00  0.0000000E+00  0.4629630E-02
    1      -21.325558
    2      -17.957172
    3      -13.519293
    4      -10.880451
    5       -9.350219
    6       -8.513003
    7       -6.957848
    8       -5.603163
    9        0.047860
   10        1.528607
   11        2.335283
   12        2.746440
 
  0.2500000E+00  0.1666667E+00  0.0000000E+00  0.4629630E-02
    1      -21.212223
    2      -18.316099
    3      -13.052847
    4      -10.730177
    5       -9.217850
    6       -8.792266
    7       -7.131435
    8       -5.970025
    9        0.508630
   10        1.683499
   11        2.490545
   12        2.904872
 
  0.2916667E+00  0.1666667E+00  0.0000000E+00  0.4629630E-02
    1      -21.078498
    2      -18.659172
    3      -12.593525
    4      -10.546770
    5       -9.080815
    6       -9.061976
    7       -7.362945
    8       -6.332777
    9        0.979068
   10        1.866500
   11        2.673811
   12        3.092113
 
  0.3333333E+00  0.1666667E+00  0.0000000E+00  0.4629630E-02
    1      -20.924496
    2      -18.985360
    3      -12.148444
    4      -10.326926
    5       -9.375376
    6       -8.882905
    7       -7.645821
    8       -6.685937
    9        1.452370
   10        2.077546
   11        2.884895
   12        3.308154
 
  0.3750000E+00  0.1666667E+00  0.0000000E+00  0.4629630E-02
    1      -20.750354
    2      -19.293932
    3      -11.724737
    4      -10.067686
    5       -9.674566
    6       -8.681017
    7       -7.970534
    8       -7.025846
    9        1.923540
   10        2.316560
   11        3.123416
   12        3.552987
 
  0.4166667E+00  0.1666667E+00  0.0000000E+00  0.4629630E-02
    1      -20.556237
    2      -19.584326
    3      -11.327826
    4       -9.978908
    5       -9.768398
    6       -8.456778
    7       -8.325441
    8       -7.349942
    9        2.388633
   10        2.583449
   11        3.388004
   12        3.826598
 
  0.4583333E+00  0.1666667E+00  0.0000000E+00  0.4629630E-02
    1      -20.342333
    2      -19.856094
    3      -10.959201
    4      -10.291012
    5       -9.433114
    6       -8.697276
    7       -8.210758
    8       -7.656352
    9        2.844201
   10        2.878106
   11        3.550180
   12        3.639637
 
  0.5000000E+00  0.1666667E+00  0.0000000E+00  0.2314815E-02
    1      -20.108866
    2      -20.108866
    3      -10.615651
    4      -10.615651
    5       -9.071511
    6       -9.071511
    7       -7.943658
    8       -7.943658
    9        3.200402
   10        3.200402
   11        3.285976
   12        3.285976
 