 running on    8 total cores
 distrk:  each k-point on    8 cores,    1 groups
 distr:  one band on    2 cores,    4 groups
 using from now: INCAR     
 vasp.5.3.5 31Mar14 (build Mar 02 2015 18:14:16) complex                        
  
 POSCAR found type information on POSCAR  C 
 POSCAR found :  1 types and       4 ions
 LDA part: xc-table for Pade appr. of Perdew
 POSCAR, INCAR and KPOINTS ok, starting setup
 FFT: planning ...
 WAVECAR not read
 entering main loop
       N       E                     dE             d eps       ncg     rms          rms(c)
DAV:   1     0.186399084173E+03    0.18640E+03   -0.10558E+04  5928   0.274E+03
DAV:   2    -0.909865026217E+01   -0.19550E+03   -0.17408E+03 10420   0.262E+02
DAV:   3    -0.380018923584E+02   -0.28903E+02   -0.28327E+02  7320   0.118E+02    0.702E+00
RMM:   4    -0.375319805111E+02    0.46991E+00   -0.96281E+00  5928   0.264E+01    0.408E+00
RMM:   5    -0.368372385421E+02    0.69474E+00   -0.26168E+00  5933   0.111E+01    0.699E-01
RMM:   6    -0.368390527460E+02   -0.18142E-02   -0.82886E-02  6405   0.201E+00    0.497E-01
RMM:   7    -0.368304580983E+02    0.85946E-02   -0.31849E-02  5946   0.154E+00    0.323E-01
RMM:   8    -0.368256432113E+02    0.48149E-02   -0.63784E-03  5934   0.529E-01    0.133E-01
RMM:   9    -0.368255371732E+02    0.10604E-03   -0.19068E-02  5928   0.817E-01    0.151E-01
RMM:  10    -0.368254474373E+02    0.89736E-04   -0.22014E-03  5928   0.338E-01    0.266E-02
RMM:  11    -0.368276413650E+02   -0.21939E-02   -0.60388E-04  5931   0.166E-01    0.410E-02
RMM:  12    -0.368281609318E+02   -0.51957E-03   -0.19541E-04  5953   0.920E-02    0.509E-03
RMM:  13    -0.368284043296E+02   -0.24340E-03   -0.46403E-05  6036   0.357E-02    0.307E-03
RMM:  14    -0.368284855647E+02   -0.81235E-04   -0.10078E-05  5983   0.145E-02    0.901E-04
RMM:  15    -0.368284978069E+02   -0.12242E-04   -0.17118E-06  5960   0.722E-03    0.220E-03
RMM:  16    -0.368285117972E+02   -0.13990E-04   -0.18164E-06  5928   0.884E-03    0.127E-03
RMM:  17    -0.368285177414E+02   -0.59442E-05   -0.13983E-07  5968   0.227E-03    0.642E-04
RMM:  18    -0.368285187416E+02   -0.10002E-05   -0.48983E-08  5947   0.169E-03    0.853E-05
RMM:  19    -0.368285194193E+02   -0.67773E-06   -0.92620E-09  5747   0.441E-04    0.142E-05
RMM:  20    -0.368285194603E+02   -0.40971E-07   -0.68946E-10  4472   0.134E-04    0.203E-05
RMM:  21    -0.368285194715E+02   -0.11212E-07   -0.16879E-10  4287   0.784E-05    0.876E-06
RMM:  22    -0.368285194711E+02    0.36573E-09   -0.20016E-11  3893   0.497E-05    0.703E-07
RMM:  23    -0.368285194719E+02   -0.77966E-09   -0.16584E-11  3556   0.385E-05    0.190E-06
RMM:  24    -0.368285194718E+02    0.97998E-10   -0.55720E-12  3115   0.287E-05
   1 F= -.36828519E+02 E0= -.36828519E+02  d E =-.368285E+02
 BRION: g(F)=  0.385E-06 g(S)=  0.000E+00
 bond charge predicted
       N       E                     dE             d eps       ncg     rms          rms(c)
DAV:   1    -0.368285188875E+02    0.58439E-06   -0.51357E-05  6300   0.675E-02    0.135E-03
RMM:   2    -0.368285189247E+02   -0.37232E-07   -0.88040E-07  5954   0.814E-03    0.100E-03
RMM:   3    -0.368285188870E+02    0.37692E-07   -0.13625E-07  5984   0.299E-03    0.248E-04
RMM:   4    -0.368285188873E+02   -0.21578E-09   -0.83260E-09  6048   0.720E-04    0.724E-05
RMM:   5    -0.368285188850E+02    0.22337E-08   -0.70959E-10  4860   0.192E-04    0.322E-05
RMM:   6    -0.368285188855E+02   -0.42428E-09   -0.82282E-11  3800   0.827E-05    0.446E-06
RMM:   7    -0.368285188852E+02    0.26967E-09   -0.21437E-11  3781   0.569E-05    0.427E-06
RMM:   8    -0.368285188854E+02   -0.22942E-09   -0.14929E-11  3281   0.378E-05    0.173E-06
RMM:   9    -0.368285188857E+02   -0.33435E-09   -0.52334E-12  3037   0.292E-05    0.131E-06
RMM:  10    -0.368285188855E+02    0.24818E-09   -0.20917E-12  2887   0.263E-05    0.182E-06
RMM:  11    -0.368285188858E+02   -0.25921E-09   -0.24110E-12  2629   0.241E-05    0.764E-07
RMM:  12    -0.368285188856E+02    0.18645E-09   -0.23264E-12  2508   0.224E-05    0.988E-08
RMM:  13    -0.368285188858E+02   -0.23215E-09   -0.27793E-12  2371   0.209E-05    0.410E-07
RMM:  14    -0.368285188857E+02    0.12324E-09   -0.14230E-12  2171   0.197E-05    0.198E-07
RMM:  15    -0.368285188856E+02    0.11710E-09   -0.93627E-13  2043   0.186E-05    0.273E-08
RMM:  16    -0.368285188854E+02    0.12051E-09    0.50721E-14  1951   0.178E-05    0.393E-08
RMM:  17    -0.368285188854E+02    0.87084E-10   -0.13054E-12  1878   0.173E-05
   2 F= -.36828519E+02 E0= -.36828519E+02  d E =0.586440E-06
 BRION: g(F)=  0.601E-05 g(S)=  0.000E+00 retain N=  1 mean eig= 0.20
 eig:   0.202
 bond charge predicted
       N       E                     dE             d eps       ncg     rms          rms(c)
DAV:   1    -0.368285194857E+02   -0.60028E-06   -0.32667E-05  6572   0.539E-02    0.109E-03
RMM:   2    -0.368285195130E+02   -0.27244E-07   -0.52710E-07  5945   0.646E-03    0.796E-04
RMM:   3    -0.368285195084E+02    0.45378E-08   -0.83523E-08  5993   0.234E-03    0.184E-04
RMM:   4    -0.368285195059E+02    0.25448E-08   -0.47182E-09  6034   0.545E-04    0.583E-05
RMM:   5    -0.368285195071E+02   -0.12320E-08   -0.39427E-10  4412   0.148E-04    0.253E-05
RMM:   6    -0.368285195069E+02    0.17383E-09   -0.44536E-11  3738   0.688E-05    0.381E-06
RMM:   7    -0.368285195070E+02   -0.42633E-10   -0.21815E-11  3723   0.555E-05
   3 F= -.36828520E+02 E0= -.36828520E+02  d E =-.621630E-06
 BRION: g(F)=  0.120E-10 g(S)=  0.000E+00 retain N=  1 mean eig= 0.20
 eig:   0.202
 bond charge predicted
       N       E                     dE             d eps       ncg     rms          rms(c)
DAV:   1    -0.368285195064E+02    0.58276E-09    0.58422E-09  4792   0.819E-05    0.143E-06
RMM:   2    -0.368285195070E+02   -0.64358E-09    0.60326E-13  2987   0.280E-05    0.864E-07
RMM:   3    -0.368285195071E+02   -0.11062E-09   -0.11951E-12  2807   0.287E-05    0.188E-07
RMM:   4    -0.368285195072E+02   -0.93905E-10   -0.26159E-12  2575   0.266E-05    0.124E-07
RMM:   5    -0.368285195070E+02    0.23476E-09   -0.24822E-12  2538   0.248E-05    0.197E-07
RMM:   6    -0.368285195070E+02    0.56843E-12   -0.30161E-12  2284   0.229E-05
   4 F= -.36828520E+02 E0= -.36828520E+02  d E =0.126192E-10
 BRION: g(F)=  0.252E-10 g(S)=  0.000E+00 retain N=  1 mean eig= 0.08
 eig:   0.082
 bond charge predicted
       N       E                     dE             d eps       ncg     rms          rms(c)
DAV:   1    -0.368285195064E+02    0.55968E-09    0.58861E-09  4372   0.449E-05    0.479E-07
RMM:   2    -0.368285195070E+02   -0.61016E-09   -0.33245E-13  1492   0.130E-05    0.296E-07
RMM:   3    -0.368285195071E+02   -0.33310E-10    0.32801E-13  1445   0.128E-05    0.218E-08
RMM:   4    -0.368285195071E+02   -0.31832E-10   -0.33072E-13  1430   0.128E-05    0.922E-09
RMM:   5    -0.368285195071E+02   -0.16826E-10   -0.18463E-13  1404   0.126E-05
   5 F= -.36828520E+02 E0= -.36828520E+02  d E =-.133014E-09
 BRION: g(F)=  0.765E-12 g(S)=  0.000E+00 retain N=  1 mean eig= 0.10
 eig:   0.100
 bond charge predicted
       N       E                     dE             d eps       ncg     rms          rms(c)
DAV:   1    -0.368285195065E+02    0.56230E-09    0.59011E-09  4448   0.184E-05    0.400E-07
RMM:   2    -0.368285195071E+02   -0.59890E-09   -0.87584E-15  1165   0.591E-06    0.246E-07
RMM:   3    -0.368285195071E+02   -0.10459E-10   -0.25823E-14  1269   0.585E-06    0.495E-09
RMM:   4    -0.368285195071E+02    0.31832E-11   -0.24096E-14  1141   0.584E-06    0.205E-09
RMM:   5    -0.368285195071E+02    0.28422E-11    0.73192E-14  1142   0.582E-06
   6 F= -.36828520E+02 E0= -.36828520E+02  d E =-.242153E-10
 BRION: g(F)=  0.426E-12 g(S)=  0.000E+00 retain N=  1 mean eig= 0.39
 eig:   0.393
 bond charge predicted
       N       E                     dE             d eps       ncg     rms          rms(c)
DAV:   1    -0.368285195065E+02    0.60697E-09    0.58947E-09  5092   0.302E-05    0.529E-07
RMM:   2    -0.368285195071E+02   -0.60629E-09    0.00000E+00   560   0.832E-06    0.328E-07
RMM:   3    -0.368285195071E+02    0.47748E-11    0.00000E+00   466   0.820E-06    0.765E-09
RMM:   4    -0.368285195071E+02   -0.68212E-12    0.00000E+00   463   0.820E-06    0.292E-09
RMM:   5    -0.368285195071E+02    0.25011E-11    0.00000E+00   539   0.820E-06
   7 F= -.36828520E+02 E0= -.36828520E+02  d E =0.443379E-11
 BRION: g(F)=  0.280E-12 g(S)=  0.000E+00 retain N=  1 mean eig= 0.22
 eig:   0.217
 bond charge predicted
       N       E                     dE             d eps       ncg     rms          rms(c)
DAV:   1    -0.368285195065E+02    0.59867E-09    0.59039E-09  4208   0.133E-05    0.209E-07
RMM:   2    -0.368285195071E+02   -0.59083E-09    0.00000E+00   369   0.388E-06    0.129E-07
RMM:   3    -0.368285195071E+02   -0.79581E-12    0.00000E+00   458   0.377E-06    0.450E-09
RMM:   4    -0.368285195071E+02    0.62528E-11    0.00000E+00   616   0.377E-06    0.126E-09
RMM:   5    -0.368285195071E+02   -0.11369E-11    0.00000E+00   468   0.377E-06
   8 F= -.36828520E+02 E0= -.36828520E+02  d E =0.966338E-11
 BRION: g(F)=  0.251E-12 g(S)=  0.000E+00 retain N=  1 mean eig= 0.11
 eig:   0.111
 bond charge predicted
       N       E                     dE             d eps       ncg     rms          rms(c)
DAV:   1    -0.368285195065E+02    0.57946E-09    0.59073E-09  4224   0.544E-06    0.622E-08
RMM:   2    -0.368285195071E+02   -0.58844E-09    0.00000E+00   200   0.198E-06    0.381E-08
RMM:   3    -0.368285195071E+02    0.11369E-11    0.00000E+00   243   0.198E-06    0.139E-09
RMM:   4    -0.368285195071E+02   -0.13642E-11    0.00000E+00   333   0.198E-06    0.396E-10
RMM:   5    -0.368285195071E+02    0.40927E-11    0.00000E+00   171   0.198E-06
   9 F= -.36828520E+02 E0= -.36828520E+02  d E =-.397904E-11
 BRION: g(F)=  0.102E-12 g(S)=  0.000E+00 retain N=  1 mean eig= 0.07
 eig:   0.068
 reached required accuracy - stopping structural energy minimisation
