gr                                      
           1
     4.251718    0.000000    0.000000
     0.000000    2.541815    0.000000
     0.000000    0.000000   19.509232
   C 
   4
Direct configuration=     1
   0.00074775  0.00000000  0.00000000
   0.16591892  0.50000000  0.00000000
   0.50074775  0.50000000  0.00000000
   0.66591892  0.00000000  0.00000000
Direct configuration=     2
   0.00076377  0.00000000 -0.00000000
   0.16590290  0.50000000  0.00000000
   0.50076377  0.50000000 -0.00000000
   0.66590290 -0.00000000  0.00000000
Direct configuration=     3
   0.00075098  0.00000000 -0.00000000
   0.16591568  0.50000000  0.00000000
   0.50075098  0.50000000 -0.00000000
   0.66591568  0.00000000  0.00000000
Direct configuration=     4
   0.00075097  0.00000000 -0.00000000
   0.16591570  0.50000000  0.00000000
   0.50075097  0.50000000 -0.00000000
   0.66591570  0.00000000  0.00000000
Direct configuration=     5
   0.00075098  0.00000000 -0.00000000
   0.16591569  0.50000000  0.00000000
   0.50075098  0.50000000  0.00000000
   0.66591569  0.00000000  0.00000000
Direct configuration=     6
   0.00075098  0.00000000 -0.00000000
   0.16591569  0.50000000  0.00000000
   0.50075098  0.50000000 -0.00000000
   0.66591569  0.00000000  0.00000000
Direct configuration=     7
   0.00075098 -0.00000000 -0.00000000
   0.16591568  0.50000000  0.00000000
   0.50075098  0.50000000 -0.00000000
   0.66591568 -0.00000000  0.00000000
Direct configuration=     8
   0.00075098 -0.00000000 -0.00000000
   0.16591568  0.50000000  0.00000000
   0.50075098  0.50000000  0.00000000
   0.66591568 -0.00000000  0.00000000
Direct configuration=     9
   0.00075098 -0.00000000 -0.00000000
   0.16591568  0.50000000  0.00000000
   0.50075098  0.50000000  0.00000000
   0.66591568 -0.00000000  0.00000000
