    4    4  400    1
  0.5270948E+02  0.4273682E-09  0.2467423E-09  0.1999415E-08  0.5000000E-15
  1.000000000000000E-004
  CAR 
 gr                                      
     16    247     12
 
  0.0000000E+00  0.0000000E+00  0.0000000E+00  0.1157407E-02
    1      -22.251933
    2      -17.019978
    3      -15.971792
    4      -10.357613
    5       -9.158390
    6       -5.786794
    7       -5.786568
    8       -5.110579
    9       -1.075992
   10        0.524074
   11        1.325122
   12        1.708163
 
  0.4166667E-01  0.0000000E+00  0.0000000E+00  0.2314815E-02
    1      -22.241686
    2      -17.184888
    3      -15.791621
    4      -10.345371
    5       -9.148205
    6       -5.829317
    7       -5.809364
    8       -5.177064
    9       -0.993528
   10        0.537973
   11        1.339204
   12        1.722415
 
  0.8333333E-01  0.0000000E+00  0.0000000E+00  0.2314815E-02
    1      -22.210949
    2      -17.521770
    3      -15.409038
    4      -10.308664
    5       -9.117701
    6       -5.955803
    7       -5.875828
    8       -5.361551
    9       -0.761278
   10        0.579673
   11        1.381448
   12        1.765174
 
  0.1250000E+00  0.0000000E+00  0.0000000E+00  0.2314815E-02
    1      -22.159741
    2      -17.898071
    3      -14.956857
    4      -10.247551
    5       -9.067033
    6       -6.161038
    7       -5.982647
    8       -5.630739
    9       -0.413059
   10        0.649179
   11        1.451841
   12        1.836438
 
  0.1666667E+00  0.0000000E+00  0.0000000E+00  0.2314815E-02
    1      -22.088098
    2      -18.277065
    3      -14.472246
    4      -10.162127
    5       -8.996461
    6       -6.437583
    7       -6.124557
    8       -5.951615
    9        0.017248
   10        0.746496
   11        1.550360
   12        1.936212
 
  0.2083333E+00  0.0000000E+00  0.0000000E+00  0.2314815E-02
    1      -21.996067
    2      -18.647399
    3      -13.967196
    4      -10.052534
    5       -8.906365
    6       -6.776549
    7       -6.299608
    8       -6.295276
    9        0.503819
   10        0.871625
   11        1.676972
   12        2.064494
 
  0.2500000E+00  0.0000000E+00  0.0000000E+00  0.2314815E-02
    1      -21.883712
    2      -19.004501
    3      -13.447123
    4       -9.918962
    5       -8.797251
    6       -7.168533
    7       -6.658340
    8       -6.488185
    9        1.024552
   10        1.028607
   11        1.831627
   12        2.221284
 
  0.2916667E+00  0.0000000E+00  0.0000000E+00  0.2314815E-02
    1      -21.751113
    2      -19.346110
    3      -12.915364
    4       -9.761655
    5       -8.669771
    6       -7.604333
    7       -7.017184
    8       -6.696844
    9        1.205254
   10        1.578811
   11        2.014245
   12        2.406580
 
  0.3333333E+00  0.0000000E+00  0.0000000E+00  0.2314815E-02
    1      -21.598367
    2      -19.670925
    3      -12.374561
    4       -9.580924
    5       -8.524743
    6       -8.075404
    7       -7.369166
    8       -6.915330
    9        1.413695
   10        2.144535
   11        2.224702
   12        2.620377
 
  0.3750000E+00  0.0000000E+00  0.0000000E+00  0.2314815E-02
    1      -21.425589
    2      -19.978101
    3      -11.827196
    4       -9.377159
    5       -8.574079
    6       -8.363179
    7       -7.709587
    8       -7.138396
    9        1.649822
   10        2.462781
   11        2.716447
   12        2.862666
 
  0.4166667E+00  0.0000000E+00  0.0000000E+00  0.2314815E-02
    1      -21.232915
    2      -20.267046
    3      -11.275848
    4       -9.150847
    5       -9.093635
    6       -8.186322
    7       -8.035187
    8       -7.361508
    9        1.913562
   10        2.728034
   11        3.133433
   12        3.241868
 
  0.4583333E+00  0.0000000E+00  0.0000000E+00  0.2314815E-02
    1      -21.020507
    2      -20.537316
    3      -10.723353
    4       -9.628251
    5       -8.902602
    6       -8.343629
    7       -7.995685
    8       -7.580821
    9        2.204819
   10        2.869258
   11        3.019298
   12        3.432661
 
  0.5000000E+00  0.0000000E+00  0.0000000E+00  0.1157407E-02
    1      -20.788564
    2      -20.788564
    3      -10.172922
    4      -10.172922
    5       -8.633198
    6       -8.633198
    7       -7.793109
    8       -7.793109
    9        2.523454
   10        2.523454
   11        3.331893
   12        3.331893
 
  0.0000000E+00  0.2777778E-01  0.0000000E+00  0.2314815E-02
    1      -22.238270
    2      -17.008255
    3      -15.960207
    4      -10.341291
    5       -9.219967
    6       -5.843599
    7       -5.816744
    8       -5.093953
    9       -1.079938
   10        0.542606
   11        1.343898
   12        1.727166
 
  0.4166667E-01  0.2777778E-01  0.0000000E+00  0.4629630E-02
    1      -22.228024
    2      -17.172995
    3      -15.780257
    4      -10.329053
    5       -9.209766
    6       -5.885873
    7       -5.839114
    8       -5.160584
    9       -0.997447
   10        0.556506
   11        1.357980
   12        1.741419
 
  0.8333333E-01  0.2777778E-01  0.0000000E+00  0.4629630E-02
    1      -22.197291
    2      -17.509617
    3      -15.398090
    4      -10.292360
    5       -9.179211
    6       -6.009328
    7       -5.906705
    8       -5.345405
    9       -0.765220
   10        0.598207
   11        1.400221
   12        1.784177
 
  0.1250000E+00  0.2777778E-01  0.0000000E+00  0.4629630E-02
    1      -22.146091
    2      -17.885690
    3      -14.946403
    4      -10.231267
    5       -9.128452
    6       -6.209314
    7       -6.015958
    8       -5.614935
    9       -0.417253
   10        0.667717
   11        1.470609
   12        1.855443
 
  0.1666667E+00  0.2777778E-01  0.0000000E+00  0.4629630E-02
    1      -22.074458
    2      -18.264490
    3      -14.462370
    4      -10.145872
    5       -9.057746
    6       -6.479387
    7       -6.161007
    8       -5.936065
    9        0.012470
   10        0.765040
   11        1.569123
   12        1.955217
 
  0.2083333E+00  0.2777778E-01  0.0000000E+00  0.4629630E-02
    1      -21.982442
    2      -18.634659
    3      -13.958003
    4      -10.036318
    5       -8.967461
    6       -6.811456
    7       -6.335135
    8       -6.284204
    9        0.498109
   10        0.890177
   11        1.695728
   12        2.083501
 
  0.2500000E+00  0.2777778E-01  0.0000000E+00  0.4629630E-02
    1      -21.870105
    2      -18.991620
    3      -13.438740
    4       -9.902792
    5       -8.858092
    6       -7.196696
    7       -6.642995
    8       -6.531416
    9        1.021644
   10        1.043114
   11        1.850374
   12        2.240294
 
  0.2916667E+00  0.2777778E-01  0.0000000E+00  0.4629630E-02
    1      -21.737528
    2      -19.333108
    3      -12.907944
    4       -9.745539
    5       -8.730275
    6       -7.626264
    7       -7.001835
    8       -6.743218
    9        1.223829
   10        1.570316
   11        2.032985
   12        2.425593
 
  0.3333333E+00  0.2777778E-01  0.0000000E+00  0.4629630E-02
    1      -21.584808
    2      -19.657818
    3      -12.368293
    4       -9.564871
    5       -8.584809
    6       -8.091791
    7       -7.353771
    8       -6.964510
    9        1.432283
   10        2.134310
   11        2.243436
   12        2.639394
 
  0.3750000E+00  0.2777778E-01  0.0000000E+00  0.4629630E-02
    1      -21.412061
    2      -19.964904
    3      -11.822310
    4       -9.361176
    5       -8.585661
    6       -8.422683
    7       -7.694122
    8       -7.190003
    9        1.668425
   10        2.481514
   11        2.704515
   12        2.881688
 
  0.4166667E+00  0.2777778E-01  0.0000000E+00  0.4629630E-02
    1      -21.219423
    2      -20.253772
    3      -11.272622
    4       -9.134942
    5       -9.101127
    6       -8.245111
    7       -8.019637
    8       -7.415169
    9        1.932183
   10        2.746778
   11        3.152463
   12        3.260708
 
  0.4583333E+00  0.2777778E-01  0.0000000E+00  0.4629630E-02
    1      -21.007058
    2      -20.523975
    3      -10.722122
    4       -9.632298
    5       -8.886781
    6       -8.327989
    7       -8.053572
    8       -7.636186
    9        2.223462
   10        2.887982
   11        3.038072
   12        3.451759
 
  0.5000000E+00  0.2777778E-01  0.0000000E+00  0.2314815E-02
    1      -20.775164
    2      -20.775164
    3      -10.174089
    4      -10.174089
    5       -8.617466
    6       -8.617466
    7       -7.849869
    8       -7.849869
    9        2.542128
   10        2.542128
   11        3.350643
   12        3.350643
 
  0.0000000E+00  0.5555556E-01  0.0000000E+00  0.2314815E-02
    1      -22.197291
    2      -16.973090
    3      -15.925606
    4      -10.292360
    5       -9.399772
    6       -6.009491
    7       -5.906541
    8       -5.044095
    9       -1.092609
   10        0.598207
   11        1.400220
   12        1.784177
 
  0.4166667E-01  0.5555556E-01  0.0000000E+00  0.4629630E-02
    1      -22.187049
    2      -17.137331
    3      -15.746312
    4      -10.280135
    5       -9.389515
    6       -6.052304
    7       -5.926398
    8       -5.111176
    9       -1.010030
   10        0.612107
   11        1.414299
   12        1.798430
 
  0.8333333E-01  0.5555556E-01  0.0000000E+00  0.4629630E-02
    1      -22.156329
    2      -17.473181
    3      -15.365398
    4      -10.243479
    5       -9.358789
    6       -6.173016
    7       -5.991144
    8       -5.297026
    9       -0.777862
   10        0.653813
   11        1.456532
   12        1.841189
 
  0.1250000E+00  0.5555556E-01  0.0000000E+00  0.4629630E-02
    1      -22.105152
    2      -17.848571
    3      -14.915212
    4      -10.182450
    5       -9.307733
    6       -6.362395
    7       -6.102699
    8       -5.567608
    9       -0.430662
   10        0.723330
   11        1.526907
   12        1.912456
 
  0.1666667E+00  0.5555556E-01  0.0000000E+00  0.4629630E-02
    1      -22.033552
    2      -18.226789
    3      -14.432949
    4      -10.097145
    5       -9.236581
    6       -6.615104
    7       -6.255231
    8       -5.889509
    9       -0.002722
   10        0.820667
   11        1.625402
   12        2.012234
 
  0.2083333E+00  0.5555556E-01  0.0000000E+00  0.4629630E-02
    1      -21.941578
    2      -18.596461
    3      -13.930678
    4       -9.987706
    5       -9.145674
    6       -6.926238
    7       -6.439913
    8       -6.238091
    9        0.480073
   10        0.945823
   11        1.751985
   12        2.140522
 
  0.2500000E+00  0.5555556E-01  0.0000000E+00  0.4629630E-02
    1      -21.829294
    2      -18.952997
    3      -13.413910
    4       -9.854320
    5       -9.035467
    6       -7.289869
    7       -6.647730
    8       -6.597057
    9        0.999776
   10        1.098786
   11        1.906605
   12        2.297321
 
  0.2916667E+00  0.5555556E-01  0.0000000E+00  0.4629630E-02
    1      -21.696784
    2      -19.294119
    3      -12.886099
    4       -9.697234
    5       -8.906542
    6       -7.699048
    7       -6.955880
    8       -6.870650
    9        1.279530
   10        1.543761
   11        2.089190
   12        2.482628
 
  0.3333333E+00  0.5555556E-01  0.0000000E+00  0.4629630E-02
    1      -21.544142
    2      -19.618514
    3      -12.350031
    4       -9.516756
    5       -8.759633
    6       -8.146362
    7       -7.307674
    8       -7.101920
    9        1.488019
   10        2.102436
   11        2.299622
   12        2.696439
 
  0.3750000E+00  0.5555556E-01  0.0000000E+00  0.4629630E-02
    1      -21.371488
    2      -19.925330
    3      -11.808362
    4       -9.313277
    5       -8.624502
    6       -8.595646
    7       -7.647807
    8       -7.335984
    9        1.724199
   10        2.537696
   11        2.667263
   12        2.938746
 
  0.4166667E+00  0.5555556E-01  0.0000000E+00  0.4629630E-02
    1      -21.178960
    2      -20.213964
    3      -11.263883
    4       -9.126660
    5       -9.087280
    6       -8.415693
    7       -7.973062
    8       -7.568308
    9        1.988000
   10        2.802992
   11        3.209538
   12        3.226076
 
  0.4583333E+00  0.5555556E-01  0.0000000E+00  0.4629630E-02
    1      -20.966724
    2      -20.483964
    3      -10.719685
    4       -9.646713
    5       -8.839376
    6       -8.281137
    7       -8.221134
    8       -7.795196
    9        2.279331
   10        2.944039
   11        3.094383
   12        3.508853
 
  0.5000000E+00  0.5555556E-01  0.0000000E+00  0.2314815E-02
    1      -20.734980
    2      -20.734980
    3      -10.179280
    4      -10.179280
    5       -8.570334
    6       -8.570334
    7       -8.013628
    8       -8.013628
    9        2.598070
   10        2.598070
   11        3.406871
   12        3.406871
 
  0.0000000E+00  0.8333333E-01  0.0000000E+00  0.2314815E-02
    1      -22.129032
    2      -16.914494
    3      -15.868473
    4      -10.210921
    5       -9.684382
    6       -6.272272
    7       -6.053805
    8       -4.961065
    9       -1.116500
   10        0.690888
   11        1.494067
   12        1.879197
 
  0.4166667E-01  0.8333333E-01  0.0000000E+00  0.4629630E-02
    1      -22.118797
    2      -17.077941
    3      -15.690252
    4      -10.198718
    5       -9.674015
    6       -6.316235
    7       -6.069366
    8       -5.028944
    9       -1.033748
   10        0.704789
   11        1.508141
   12        1.893450
 
  0.8333333E-01  0.8333333E-01  0.0000000E+00  0.4629630E-02
    1      -22.088099
    2      -17.412528
    3      -15.311444
    4      -10.162128
    5       -9.642949
    6       -6.437743
    7       -6.124394
    8       -5.216602
    9       -0.801645
   10        0.746495
   11        1.550359
   12        1.936210
 
  0.1250000E+00  0.8333333E-01  0.0000000E+00  0.4629630E-02
    1      -22.036960
    2      -17.786784
    3      -14.863837
    4      -10.101208
    5       -9.591302
    6       -6.621314
    7       -6.228397
    8       -5.489015
    9       -0.455745
   10        0.816016
   11        1.620708
   12        2.007479
 
  0.1666667E+00  0.8333333E-01  0.0000000E+00  0.4629630E-02
    1      -21.965414
    2      -18.164029
    3      -14.384648
    4      -10.016056
    5       -9.519267
    6       -6.857616
    7       -6.381297
    8       -5.812244
    9       -0.030871
   10        0.913364
   11        1.719169
   12        2.107259
 
  0.2083333E+00  0.8333333E-01  0.0000000E+00  0.4629630E-02
    1      -21.873511
    2      -18.532868
    3      -13.886051
    4       -9.906814
    5       -9.427126
    6       -7.141921
    7       -6.575791
    8       -6.161577
    9        0.447018
   10        1.038537
   11        1.845709
   12        2.235552
 
  0.2500000E+00  0.8333333E-01  0.0000000E+00  0.4629630E-02
    1      -21.761318
    2      -18.888689
    3      -13.373696
    4       -9.773670
    5       -9.315249
    6       -7.471734
    7       -6.800769
    8       -6.520827
    9        0.960113
   10        1.191526
   11        2.000281
   12        2.392358
 
  0.2916667E+00  0.8333333E-01  0.0000000E+00  0.4629630E-02
    1      -21.628917
    2      -19.229197
    3      -12.851208
    4       -9.616868
    5       -9.184113
    6       -7.844789
    7       -7.044378
    8       -6.879606
    9        1.372305
   10        1.496003
   11        2.182816
   12        2.577675
 
  0.3333333E+00  0.8333333E-01  0.0000000E+00  0.4629630E-02
    1      -21.476408
    2      -19.553064
    3      -12.321589
    4       -9.436720
    5       -9.034307
    6       -8.257592
    7       -7.296370
    8       -7.231142
    9        1.580833
   10        2.045424
   11        2.393205
   12        2.791499
 
  0.3750000E+00  0.8333333E-01  0.0000000E+00  0.4629630E-02
    1      -21.303910
    2      -19.859424
    3      -11.787770
    4       -9.233610
    5       -8.866554
    6       -8.705073
    7       -7.570889
    8       -7.549066
    9        1.817055
   10        2.600563
   11        2.631265
   12        3.033823
 
  0.4166667E+00  0.8333333E-01  0.0000000E+00  0.4629630E-02
    1      -21.111565
    2      -20.147666
    3      -11.252882
    4       -9.181169
    5       -9.008023
    6       -8.681735
    7       -7.895690
    8       -7.797110
    9        2.080903
   10        2.896614
   11        3.152474
   12        3.304637
 
  0.4583333E+00  0.8333333E-01  0.0000000E+00  0.4629630E-02
    1      -20.899544
    2      -20.417328
    3      -10.720439
    4       -9.679607
    5       -8.760563
    6       -8.480915
    7       -8.203280
    8       -8.036781
    9        2.372287
   10        3.037170
   11        3.188190
   12        3.603938
 
  0.5000000E+00  0.8333333E-01  0.0000000E+00  0.2314815E-02
    1      -20.668051
    2      -20.668051
    3      -10.194466
    4      -10.194466
    5       -8.491991
    6       -8.491991
    7       -8.265395
    8       -8.265395
    9        2.691094
   10        2.691094
   11        3.500481
   12        3.500481
 
  0.0000000E+00  0.1111111E+00  0.0000000E+00  0.2314815E-02
    1      -22.033554
    2      -16.832487
    3      -15.789724
    4      -10.097146
    5      -10.055080
    6       -6.615251
    7       -6.255081
    8       -4.844967
    9       -1.155735
   10        0.820665
   11        1.625400
   12        2.012232
 
  0.4166667E-01  0.1111111E+00  0.0000000E+00  0.4629630E-02
    1      -22.023329
    2      -16.994901
    3      -15.612961
    4      -10.084975
    5      -10.044517
    6       -6.660801
    7       -6.264958
    8       -4.914070
    9       -1.072673
   10        0.834563
   11        1.639466
   12        2.026484
 
  0.8333333E-01  0.1111111E+00  0.0000000E+00  0.4629630E-02
    1      -21.992663
    2      -17.327781
    3      -15.237155
    4      -10.048481
    5      -10.012853
    6       -6.785275
    7       -6.305313
    8       -5.104477
    9       -0.840565
   10        0.876260
   11        1.681659
   12        2.069243
 
  0.1250000E+00  0.1111111E+00  0.0000000E+00  0.4629630E-02
    1      -21.941577
    2      -17.700459
    3      -14.793348
    4       -9.987721
    5       -9.960160
    6       -6.968567
    7       -6.391884
    8       -5.379629
    9       -0.496504
   10        0.945772
   11        1.751968
   12        2.140511
 
  0.1666667E+00  0.1111111E+00  0.0000000E+00  0.4629630E-02
    1      -21.870107
    2      -18.076332
    3      -14.318779
    4       -9.902793
    5       -9.886558
    6       -7.196818
    7       -6.531286
    8       -5.704807
    9       -0.076101
   10        1.043112
   11        1.850372
   12        2.240291
 
  0.2083333E+00  0.1111111E+00  0.0000000E+00  0.4629630E-02
    1      -21.778305
    2      -18.443991
    3      -13.825786
    4       -9.793839
    5       -9.792214
    6       -7.462173
    7       -6.721551
    8       -6.055214
    9        0.394611
   10        1.168286
   11        1.976840
   12        2.368587
 
  0.2500000E+00  0.1111111E+00  0.0000000E+00  0.4629630E-02
    1      -21.666239
    2      -18.798799
    3      -13.320257
    4       -9.677340
    5       -9.661048
    6       -7.760937
    7       -6.954599
    8       -6.414844
    9        0.898039
   10        1.321286
   11        2.131328
   12        2.525399
 
  0.2916667E+00  0.1111111E+00  0.0000000E+00  0.4629630E-02
    1      -21.533992
    2      -19.138436
    3      -12.806129
    4       -9.542191
    5       -9.504665
    6       -8.092405
    7       -7.218268
    8       -6.773521
    9        1.422087
   10        1.502085
   11        2.313773
   12        2.710725
 
  0.3333333E+00  0.1111111E+00  0.0000000E+00  0.4629630E-02
    1      -21.381668
    2      -19.461554
    3      -12.286814
    4       -9.387059
    5       -9.324998
    6       -8.457483
    7       -7.498597
    8       -7.124649
    9        1.710639
   10        1.957886
   11        2.524079
   12        2.924561
 
  0.3750000E+00  0.1111111E+00  0.0000000E+00  0.4629630E-02
    1      -21.209389
    2      -19.767268
    3      -11.765767
    4       -9.212271
    5       -9.122433
    6       -8.856743
    7       -7.782507
    8       -7.463804
    9        1.946890
   10        2.498322
   11        2.762092
   12        3.166900
 
  0.4166667E+00  0.1111111E+00  0.0000000E+00  0.4629630E-02
    1      -21.017303
    2      -20.054955
    3      -11.246804
    4       -9.288699
    5       -9.018181
    6       -8.897449
    7       -8.060017
    8       -7.787917
    9        2.210765
   10        3.027501
   11        3.036738
   12        3.437735
 
  0.4583333E+00  0.1111111E+00  0.0000000E+00  0.4629630E-02
    1      -20.805587
    2      -20.324138
    3      -10.734289
    4       -9.749393
    5       -8.805192
    6       -8.650644
    7       -8.324891
    8       -8.094783
    9        2.502175
   10        3.167125
   11        3.319392
   12        3.560180
 
  0.5000000E+00  0.1111111E+00  0.0000000E+00  0.2314815E-02
    1      -20.574448
    2      -20.574448
    3      -10.233259
    4      -10.233259
    5       -8.573820
    6       -8.573820
    7       -8.382770
    8       -8.382770
    9        2.821009
   10        2.821009
   11        3.631071
   12        3.631071
 
  0.0000000E+00  0.1388889E+00  0.0000000E+00  0.2314815E-02
    1      -21.910944
    2      -16.727099
    3      -15.690913
    4      -10.491179
    5       -9.951286
    6       -7.020635
    7       -6.505821
    8       -4.695948
    9       -1.215951
   10        0.987546
   11        1.794164
   12        2.183283
 
  0.4166667E-01  0.1388889E+00  0.0000000E+00  0.4629630E-02
    1      -21.900733
    2      -16.888338
    3      -15.515950
    4      -10.480284
    5       -9.939158
    6       -7.068118
    7       -6.508963
    8       -4.766840
    9       -1.132335
   10        1.001435
   11        1.808216
   12        2.197534
 
  0.8333333E-01  0.1388889E+00  0.0000000E+00  0.4629630E-02
    1      -21.870108
    2      -17.219131
    3      -15.144140
    4      -10.447595
    5       -9.902794
    6       -7.196857
    7       -6.531245
    8       -4.961206
    9       -0.899979
   10        1.043110
   11        1.850371
   12        2.240290
 
  0.1250000E+00  0.1388889E+00  0.0000000E+00  0.4629630E-02
    1      -21.819091
    2      -17.589793
    3      -14.705643
    4      -10.393104
    5       -9.842251
    6       -7.383182
    7       -6.593633
    8       -5.240212
    9       -0.558249
   10        1.112589
   11        1.920614
   12        2.311553
 
  0.1666667E+00  0.1388889E+00  0.0000000E+00  0.4629630E-02
    1      -21.747720
    2      -17.963886
    3      -14.237714
    4      -10.316784
    5       -9.757628
    6       -7.609848
    7       -6.708470
    8       -5.568054
    9       -0.143831
   10        1.209894
   11        2.018926
   12        2.411329
 
  0.2083333E+00  0.1388889E+00  0.0000000E+00  0.4629630E-02
    1      -21.656049
    2      -18.330001
    3      -13.752966
    4      -10.218578
    5       -9.649067
    6       -7.866309
    7       -6.879005
    8       -5.919872
    9        0.317208
   10        1.335037
   11        2.145275
   12        2.539623
 
  0.2500000E+00  0.1388889E+00  0.0000000E+00  0.4629630E-02
    1      -21.544146
    2      -18.683481
    3      -13.257710
    4      -10.098371
    5       -9.516758
    6       -8.146465
    7       -7.101806
    8       -6.279945
    9        0.807630
   10        1.488015
   11        2.299618
   12        2.696435
 
  0.2916667E+00  0.1388889E+00  0.0000000E+00  0.4629630E-02
    1      -21.412099
    2      -19.021977
    3      -12.756473
    4       -9.955948
    5       -9.360947
    6       -8.447544
    7       -7.368442
    8       -6.638410
    9        1.315783
   10        1.668803
   11        2.481897
   12        2.881766
 
  0.3333333E+00  0.1388889E+00  0.0000000E+00  0.4629630E-02
    1      -21.260014
    2      -19.344113
    3      -12.253464
    4       -9.790954
    5       -9.181941
    6       -8.769667
    7       -7.666748
    8       -6.988915
    9        1.833283
   10        1.877355
   11        2.692031
   12        3.095610
 
  0.3750000E+00  0.1388889E+00  0.0000000E+00  0.4629630E-02
    1      -21.088020
    2      -19.648983
    3      -11.753198
    4       -9.602832
    5       -9.115357
    6       -8.980123
    7       -7.982139
    8       -7.327211
    9        2.113605
   10        2.353641
   11        2.929903
   12        3.337962
 
  0.4166667E+00  0.1388889E+00  0.0000000E+00  0.4629630E-02
    1      -20.896272
    2      -19.935942
    3      -11.260827
    4       -9.488305
    5       -9.390813
    6       -8.755970
    7       -8.299502
    8       -7.650344
    9        2.377474
   10        2.871438
   11        3.195311
   12        3.608812
 
  0.4583333E+00  0.1388889E+00  0.0000000E+00  0.4629630E-02
    1      -20.684951
    2      -20.204502
    3      -10.782240
    4       -9.891215
    5       -9.154032
    6       -8.605743
    7       -8.510071
    8       -7.956189
    9        2.668865
   10        3.333729
   11        3.381460
   12        3.487686
 
  0.5000000E+00  0.1388889E+00  0.0000000E+00  0.2314815E-02
    1      -20.454275
    2      -20.454275
    3      -10.323765
    4      -10.323765
    5       -8.892003
    6       -8.892003
    7       -8.243166
    8       -8.243166
    9        2.987664
   10        2.987664
   11        3.791711
   12        3.791714
 
  0.0000000E+00  0.1666667E+00  0.0000000E+00  0.2314815E-02
    1      -21.761322
    2      -16.598367
    3      -15.574658
    4      -10.972137
    5       -9.773672
    6       -7.471859
    7       -6.800638
    8       -4.514201
    9       -1.304003
   10        1.191522
   11        2.000277
   12        2.392354
 
  0.4166667E-01  0.1666667E+00  0.0000000E+00  0.4629630E-02
    1      -21.751128
    2      -16.758438
    3      -15.401792
    4      -10.960669
    5       -9.761601
    6       -7.521558
    7       -6.796324
    8       -4.587690
    9       -1.219382
   10        1.205398
   11        2.014309
   12        2.406603
 
  0.8333333E-01  0.1666667E+00  0.0000000E+00  0.4629630E-02
    1      -21.720554
    2      -17.086867
    3      -15.035195
    4      -10.926208
    5       -9.725407
    6       -7.655436
    7       -6.798294
    8       -4.787670
    9       -0.986177
   10        1.247036
   11        2.056401
   12        2.449352
 
  0.1250000E+00  0.1666667E+00  0.0000000E+00  0.4629630E-02
    1      -21.669622
    2      -17.455087
    3      -14.604105
    4      -10.868576
    5       -9.665149
    6       -7.846713
    7       -6.832164
    8       -5.071953
    9       -0.647090
   10        1.316457
   11        2.126538
   12        2.520606
 
  0.1666667E+00  0.1666667E+00  0.0000000E+00  0.4629630E-02
    1      -21.598373
    2      -17.826968
    3      -14.145822
    4      -10.787444
    5       -9.580927
    6       -8.075541
    7       -6.915177
    8       -5.403296
    9       -0.240201
   10        1.413689
   11        2.224697
   12        2.620371
 
  0.2083333E+00  0.1666667E+00  0.0000000E+00  0.4629630E-02
    1      -21.506860
    2      -18.191150
    3      -13.673460
    4      -10.682270
    5       -9.472884
    6       -8.329585
    7       -7.055011
    8       -5.756859
    9        0.208524
   10        1.538756
   11        2.350841
   12        2.748653
 
  0.2500000E+00  0.1666667E+00  0.0000000E+00  0.4629630E-02
    1      -21.395158
    2      -18.542959
    3      -13.194162
    4      -10.552214
    5       -9.341211
    6       -8.601186
    7       -7.252315
    8       -6.117373
    9        0.682439
   10        1.691664
   11        2.504921
   12        2.905458
 
  0.2916667E+00  0.1666667E+00  0.0000000E+00  0.4629630E-02
    1      -21.263357
    2      -18.880020
    3      -12.713654
    4      -10.396021
    5       -9.186156
    6       -8.885776
    7       -7.502504
    8       -6.475422
    9        1.170551
   10        1.872394
   11        2.686873
   12        3.090785
 
  0.3333333E+00  0.1666667E+00  0.0000000E+00  0.4629630E-02
    1      -21.111569
    2      -19.200923
    3      -12.237758
    4      -10.211911
    5       -9.181260
    6       -9.008025
    7       -7.797004
    8       -6.824989
    9        1.665121
   10        2.080898
   11        2.896610
   12        3.304632
 
  0.3750000E+00  0.1666667E+00  0.0000000E+00  0.4629630E-02
    1      -20.939929
    2      -19.504735
    3      -11.772968
    4       -9.997575
    5       -9.487922
    6       -8.807201
    7       -8.124199
    8       -7.162057
    9        2.160318
   10        2.317105
   11        3.134018
   12        3.546992
 
  0.4166667E+00  0.1666667E+00  0.0000000E+00  0.4629630E-02
    1      -20.748599
    2      -19.790785
    3      -11.326369
    4       -9.808479
    5       -9.750589
    6       -8.584156
    7       -8.470162
    8       -7.483826
    9        2.580924
   10        2.651472
   11        3.398939
   12        3.817853
 
  0.4583333E+00  0.1666667E+00  0.0000000E+00  0.4629630E-02
    1      -20.537769
    2      -20.058565
    3      -10.904593
    4      -10.147833
    5       -9.469656
    6       -8.819474
    7       -8.339472
    8       -7.788269
    9        2.872247
   10        3.134634
   11        3.536865
   12        3.691056
 
  0.5000000E+00  0.1666667E+00  0.0000000E+00  0.2314815E-02
    1      -20.307668
    2      -20.307668
    3      -10.511801
    4      -10.511801
    5       -9.156824
    6       -9.156824
    7       -8.073872
    8       -8.073872
    9        3.190945
   10        3.190945
   11        3.606184
   12        3.606184
 