gr                                      
           1
     4.273682    0.000000    0.000000
     0.000000    2.467423    0.000000
     0.000000    0.000000   19.994148
   C 
   4
Direct configuration=     1
   0.99987391  0.00000000  0.00000000
   0.16679275  0.50000000  0.00000000
   0.49987391  0.50000000  0.00000000
   0.66679275  0.00000000  0.00000000
Direct configuration=     2
   1.00050935 -0.00000000 -0.00000000
   0.16615732  0.50000000  0.00000000
   0.50050935  0.50000000 -0.00000000
   0.66615732 -0.00000000  0.00000000
Direct configuration=     3
   1.00000109 -0.00000000 -0.00000000
   0.16666558  0.50000000  0.00000000
   0.50000109  0.50000000 -0.00000000
   0.66666558 -0.00000000  0.00000000
Direct configuration=     4
   1.00000088 -0.00000000  0.00000000
   0.16666578  0.50000000 -0.00000000
   0.50000088  0.50000000  0.00000000
   0.66666578 -0.00000000 -0.00000000
Direct configuration=     5
   1.00000087 -0.00000000 -0.00000000
   0.16666580  0.50000000  0.00000000
   0.50000087  0.50000000 -0.00000000
   0.66666580 -0.00000000  0.00000000
