    4    4  400    1
  0.5270948E+02  0.4273595E-09  0.2467669E-09  0.1999256E-08  0.5000000E-15
  1.000000000000000E-004
  CAR 
 gr                                      
     16    247     12
 
  0.0000000E+00  0.0000000E+00  0.0000000E+00  0.1157407E-02
    1      -22.251261
    2      -17.018681
    3      -15.971356
    4      -10.357093
    5       -9.159795
    6       -5.787723
    7       -5.786303
    8       -5.109722
    9       -1.076205
   10        0.524155
   11        1.325197
   12        1.708287
 
  0.4166667E-01  0.0000000E+00  0.0000000E+00  0.2314815E-02
    1      -22.241013
    2      -17.183706
    3      -15.791070
    4      -10.344851
    5       -9.149609
    6       -5.829043
    7       -5.810298
    8       -5.176221
    9       -0.993732
   10        0.538055
   11        1.339280
   12        1.722540
 
  0.8333333E-01  0.0000000E+00  0.0000000E+00  0.2314815E-02
    1      -22.210274
    2      -17.520712
    3      -15.408366
    4      -10.308144
    5       -9.119103
    6       -5.955499
    7       -5.876776
    8       -5.360744
    9       -0.761459
   10        0.579756
   11        1.381525
   12        1.765299
 
  0.1250000E+00  0.0000000E+00  0.0000000E+00  0.2314815E-02
    1      -22.159064
    2      -17.897087
    3      -14.956115
    4      -10.247028
    5       -9.068429
    6       -6.160689
    7       -5.983618
    8       -5.629974
    9       -0.413220
   10        0.649266
   11        1.451921
   12        1.836567
 
  0.1666667E+00  0.0000000E+00  0.0000000E+00  0.2314815E-02
    1      -22.087416
    2      -18.276130
    3      -14.471462
    4      -10.161602
    5       -8.997850
    6       -6.437177
    7       -6.125555
    8       -5.950889
    9        0.017095
   10        0.746588
   11        1.550444
   12        1.936345
 
  0.2083333E+00  0.0000000E+00  0.0000000E+00  0.2314815E-02
    1      -21.995381
    2      -18.646500
    3      -13.966384
    4      -10.052006
    5       -8.907745
    6       -6.776081
    7       -6.298915
    8       -6.296306
    9        0.503658
   10        0.871723
   11        1.677061
   12        2.064632
 
  0.2500000E+00  0.0000000E+00  0.0000000E+00  0.2314815E-02
    1      -21.883019
    2      -19.003632
    3      -13.446293
    4       -9.918430
    5       -8.798620
    6       -7.168002
    7       -6.657674
    8       -6.489249
    9        1.024657
   10        1.028425
   11        1.831722
   12        2.221428
 
  0.2916667E+00  0.0000000E+00  0.0000000E+00  0.2314815E-02
    1      -21.750412
    2      -19.345266
    3      -12.914523
    4       -9.761118
    5       -8.671126
    6       -7.603742
    7       -7.016541
    8       -6.697943
    9        1.205368
   10        1.578594
   11        2.014347
   12        2.406732
 
  0.3333333E+00  0.0000000E+00  0.0000000E+00  0.2314815E-02
    1      -21.597658
    2      -19.670102
    3      -12.373716
    4       -9.580382
    5       -8.526083
    6       -8.074757
    7       -7.368541
    8       -6.916464
    9        1.413818
   10        2.144271
   11        2.224813
   12        2.620538
 
  0.3750000E+00  0.0000000E+00  0.0000000E+00  0.2314815E-02
    1      -21.424870
    2      -19.977298
    3      -11.826353
    4       -9.376610
    5       -8.573383
    6       -8.364501
    7       -7.708978
    8       -7.139562
    9        1.649955
   10        2.462902
   11        2.716134
   12        2.862836
 
  0.4166667E+00  0.0000000E+00  0.0000000E+00  0.2314815E-02
    1      -21.232185
    2      -20.266261
    3      -11.275013
    4       -9.150291
    5       -9.092897
    6       -8.187623
    7       -8.034591
    8       -7.362706
    9        1.913708
   10        2.728168
   11        3.133614
   12        3.242064
 
  0.4583333E+00  0.0000000E+00  0.0000000E+00  0.2314815E-02
    1      -21.019765
    2      -20.536546
    3      -10.722532
    4       -9.627477
    5       -8.902037
    6       -8.343045
    7       -7.996964
    8       -7.582049
    9        2.204977
   10        2.869443
   11        3.019448
   12        3.432844
 
  0.5000000E+00  0.0000000E+00  0.0000000E+00  0.1157407E-02
    1      -20.787809
    2      -20.787809
    3      -10.172121
    4      -10.172121
    5       -8.632625
    6       -8.632625
    7       -7.794364
    8       -7.794364
    9        2.523625
   10        2.523625
   11        3.332066
   12        3.332066
 
  0.0000000E+00  0.2777778E-01  0.0000000E+00  0.2314815E-02
    1      -22.237600
    2      -17.006960
    3      -15.959776
    4      -10.340775
    5       -9.221359
    6       -5.844514
    7       -5.816489
    8       -5.093099
    9       -1.080161
   10        0.542683
   11        1.343970
   12        1.727286
 
  0.4166667E-01  0.2777778E-01  0.0000000E+00  0.4629630E-02
    1      -22.227353
    2      -17.171815
    3      -15.779711
    4      -10.328538
    5       -9.211156
    6       -5.886321
    7       -5.839321
    8       -5.159745
    9       -0.997660
   10        0.556583
   11        1.358052
   12        1.741539
 
  0.8333333E-01  0.2777778E-01  0.0000000E+00  0.4629630E-02
    1      -22.196619
    2      -17.508561
    3      -15.397423
    4      -10.291843
    5       -9.180598
    6       -6.009381
    7       -5.907291
    8       -5.344601
    9       -0.765410
   10        0.598287
   11        1.400294
   12        1.784299
 
  0.1250000E+00  0.2777778E-01  0.0000000E+00  0.4629630E-02
    1      -22.145416
    2      -17.884709
    3      -14.945665
    4      -10.230748
    5       -9.129834
    6       -6.209169
    7       -6.016717
    8       -5.614174
    9       -0.417423
   10        0.667800
   11        1.470685
   12        1.855568
 
  0.1666667E+00  0.2777778E-01  0.0000000E+00  0.4629630E-02
    1      -22.073779
    2      -18.263558
    3      -14.461591
    4      -10.145351
    5       -9.059120
    6       -6.479114
    7       -6.161864
    8       -5.935343
    9        0.012307
   10        0.765128
   11        1.569203
   12        1.955346
 
  0.2083333E+00  0.2777778E-01  0.0000000E+00  0.4629630E-02
    1      -21.981758
    2      -18.633764
    3      -13.957197
    4      -10.035793
    5       -8.968825
    6       -6.811081
    7       -6.336063
    8       -6.283515
    9        0.497939
   10        0.890271
   11        1.695813
   12        2.083635
 
  0.2500000E+00  0.2777778E-01  0.0000000E+00  0.4629630E-02
    1      -21.869414
    2      -18.990754
    3      -13.437916
    4       -9.902263
    5       -8.859445
    6       -7.196233
    7       -6.642333
    8       -6.532402
    9        1.021451
   10        1.043216
   11        1.850466
   12        2.240434
 
  0.2916667E+00  0.2777778E-01  0.0000000E+00  0.4629630E-02
    1      -21.736830
    2      -19.332266
    3      -12.907110
    4       -9.745006
    5       -8.731614
    6       -7.625723
    7       -7.001196
    8       -6.744256
    9        1.223939
   10        1.570087
   11        2.033083
   12        2.425741
 
  0.3333333E+00  0.2777778E-01  0.0000000E+00  0.4629630E-02
    1      -21.584101
    2      -19.656998
    3      -12.367456
    4       -9.564332
    5       -8.586131
    6       -8.091182
    7       -7.353150
    8       -6.965594
    9        1.432402
   10        2.134034
   11        2.243543
   12        2.639550
 
  0.3750000E+00  0.2777778E-01  0.0000000E+00  0.4629630E-02
    1      -21.411344
    2      -19.964104
    3      -11.821476
    4       -9.360631
    5       -8.584995
    6       -8.423986
    7       -7.693517
    8       -7.191129
    9        1.668555
   10        2.481632
   11        2.704188
   12        2.881854
 
  0.4166667E+00  0.2777778E-01  0.0000000E+00  0.4629630E-02
    1      -21.218696
    2      -20.252989
    3      -11.271797
    4       -9.134390
    5       -9.100412
    6       -8.246391
    7       -8.019045
    8       -7.416332
    9        1.932325
   10        2.746908
   11        3.152639
   12        3.260885
 
  0.4583333E+00  0.2777778E-01  0.0000000E+00  0.4629630E-02
    1      -21.006319
    2      -20.523208
    3      -10.721313
    4       -9.631544
    5       -8.886221
    6       -8.327409
    7       -8.054828
    8       -7.637384
    9        2.223616
   10        2.888163
   11        3.038218
   12        3.451881
 
  0.5000000E+00  0.2777778E-01  0.0000000E+00  0.2314815E-02
    1      -20.774412
    2      -20.774412
    3      -10.173303
    4      -10.173303
    5       -8.616897
    6       -8.616897
    7       -7.851097
    8       -7.851097
    9        2.542295
   10        2.542295
   11        3.350813
   12        3.350813
 
  0.0000000E+00  0.5555556E-01  0.0000000E+00  0.2314815E-02
    1      -22.196630
    2      -16.971801
    3      -15.925189
    4      -10.291855
    5       -9.401122
    6       -6.010365
    7       -5.906313
    8       -5.043252
    9       -1.092859
   10        0.598272
   11        1.400280
   12        1.784285
 
  0.4166667E-01  0.5555556E-01  0.0000000E+00  0.4629630E-02
    1      -22.186387
    2      -17.136158
    3      -15.745780
    4      -10.279630
    5       -9.390863
    6       -6.053032
    7       -5.926309
    8       -5.110348
    9       -1.010270
   10        0.612173
   11        1.414360
   12        1.798538
 
  0.8333333E-01  0.5555556E-01  0.0000000E+00  0.4629630E-02
    1      -22.155665
    2      -17.472132
    3      -15.364744
    4      -10.242973
    5       -9.360134
    6       -6.173508
    7       -5.991274
    8       -5.296234
    9       -0.778080
   10        0.653881
   11        1.456594
   12        1.841299
 
  0.1250000E+00  0.5555556E-01  0.0000000E+00  0.4629630E-02
    1      -22.104485
    2      -17.847597
    3      -14.914489
    4      -10.181943
    5       -9.309071
    6       -6.362673
    7       -6.103015
    8       -5.566859
    9       -0.430860
   10        0.723402
   11        1.526972
   12        1.912570
 
  0.1666667E+00  0.5555556E-01  0.0000000E+00  0.4629630E-02
    1      -22.032881
    2      -18.225865
    3      -14.432184
    4      -10.096635
    5       -9.237911
    6       -6.615189
    7       -6.255708
    8       -5.888800
    9       -0.002913
   10        0.820744
   11        1.625471
   12        2.012351
 
  0.2083333E+00  0.5555556E-01  0.0000000E+00  0.4629630E-02
    1      -21.940902
    2      -18.595573
    3      -13.929887
    4       -9.987192
    5       -9.146993
    6       -6.926149
    7       -6.440529
    8       -6.237415
    9        0.479873
   10        0.945906
   11        1.752058
   12        2.140645
 
  0.2500000E+00  0.5555556E-01  0.0000000E+00  0.4629630E-02
    1      -21.828612
    2      -18.952138
    3      -13.413103
    4       -9.853803
    5       -9.036771
    6       -7.289628
    7       -6.648466
    8       -6.596408
    9        0.999551
   10        1.098876
   11        1.906685
   12        2.297450
 
  0.2916667E+00  0.5555556E-01  0.0000000E+00  0.4629630E-02
    1      -21.696094
    2      -19.293285
    3      -12.885285
    4       -9.696712
    5       -8.907829
    6       -7.698678
    7       -6.955253
    8       -6.871487
    9        1.279629
   10        1.543498
   11        2.089277
   12        2.482764
 
  0.3333333E+00  0.5555556E-01  0.0000000E+00  0.4629630E-02
    1      -21.543444
    2      -19.617702
    3      -12.349217
    4       -9.516229
    5       -8.760900
    6       -8.145884
    7       -7.307066
    8       -7.102841
    9        1.488127
   10        2.102123
   11        2.299717
   12        2.696584
 
  0.3750000E+00  0.5555556E-01  0.0000000E+00  0.4629630E-02
    1      -21.370780
    2      -19.924537
    3      -11.807554
    4       -9.312743
    5       -8.623936
    6       -8.596889
    7       -7.647214
    8       -7.336976
    9        1.724317
   10        2.537801
   11        2.666895
   12        2.938901
 
  0.4166667E+00  0.5555556E-01  0.0000000E+00  0.4629630E-02
    1      -21.178241
    2      -20.213189
    3      -11.263090
    4       -9.126023
    5       -9.086739
    6       -8.416909
    7       -7.972483
    8       -7.569360
    9        1.988130
   10        2.803110
   11        3.209704
   12        3.225609
 
  0.4583333E+00  0.5555556E-01  0.0000000E+00  0.4629630E-02
    1      -20.965993
    2      -20.483205
    3      -10.718915
    4       -9.646020
    5       -8.838827
    6       -8.280569
    7       -8.222318
    8       -7.796299
    9        2.279474
   10        2.944209
   11        3.094518
   12        3.508973
 
  0.5000000E+00  0.5555556E-01  0.0000000E+00  0.2314815E-02
    1      -20.734236
    2      -20.734236
    3      -10.178542
    4      -10.178542
    5       -8.569776
    6       -8.569776
    7       -8.014774
    8       -8.014774
    9        2.598226
   10        2.598226
   11        3.407030
   12        3.407030
 
  0.0000000E+00  0.8333333E-01  0.0000000E+00  0.2314815E-02
    1      -22.128384
    2      -16.913215
    3      -15.868080
    4      -10.210434
    5       -9.685664
    6       -6.273080
    7       -6.053618
    8       -4.960240
    9       -1.116797
   10        0.690934
   11        1.494108
   12        1.879286
 
  0.4166667E-01  0.8333333E-01  0.0000000E+00  0.4629630E-02
    1      -22.118148
    2      -17.076779
    3      -15.689744
    4      -10.198231
    5       -9.675295
    6       -6.316991
    7       -6.069225
    8       -5.028134
    9       -1.034033
   10        0.704835
   11        1.508182
   12        1.893540
 
  0.8333333E-01  0.8333333E-01  0.0000000E+00  0.4629630E-02
    1      -22.087449
    2      -17.411492
    3      -15.310813
    4      -10.161640
    5       -9.644225
    6       -6.438402
    7       -6.124329
    8       -5.215830
    9       -0.801908
   10        0.746543
   11        1.550401
   12        1.936301
 
  0.1250000E+00  0.8333333E-01  0.0000000E+00  0.4629630E-02
    1      -22.036307
    2      -17.785824
    3      -14.863137
    4      -10.100718
    5       -9.592570
    6       -6.621872
    7       -6.228404
    8       -5.488287
    9       -0.455988
   10        0.816069
   11        1.620754
   12        2.007573
 
  0.1666667E+00  0.8333333E-01  0.0000000E+00  0.4629630E-02
    1      -21.964757
    2      -18.163118
    3      -14.383909
    4      -10.015564
    5       -9.520525
    6       -6.858056
    7       -6.381384
    8       -5.811556
    9       -0.031109
   10        0.913421
   11        1.719218
   12        2.107357
 
  0.2083333E+00  0.8333333E-01  0.0000000E+00  0.4629630E-02
    1      -21.872849
    2      -18.531993
    3      -13.885289
    4       -9.906319
    5       -9.428369
    6       -7.142215
    7       -6.575985
    8       -6.160922
    9        0.446769
   10        1.038601
   11        1.845763
   12        2.235656
 
  0.2500000E+00  0.8333333E-01  0.0000000E+00  0.4629630E-02
    1      -21.760649
    2      -18.887844
    3      -13.372920
    4       -9.773171
    5       -9.316474
    6       -7.471860
    7       -6.801095
    8       -6.520199
    9        0.959836
   10        1.191597
   11        2.000341
   12        2.392468
 
  0.2916667E+00  0.8333333E-01  0.0000000E+00  0.4629630E-02
    1      -21.628241
    2      -19.228377
    3      -12.850429
    4       -9.616365
    5       -9.185316
    6       -7.844739
    7       -7.044848
    8       -6.879000
    9        1.372384
   10        1.495684
   11        2.182883
   12        2.577793
 
  0.3333333E+00  0.8333333E-01  0.0000000E+00  0.4629630E-02
    1      -21.475723
    2      -19.552265
    3      -12.320817
    4       -9.436211
    5       -9.035483
    6       -8.257376
    7       -7.296980
    8       -7.230554
    9        1.580922
   10        2.045051
   11        2.393281
   12        2.791625
 
  0.3750000E+00  0.8333333E-01  0.0000000E+00  0.4629630E-02
    1      -21.303215
    2      -19.858645
    3      -11.787013
    4       -9.233095
    5       -8.867697
    6       -8.704714
    7       -7.570317
    8       -7.549801
    9        1.817155
   10        2.600127
   11        2.631351
   12        3.033959
 
  0.4166667E+00  0.8333333E-01  0.0000000E+00  0.4629630E-02
    1      -21.110859
    2      -20.146904
    3      -11.252150
    4       -9.180692
    5       -9.007501
    6       -8.682838
    7       -7.895130
    8       -7.797950
    9        2.081014
   10        2.896712
   11        3.151984
   12        3.304783
 
  0.4583333E+00  0.8333333E-01  0.0000000E+00  0.4629630E-02
    1      -20.898826
    2      -20.416582
    3      -10.719745
    4       -9.679037
    5       -8.760033
    6       -8.481971
    7       -8.202732
    8       -8.037708
    9        2.372411
   10        3.037322
   11        3.188305
   12        3.604097
 
  0.5000000E+00  0.8333333E-01  0.0000000E+00  0.2314815E-02
    1      -20.667320
    2      -20.667320
    3      -10.193825
    4      -10.193825
    5       -8.491453
    6       -8.491453
    7       -8.266393
    8       -8.266393
    9        2.691232
   10        2.691232
   11        3.500622
   12        3.500622
 
  0.0000000E+00  0.1111111E+00  0.0000000E+00  0.2314815E-02
    1      -22.032924
    2      -16.831223
    3      -15.789367
    4      -10.096686
    5      -10.056270
    6       -6.615978
    7       -6.254945
    8       -4.844167
    9       -1.156095
   10        0.820684
   11        1.625414
   12        2.012294
 
  0.4166667E-01  0.1111111E+00  0.0000000E+00  0.4629630E-02
    1      -22.022699
    2      -16.993755
    3      -15.612487
    4      -10.084514
    5      -10.045705
    6       -6.661512
    7       -6.264829
    8       -4.913287
    9       -1.073020
   10        0.834582
   11        1.639480
   12        2.026547
 
  0.8333333E-01  0.1111111E+00  0.0000000E+00  0.4629630E-02
    1      -21.992032
    2      -17.326763
    3      -15.236558
    4      -10.048019
    5      -10.014035
    6       -6.785958
    7       -6.305189
    8       -5.103734
    9       -0.840888
   10        0.876282
   11        1.681675
   12        2.069307
 
  0.1250000E+00  0.1111111E+00  0.0000000E+00  0.4629630E-02
    1      -21.940943
    2      -17.699517
    3      -14.792684
    4       -9.987257
    5       -9.961332
    6       -6.969224
    7       -6.391752
    8       -5.378932
    9       -0.496809
   10        0.945797
   11        1.751986
   12        2.140578
 
  0.1666667E+00  0.1111111E+00  0.0000000E+00  0.4629630E-02
    1      -21.869468
    2      -18.075440
    3      -14.318078
    4       -9.902327
    5       -9.887716
    6       -7.197439
    7       -6.531148
    8       -5.704150
    9       -0.076402
   10        1.043142
   11        1.850394
   12        2.240363
 
  0.2083333E+00  0.1111111E+00  0.0000000E+00  0.4629630E-02
    1      -21.777661
    2      -18.443135
    3      -13.825066
    4       -9.793369
    5       -9.793353
    6       -7.462736
    7       -6.721428
    8       -6.054590
    9        0.394296
   10        1.168323
   11        1.976867
   12        2.368664
 
  0.2500000E+00  0.1111111E+00  0.0000000E+00  0.4629630E-02
    1      -21.665589
    2      -18.797972
    3      -13.319530
    4       -9.678454
    5       -9.660575
    6       -7.761406
    7       -6.954527
    8       -6.414246
    9        0.897692
   10        1.321331
   11        2.131361
   12        2.525482
 
  0.2916667E+00  0.1111111E+00  0.0000000E+00  0.4629630E-02
    1      -21.533335
    2      -19.137634
    3      -12.805408
    4       -9.543274
    5       -9.504187
    6       -8.092740
    7       -7.218295
    8       -6.772945
    9        1.421694
   10        1.502138
   11        2.313812
   12        2.710816
 
  0.3333333E+00  0.1111111E+00  0.0000000E+00  0.4629630E-02
    1      -21.381002
    2      -19.460774
    3      -12.286110
    4       -9.388103
    5       -9.324515
    6       -8.457650
    7       -7.498763
    8       -7.124090
    9        1.710702
   10        1.957433
   11        2.524127
   12        2.924660
 
  0.3750000E+00  0.1111111E+00  0.0000000E+00  0.4629630E-02
    1      -21.208713
    2      -19.766508
    3      -11.765094
    4       -9.213265
    5       -9.121944
    6       -8.856727
    7       -7.782835
    8       -7.463260
    9        1.946964
   10        2.497800
   11        2.762150
   12        3.167009
 
  0.4166667E+00  0.1111111E+00  0.0000000E+00  0.4629630E-02
    1      -21.016616
    2      -20.054212
    3      -11.246178
    4       -9.288506
    5       -9.019113
    6       -8.896954
    7       -8.060507
    8       -7.787385
    9        2.210851
   10        3.027571
   11        3.036144
   12        3.437855
 
  0.4583333E+00  0.1111111E+00  0.0000000E+00  0.4629630E-02
    1      -20.804888
    2      -20.323411
    3      -10.733731
    4       -9.749049
    5       -8.806046
    6       -8.650142
    7       -8.325526
    8       -8.094262
    9        2.502273
   10        3.167251
   11        3.319478
   12        3.559571
 
  0.5000000E+00  0.1111111E+00  0.0000000E+00  0.2314815E-02
    1      -20.573736
    2      -20.573736
    3      -10.232794
    4      -10.232794
    5       -8.574577
    6       -8.574577
    7       -8.382259
    8       -8.382259
    9        2.821121
   10        2.821121
   11        3.631187
   12        3.631187
 
  0.0000000E+00  0.1388889E+00  0.0000000E+00  0.2314815E-02
    1      -21.910339
    2      -16.725853
    3      -15.690606
    4      -10.492254
    5       -9.950858
    6       -7.021268
    7       -6.505738
    8       -4.695181
    9       -1.216388
   10        0.987530
   11        1.794143
   12        2.183310
 
  0.4166667E-01  0.1388889E+00  0.0000000E+00  0.4629630E-02
    1      -21.900128
    2      -16.887213
    3      -15.515525
    4      -10.481356
    5       -9.938729
    6       -7.068753
    7       -6.508869
    8       -4.766091
    9       -1.132760
   10        1.001420
   11        1.808196
   12        2.197562
 
  0.8333333E-01  0.1388889E+00  0.0000000E+00  0.4629630E-02
    1      -21.869501
    2      -17.218136
    3      -15.143592
    4      -10.448660
    5       -9.902364
    6       -7.197501
    7       -6.531118
    8       -4.960500
    9       -0.900378
   10        1.043098
   11        1.850352
   12        2.240320
 
  0.1250000E+00  0.1388889E+00  0.0000000E+00  0.4629630E-02
    1      -21.818481
    2      -17.588875
    3      -14.705029
    4      -10.394155
    5       -9.841820
    6       -7.383841
    7       -6.593453
    8       -5.239554
    9       -0.558628
   10        1.112581
   11        1.920598
   12        2.311586
 
  0.1666667E+00  0.1388889E+00  0.0000000E+00  0.4629630E-02
    1      -21.747106
    2      -17.963018
    3      -14.237069
    4      -10.317815
    5       -9.757194
    6       -7.610519
    7       -6.708232
    8       -5.567436
    9       -0.144208
   10        1.209890
   11        2.018913
   12        2.411366
 
  0.2083333E+00  0.1388889E+00  0.0000000E+00  0.4629630E-02
    1      -21.655429
    2      -18.329170
    3      -13.752309
    4      -10.219582
    5       -9.648630
    6       -7.866980
    7       -6.878717
    8       -5.919288
    9        0.316813
   10        1.335040
   11        2.145267
   12        2.539665
 
  0.2500000E+00  0.1388889E+00  0.0000000E+00  0.4629630E-02
    1      -21.543520
    2      -18.682679
    3      -13.257058
    4      -10.099337
    5       -9.516318
    6       -8.147116
    7       -7.101493
    8       -6.279387
    9        0.807200
   10        1.488026
   11        2.299616
   12        2.696484
 
  0.2916667E+00  0.1388889E+00  0.0000000E+00  0.4629630E-02
    1      -21.411465
    2      -19.021199
    3      -12.755842
    4       -9.956867
    5       -9.360503
    6       -8.448144
    7       -7.368138
    8       -6.637873
    9        1.315301
   10        1.668822
   11        2.481902
   12        2.881822
 
  0.3333333E+00  0.1388889E+00  0.0000000E+00  0.4629630E-02
    1      -21.259372
    2      -19.343357
    3      -12.252872
    4       -9.791811
    5       -9.181492
    6       -8.770178
    7       -7.666500
    8       -6.988394
    9        1.832737
   10        1.877384
   11        2.692043
   12        3.095675
 
  0.3750000E+00  0.1388889E+00  0.0000000E+00  0.4629630E-02
    1      -21.087369
    2      -19.648247
    3      -11.752667
    4       -9.603609
    5       -9.115734
    6       -8.979669
    7       -7.982001
    8       -7.326704
    9        2.113644
   10        2.353020
   11        2.929924
   12        3.338037
 
  0.4166667E+00  0.1388889E+00  0.0000000E+00  0.4629630E-02
    1      -20.895609
    2      -19.935224
    3      -11.260385
    4       -9.488511
    5       -9.391486
    6       -8.755509
    7       -8.299519
    8       -7.649849
    9        2.377525
   10        2.870735
   11        3.195343
   12        3.608898
 
  0.4583333E+00  0.1388889E+00  0.0000000E+00  0.4629630E-02
    1      -20.684276
    2      -20.203799
    3      -10.781919
    4       -9.891230
    5       -9.154573
    6       -8.605943
    7       -8.509603
    8       -7.955704
    9        2.668930
   10        3.333822
   11        3.380677
   12        3.487734
 
  0.5000000E+00  0.1388889E+00  0.0000000E+00  0.2314815E-02
    1      -20.453586
    2      -20.453586
    3      -10.323598
    4      -10.323598
    5       -8.892384
    6       -8.892384
    7       -8.242690
    8       -8.242690
    9        2.987743
   10        2.987743
   11        3.791741
   12        3.791742
 
  0.0000000E+00  0.1666667E+00  0.0000000E+00  0.2314815E-02
    1      -21.760747
    2      -16.597144
    3      -15.574418
    4      -10.973074
    5       -9.773283
    6       -7.472392
    7       -6.800606
    8       -4.513473
    9       -1.304529
   10        1.191464
   11        2.000214
   12        2.392339
 
  0.4166667E-01  0.1666667E+00  0.0000000E+00  0.4629630E-02
    1      -21.750552
    2      -16.757339
    3      -15.401431
    4      -10.961602
    5       -9.761212
    6       -7.522102
    7       -6.796271
    8       -4.586983
    9       -1.219893
   10        1.205342
   11        2.014247
   12        2.406589
 
  0.8333333E-01  0.1666667E+00  0.0000000E+00  0.4629630E-02
    1      -21.719976
    2      -17.085902
    3      -15.034712
    4      -10.927129
    5       -9.725017
    6       -7.656009
    7       -6.798185
    8       -4.787011
    9       -0.986659
   10        1.246981
   11        2.056340
   12        2.449340
 
  0.1250000E+00  0.1666667E+00  0.0000000E+00  0.4629630E-02
    1      -21.669042
    2      -17.454200
    3      -14.603562
    4      -10.869478
    5       -9.664758
    6       -7.847324
    7       -6.831977
    8       -5.071343
    9       -0.647552
   10        1.316406
   11        2.126480
   12        2.520597
 
  0.1666667E+00  0.1666667E+00  0.0000000E+00  0.4629630E-02
    1      -21.597788
    2      -17.826131
    3      -14.145256
    4      -10.788315
    5       -9.580534
    6       -8.076190
    7       -6.914904
    8       -5.402729
    9       -0.240663
   10        1.413643
   11        2.224641
   12        2.620366
 
  0.2083333E+00  0.1666667E+00  0.0000000E+00  0.4629630E-02
    1      -21.506271
    2      -18.190349
    3      -13.672897
    4      -10.683099
    5       -9.472488
    6       -8.330265
    7       -7.054655
    8       -5.756325
    9        0.208041
   10        1.538717
   11        2.350790
   12        2.748653
 
  0.2500000E+00  0.1666667E+00  0.0000000E+00  0.4629630E-02
    1      -21.394562
    2      -18.542187
    3      -13.193625
    4      -10.552984
    5       -9.340812
    6       -8.601885
    7       -7.251888
    8       -6.116864
    9        0.681917
   10        1.691633
   11        2.504876
   12        2.905464
 
  0.2916667E+00  0.1666667E+00  0.0000000E+00  0.4629630E-02
    1      -21.262754
    2      -18.879273
    3      -12.713168
    4      -10.396714
    5       -9.185752
    6       -8.886479
    7       -7.502027
    8       -6.474932
    9        1.169974
   10        1.872372
   11        2.686833
   12        3.090799
 
  0.3333333E+00  0.1666667E+00  0.0000000E+00  0.4629630E-02
    1      -21.110957
    2      -19.200197
    3      -12.237352
    4      -10.212500
    5       -9.181945
    6       -9.007617
    7       -7.796508
    8       -6.824515
    9        1.664477
   10        2.080886
   11        2.896577
   12        3.304655
 
  0.3750000E+00  0.1666667E+00  0.0000000E+00  0.4629630E-02
    1      -20.939307
    2      -19.504028
    3      -11.772678
    4       -9.998029
    5       -9.488558
    6       -8.806788
    7       -8.123724
    8       -7.161595
    9        2.159596
   10        2.317104
   11        3.133992
   12        3.547024
 
  0.4166667E+00  0.1666667E+00  0.0000000E+00  0.4629630E-02
    1      -20.747966
    2      -19.790096
    3      -11.326232
    4       -9.809027
    5       -9.750873
    6       -8.583737
    7       -8.469757
    8       -7.483375
    9        2.580935
   10        2.650665
   11        3.398921
   12        3.817896
 
  0.4583333E+00  0.1666667E+00  0.0000000E+00  0.4629630E-02
    1      -20.537124
    2      -20.057892
    3      -10.904641
    4      -10.148248
    5       -9.469746
    6       -8.819193
    7       -8.339046
    8       -7.787828
    9        2.872270
   10        3.133736
   11        3.536918
   12        3.691038
 
  0.5000000E+00  0.1666667E+00  0.0000000E+00  0.2314815E-02
    1      -20.307009
    2      -20.307009
    3      -10.512043
    4      -10.512043
    5       -9.156715
    6       -9.156715
    7       -8.073439
    8       -8.073439
    9        3.190982
   10        3.190982
   11        3.605187
   12        3.605187
 