<?xml version="1.0" encoding="ISO-8859-1"?>
<modeling>
 <generator>
  <i name="program" type="string">vasp </i>
  <i name="version" type="string">5.3.5  </i>
  <i name="subversion" type="string">31Mar14 (build Mar 02 2015 18:14:16) complex                          parallel </i>
  <i name="platform" type="string">LinuxIFC </i>
  <i name="date" type="string">2018 08 10 </i>
  <i name="time" type="string">15:18:32 </i>
 </generator>
 <incar>
  <i type="string" name="SYSTEM">  gr</i>
  <i type="string" name="PREC">accurate : accuracy</i>
  <i type="string" name="ALGO"> FAST.</i>
  <i type="int" name="NELM">   100</i>
  <i type="int" name="NELMDL">    -3</i>
  <i type="int" name="NELMIN">     5</i>
  <i type="int" name="IBRION">     1</i>
  <i name="EDIFF">      0.00000000</i>
  <i name="EDIFFG">     -0.00000100</i>
  <i type="int" name="NSW">   400</i>
  <i type="int" name="ISIF">     2</i>
  <i name="ENCUT">   2000.00000000</i>
  <i type="int" name="ISMEAR">     0</i>
  <i name="SIGMA">      0.05000000</i>
  <i type="int" name="NWRITE">     2</i>
  <i type="logical" name="LWAVE"> F  </i>
  <i type="logical" name="LCHARG"> F  </i>
  <i type="int" name="NELM">   100</i>
 </incar>
 <kpoints>
  <generation param="Gamma">
   <v type="int" name="divisions">      24       36        1 </v>
   <v name="usershift">      0.00000000       0.00000000       0.00000000 </v>
   <v name="genvec1">      0.04166667       0.00000000       0.00000000 </v>
   <v name="genvec2">      0.00000000       0.02777778       0.00000000 </v>
   <v name="genvec3">      0.00000000       0.00000000       1.00000000 </v>
   <v name="shift">      0.00000000       0.00000000       0.00000000 </v>
  </generation>
  <varray name="kpointlist" >
   <v>       0.00000000       0.00000000       0.00000000 </v>
   <v>       0.04166667       0.00000000       0.00000000 </v>
   <v>       0.08333333       0.00000000       0.00000000 </v>
   <v>       0.12500000       0.00000000       0.00000000 </v>
   <v>       0.16666667       0.00000000       0.00000000 </v>
   <v>       0.20833333       0.00000000       0.00000000 </v>
   <v>       0.25000000       0.00000000       0.00000000 </v>
   <v>       0.29166667       0.00000000       0.00000000 </v>
   <v>       0.33333333       0.00000000       0.00000000 </v>
   <v>       0.37500000       0.00000000       0.00000000 </v>
   <v>       0.41666667       0.00000000       0.00000000 </v>
   <v>       0.45833333       0.00000000       0.00000000 </v>
   <v>       0.50000000       0.00000000       0.00000000 </v>
   <v>       0.00000000       0.02777778       0.00000000 </v>
   <v>       0.04166667       0.02777778       0.00000000 </v>
   <v>       0.08333333       0.02777778       0.00000000 </v>
   <v>       0.12500000       0.02777778       0.00000000 </v>
   <v>       0.16666667       0.02777778       0.00000000 </v>
   <v>       0.20833333       0.02777778       0.00000000 </v>
   <v>       0.25000000       0.02777778       0.00000000 </v>
   <v>       0.29166667       0.02777778       0.00000000 </v>
   <v>       0.33333333       0.02777778       0.00000000 </v>
   <v>       0.37500000       0.02777778       0.00000000 </v>
   <v>       0.41666667       0.02777778       0.00000000 </v>
   <v>       0.45833333       0.02777778       0.00000000 </v>
   <v>       0.50000000       0.02777778       0.00000000 </v>
   <v>       0.00000000       0.05555556       0.00000000 </v>
   <v>       0.04166667       0.05555556       0.00000000 </v>
   <v>       0.08333333       0.05555556       0.00000000 </v>
   <v>       0.12500000       0.05555556       0.00000000 </v>
   <v>       0.16666667       0.05555556       0.00000000 </v>
   <v>       0.20833333       0.05555556       0.00000000 </v>
   <v>       0.25000000       0.05555556       0.00000000 </v>
   <v>       0.29166667       0.05555556       0.00000000 </v>
   <v>       0.33333333       0.05555556       0.00000000 </v>
   <v>       0.37500000       0.05555556       0.00000000 </v>
   <v>       0.41666667       0.05555556       0.00000000 </v>
   <v>       0.45833333       0.05555556       0.00000000 </v>
   <v>       0.50000000       0.05555556       0.00000000 </v>
   <v>       0.00000000       0.08333333       0.00000000 </v>
   <v>       0.04166667       0.08333333       0.00000000 </v>
   <v>       0.08333333       0.08333333       0.00000000 </v>
   <v>       0.12500000       0.08333333       0.00000000 </v>
   <v>       0.16666667       0.08333333       0.00000000 </v>
   <v>       0.20833333       0.08333333       0.00000000 </v>
   <v>       0.25000000       0.08333333       0.00000000 </v>
   <v>       0.29166667       0.08333333       0.00000000 </v>
   <v>       0.33333333       0.08333333       0.00000000 </v>
   <v>       0.37500000       0.08333333       0.00000000 </v>
   <v>       0.41666667       0.08333333       0.00000000 </v>
   <v>       0.45833333       0.08333333       0.00000000 </v>
   <v>       0.50000000       0.08333333       0.00000000 </v>
   <v>       0.00000000       0.11111111       0.00000000 </v>
   <v>       0.04166667       0.11111111       0.00000000 </v>
   <v>       0.08333333       0.11111111       0.00000000 </v>
   <v>       0.12500000       0.11111111       0.00000000 </v>
   <v>       0.16666667       0.11111111       0.00000000 </v>
   <v>       0.20833333       0.11111111       0.00000000 </v>
   <v>       0.25000000       0.11111111       0.00000000 </v>
   <v>       0.29166667       0.11111111       0.00000000 </v>
   <v>       0.33333333       0.11111111       0.00000000 </v>
   <v>       0.37500000       0.11111111       0.00000000 </v>
   <v>       0.41666667       0.11111111       0.00000000 </v>
   <v>       0.45833333       0.11111111       0.00000000 </v>
   <v>       0.50000000       0.11111111       0.00000000 </v>
   <v>       0.00000000       0.13888889       0.00000000 </v>
   <v>       0.04166667       0.13888889       0.00000000 </v>
   <v>       0.08333333       0.13888889       0.00000000 </v>
   <v>       0.12500000       0.13888889       0.00000000 </v>
   <v>       0.16666667       0.13888889       0.00000000 </v>
   <v>       0.20833333       0.13888889       0.00000000 </v>
   <v>       0.25000000       0.13888889       0.00000000 </v>
   <v>       0.29166667       0.13888889       0.00000000 </v>
   <v>       0.33333333       0.13888889       0.00000000 </v>
   <v>       0.37500000       0.13888889       0.00000000 </v>
   <v>       0.41666667       0.13888889       0.00000000 </v>
   <v>       0.45833333       0.13888889       0.00000000 </v>
   <v>       0.50000000       0.13888889       0.00000000 </v>
   <v>       0.00000000       0.16666667       0.00000000 </v>
   <v>       0.04166667       0.16666667       0.00000000 </v>
   <v>       0.08333333       0.16666667       0.00000000 </v>
   <v>       0.12500000       0.16666667       0.00000000 </v>
   <v>       0.16666667       0.16666667       0.00000000 </v>
   <v>       0.20833333       0.16666667       0.00000000 </v>
   <v>       0.25000000       0.16666667       0.00000000 </v>
   <v>       0.29166667       0.16666667       0.00000000 </v>
   <v>       0.33333333       0.16666667       0.00000000 </v>
   <v>       0.37500000       0.16666667       0.00000000 </v>
   <v>       0.41666667       0.16666667       0.00000000 </v>
   <v>       0.45833333       0.16666667       0.00000000 </v>
   <v>       0.50000000       0.16666667       0.00000000 </v>
   <v>       0.00000000       0.19444444       0.00000000 </v>
   <v>       0.04166667       0.19444444       0.00000000 </v>
   <v>       0.08333333       0.19444444       0.00000000 </v>
   <v>       0.12500000       0.19444444       0.00000000 </v>
   <v>       0.16666667       0.19444444       0.00000000 </v>
   <v>       0.20833333       0.19444444       0.00000000 </v>
   <v>       0.25000000       0.19444444       0.00000000 </v>
   <v>       0.29166667       0.19444444       0.00000000 </v>
   <v>       0.33333333       0.19444444       0.00000000 </v>
   <v>       0.37500000       0.19444444       0.00000000 </v>
   <v>       0.41666667       0.19444444       0.00000000 </v>
   <v>       0.45833333       0.19444444       0.00000000 </v>
   <v>       0.50000000       0.19444444       0.00000000 </v>
   <v>       0.00000000       0.22222222       0.00000000 </v>
   <v>       0.04166667       0.22222222       0.00000000 </v>
   <v>       0.08333333       0.22222222       0.00000000 </v>
   <v>       0.12500000       0.22222222       0.00000000 </v>
   <v>       0.16666667       0.22222222       0.00000000 </v>
   <v>       0.20833333       0.22222222       0.00000000 </v>
   <v>       0.25000000       0.22222222       0.00000000 </v>
   <v>       0.29166667       0.22222222       0.00000000 </v>
   <v>       0.33333333       0.22222222       0.00000000 </v>
   <v>       0.37500000       0.22222222       0.00000000 </v>
   <v>       0.41666667       0.22222222       0.00000000 </v>
   <v>       0.45833333       0.22222222       0.00000000 </v>
   <v>       0.50000000       0.22222222       0.00000000 </v>
   <v>       0.00000000       0.25000000       0.00000000 </v>
   <v>       0.04166667       0.25000000       0.00000000 </v>
   <v>       0.08333333       0.25000000       0.00000000 </v>
   <v>       0.12500000       0.25000000       0.00000000 </v>
   <v>       0.16666667       0.25000000       0.00000000 </v>
   <v>       0.20833333       0.25000000       0.00000000 </v>
   <v>       0.25000000       0.25000000       0.00000000 </v>
   <v>       0.29166667       0.25000000       0.00000000 </v>
   <v>       0.33333333       0.25000000       0.00000000 </v>
   <v>       0.37500000       0.25000000       0.00000000 </v>
   <v>       0.41666667       0.25000000       0.00000000 </v>
   <v>       0.45833333       0.25000000       0.00000000 </v>
   <v>       0.50000000       0.25000000       0.00000000 </v>
   <v>       0.00000000       0.27777778       0.00000000 </v>
   <v>       0.04166667       0.27777778       0.00000000 </v>
   <v>       0.08333333       0.27777778       0.00000000 </v>
   <v>       0.12500000       0.27777778       0.00000000 </v>
   <v>       0.16666667       0.27777778       0.00000000 </v>
   <v>       0.20833333       0.27777778       0.00000000 </v>
   <v>       0.25000000       0.27777778       0.00000000 </v>
   <v>       0.29166667       0.27777778       0.00000000 </v>
   <v>       0.33333333       0.27777778       0.00000000 </v>
   <v>       0.37500000       0.27777778       0.00000000 </v>
   <v>       0.41666667       0.27777778       0.00000000 </v>
   <v>       0.45833333       0.27777778       0.00000000 </v>
   <v>       0.50000000       0.27777778       0.00000000 </v>
   <v>       0.00000000       0.30555556       0.00000000 </v>
   <v>       0.04166667       0.30555556       0.00000000 </v>
   <v>       0.08333333       0.30555556       0.00000000 </v>
   <v>       0.12500000       0.30555556       0.00000000 </v>
   <v>       0.16666667       0.30555556       0.00000000 </v>
   <v>       0.20833333       0.30555556       0.00000000 </v>
   <v>       0.25000000       0.30555556       0.00000000 </v>
   <v>       0.29166667       0.30555556       0.00000000 </v>
   <v>       0.33333333       0.30555556       0.00000000 </v>
   <v>       0.37500000       0.30555556       0.00000000 </v>
   <v>       0.41666667       0.30555556       0.00000000 </v>
   <v>       0.45833333       0.30555556       0.00000000 </v>
   <v>       0.50000000       0.30555556       0.00000000 </v>
   <v>       0.00000000       0.33333333       0.00000000 </v>
   <v>       0.04166667       0.33333333       0.00000000 </v>
   <v>       0.08333333       0.33333333       0.00000000 </v>
   <v>       0.12500000       0.33333333       0.00000000 </v>
   <v>       0.16666667       0.33333333       0.00000000 </v>
   <v>       0.20833333       0.33333333       0.00000000 </v>
   <v>       0.25000000       0.33333333       0.00000000 </v>
   <v>       0.29166667       0.33333333       0.00000000 </v>
   <v>       0.33333333       0.33333333       0.00000000 </v>
   <v>       0.37500000       0.33333333       0.00000000 </v>
   <v>       0.41666667       0.33333333       0.00000000 </v>
   <v>       0.45833333       0.33333333       0.00000000 </v>
   <v>       0.50000000       0.33333333       0.00000000 </v>
   <v>       0.00000000       0.36111111       0.00000000 </v>
   <v>       0.04166667       0.36111111       0.00000000 </v>
   <v>       0.08333333       0.36111111       0.00000000 </v>
   <v>       0.12500000       0.36111111       0.00000000 </v>
   <v>       0.16666667       0.36111111       0.00000000 </v>
   <v>       0.20833333       0.36111111       0.00000000 </v>
   <v>       0.25000000       0.36111111       0.00000000 </v>
   <v>       0.29166667       0.36111111       0.00000000 </v>
   <v>       0.33333333       0.36111111       0.00000000 </v>
   <v>       0.37500000       0.36111111       0.00000000 </v>
   <v>       0.41666667       0.36111111       0.00000000 </v>
   <v>       0.45833333       0.36111111       0.00000000 </v>
   <v>       0.50000000       0.36111111       0.00000000 </v>
   <v>       0.00000000       0.38888889       0.00000000 </v>
   <v>       0.04166667       0.38888889       0.00000000 </v>
   <v>       0.08333333       0.38888889       0.00000000 </v>
   <v>       0.12500000       0.38888889       0.00000000 </v>
   <v>       0.16666667       0.38888889       0.00000000 </v>
   <v>       0.20833333       0.38888889       0.00000000 </v>
   <v>       0.25000000       0.38888889       0.00000000 </v>
   <v>       0.29166667       0.38888889       0.00000000 </v>
   <v>       0.33333333       0.38888889       0.00000000 </v>
   <v>       0.37500000       0.38888889       0.00000000 </v>
   <v>       0.41666667       0.38888889       0.00000000 </v>
   <v>       0.45833333       0.38888889       0.00000000 </v>
   <v>       0.50000000       0.38888889       0.00000000 </v>
   <v>       0.00000000       0.41666667       0.00000000 </v>
   <v>       0.04166667       0.41666667       0.00000000 </v>
   <v>       0.08333333       0.41666667       0.00000000 </v>
   <v>       0.12500000       0.41666667       0.00000000 </v>
   <v>       0.16666667       0.41666667       0.00000000 </v>
   <v>       0.20833333       0.41666667       0.00000000 </v>
   <v>       0.25000000       0.41666667       0.00000000 </v>
   <v>       0.29166667       0.41666667       0.00000000 </v>
   <v>       0.33333333       0.41666667       0.00000000 </v>
   <v>       0.37500000       0.41666667       0.00000000 </v>
   <v>       0.41666667       0.41666667       0.00000000 </v>
   <v>       0.45833333       0.41666667       0.00000000 </v>
   <v>       0.50000000       0.41666667       0.00000000 </v>
   <v>       0.00000000       0.44444444       0.00000000 </v>
   <v>       0.04166667       0.44444444       0.00000000 </v>
   <v>       0.08333333       0.44444444       0.00000000 </v>
   <v>       0.12500000       0.44444444       0.00000000 </v>
   <v>       0.16666667       0.44444444       0.00000000 </v>
   <v>       0.20833333       0.44444444       0.00000000 </v>
   <v>       0.25000000       0.44444444       0.00000000 </v>
   <v>       0.29166667       0.44444444       0.00000000 </v>
   <v>       0.33333333       0.44444444       0.00000000 </v>
   <v>       0.37500000       0.44444444       0.00000000 </v>
   <v>       0.41666667       0.44444444       0.00000000 </v>
   <v>       0.45833333       0.44444444       0.00000000 </v>
   <v>       0.50000000       0.44444444       0.00000000 </v>
   <v>       0.00000000       0.47222222       0.00000000 </v>
   <v>       0.04166667       0.47222222       0.00000000 </v>
   <v>       0.08333333       0.47222222       0.00000000 </v>
   <v>       0.12500000       0.47222222       0.00000000 </v>
   <v>       0.16666667       0.47222222       0.00000000 </v>
   <v>       0.20833333       0.47222222       0.00000000 </v>
   <v>       0.25000000       0.47222222       0.00000000 </v>
   <v>       0.29166667       0.47222222       0.00000000 </v>
   <v>       0.33333333       0.47222222       0.00000000 </v>
   <v>       0.37500000       0.47222222       0.00000000 </v>
   <v>       0.41666667       0.47222222       0.00000000 </v>
   <v>       0.45833333       0.47222222       0.00000000 </v>
   <v>       0.50000000       0.47222222       0.00000000 </v>
   <v>       0.00000000       0.50000000       0.00000000 </v>
   <v>       0.04166667       0.50000000       0.00000000 </v>
   <v>       0.08333333       0.50000000       0.00000000 </v>
   <v>       0.12500000       0.50000000       0.00000000 </v>
   <v>       0.16666667       0.50000000       0.00000000 </v>
   <v>       0.20833333       0.50000000       0.00000000 </v>
   <v>       0.25000000       0.50000000       0.00000000 </v>
   <v>       0.29166667       0.50000000       0.00000000 </v>
   <v>       0.33333333       0.50000000       0.00000000 </v>
   <v>       0.37500000       0.50000000       0.00000000 </v>
   <v>       0.41666667       0.50000000       0.00000000 </v>
   <v>       0.45833333       0.50000000       0.00000000 </v>
   <v>       0.50000000       0.50000000       0.00000000 </v>
  </varray>
  <varray name="weights" >
   <v>       0.00115741 </v>
   <v>       0.00231481 </v>
   <v>       0.00231481 </v>
   <v>       0.00231481 </v>
   <v>       0.00231481 </v>
   <v>       0.00231481 </v>
   <v>       0.00231481 </v>
   <v>       0.00231481 </v>
   <v>       0.00231481 </v>
   <v>       0.00231481 </v>
   <v>       0.00231481 </v>
   <v>       0.00231481 </v>
   <v>       0.00115741 </v>
   <v>       0.00231481 </v>
   <v>       0.00462963 </v>
   <v>       0.00462963 </v>
   <v>       0.00462963 </v>
   <v>       0.00462963 </v>
   <v>       0.00462963 </v>
   <v>       0.00462963 </v>
   <v>       0.00462963 </v>
   <v>       0.00462963 </v>
   <v>       0.00462963 </v>
   <v>       0.00462963 </v>
   <v>       0.00462963 </v>
   <v>       0.00231481 </v>
   <v>       0.00231481 </v>
   <v>       0.00462963 </v>
   <v>       0.00462963 </v>
   <v>       0.00462963 </v>
   <v>       0.00462963 </v>
   <v>       0.00462963 </v>
   <v>       0.00462963 </v>
   <v>       0.00462963 </v>
   <v>       0.00462963 </v>
   <v>       0.00462963 </v>
   <v>       0.00462963 </v>
   <v>       0.00462963 </v>
   <v>       0.00231481 </v>
   <v>       0.00231481 </v>
   <v>       0.00462963 </v>
   <v>       0.00462963 </v>
   <v>       0.00462963 </v>
   <v>       0.00462963 </v>
   <v>       0.00462963 </v>
   <v>       0.00462963 </v>
   <v>       0.00462963 </v>
   <v>       0.00462963 </v>
   <v>       0.00462963 </v>
   <v>       0.00462963 </v>
   <v>       0.00462963 </v>
   <v>       0.00231481 </v>
   <v>       0.00231481 </v>
   <v>       0.00462963 </v>
   <v>       0.00462963 </v>
   <v>       0.00462963 </v>
   <v>       0.00462963 </v>
   <v>       0.00462963 </v>
   <v>       0.00462963 </v>
   <v>       0.00462963 </v>
   <v>       0.00462963 </v>
   <v>       0.00462963 </v>
   <v>       0.00462963 </v>
   <v>       0.00462963 </v>
   <v>       0.00231481 </v>
   <v>       0.00231481 </v>
   <v>       0.00462963 </v>
   <v>       0.00462963 </v>
   <v>       0.00462963 </v>
   <v>       0.00462963 </v>
   <v>       0.00462963 </v>
   <v>       0.00462963 </v>
   <v>       0.00462963 </v>
   <v>       0.00462963 </v>
   <v>       0.00462963 </v>
   <v>       0.00462963 </v>
   <v>       0.00462963 </v>
   <v>       0.00231481 </v>
   <v>       0.00231481 </v>
   <v>       0.00462963 </v>
   <v>       0.00462963 </v>
   <v>       0.00462963 </v>
   <v>       0.00462963 </v>
   <v>       0.00462963 </v>
   <v>       0.00462963 </v>
   <v>       0.00462963 </v>
   <v>       0.00462963 </v>
   <v>       0.00462963 </v>
   <v>       0.00462963 </v>
   <v>       0.00462963 </v>
   <v>       0.00231481 </v>
   <v>       0.00231481 </v>
   <v>       0.00462963 </v>
   <v>       0.00462963 </v>
   <v>       0.00462963 </v>
   <v>       0.00462963 </v>
   <v>       0.00462963 </v>
   <v>       0.00462963 </v>
   <v>       0.00462963 </v>
   <v>       0.00462963 </v>
   <v>       0.00462963 </v>
   <v>       0.00462963 </v>
   <v>       0.00462963 </v>
   <v>       0.00231481 </v>
   <v>       0.00231481 </v>
   <v>       0.00462963 </v>
   <v>       0.00462963 </v>
   <v>       0.00462963 </v>
   <v>       0.00462963 </v>
   <v>       0.00462963 </v>
   <v>       0.00462963 </v>
   <v>       0.00462963 </v>
   <v>       0.00462963 </v>
   <v>       0.00462963 </v>
   <v>       0.00462963 </v>
   <v>       0.00462963 </v>
   <v>       0.00231481 </v>
   <v>       0.00231481 </v>
   <v>       0.00462963 </v>
   <v>       0.00462963 </v>
   <v>       0.00462963 </v>
   <v>       0.00462963 </v>
   <v>       0.00462963 </v>
   <v>       0.00462963 </v>
   <v>       0.00462963 </v>
   <v>       0.00462963 </v>
   <v>       0.00462963 </v>
   <v>       0.00462963 </v>
   <v>       0.00462963 </v>
   <v>       0.00231481 </v>
   <v>       0.00231481 </v>
   <v>       0.00462963 </v>
   <v>       0.00462963 </v>
   <v>       0.00462963 </v>
   <v>       0.00462963 </v>
   <v>       0.00462963 </v>
   <v>       0.00462963 </v>
   <v>       0.00462963 </v>
   <v>       0.00462963 </v>
   <v>       0.00462963 </v>
   <v>       0.00462963 </v>
   <v>       0.00462963 </v>
   <v>       0.00231481 </v>
   <v>       0.00231481 </v>
   <v>       0.00462963 </v>
   <v>       0.00462963 </v>
   <v>       0.00462963 </v>
   <v>       0.00462963 </v>
   <v>       0.00462963 </v>
   <v>       0.00462963 </v>
   <v>       0.00462963 </v>
   <v>       0.00462963 </v>
   <v>       0.00462963 </v>
   <v>       0.00462963 </v>
   <v>       0.00462963 </v>
   <v>       0.00231481 </v>
   <v>       0.00231481 </v>
   <v>       0.00462963 </v>
   <v>       0.00462963 </v>
   <v>       0.00462963 </v>
   <v>       0.00462963 </v>
   <v>       0.00462963 </v>
   <v>       0.00462963 </v>
   <v>       0.00462963 </v>
   <v>       0.00462963 </v>
   <v>       0.00462963 </v>
   <v>       0.00462963 </v>
   <v>       0.00462963 </v>
   <v>       0.00231481 </v>
   <v>       0.00231481 </v>
   <v>       0.00462963 </v>
   <v>       0.00462963 </v>
   <v>       0.00462963 </v>
   <v>       0.00462963 </v>
   <v>       0.00462963 </v>
   <v>       0.00462963 </v>
   <v>       0.00462963 </v>
   <v>       0.00462963 </v>
   <v>       0.00462963 </v>
   <v>       0.00462963 </v>
   <v>       0.00462963 </v>
   <v>       0.00231481 </v>
   <v>       0.00231481 </v>
   <v>       0.00462963 </v>
   <v>       0.00462963 </v>
   <v>       0.00462963 </v>
   <v>       0.00462963 </v>
   <v>       0.00462963 </v>
   <v>       0.00462963 </v>
   <v>       0.00462963 </v>
   <v>       0.00462963 </v>
   <v>       0.00462963 </v>
   <v>       0.00462963 </v>
   <v>       0.00462963 </v>
   <v>       0.00231481 </v>
   <v>       0.00231481 </v>
   <v>       0.00462963 </v>
   <v>       0.00462963 </v>
   <v>       0.00462963 </v>
   <v>       0.00462963 </v>
   <v>       0.00462963 </v>
   <v>       0.00462963 </v>
   <v>       0.00462963 </v>
   <v>       0.00462963 </v>
   <v>       0.00462963 </v>
   <v>       0.00462963 </v>
   <v>       0.00462963 </v>
   <v>       0.00231481 </v>
   <v>       0.00231481 </v>
   <v>       0.00462963 </v>
   <v>       0.00462963 </v>
   <v>       0.00462963 </v>
   <v>       0.00462963 </v>
   <v>       0.00462963 </v>
   <v>       0.00462963 </v>
   <v>       0.00462963 </v>
   <v>       0.00462963 </v>
   <v>       0.00462963 </v>
   <v>       0.00462963 </v>
   <v>       0.00462963 </v>
   <v>       0.00231481 </v>
   <v>       0.00231481 </v>
   <v>       0.00462963 </v>
   <v>       0.00462963 </v>
   <v>       0.00462963 </v>
   <v>       0.00462963 </v>
   <v>       0.00462963 </v>
   <v>       0.00462963 </v>
   <v>       0.00462963 </v>
   <v>       0.00462963 </v>
   <v>       0.00462963 </v>
   <v>       0.00462963 </v>
   <v>       0.00462963 </v>
   <v>       0.00231481 </v>
   <v>       0.00115741 </v>
   <v>       0.00231481 </v>
   <v>       0.00231481 </v>
   <v>       0.00231481 </v>
   <v>       0.00231481 </v>
   <v>       0.00231481 </v>
   <v>       0.00231481 </v>
   <v>       0.00231481 </v>
   <v>       0.00231481 </v>
   <v>       0.00231481 </v>
   <v>       0.00231481 </v>
   <v>       0.00231481 </v>
   <v>       0.00115741 </v>
  </varray>
 </kpoints>
 <parameters>
  <separator name="general" >
   <i type="string" name="SYSTEM">gr</i>
   <i type="logical" name="LCOMPAT"> F  </i>
  </separator>
  <separator name="electronic" >
   <i type="string" name="PREC">accura</i>
   <i name="ENMAX">   2000.00000000</i>
   <i name="ENAUG">    644.87300000</i>
   <i name="EDIFF">      0.00000000</i>
   <i type="int" name="IALGO">    68</i>
   <i type="int" name="IWAVPR">    11</i>
   <i type="int" name="NBANDS">    12</i>
   <i name="NELECT">     16.00000000</i>
   <i type="int" name="TURBO">     0</i>
   <i type="int" name="IRESTART">     0</i>
   <i type="int" name="NREBOOT">     0</i>
   <i type="int" name="NMIN">     0</i>
   <i name="EREF">      0.00000000</i>
   <separator name="electronic smearing" >
    <i type="int" name="ISMEAR">     0</i>
    <i name="SIGMA">      0.05000000</i>
    <i name="KSPACING">      0.50000000</i>
    <i type="logical" name="KGAMMA"> T  </i>
   </separator>
   <separator name="electronic projectors" >
    <i type="logical" name="LREAL"> F  </i>
    <v name="ROPT">      0.00000000</v>
    <i type="int" name="LMAXPAW">  -100</i>
    <i type="int" name="LMAXMIX">     2</i>
    <i type="logical" name="NLSPLINE"> F  </i>
   </separator>
   <separator name="electronic startup" >
    <i type="int" name="ISTART">     0</i>
    <i type="int" name="ICHARG">     2</i>
    <i type="int" name="INIWAV">     1</i>
   </separator>
   <separator name="electronic spin" >
    <i type="int" name="ISPIN">     1</i>
    <i type="logical" name="LNONCOLLINEAR"> F  </i>
    <v name="MAGMOM">      1.00000000      1.00000000      1.00000000      1.00000000</v>
    <i name="NUPDOWN">     -1.00000000</i>
    <i type="logical" name="LSORBIT"> F  </i>
    <v name="SAXIS">      0.00000000      0.00000000      1.00000000</v>
    <i type="logical" name="LSPIRAL"> F  </i>
    <v name="QSPIRAL">      0.00000000      0.00000000      0.00000000</v>
    <i type="logical" name="LZEROZ"> F  </i>
   </separator>
   <separator name="electronic exchange-correlation" >
    <i type="logical" name="LASPH"> F  </i>
    <i type="logical" name="LMETAGGA"> F  </i>
   </separator>
   <separator name="electronic convergence" >
    <i type="int" name="NELM">   100</i>
    <i type="int" name="NELMDL">    -3</i>
    <i type="int" name="NELMIN">     5</i>
    <i name="ENINI">   2000.00000000</i>
    <separator name="electronic convergence detail" >
     <i type="logical" name="LDIAG"> T  </i>
     <i type="logical" name="LSUBROT"> F  </i>
     <i name="WEIMIN">      0.00100000</i>
     <i name="EBREAK">      0.00000000</i>
     <i name="DEPER">      0.30000000</i>
     <i type="int" name="NRMM">     4</i>
     <i name="TIME">      0.40000000</i>
    </separator>
   </separator>
   <separator name="electronic mixer" >
    <i name="AMIX">      0.40000000</i>
    <i name="BMIX">      1.00000000</i>
    <i name="AMIN">      0.10000000</i>
    <i name="AMIX_MAG">      1.60000000</i>
    <i name="BMIX_MAG">      1.00000000</i>
    <separator name="electronic mixer details" >
     <i type="int" name="IMIX">     4</i>
     <i type="int" name="MAXMIX">   -45</i>
     <i name="WC">    100.00000000</i>
     <i type="int" name="INIMIX">     1</i>
     <i type="int" name="MIXPRE">     1</i>
     <i type="int" name="MREMOVE">     5</i>
    </separator>
   </separator>
   <separator name="electronic dipolcorrection" >
    <i type="logical" name="LDIPOL"> F  </i>
    <i type="logical" name="LMONO"> F  </i>
    <i type="int" name="IDIPOL">     0</i>
    <i name="EPSILON">      1.00000000</i>
    <v name="DIPOL">   -100.00000000   -100.00000000   -100.00000000</v>
    <i name="EFIELD">      0.00000000</i>
   </separator>
  </separator>
  <separator name="grids" >
   <i type="int" name="NGX">    64</i>
   <i type="int" name="NGY">    36</i>
   <i type="int" name="NGZ">   294</i>
   <i type="int" name="NGXF">   128</i>
   <i type="int" name="NGYF">    72</i>
   <i type="int" name="NGZF">   588</i>
   <i type="logical" name="ADDGRID"> F  </i>
  </separator>
  <separator name="ionic" >
   <i type="int" name="NSW">   400</i>
   <i type="int" name="IBRION">     1</i>
   <i type="int" name="ISIF">     2</i>
   <i name="PSTRESS">      0.00000000</i>
   <i name="EDIFFG">     -0.00000100</i>
   <i type="int" name="NFREE">     0</i>
   <i name="POTIM">      0.50000000</i>
   <i name="SMASS">     -3.00000000</i>
   <i name="SCALEE">      1.00000000</i>
  </separator>
  <separator name="ionic md" >
   <i name="TEBEG">      0.00010000</i>
   <i name="TEEND">      0.00010000</i>
   <i type="int" name="NBLOCK">     1</i>
   <i type="int" name="KBLOCK">   400</i>
   <i type="int" name="NPACO">   256</i>
   <i name="APACO">     16.00000000</i>
  </separator>
  <separator name="symmetry" >
   <i type="int" name="ISYM">     2</i>
   <i name="SYMPREC">      0.00001000</i>
  </separator>
  <separator name="dos" >
   <i type="logical" name="LORBIT"> F  </i>
   <v name="RWIGS">     -1.00000000</v>
   <i type="int" name="NEDOS">   301</i>
   <i name="EMIN">     10.00000000</i>
   <i name="EMAX">    -10.00000000</i>
   <i name="EFERMI">      0.00000000</i>
  </separator>
  <separator name="writing" >
   <i type="int" name="NWRITE">     2</i>
   <i type="logical" name="LWAVE"> F  </i>
   <i type="logical" name="LCHARG"> F  </i>
   <i type="logical" name="LPARD"> F  </i>
   <i type="logical" name="LVTOT"> F  </i>
   <i type="logical" name="LVHAR"> F  </i>
   <i type="logical" name="LELF"> F  </i>
   <i type="logical" name="LOPTICS"> F  </i>
   <v name="STM">      0.00000000      0.00000000      0.00000000      0.00000000      0.00000000      0.00000000      0.00000000</v>
  </separator>
  <separator name="performance" >
   <i type="int" name="NPAR">     4</i>
   <i type="int" name="NSIM">     4</i>
   <i type="int" name="NBLK">    -1</i>
   <i type="logical" name="LPLANE"> T  </i>
   <i type="logical" name="LSCALAPACK"> F  </i>
   <i type="logical" name="LSCAAWARE"> F  </i>
   <i type="logical" name="LSCALU"> F  </i>
   <i type="logical" name="LASYNC"> F  </i>
   <i type="logical" name="LORBITALREAL"> F  </i>
  </separator>
  <separator name="miscellaneous" >
   <i type="int" name="IDIOT">     3</i>
   <i type="logical" name="LMUSIC"> F  </i>
   <v name="POMASS">     12.01100000</v>
   <v name="DARWINR">      0.00000000</v>
   <v name="DARWINV">      1.00000000</v>
   <i type="logical" name="LCORR"> T  </i>
  </separator>
  <i type="logical" name="GGA_COMPAT"> T  </i>
  <i type="logical" name="LBERRY"> F  </i>
  <i type="int" name="ICORELEVEL">     0</i>
  <i type="logical" name="LDAU"> F  </i>
  <i type="int" name="I_CONSTRAINED_M">     0</i>
  <separator name="electronic exchange-correlation" >
   <i type="string" name="GGA">--</i>
   <i type="int" name="VOSKOWN">     0</i>
   <i type="logical" name="LHFCALC"> F  </i>
   <i type="string" name="PRECFOCK"></i>
   <i type="logical" name="LSYMGRAD"> F  </i>
   <i type="logical" name="LHFONE"> F  </i>
   <i type="logical" name="LRHFCALC"> F  </i>
   <i type="logical" name="LTHOMAS"> F  </i>
   <i type="logical" name="LMODELHF"> F  </i>
   <i name="ENCUT4O">     -1.00000000</i>
   <i type="int" name="EXXOEP">     0</i>
   <i type="int" name="FOURORBIT">     0</i>
   <i name="AEXX">      0.00000000</i>
   <i name="HFALPHA">      0.00000000</i>
   <i name="MCALPHA">      0.00000000</i>
   <i name="ALDAX">      1.00000000</i>
   <i name="AGGAX">      1.00000000</i>
   <i name="ALDAC">      1.00000000</i>
   <i name="AGGAC">      1.00000000</i>
   <i type="int" name="NKREDX">     1</i>
   <i type="int" name="NKREDY">     1</i>
   <i type="int" name="NKREDZ">     1</i>
   <i type="logical" name="SHIFTRED"> F  </i>
   <i type="logical" name="ODDONLY"> F  </i>
   <i type="logical" name="EVENONLY"> F  </i>
   <i type="int" name="LMAXFOCK">     0</i>
   <i type="int" name="NMAXFOCKAE">     0</i>
   <i type="logical" name="LFOCKAEDFT"> F  </i>
   <i name="HFSCREEN">      0.00000000</i>
   <i name="HFSCREENC">      0.00000000</i>
   <i type="int" name="NBANDSGWLOW">     0</i>
  </separator>
  <separator name="vdW DFT" >
   <i type="logical" name="LUSE_VDW"> F  </i>
   <i name="Zab_VDW">     -0.84910000</i>
   <i name="PARAM1">      0.12340000</i>
   <i name="PARAM2">      1.00000000</i>
   <i name="PARAM3">      0.00000000</i>
  </separator>
  <separator name="model GW" >
   <i type="int" name="MODEL_GW">     0</i>
   <i name="MODEL_EPS0">     31.62568521</i>
   <i name="MODEL_ALPHA">      1.00000000</i>
  </separator>
  <separator name="linear response parameters" >
   <i type="logical" name="LEPSILON"> F  </i>
   <i type="logical" name="LRPA"> F  </i>
   <i type="logical" name="LNABLA"> F  </i>
   <i type="logical" name="LVEL"> F  </i>
   <i type="int" name="KINTER">     0</i>
   <i name="CSHIFT">      0.10000000</i>
   <i name="OMEGAMAX">     -1.00000000</i>
   <i name="DEG_THRESHOLD">      0.00200000</i>
  </separator>
  <separator name="orbital magnetization" >
   <i type="logical" name="NUCIND"> F  </i>
   <v name="MAGPOS">      0.00000000      0.00000000      0.00000000</v>
   <i type="logical" name="LNICSALL"> T  </i>
   <i type="logical" name="ORBITALMAG"> F  </i>
   <i type="logical" name="LMAGBLOCH"> F  </i>
   <i type="logical" name="LCHIMAG"> F  </i>
   <i type="logical" name="LGAUGE"> T  </i>
   <i type="int" name="MAGATOM">     0</i>
   <v name="MAGDIPOL">      0.00000000      0.00000000      0.00000000</v>
   <v name="AVECCONST">      0.00000000      0.00000000      0.00000000</v>
  </separator>
  <separator name="response functions" >
   <i type="logical" name="LADDER"> F  </i>
   <i type="logical" name="LFXC"> F  </i>
   <i type="logical" name="LHARTREE"> T  </i>
   <i type="int" name="IBSE">     0</i>
   <i type="logical" name="LTCTE"> F  </i>
   <i type="logical" name="LTETE"> F  </i>
   <i type="logical" name="LTRIPLET"> F  </i>
   <i type="logical" name="LFXCEPS"> F  </i>
   <i type="logical" name="LFXHEG"> F  </i>
   <i type="logical" name="L2ORDER"> F  </i>
   <i type="logical" name="LUSEW"> F  </i>
   <i name="ENCUTGW">     -2.00000000</i>
   <i name="ENCUTGWSOFT">     -2.00000000</i>
   <i name="ENCUTLF">     -1.00000000</i>
   <i type="int" name="LMAXMP2">    -1</i>
   <i name="SCISSOR">      0.00000000</i>
   <i type="int" name="NOMEGA">     0</i>
   <i type="int" name="NOMEGAR">     0</i>
   <i type="int" name="NBANDSGW">    -1</i>
   <i type="int" name="NBANDSO">    -1</i>
   <i type="int" name="NBANDSV">    -1</i>
   <i type="int" name="NELM">   100</i>
   <i type="int" name="DIM">     3</i>
   <i type="int" name="ANTIRES">     0</i>
   <i name="OMEGAMAX">    -30.00000000</i>
   <i name="OMEGAMIN">    -30.00000000</i>
   <i name="OMEGATL">   -200.00000000</i>
   <i type="int" name="OMEGAGRID">     0</i>
   <i name="CSHIFT">     -0.10000000</i>
   <i type="logical" name="SELFENERGY"> F  </i>
   <i type="logical" name="LSPECTRAL"> F  </i>
   <i type="logical" name="ODDONLYGW"> F  </i>
   <i type="logical" name="EVENONLYGW"> F  </i>
   <i type="int" name="NKREDLFX">     1</i>
   <i type="int" name="NKREDLFY">     1</i>
   <i type="int" name="NKREDLFZ">     1</i>
   <i type="int" name="MAXMEM">  1800</i>
   <i type="int" name="TELESCOPE">     0</i>
   <i type="int" name="TAUPAR">     1</i>
  </separator>
  <separator name="External order field" >
   <i name="OFIELD_KAPPA">      0.00000000</i>
   <v name="OFIELD_K">      0.00000000      0.00000000      0.00000000</v>
   <i name="OFIELD_Q6_NEAR">      0.00000000</i>
   <i name="OFIELD_Q6_FAR">      0.00000000</i>
   <i name="OFIELD_A">      0.00000000</i>
  </separator>
 </parameters>
 <atominfo>
  <atoms>       4 </atoms>
  <types>       1 </types>
  <array name="atoms" >
   <dimension dim="1">ion</dimension>
   <field type="string">element</field>
   <field type="int">atomtype</field>
   <set>
    <rc><c>C </c><c>   1</c></rc>
    <rc><c>C </c><c>   1</c></rc>
    <rc><c>C </c><c>   1</c></rc>
    <rc><c>C </c><c>   1</c></rc>
   </set>
  </array>
  <array name="atomtypes" >
   <dimension dim="1">type</dimension>
   <field type="int">atomspertype</field>
   <field type="string">element</field>
   <field>mass</field>
   <field>valence</field>
   <field type="string">pseudopotential</field>
   <set>
    <rc><c>   4</c><c>C </c><c>     12.01100000</c><c>      4.00000000</c><c> PAW_PBE C 08Apr2002                    </c></rc>
   </set>
  </array>
 </atominfo>
 <structure name="initialpos" >
  <crystal>
   <varray name="basis" >
    <v>       4.27359543       0.00000000       0.00000000 </v>
    <v>       0.00000000       2.46766938       0.00000000 </v>
    <v>       0.00000000       0.00000000      19.99255533 </v>
   </varray>
   <i name="volume">    210.83790140 </i>
   <varray name="rec_basis" >
    <v>       0.23399501       0.00000000       0.00000000 </v>
    <v>       0.00000000       0.40524067       0.00000000 </v>
    <v>       0.00000000       0.00000000       0.05001862 </v>
   </varray>
  </crystal>
  <varray name="positions" >
   <v>       0.00013158       0.00000000       0.00000000 </v>
   <v>       0.16653509       0.50000000       0.00000000 </v>
   <v>       0.50013158       0.50000000       0.00000000 </v>
   <v>       0.66653509       0.00000000       0.00000000 </v>
  </varray>
 </structure>
 <calculation>
  <scstep>
   <time name="dav">  300.68  300.96</time>
   <time name="total">  303.22  303.57</time>
   <energy>
    <i name="alphaZ">      6.18334092 </i>
    <i name="ewald">   2584.33968562 </i>
    <i name="hartreedc">  -3009.79559843 </i>
    <i name="XCdc">     55.09257536 </i>
    <i name="pawpsdc">    151.32577238 </i>
    <i name="pawaedc">   -155.92769107 </i>
    <i name="eentropy">     -0.00136952 </i>
    <i name="bandstr">    -28.54917736 </i>
    <i name="atom">    588.62352690 </i>
    <i name="e_fr_energy">    191.29106483 </i>
    <i name="e_wo_entrp">    191.29243434 </i>
    <i name="e_0_energy">    191.29174959 </i>
   </energy>
  </scstep>
  <scstep>
   <time name="dav">  447.78  448.16</time>
   <time name="total">  447.79  448.44</time>
   <energy>
    <i name="e_fr_energy">     -9.02940111 </i>
    <i name="e_wo_entrp">     -9.02928050 </i>
    <i name="e_0_energy">     -9.02934081 </i>
   </energy>
  </scstep>
  <scstep>
   <time name="dav">  348.66  348.89</time>
   <time name="total">  380.19  380.49</time>
   <energy>
    <i name="e_fr_energy">    -38.37056731 </i>
    <i name="e_wo_entrp">    -38.37056729 </i>
    <i name="e_0_energy">    -38.37056730 </i>
   </energy>
  </scstep>
  <scstep>
   <time name="diag">   81.68   81.78</time>
   <time name="diis">  346.88  347.39</time>
   <time name="orth">    3.07    3.07</time>
   <time name="total">  465.57  466.24</time>
   <energy>
    <i name="e_fr_energy">    -37.69291680 </i>
    <i name="e_wo_entrp">    -37.69291680 </i>
    <i name="e_0_energy">    -37.69291680 </i>
   </energy>
  </scstep>
  <scstep>
   <time name="diag">   81.68   81.70</time>
   <time name="diis">  344.79  344.90</time>
   <time name="orth">    3.10    3.10</time>
   <time name="total">  463.47  463.67</time>
   <energy>
    <i name="e_fr_energy">    -36.92147000 </i>
    <i name="e_wo_entrp">    -36.92147000 </i>
    <i name="e_0_energy">    -36.92147000 </i>
   </energy>
  </scstep>
  <scstep>
   <time name="diag">   81.68   81.70</time>
   <time name="diis">  373.43  373.73</time>
   <time name="orth">    3.08    3.09</time>
   <time name="total">  491.98  492.48</time>
   <energy>
    <i name="e_fr_energy">    -36.92289718 </i>
    <i name="e_wo_entrp">    -36.92289718 </i>
    <i name="e_0_energy">    -36.92289718 </i>
   </energy>
  </scstep>
  <scstep>
   <time name="diag">   81.48   81.73</time>
   <time name="diis">  343.72  344.05</time>
   <time name="orth">    3.08    3.09</time>
   <time name="total">  462.17  462.82</time>
   <energy>
    <i name="e_fr_energy">    -36.91309773 </i>
    <i name="e_wo_entrp">    -36.91309772 </i>
    <i name="e_0_energy">    -36.91309772 </i>
   </energy>
  </scstep>
  <scstep>
   <time name="diag">   81.66   81.69</time>
   <time name="diis">  343.11  344.08</time>
   <time name="orth">    3.06    3.08</time>
   <time name="total">  461.60  462.81</time>
   <energy>
    <i name="e_fr_energy">    -36.90727851 </i>
    <i name="e_wo_entrp">    -36.90727851 </i>
    <i name="e_0_energy">    -36.90727851 </i>
   </energy>
  </scstep>
  <scstep>
   <time name="diag">   81.25   81.71</time>
   <time name="diis">  332.97  333.85</time>
   <time name="orth">    3.07    3.07</time>
   <time name="total">  451.18  452.79</time>
   <energy>
    <i name="e_fr_energy">    -36.90698864 </i>
    <i name="e_wo_entrp">    -36.90698863 </i>
    <i name="e_0_energy">    -36.90698863 </i>
   </energy>
  </scstep>
  <scstep>
   <time name="diag">   81.60   81.67</time>
   <time name="diis">  334.18  334.32</time>
   <time name="orth">    3.09    3.09</time>
   <time name="total">  452.68  452.92</time>
   <energy>
    <i name="e_fr_energy">    -36.91119052 </i>
    <i name="e_wo_entrp">    -36.91106242 </i>
    <i name="e_0_energy">    -36.91112647 </i>
   </energy>
  </scstep>
  <scstep>
   <time name="diag">   81.64   81.66</time>
   <time name="diis">  336.33  336.42</time>
   <time name="orth">    3.09    3.09</time>
   <time name="total">  454.99  455.16</time>
   <energy>
    <i name="e_fr_energy">    -36.92422627 </i>
    <i name="e_wo_entrp">    -36.92409809 </i>
    <i name="e_0_energy">    -36.92416218 </i>
   </energy>
  </scstep>
  <scstep>
   <time name="diag">   81.68   81.71</time>
   <time name="diis">  334.90  334.98</time>
   <time name="orth">    3.09    3.09</time>
   <time name="total">  453.58  453.72</time>
   <energy>
    <i name="e_fr_energy">    -36.92478378 </i>
    <i name="e_wo_entrp">    -36.92465553 </i>
    <i name="e_0_energy">    -36.92471966 </i>
   </energy>
  </scstep>
  <scstep>
   <time name="diag">   81.69   81.78</time>
   <time name="diis">  334.21  334.67</time>
   <time name="orth">    3.07    3.07</time>
   <time name="total">  452.77  453.54</time>
   <energy>
    <i name="e_fr_energy">    -36.92526351 </i>
    <i name="e_wo_entrp">    -36.92513520 </i>
    <i name="e_0_energy">    -36.92519935 </i>
   </energy>
  </scstep>
  <scstep>
   <time name="diag">   81.21   81.63</time>
   <time name="diis">  347.98  349.53</time>
   <time name="orth">    3.06    3.08</time>
   <time name="total">  466.11  468.20</time>
   <energy>
    <i name="e_fr_energy">    -36.92535628 </i>
    <i name="e_wo_entrp">    -36.92522800 </i>
    <i name="e_0_energy">    -36.92529214 </i>
   </energy>
  </scstep>
  <scstep>
   <time name="diag">   81.62   81.64</time>
   <time name="diis">  335.86  336.60</time>
   <time name="orth">    3.08    3.09</time>
   <time name="total">  454.43  455.26</time>
   <energy>
    <i name="e_fr_energy">    -36.92540361 </i>
    <i name="e_wo_entrp">    -36.92527535 </i>
    <i name="e_0_energy">    -36.92533948 </i>
   </energy>
  </scstep>
  <scstep>
   <time name="diag">   81.55   81.59</time>
   <time name="diis">  340.34  340.57</time>
   <time name="orth">    3.09    3.09</time>
   <time name="total">  458.84  459.16</time>
   <energy>
    <i name="e_fr_energy">    -36.92541017 </i>
    <i name="e_wo_entrp">    -36.92528188 </i>
    <i name="e_0_energy">    -36.92534602 </i>
   </energy>
  </scstep>
  <scstep>
   <time name="diag">   81.62   81.68</time>
   <time name="diis">  333.47  333.59</time>
   <time name="orth">    3.07    3.07</time>
   <time name="total">  452.03  452.35</time>
   <energy>
    <i name="e_fr_energy">    -36.92541463 </i>
    <i name="e_wo_entrp">    -36.92528635 </i>
    <i name="e_0_energy">    -36.92535049 </i>
   </energy>
  </scstep>
  <scstep>
   <time name="diag">   81.55   81.58</time>
   <time name="diis">  333.61  333.79</time>
   <time name="orth">    3.09    3.09</time>
   <time name="total">  452.19  452.44</time>
   <energy>
    <i name="e_fr_energy">    -36.92541966 </i>
    <i name="e_wo_entrp">    -36.92529138 </i>
    <i name="e_0_energy">    -36.92535552 </i>
   </energy>
  </scstep>
  <scstep>
   <time name="diag">   81.63   81.65</time>
   <time name="diis">  335.11  335.26</time>
   <time name="orth">    3.08    3.08</time>
   <time name="total">  453.69  453.97</time>
   <energy>
    <i name="e_fr_energy">    -36.92542046 </i>
    <i name="e_wo_entrp">    -36.92529218 </i>
    <i name="e_0_energy">    -36.92535632 </i>
   </energy>
  </scstep>
  <scstep>
   <time name="diag">   81.54   81.64</time>
   <time name="diis">  337.34  337.69</time>
   <time name="orth">    3.08    3.08</time>
   <time name="total">  455.91  456.42</time>
   <energy>
    <i name="e_fr_energy">    -36.92542130 </i>
    <i name="e_wo_entrp">    -36.92529303 </i>
    <i name="e_0_energy">    -36.92535716 </i>
   </energy>
  </scstep>
  <scstep>
   <time name="diag">   81.60   81.70</time>
   <time name="diis">  260.02  260.32</time>
   <time name="orth">    3.06    3.08</time>
   <time name="total">  378.50  379.19</time>
   <energy>
    <i name="e_fr_energy">    -36.92542132 </i>
    <i name="e_wo_entrp">    -36.92529305 </i>
    <i name="e_0_energy">    -36.92535718 </i>
   </energy>
  </scstep>
  <scstep>
   <time name="diag">   81.21   81.66</time>
   <time name="diis">  250.28  251.16</time>
   <time name="orth">    3.08    3.08</time>
   <time name="total">  368.54  369.90</time>
   <energy>
    <i name="e_fr_energy">    -36.92542134 </i>
    <i name="e_wo_entrp">    -36.92529306 </i>
    <i name="e_0_energy">    -36.92535720 </i>
   </energy>
  </scstep>
  <scstep>
   <time name="diag">   81.60   81.66</time>
   <time name="diis">  227.47  227.82</time>
   <time name="orth">    3.07    3.09</time>
   <time name="total">  345.89  346.49</time>
   <energy>
    <i name="e_fr_energy">    -36.92542134 </i>
    <i name="e_wo_entrp">    -36.92529306 </i>
    <i name="e_0_energy">    -36.92535720 </i>
   </energy>
  </scstep>
  <scstep>
   <time name="diag">   81.21   81.61</time>
   <time name="diis">  212.00  212.52</time>
   <time name="orth">    3.06    3.07</time>
   <time name="total">  330.18  331.18</time>
   <energy>
    <i name="e_fr_energy">    -36.92542134 </i>
    <i name="e_wo_entrp">    -36.92529306 </i>
    <i name="e_0_energy">    -36.92535720 </i>
   </energy>
  </scstep>
  <scstep>
   <time name="diag">   81.21   81.63</time>
   <time name="diis">  197.28  198.21</time>
   <time name="orth">    3.07    3.08</time>
   <time name="total">  315.28  316.88</time>
   <energy>
    <i name="e_fr_energy">    -36.92542134 </i>
    <i name="e_wo_entrp">    -36.92529306 </i>
    <i name="e_0_energy">    -36.92535720 </i>
   </energy>
  </scstep>
  <scstep>
   <time name="diag">   81.20   81.62</time>
   <time name="diis">  188.42  188.65</time>
   <time name="orth">    3.06    3.08</time>
   <time name="total">  306.39  307.30</time>
   <energy>
    <i name="e_fr_energy">    -36.92542134 </i>
    <i name="e_wo_entrp">    -36.92529306 </i>
    <i name="e_0_energy">    -36.92535720 </i>
   </energy>
  </scstep>
  <scstep>
   <time name="diag">   81.23   81.62</time>
   <time name="diis">  182.12  183.00</time>
   <time name="orth">    3.07    3.07</time>
   <time name="total">  300.19  301.75</time>
   <energy>
    <i name="e_fr_energy">    -36.92542134 </i>
    <i name="e_wo_entrp">    -36.92529306 </i>
    <i name="e_0_energy">    -36.92535720 </i>
   </energy>
  </scstep>
  <scstep>
   <time name="diag">   81.52   81.69</time>
   <time name="diis">  178.58  178.67</time>
   <time name="orth">    3.08    3.08</time>
   <time name="total">  297.13  297.44</time>
   <energy>
    <i name="e_fr_energy">    -36.92542134 </i>
    <i name="e_wo_entrp">    -36.92529306 </i>
    <i name="e_0_energy">    -36.92535720 </i>
   </energy>
  </scstep>
  <scstep>
   <time name="diag">   81.30   81.63</time>
   <time name="diis">  178.52  179.34</time>
   <time name="orth">    3.06    3.07</time>
   <time name="total">  265.39  266.53</time>
   <energy>
    <i name="alphaZ">      6.18334092 </i>
    <i name="ewald">   2584.33968562 </i>
    <i name="hartreedc">  -3078.29111314 </i>
    <i name="XCdc">     57.51574730 </i>
    <i name="pawpsdc">    276.92941879 </i>
    <i name="pawaedc">   -282.07759888 </i>
    <i name="eentropy">     -0.00012828 </i>
    <i name="bandstr">   -190.14830059 </i>
    <i name="atom">    588.62352690 </i>
    <i name="e_fr_energy">    -36.92542134 </i>
    <i name="e_wo_entrp">    -36.92529306 </i>
    <i name="e_0_energy">    -36.92535720 </i>
   </energy>
  </scstep>
  <structure>
   <crystal>
    <varray name="basis" >
     <v>       4.27359543       0.00000000       0.00000000 </v>
     <v>       0.00000000       2.46766938       0.00000000 </v>
     <v>       0.00000000       0.00000000      19.99255533 </v>
    </varray>
    <i name="volume">    210.83790140 </i>
    <varray name="rec_basis" >
     <v>       0.23399501       0.00000000       0.00000000 </v>
     <v>       0.00000000       0.40524067       0.00000000 </v>
     <v>       0.00000000       0.00000000       0.05001862 </v>
    </varray>
   </crystal>
   <varray name="positions" >
    <v>       0.00013158       0.00000000       0.00000000 </v>
    <v>       0.16653509       0.50000000       0.00000000 </v>
    <v>       0.50013158       0.50000000       0.00000000 </v>
    <v>       0.66653509       0.00000000       0.00000000 </v>
   </varray>
  </structure>
  <varray name="forces" >
   <v>      -0.05663341       0.00000000       0.00000000 </v>
   <v>       0.05663341       0.00000000      -0.00000000 </v>
   <v>      -0.05663341       0.00000000       0.00000000 </v>
   <v>       0.05663341      -0.00000000      -0.00000000 </v>
  </varray>
  <varray name="stress" >
   <v>      -0.31366020       0.00000000       0.00000000 </v>
   <v>       0.00000000      -0.17816131       0.00000000 </v>
   <v>       0.00000000       0.00000000      -0.01003581 </v>
  </varray>
  <energy>
   <i name="e_fr_energy">    -36.92542134 </i>
   <i name="e_wo_entrp">    -36.92535720 </i>
   <i name="e_0_energy">     -0.00012828 </i>
  </energy>
  <time name="totalsc">11943.8411975.37</time>
 </calculation>
 <calculation>
  <scstep>
   <time name="dav">  329.77  330.56</time>
   <time name="total">  363.68  364.54</time>
   <energy>
    <i name="alphaZ">      6.18334092 </i>
    <i name="ewald">   2584.34311990 </i>
    <i name="hartreedc">  -3078.29160227 </i>
    <i name="XCdc">     57.51578049 </i>
    <i name="pawpsdc">    276.92941888 </i>
    <i name="pawaedc">   -282.07759897 </i>
    <i name="eentropy">     -0.00008422 </i>
    <i name="bandstr">   -190.15039986 </i>
    <i name="atom">    588.62352690 </i>
    <i name="e_fr_energy">    -36.92449822 </i>
    <i name="e_wo_entrp">    -36.92441400 </i>
    <i name="e_0_energy">    -36.92445611 </i>
   </energy>
  </scstep>
  <scstep>
   <time name="diag">   81.53   81.70</time>
   <time name="diis">  330.32  330.77</time>
   <time name="orth">    3.07    3.07</time>
   <time name="total">  448.82  449.50</time>
   <energy>
    <i name="e_fr_energy">    -36.92453662 </i>
    <i name="e_wo_entrp">    -36.92444934 </i>
    <i name="e_0_energy">    -36.92449298 </i>
   </energy>
  </scstep>
  <scstep>
   <time name="diag">   81.51   81.67</time>
   <time name="diis">  333.36  333.88</time>
   <time name="orth">    3.07    3.09</time>
   <time name="total">  451.82  452.58</time>
   <energy>
    <i name="e_fr_energy">    -36.92449273 </i>
    <i name="e_wo_entrp">    -36.92440013 </i>
    <i name="e_0_energy">    -36.92444643 </i>
   </energy>
  </scstep>
  <scstep>
   <time name="diag">   81.49   81.68</time>
   <time name="diis">  343.75  344.38</time>
   <time name="orth">    3.07    3.09</time>
   <time name="total">  461.98  463.13</time>
   <energy>
    <i name="e_fr_energy">    -36.92448862 </i>
    <i name="e_wo_entrp">    -36.92439728 </i>
    <i name="e_0_energy">    -36.92444295 </i>
   </energy>
  </scstep>
  <scstep>
   <time name="diag">   80.89   81.72</time>
   <time name="diis">  343.18  346.76</time>
   <time name="orth">    3.06    3.08</time>
   <time name="total">  460.79  465.57</time>
   <energy>
    <i name="e_fr_energy">    -36.92448876 </i>
    <i name="e_wo_entrp">    -36.92439758 </i>
    <i name="e_0_energy">    -36.92444317 </i>
   </energy>
  </scstep>
  <scstep>
   <time name="diag">   80.92   81.67</time>
   <time name="diis">  343.72  345.38</time>
   <time name="orth">    3.07    3.09</time>
   <time name="total">  461.46  464.62</time>
   <energy>
    <i name="e_fr_energy">    -36.92448868 </i>
    <i name="e_wo_entrp">    -36.92439733 </i>
    <i name="e_0_energy">    -36.92444300 </i>
   </energy>
  </scstep>
  <scstep>
   <time name="diag">   81.32   81.68</time>
   <time name="diis">  341.01  343.06</time>
   <time name="orth">    3.09    3.10</time>
   <time name="total">  459.06  461.89</time>
   <energy>
    <i name="e_fr_energy">    -36.92448868 </i>
    <i name="e_wo_entrp">    -36.92439732 </i>
    <i name="e_0_energy">    -36.92444300 </i>
   </energy>
  </scstep>
  <scstep>
   <time name="diag">   81.56   81.65</time>
   <time name="diis">  304.05  304.81</time>
   <time name="orth">    3.06    3.09</time>
   <time name="total">  422.24  423.57</time>
   <energy>
    <i name="e_fr_energy">    -36.92448868 </i>
    <i name="e_wo_entrp">    -36.92439733 </i>
    <i name="e_0_energy">    -36.92444300 </i>
   </energy>
  </scstep>
  <scstep>
   <time name="diag">   81.16   81.78</time>
   <time name="diis">  226.61  227.46</time>
   <time name="orth">    3.07    3.09</time>
   <time name="total">  344.66  346.30</time>
   <energy>
    <i name="e_fr_energy">    -36.92448868 </i>
    <i name="e_wo_entrp">    -36.92439733 </i>
    <i name="e_0_energy">    -36.92444300 </i>
   </energy>
  </scstep>
  <scstep>
   <time name="diag">   81.20   81.65</time>
   <time name="diis">  225.73  226.07</time>
   <time name="orth">    3.08    3.09</time>
   <time name="total">  343.88  344.79</time>
   <energy>
    <i name="e_fr_energy">    -36.92448868 </i>
    <i name="e_wo_entrp">    -36.92439733 </i>
    <i name="e_0_energy">    -36.92444300 </i>
   </energy>
  </scstep>
  <scstep>
   <time name="diag">   81.32   81.67</time>
   <time name="diis">  215.34  215.81</time>
   <time name="orth">    3.09    3.09</time>
   <time name="total">  302.23  303.08</time>
   <energy>
    <i name="alphaZ">      6.18334092 </i>
    <i name="ewald">   2584.34311990 </i>
    <i name="hartreedc">  -3078.29378681 </i>
    <i name="XCdc">     57.51588410 </i>
    <i name="pawpsdc">    276.93599532 </i>
    <i name="pawaedc">   -282.08421124 </i>
    <i name="eentropy">     -0.00009135 </i>
    <i name="bandstr">   -190.14826643 </i>
    <i name="atom">    588.62352690 </i>
    <i name="e_fr_energy">    -36.92448868 </i>
    <i name="e_wo_entrp">    -36.92439733 </i>
    <i name="e_0_energy">    -36.92444300 </i>
   </energy>
  </scstep>
  <structure>
   <crystal>
    <varray name="basis" >
     <v>       4.27359543       0.00000000       0.00000000 </v>
     <v>       0.00000000       2.46766938       0.00000000 </v>
     <v>       0.00000000       0.00000000      19.99255533 </v>
    </varray>
    <i name="volume">    210.83790140 </i>
    <varray name="rec_basis" >
     <v>       0.23399501       0.00000000       0.00000000 </v>
     <v>       0.00000000       0.40524067       0.00000000 </v>
     <v>       0.00000000       0.00000000       0.05001862 </v>
    </varray>
   </crystal>
   <varray name="positions" >
    <v>      -0.00050773       0.00000000       0.00000000 </v>
    <v>       0.16717440       0.50000000      -0.00000000 </v>
    <v>       0.49949227       0.50000000       0.00000000 </v>
    <v>       0.66717440      -0.00000000      -0.00000000 </v>
   </varray>
  </structure>
  <varray name="forces" >
   <v>       0.22858753       0.00000000       0.00000000 </v>
   <v>      -0.22858753      -0.00000000      -0.00000000 </v>
   <v>       0.22858753      -0.00000000       0.00000000 </v>
   <v>      -0.22858753       0.00000000      -0.00000000 </v>
  </varray>
  <varray name="stress" >
   <v>       0.52930082       0.00000000       0.00000000 </v>
   <v>       0.00000000      -0.97924940       0.00000000 </v>
   <v>       0.00000000       0.00000000      -0.01003710 </v>
  </varray>
  <energy>
   <i name="e_fr_energy">    -36.92448868 </i>
   <i name="e_wo_entrp">    -36.92444300 </i>
   <i name="e_0_energy">     -0.00009135 </i>
  </energy>
  <time name="totalsc"> 4623.37 4642.91</time>
 </calculation>
 <calculation>
  <scstep>
   <time name="dav">  308.67  311.03</time>
   <time name="total">  342.33  345.03</time>
   <energy>
    <i name="alphaZ">      6.18334092 </i>
    <i name="ewald">   2584.33952098 </i>
    <i name="hartreedc">  -3078.29245860 </i>
    <i name="XCdc">     57.51578856 </i>
    <i name="pawpsdc">    276.93599511 </i>
    <i name="pawaedc">   -282.08421101 </i>
    <i name="eentropy">     -0.00013039 </i>
    <i name="bandstr">   -190.14686350 </i>
    <i name="atom">    588.62352690 </i>
    <i name="e_fr_energy">    -36.92549101 </i>
    <i name="e_wo_entrp">    -36.92536063 </i>
    <i name="e_0_energy">    -36.92542582 </i>
   </energy>
  </scstep>
  <scstep>
   <time name="diag">   81.12   81.69</time>
   <time name="diis">  330.21  333.06</time>
   <time name="orth">    3.08    3.09</time>
   <time name="total">  448.09  451.89</time>
   <energy>
    <i name="e_fr_energy">    -36.92551447 </i>
    <i name="e_wo_entrp">    -36.92538391 </i>
    <i name="e_0_energy">    -36.92544919 </i>
   </energy>
  </scstep>
  <scstep>
   <time name="diag">   81.11   81.72</time>
   <time name="diis">  335.63  338.21</time>
   <time name="orth">    3.07    3.08</time>
   <time name="total">  453.48  457.00</time>
   <energy>
    <i name="e_fr_energy">    -36.92548582 </i>
    <i name="e_wo_entrp">    -36.92535527 </i>
    <i name="e_0_energy">    -36.92542054 </i>
   </energy>
  </scstep>
  <scstep>
   <time name="diag">   81.07   81.70</time>
   <time name="diis">  343.69  347.10</time>
   <time name="orth">    3.07    3.07</time>
   <time name="total">  461.71  465.91</time>
   <energy>
    <i name="e_fr_energy">    -36.92548332 </i>
    <i name="e_wo_entrp">    -36.92535274 </i>
    <i name="e_0_energy">    -36.92541803 </i>
   </energy>
  </scstep>
  <scstep>
   <time name="diag">   81.59   81.68</time>
   <time name="diis">  350.49  350.73</time>
   <time name="orth">    3.08    3.08</time>
   <time name="total">  469.06  469.46</time>
   <energy>
    <i name="e_fr_energy">    -36.92548340 </i>
    <i name="e_wo_entrp">    -36.92535281 </i>
    <i name="e_0_energy">    -36.92541810 </i>
   </energy>
  </scstep>
  <scstep>
   <time name="diag">   81.27   81.69</time>
   <time name="diis">  348.06  349.37</time>
   <time name="orth">    3.06    3.08</time>
   <time name="total">  466.20  468.19</time>
   <energy>
    <i name="e_fr_energy">    -36.92548335 </i>
    <i name="e_wo_entrp">    -36.92535277 </i>
    <i name="e_0_energy">    -36.92541806 </i>
   </energy>
  </scstep>
  <scstep>
   <time name="diag">   81.35   81.68</time>
   <time name="diis">  343.89  345.30</time>
   <time name="orth">    3.08    3.08</time>
   <time name="total">  462.07  464.07</time>
   <energy>
    <i name="e_fr_energy">    -36.92548335 </i>
    <i name="e_wo_entrp">    -36.92535277 </i>
    <i name="e_0_energy">    -36.92541806 </i>
   </energy>
  </scstep>
  <scstep>
   <time name="diag">   81.60   81.80</time>
   <time name="diis">  275.50  275.79</time>
   <time name="orth">    3.06    3.06</time>
   <time name="total">  362.61  363.12</time>
   <energy>
    <i name="alphaZ">      6.18334092 </i>
    <i name="ewald">   2584.33952098 </i>
    <i name="hartreedc">  -3078.29097020 </i>
    <i name="XCdc">     57.51574062 </i>
    <i name="pawpsdc">    276.92909551 </i>
    <i name="pawaedc">   -282.07727370 </i>
    <i name="eentropy">     -0.00013058 </i>
    <i name="bandstr">   -190.14833380 </i>
    <i name="atom">    588.62352690 </i>
    <i name="e_fr_energy">    -36.92548335 </i>
    <i name="e_wo_entrp">    -36.92535277 </i>
    <i name="e_0_energy">    -36.92541806 </i>
   </energy>
  </scstep>
  <structure>
   <crystal>
    <varray name="basis" >
     <v>       4.27359543       0.00000000       0.00000000 </v>
     <v>       0.00000000       2.46766938       0.00000000 </v>
     <v>       0.00000000       0.00000000      19.99255533 </v>
    </varray>
    <i name="volume">    210.83790140 </i>
    <varray name="rec_basis" >
     <v>       0.23399501       0.00000000       0.00000000 </v>
     <v>       0.00000000       0.40524067       0.00000000 </v>
     <v>       0.00000000       0.00000000       0.05001862 </v>
    </varray>
   </crystal>
   <varray name="positions" >
    <v>       0.00000464       0.00000000       0.00000000 </v>
    <v>       0.16666203       0.50000000      -0.00000000 </v>
    <v>       0.50000464       0.50000000       0.00000000 </v>
    <v>       0.66666203      -0.00000000      -0.00000000 </v>
   </varray>
  </structure>
  <varray name="forces" >
   <v>      -0.00051994      -0.00000000      -0.00000000 </v>
   <v>       0.00051994       0.00000000       0.00000000 </v>
   <v>      -0.00051994      -0.00000000      -0.00000000 </v>
   <v>       0.00051994       0.00000000      -0.00000000 </v>
  </varray>
  <varray name="stress" >
   <v>      -0.15577621       0.00000000       0.00000000 </v>
   <v>       0.00000000      -0.33828717       0.00000000 </v>
   <v>       0.00000000       0.00000000      -0.00994343 </v>
  </varray>
  <energy>
   <i name="e_fr_energy">    -36.92548335 </i>
   <i name="e_wo_entrp">    -36.92541806 </i>
   <i name="e_0_energy">     -0.00013058 </i>
  </energy>
  <time name="totalsc"> 3568.74 3588.66</time>
 </calculation>
 <calculation>
  <scstep>
   <time name="dav">  324.57  325.31</time>
   <time name="total">  358.54  359.31</time>
   <energy>
    <i name="alphaZ">      6.18334092 </i>
    <i name="ewald">   2584.33952140 </i>
    <i name="hartreedc">  -3078.29098452 </i>
    <i name="XCdc">     57.51574108 </i>
    <i name="pawpsdc">    276.92910000 </i>
    <i name="pawaedc">   -282.07727834 </i>
    <i name="eentropy">     -0.00013058 </i>
    <i name="bandstr">   -190.14832023 </i>
    <i name="atom">    588.62352690 </i>
    <i name="e_fr_energy">    -36.92548336 </i>
    <i name="e_wo_entrp">    -36.92535278 </i>
    <i name="e_0_energy">    -36.92541807 </i>
   </energy>
  </scstep>
  <scstep>
   <time name="diag">   81.12   81.68</time>
   <time name="diis">  329.73  332.33</time>
   <time name="orth">    3.07    3.08</time>
   <time name="total">  447.52  451.54</time>
   <energy>
    <i name="e_fr_energy">    -36.92548336 </i>
    <i name="e_wo_entrp">    -36.92535278 </i>
    <i name="e_0_energy">    -36.92541807 </i>
   </energy>
  </scstep>
  <scstep>
   <time name="diag">   81.15   81.67</time>
   <time name="diis">  327.54  330.29</time>
   <time name="orth">    3.07    3.09</time>
   <time name="total">  445.31  449.02</time>
   <energy>
    <i name="e_fr_energy">    -36.92548336 </i>
    <i name="e_wo_entrp">    -36.92535278 </i>
    <i name="e_0_energy">    -36.92541807 </i>
   </energy>
  </scstep>
  <scstep>
   <time name="diag">   81.05   81.69</time>
   <time name="diis">  223.58  224.74</time>
   <time name="orth">    3.08    3.08</time>
   <time name="total">  341.53  343.53</time>
   <energy>
    <i name="e_fr_energy">    -36.92548336 </i>
    <i name="e_wo_entrp">    -36.92535278 </i>
    <i name="e_0_energy">    -36.92541807 </i>
   </energy>
  </scstep>
  <scstep>
   <time name="diag">   81.42   81.68</time>
   <time name="diis">  226.72  226.95</time>
   <time name="orth">    3.07    3.09</time>
   <time name="total">  345.23  345.76</time>
   <energy>
    <i name="e_fr_energy">    -36.92548336 </i>
    <i name="e_wo_entrp">    -36.92535278 </i>
    <i name="e_0_energy">    -36.92541807 </i>
   </energy>
  </scstep>
  <scstep>
   <time name="diag">   81.28   81.72</time>
   <time name="diis">  204.75  206.16</time>
   <time name="orth">    3.06    3.08</time>
   <time name="total">  322.86  325.00</time>
   <energy>
    <i name="e_fr_energy">    -36.92548336 </i>
    <i name="e_wo_entrp">    -36.92535278 </i>
    <i name="e_0_energy">    -36.92541807 </i>
   </energy>
  </scstep>
  <scstep>
   <time name="diag">   81.22   81.60</time>
   <time name="diis">  182.69  184.66</time>
   <time name="orth">    3.06    3.08</time>
   <time name="total">  298.75  301.53</time>
   <energy>
    <i name="e_fr_energy">    -36.92548336 </i>
    <i name="e_wo_entrp">    -36.92535278 </i>
    <i name="e_0_energy">    -36.92541807 </i>
   </energy>
  </scstep>
  <scstep>
   <time name="diag">   81.35   81.66</time>
   <time name="diis">  174.97  175.38</time>
   <time name="orth">    3.08    3.09</time>
   <time name="total">  261.78  262.56</time>
   <energy>
    <i name="alphaZ">      6.18334092 </i>
    <i name="ewald">   2584.33952140 </i>
    <i name="hartreedc">  -3078.29099483 </i>
    <i name="XCdc">     57.51574130 </i>
    <i name="pawpsdc">    276.92910152 </i>
    <i name="pawaedc">   -282.07727985 </i>
    <i name="eentropy">     -0.00013058 </i>
    <i name="bandstr">   -190.14831016 </i>
    <i name="atom">    588.62352690 </i>
    <i name="e_fr_energy">    -36.92548336 </i>
    <i name="e_wo_entrp">    -36.92535278 </i>
    <i name="e_0_energy">    -36.92541807 </i>
   </energy>
  </scstep>
  <structure>
   <crystal>
    <varray name="basis" >
     <v>       4.27359543       0.00000000       0.00000000 </v>
     <v>       0.00000000       2.46766938       0.00000000 </v>
     <v>       0.00000000       0.00000000      19.99255533 </v>
    </varray>
    <i name="volume">    210.83790140 </i>
    <varray name="rec_basis" >
     <v>       0.23399501       0.00000000       0.00000000 </v>
     <v>       0.00000000       0.40524067       0.00000000 </v>
     <v>       0.00000000       0.00000000       0.05001862 </v>
    </varray>
   </crystal>
   <varray name="positions" >
    <v>       0.00000348      -0.00000000       0.00000000 </v>
    <v>       0.16666319       0.50000000      -0.00000000 </v>
    <v>       0.50000348       0.50000000       0.00000000 </v>
    <v>       0.66666319      -0.00000000      -0.00000000 </v>
   </varray>
  </structure>
  <varray name="forces" >
   <v>       0.00000523      -0.00000000      -0.00000000 </v>
   <v>      -0.00000523       0.00000000      -0.00000000 </v>
   <v>       0.00000523      -0.00000000      -0.00000000 </v>
   <v>      -0.00000523       0.00000000       0.00000000 </v>
  </varray>
  <varray name="stress" >
   <v>      -0.15419619       0.00000000       0.00000000 </v>
   <v>       0.00000000      -0.33986455       0.00000000 </v>
   <v>       0.00000000       0.00000000      -0.01000351 </v>
  </varray>
  <energy>
   <i name="e_fr_energy">    -36.92548336 </i>
   <i name="e_wo_entrp">    -36.92541807 </i>
   <i name="e_0_energy">     -0.00013058 </i>
  </energy>
  <time name="totalsc"> 2923.64 2941.01</time>
 </calculation>
 <calculation>
  <scstep>
   <time name="dav">  267.21  267.93</time>
   <time name="total">  300.10  301.16</time>
   <energy>
    <i name="alphaZ">      6.18334092 </i>
    <i name="ewald">   2584.33952140 </i>
    <i name="hartreedc">  -3078.29099479 </i>
    <i name="XCdc">     57.51574130 </i>
    <i name="pawpsdc">    276.92910109 </i>
    <i name="pawaedc">   -282.07727942 </i>
    <i name="eentropy">     -0.00013058 </i>
    <i name="bandstr">   -190.14831018 </i>
    <i name="atom">    588.62352690 </i>
    <i name="e_fr_energy">    -36.92548336 </i>
    <i name="e_wo_entrp">    -36.92535278 </i>
    <i name="e_0_energy">    -36.92541807 </i>
   </energy>
  </scstep>
  <scstep>
   <time name="diag">   80.83   81.70</time>
   <time name="diis">  156.42  157.91</time>
   <time name="orth">    3.06    3.08</time>
   <time name="total">  273.26  275.96</time>
   <energy>
    <i name="e_fr_energy">    -36.92548336 </i>
    <i name="e_wo_entrp">    -36.92535278 </i>
    <i name="e_0_energy">    -36.92541807 </i>
   </energy>
  </scstep>
  <scstep>
   <time name="diag">   81.28   81.64</time>
   <time name="diis">  156.72  157.41</time>
   <time name="orth">    3.06    3.08</time>
   <time name="total">  274.03  275.35</time>
   <energy>
    <i name="e_fr_energy">    -36.92548336 </i>
    <i name="e_wo_entrp">    -36.92535278 </i>
    <i name="e_0_energy">    -36.92541807 </i>
   </energy>
  </scstep>
  <scstep>
   <time name="diag">   81.52   81.67</time>
   <time name="diis">  154.68  154.83</time>
   <time name="orth">    3.06    3.06</time>
   <time name="total">  272.53  272.87</time>
   <energy>
    <i name="e_fr_energy">    -36.92548336 </i>
    <i name="e_wo_entrp">    -36.92535278 </i>
    <i name="e_0_energy">    -36.92541807 </i>
   </energy>
  </scstep>
  <scstep>
   <time name="diag">   81.23   81.63</time>
   <time name="diis">  152.61  153.71</time>
   <time name="orth">    3.07    3.08</time>
   <time name="total">  270.29  272.20</time>
   <energy>
    <i name="e_fr_energy">    -36.92548336 </i>
    <i name="e_wo_entrp">    -36.92535278 </i>
    <i name="e_0_energy">    -36.92541807 </i>
   </energy>
  </scstep>
  <scstep>
   <time name="diag">   80.86   81.71</time>
   <time name="diis">  151.15  152.42</time>
   <time name="orth">    3.06    3.08</time>
   <time name="total">  267.85  270.38</time>
   <energy>
    <i name="e_fr_energy">    -36.92548336 </i>
    <i name="e_wo_entrp">    -36.92535278 </i>
    <i name="e_0_energy">    -36.92541807 </i>
   </energy>
  </scstep>
  <scstep>
   <time name="diag">   80.81   81.63</time>
   <time name="diis">  146.01  147.26</time>
   <time name="orth">    3.07    3.09</time>
   <time name="total">  232.32  234.41</time>
   <energy>
    <i name="alphaZ">      6.18334092 </i>
    <i name="ewald">   2584.33952140 </i>
    <i name="hartreedc">  -3078.29099583 </i>
    <i name="XCdc">     57.51574132 </i>
    <i name="pawpsdc">    276.92909699 </i>
    <i name="pawaedc">   -282.07727532 </i>
    <i name="eentropy">     -0.00013058 </i>
    <i name="bandstr">   -190.14830917 </i>
    <i name="atom">    588.62352690 </i>
    <i name="e_fr_energy">    -36.92548336 </i>
    <i name="e_wo_entrp">    -36.92535278 </i>
    <i name="e_0_energy">    -36.92541807 </i>
   </energy>
  </scstep>
  <structure>
   <crystal>
    <varray name="basis" >
     <v>       4.27359543       0.00000000       0.00000000 </v>
     <v>       0.00000000       2.46766938       0.00000000 </v>
     <v>       0.00000000       0.00000000      19.99255533 </v>
    </varray>
    <i name="volume">    210.83790140 </i>
    <varray name="rec_basis" >
     <v>       0.23399501       0.00000000       0.00000000 </v>
     <v>       0.00000000       0.40524067       0.00000000 </v>
     <v>       0.00000000       0.00000000       0.05001862 </v>
    </varray>
   </crystal>
   <varray name="positions" >
    <v>       0.00000349      -0.00000000       0.00000000 </v>
    <v>       0.16666318       0.50000000      -0.00000000 </v>
    <v>       0.50000349       0.50000000       0.00000000 </v>
    <v>       0.66666318      -0.00000000      -0.00000000 </v>
   </varray>
  </structure>
  <varray name="forces" >
   <v>      -0.00000212      -0.00000000      -0.00000000 </v>
   <v>       0.00000212      -0.00000000       0.00000000 </v>
   <v>      -0.00000212      -0.00000000      -0.00000000 </v>
   <v>       0.00000212       0.00000000      -0.00000000 </v>
  </varray>
  <varray name="stress" >
   <v>      -0.15418846       0.00000000       0.00000000 </v>
   <v>       0.00000000      -0.33986463       0.00000000 </v>
   <v>       0.00000000       0.00000000      -0.01000461 </v>
  </varray>
  <energy>
   <i name="e_fr_energy">    -36.92548336 </i>
   <i name="e_wo_entrp">    -36.92541807 </i>
   <i name="e_0_energy">     -0.00013058 </i>
  </energy>
  <time name="totalsc"> 1993.24 2005.83</time>
 </calculation>
 <calculation>
  <scstep>
   <time name="dav">  244.24  245.41</time>
   <time name="total">  277.32  278.52</time>
   <energy>
    <i name="alphaZ">      6.18334092 </i>
    <i name="ewald">   2584.33952140 </i>
    <i name="hartreedc">  -3078.29099585 </i>
    <i name="XCdc">     57.51574133 </i>
    <i name="pawpsdc">    276.92909702 </i>
    <i name="pawaedc">   -282.07727535 </i>
    <i name="eentropy">     -0.00013058 </i>
    <i name="bandstr">   -190.14830915 </i>
    <i name="atom">    588.62352690 </i>
    <i name="e_fr_energy">    -36.92548336 </i>
    <i name="e_wo_entrp">    -36.92535278 </i>
    <i name="e_0_energy">    -36.92541807 </i>
   </energy>
  </scstep>
  <scstep>
   <time name="diag">   81.35   81.65</time>
   <time name="diis">  141.98  143.05</time>
   <time name="orth">    3.07    3.07</time>
   <time name="total">  260.01  261.74</time>
   <energy>
    <i name="e_fr_energy">    -36.92548336 </i>
    <i name="e_wo_entrp">    -36.92535278 </i>
    <i name="e_0_energy">    -36.92541807 </i>
   </energy>
  </scstep>
  <scstep>
   <time name="diag">   80.90   81.70</time>
   <time name="diis">  143.85  145.04</time>
   <time name="orth">    3.08    3.09</time>
   <time name="total">  260.99  263.26</time>
   <energy>
    <i name="e_fr_energy">    -36.92548336 </i>
    <i name="e_wo_entrp">    -36.92535278 </i>
    <i name="e_0_energy">    -36.92541807 </i>
   </energy>
  </scstep>
  <scstep>
   <time name="diag">   81.01   81.66</time>
   <time name="diis">  142.97  144.05</time>
   <time name="orth">    3.08    3.09</time>
   <time name="total">  259.83  261.79</time>
   <energy>
    <i name="e_fr_energy">    -36.92548336 </i>
    <i name="e_wo_entrp">    -36.92535278 </i>
    <i name="e_0_energy">    -36.92541807 </i>
   </energy>
  </scstep>
  <scstep>
   <time name="diag">   81.49   81.67</time>
   <time name="diis">  136.48  136.68</time>
   <time name="orth">    3.07    3.07</time>
   <time name="total">  254.22  254.69</time>
   <energy>
    <i name="e_fr_energy">    -36.92548336 </i>
    <i name="e_wo_entrp">    -36.92535278 </i>
    <i name="e_0_energy">    -36.92541807 </i>
   </energy>
  </scstep>
  <scstep>
   <time name="diag">   81.57   81.69</time>
   <time name="diis">  135.73  136.38</time>
   <time name="orth">    3.07    3.07</time>
   <time name="total">  253.97  255.73</time>
   <energy>
    <i name="e_fr_energy">    -36.92548336 </i>
    <i name="e_wo_entrp">    -36.92535278 </i>
    <i name="e_0_energy">    -36.92541807 </i>
   </energy>
  </scstep>
  <scstep>
   <time name="diag">   81.58   81.66</time>
   <time name="diis">  138.35  138.54</time>
   <time name="orth">    3.08    3.08</time>
   <time name="total">  225.45  225.75</time>
   <energy>
    <i name="alphaZ">      6.18334092 </i>
    <i name="ewald">   2584.33952140 </i>
    <i name="hartreedc">  -3078.29099572 </i>
    <i name="XCdc">     57.51574132 </i>
    <i name="pawpsdc">    276.92909718 </i>
    <i name="pawaedc">   -282.07727551 </i>
    <i name="eentropy">     -0.00013058 </i>
    <i name="bandstr">   -190.14830928 </i>
    <i name="atom">    588.62352690 </i>
    <i name="e_fr_energy">    -36.92548336 </i>
    <i name="e_wo_entrp">    -36.92535278 </i>
    <i name="e_0_energy">    -36.92541807 </i>
   </energy>
  </scstep>
  <structure>
   <crystal>
    <varray name="basis" >
     <v>       4.27359543       0.00000000       0.00000000 </v>
     <v>       0.00000000       2.46766938       0.00000000 </v>
     <v>       0.00000000       0.00000000      19.99255533 </v>
    </varray>
    <i name="volume">    210.83790140 </i>
    <varray name="rec_basis" >
     <v>       0.23399501       0.00000000       0.00000000 </v>
     <v>       0.00000000       0.40524067       0.00000000 </v>
     <v>       0.00000000       0.00000000       0.05001862 </v>
    </varray>
   </crystal>
   <varray name="positions" >
    <v>       0.00000348      -0.00000000       0.00000000 </v>
    <v>       0.16666318       0.50000000      -0.00000000 </v>
    <v>       0.50000348       0.50000000       0.00000000 </v>
    <v>       0.66666318       0.00000000      -0.00000000 </v>
   </varray>
  </structure>
  <varray name="forces" >
   <v>       0.00000314      -0.00000000      -0.00000000 </v>
   <v>      -0.00000314       0.00000000       0.00000000 </v>
   <v>       0.00000314      -0.00000000      -0.00000000 </v>
   <v>      -0.00000314       0.00000000       0.00000000 </v>
  </varray>
  <varray name="stress" >
   <v>      -0.15416425       0.00000000       0.00000000 </v>
   <v>       0.00000000      -0.33989296       0.00000000 </v>
   <v>       0.00000000       0.00000000      -0.01000564 </v>
  </varray>
  <energy>
   <i name="e_fr_energy">    -36.92548336 </i>
   <i name="e_wo_entrp">    -36.92541807 </i>
   <i name="e_0_energy">     -0.00013058 </i>
  </energy>
  <time name="totalsc"> 1893.18 1904.17</time>
 </calculation>
 <calculation>
  <scstep>
   <time name="dav">  252.41  252.50</time>
   <time name="total">  286.40  286.50</time>
   <energy>
    <i name="alphaZ">      6.18334092 </i>
    <i name="ewald">   2584.33952140 </i>
    <i name="hartreedc">  -3078.29099573 </i>
    <i name="XCdc">     57.51574132 </i>
    <i name="pawpsdc">    276.92909718 </i>
    <i name="pawaedc">   -282.07727551 </i>
    <i name="eentropy">     -0.00013058 </i>
    <i name="bandstr">   -190.14830927 </i>
    <i name="atom">    588.62352690 </i>
    <i name="e_fr_energy">    -36.92548336 </i>
    <i name="e_wo_entrp">    -36.92535278 </i>
    <i name="e_0_energy">    -36.92541807 </i>
   </energy>
  </scstep>
  <scstep>
   <time name="diag">   81.75   81.76</time>
   <time name="diis">  113.05  113.06</time>
   <time name="orth">    3.08    3.09</time>
   <time name="total">  231.92  231.97</time>
   <energy>
    <i name="e_fr_energy">    -36.92548336 </i>
    <i name="e_wo_entrp">    -36.92535278 </i>
    <i name="e_0_energy">    -36.92541807 </i>
   </energy>
  </scstep>
  <scstep>
   <time name="diag">   81.78   81.79</time>
   <time name="diis">  116.03  116.06</time>
   <time name="orth">    3.09    3.09</time>
   <time name="total">  234.90  234.99</time>
   <energy>
    <i name="e_fr_energy">    -36.92548336 </i>
    <i name="e_wo_entrp">    -36.92535278 </i>
    <i name="e_0_energy">    -36.92541807 </i>
   </energy>
  </scstep>
  <scstep>
   <time name="diag">   81.73   81.74</time>
   <time name="diis">  110.67  110.69</time>
   <time name="orth">    3.08    3.08</time>
   <time name="total">  229.50  229.57</time>
   <energy>
    <i name="e_fr_energy">    -36.92548336 </i>
    <i name="e_wo_entrp">    -36.92535278 </i>
    <i name="e_0_energy">    -36.92541807 </i>
   </energy>
  </scstep>
  <scstep>
   <time name="diag">   81.72   81.73</time>
   <time name="diis">  119.22  119.25</time>
   <time name="orth">    3.07    3.07</time>
   <time name="total">  206.50  206.55</time>
   <energy>
    <i name="alphaZ">      6.18334092 </i>
    <i name="ewald">   2584.33952140 </i>
    <i name="hartreedc">  -3078.29099579 </i>
    <i name="XCdc">     57.51574132 </i>
    <i name="pawpsdc">    276.92909725 </i>
    <i name="pawaedc">   -282.07727557 </i>
    <i name="eentropy">     -0.00013058 </i>
    <i name="bandstr">   -190.14830921 </i>
    <i name="atom">    588.62352690 </i>
    <i name="e_fr_energy">    -36.92548336 </i>
    <i name="e_wo_entrp">    -36.92535278 </i>
[...]
       <r>   -9.2031    1.0000 </r>
       <r>   -5.5955    1.0000 </r>
       <r>   -5.5955    1.0000 </r>
       <r>   -0.4234    0.0000 </r>
       <r>   -0.4234    0.0000 </r>
       <r>    4.8361    0.0000 </r>
       <r>    4.8361    0.0000 </r>
      </set>
      <set comment="kpoint 209">
       <r>  -18.8385    1.0000 </r>
       <r>  -17.0482    1.0000 </r>
       <r>  -14.0480    1.0000 </r>
       <r>  -12.4206    1.0000 </r>
       <r>  -12.4172    1.0000 </r>
       <r>  -10.8848    1.0000 </r>
       <r>   -6.4195    1.0000 </r>
       <r>   -4.5293    1.0000 </r>
       <r>   -0.9853    0.0000 </r>
       <r>    1.1814    0.0000 </r>
       <r>    5.2471    0.0000 </r>
       <r>    6.0357    0.0000 </r>
      </set>
      <set comment="kpoint 210">
       <r>  -18.8288    1.0000 </r>
       <r>  -17.0404    1.0000 </r>
       <r>  -14.1343    1.0000 </r>
       <r>  -12.5000    1.0000 </r>
       <r>  -12.3231    1.0000 </r>
       <r>  -10.8076    1.0000 </r>
       <r>   -6.4107    1.0000 </r>
       <r>   -4.5322    1.0000 </r>
       <r>   -0.9949    0.0000 </r>
       <r>    1.1558    0.0000 </r>
       <r>    5.2607    0.0000 </r>
       <r>    6.0517    0.0000 </r>
      </set>
      <set comment="kpoint 211">
       <r>  -18.7996    1.0000 </r>
       <r>  -17.0174    1.0000 </r>
       <r>  -14.3488    1.0000 </r>
       <r>  -12.7013    1.0000 </r>
       <r>  -12.0855    1.0000 </r>
       <r>  -10.6139    1.0000 </r>
       <r>   -6.3843    1.0000 </r>
       <r>   -4.5415    1.0000 </r>
       <r>   -1.0221    0.0000 </r>
       <r>    1.0810    0.0000 </r>
       <r>    5.3014    0.0000 </r>
       <r>    6.0995    0.0000 </r>
      </set>
      <set comment="kpoint 212">
       <r>  -18.7512    1.0000 </r>
       <r>  -16.9804    1.0000 </r>
       <r>  -14.6229    1.0000 </r>
       <r>  -12.9659    1.0000 </r>
       <r>  -11.7729    1.0000 </r>
       <r>  -10.3641    1.0000 </r>
       <r>   -6.3407    1.0000 </r>
       <r>   -4.5586    1.0000 </r>
       <r>   -1.0615    0.0000 </r>
       <r>    0.9622    0.0000 </r>
       <r>    5.3689    0.0000 </r>
       <r>    6.1779    0.0000 </r>
      </set>
      <set comment="kpoint 213">
       <r>  -18.6835    1.0000 </r>
       <r>  -16.9320    1.0000 </r>
       <r>  -14.9148    1.0000 </r>
       <r>  -13.2575    1.0000 </r>
       <r>  -11.4271    1.0000 </r>
       <r>  -10.0979    1.0000 </r>
       <r>   -6.2803    1.0000 </r>
       <r>   -4.5859    1.0000 </r>
       <r>   -1.1057    0.0000 </r>
       <r>    0.8070    0.0000 </r>
       <r>    5.4620    0.0000 </r>
       <r>    6.2857    0.0000 </r>
      </set>
      <set comment="kpoint 214">
       <r>  -18.5969    1.0000 </r>
       <r>  -16.8773    1.0000 </r>
       <r>  -15.2005    1.0000 </r>
       <r>  -13.5580    1.0000 </r>
       <r>  -11.0700    1.0000 </r>
       <r>   -9.8380    1.0000 </r>
       <r>   -6.2039    1.0000 </r>
       <r>   -4.6261    1.0000 </r>
       <r>   -1.1457    0.0000 </r>
       <r>    0.6243    0.0000 </r>
       <r>    5.5754    0.0000 </r>
       <r>    6.1671    0.0000 </r>
      </set>
      <set comment="kpoint 215">
       <r>  -18.4916    1.0000 </r>
       <r>  -16.8269    1.0000 </r>
       <r>  -15.4602    1.0000 </r>
       <r>  -13.8576    1.0000 </r>
       <r>  -10.7154    1.0000 </r>
       <r>   -9.5999    1.0000 </r>
       <r>   -6.1124    1.0000 </r>
       <r>   -4.6818    1.0000 </r>
       <r>   -1.1723    0.0000 </r>
       <r>    0.4229    0.0000 </r>
       <r>    5.6144    0.0000 </r>
       <r>    5.8353    0.0000 </r>
      </set>
      <set comment="kpoint 216">
       <r>  -18.3681    1.0000 </r>
       <r>  -16.8013    1.0000 </r>
       <r>  -15.6683    1.0000 </r>
       <r>  -14.1506    1.0000 </r>
       <r>  -10.3736    1.0000 </r>
       <r>   -9.3957    1.0000 </r>
       <r>   -6.0072    1.0000 </r>
       <r>   -4.7547    1.0000 </r>
       <r>   -1.1778    0.0000 </r>
       <r>    0.2112    0.0000 </r>
       <r>    5.3049    0.0000 </r>
       <r>    5.9446    0.0000 </r>
      </set>
      <set comment="kpoint 217">
       <r>  -18.2269    1.0000 </r>
       <r>  -16.8330    1.0000 </r>
       <r>  -15.7893    1.0000 </r>
       <r>  -14.4329    1.0000 </r>
       <r>  -10.0542    1.0000 </r>
       <r>   -9.2358    1.0000 </r>
       <r>   -5.8899    1.0000 </r>
       <r>   -4.8455    1.0000 </r>
       <r>   -1.1562    0.0000 </r>
       <r>   -0.0034    0.0000 </r>
       <r>    5.0106    0.0000 </r>
       <r>    5.8399    0.0000 </r>
      </set>
      <set comment="kpoint 218">
       <r>  -18.0688    1.0000 </r>
       <r>  -16.9422    1.0000 </r>
       <r>  -15.8012    1.0000 </r>
       <r>  -14.7017    1.0000 </r>
       <r>   -9.7663    1.0000 </r>
       <r>   -9.1289    1.0000 </r>
       <r>   -5.7624    1.0000 </r>
       <r>   -4.9529    1.0000 </r>
       <r>   -1.1042    0.0000 </r>
       <r>   -0.2140    0.0000 </r>
       <r>    4.7958    0.0000 </r>
       <r>    5.4428    0.0000 </r>
      </set>
      <set comment="kpoint 219">
       <r>  -17.8950    1.0000 </r>
       <r>  -17.1108    1.0000 </r>
       <r>  -15.7208    1.0000 </r>
       <r>  -14.9542    1.0000 </r>
       <r>   -9.5188    1.0000 </r>
       <r>   -9.0816    1.0000 </r>
       <r>   -5.6272    1.0000 </r>
       <r>   -5.0746    1.0000 </r>
       <r>   -1.0208    0.0000 </r>
       <r>   -0.4147    0.0000 </r>
       <r>    4.6712    0.0000 </r>
       <r>    5.1157    0.0000 </r>
      </set>
      <set comment="kpoint 220">
       <r>  -17.7076    1.0000 </r>
       <r>  -17.3071    1.0000 </r>
       <r>  -15.5795    1.0000 </r>
       <r>  -15.1876    1.0000 </r>
       <r>   -9.3204    1.0000 </r>
       <r>   -9.0978    1.0000 </r>
       <r>   -5.4872    1.0000 </r>
       <r>   -5.2069    1.0000 </r>
       <r>   -0.9072    0.0000 </r>
       <r>   -0.6003    0.0000 </r>
       <r>    4.6417    0.0000 </r>
       <r>    4.8682    0.0000 </r>
      </set>
      <set comment="kpoint 221">
       <r>  -17.5097    1.0000 </r>
       <r>  -17.5097    1.0000 </r>
       <r>  -15.3981    1.0000 </r>
       <r>  -15.3981    1.0000 </r>
       <r>   -9.1783    1.0000 </r>
       <r>   -9.1783    1.0000 </r>
       <r>   -5.3458    1.0000 </r>
       <r>   -5.3458    1.0000 </r>
       <r>   -0.7658    0.0000 </r>
       <r>   -0.7658    0.0000 </r>
       <r>    4.7083    0.0000 </r>
       <r>    4.7083    0.0000 </r>
      </set>
      <set comment="kpoint 222">
       <r>  -18.4159    1.0000 </r>
       <r>  -17.5171    1.0000 </r>
       <r>  -13.6713    1.0000 </r>
       <r>  -12.8568    1.0000 </r>
       <r>  -12.0668    1.0000 </r>
       <r>  -11.2959    1.0000 </r>
       <r>   -5.9593    1.0000 </r>
       <r>   -5.0088    1.0000 </r>
       <r>   -0.4769    0.0000 </r>
       <r>    0.6085    0.0000 </r>
       <r>    5.8471    0.0000 </r>
       <r>    6.5987    0.0000 </r>
      </set>
      <set comment="kpoint 223">
       <r>  -18.4063    1.0000 </r>
       <r>  -17.5083    1.0000 </r>
       <r>  -13.7575    1.0000 </r>
       <r>  -12.9390    1.0000 </r>
       <r>  -11.9755    1.0000 </r>
       <r>  -11.2134    1.0000 </r>
       <r>   -5.9518    1.0000 </r>
       <r>   -5.0064    1.0000 </r>
       <r>   -0.4933    0.0000 </r>
       <r>    0.5850    0.0000 </r>
       <r>    5.8606    0.0000 </r>
       <r>    6.6156    0.0000 </r>
      </set>
      <set comment="kpoint 224">
       <r>  -18.3777    1.0000 </r>
       <r>  -17.4820    1.0000 </r>
       <r>  -13.9726    1.0000 </r>
       <r>  -13.1462    1.0000 </r>
       <r>  -11.7456    1.0000 </r>
       <r>  -11.0059    1.0000 </r>
       <r>   -5.9294    1.0000 </r>
       <r>   -4.9997    1.0000 </r>
       <r>   -0.5404    0.0000 </r>
       <r>    0.5163    0.0000 </r>
       <r>    5.9011    0.0000 </r>
       <r>    6.6659    0.0000 </r>
      </set>
      <set comment="kpoint 225">
       <r>  -18.3301    1.0000 </r>
       <r>  -17.4387    1.0000 </r>
       <r>  -14.2498    1.0000 </r>
       <r>  -13.4167    1.0000 </r>
       <r>  -11.4449    1.0000 </r>
       <r>  -10.7370    1.0000 </r>
       <r>   -5.8926    1.0000 </r>
       <r>   -4.9896    1.0000 </r>
       <r>   -0.6132    0.0000 </r>
       <r>    0.4077    0.0000 </r>
       <r>    5.9681    0.0000 </r>
       <r>    6.7481    0.0000 </r>
      </set>
      <set comment="kpoint 226">
       <r>  -18.2638    1.0000 </r>
       <r>  -17.3793    1.0000 </r>
       <r>  -14.5495    1.0000 </r>
       <r>  -13.7132    1.0000 </r>
       <r>  -11.1148    1.0000 </r>
       <r>  -10.4468    1.0000 </r>
       <r>   -5.8422    1.0000 </r>
       <r>   -4.9782    1.0000 </r>
       <r>   -0.7039    0.0000 </r>
       <r>    0.2667    0.0000 </r>
       <r>    6.0593    0.0000 </r>
       <r>    6.8605    0.0000 </r>
      </set>
      <set comment="kpoint 227">
       <r>  -18.1791    1.0000 </r>
       <r>  -17.3053    1.0000 </r>
       <r>  -14.8515    1.0000 </r>
       <r>  -14.0171    1.0000 </r>
       <r>  -10.7774    1.0000 </r>
       <r>  -10.1581    1.0000 </r>
       <r>   -5.7792    1.0000 </r>
       <r>   -4.9679    1.0000 </r>
       <r>   -0.8029    0.0000 </r>
       <r>    0.1022    0.0000 </r>
       <r>    6.1536    0.0000 </r>
       <r>    6.4489    0.0000 </r>
      </set>
      <set comment="kpoint 228">
       <r>  -18.0765    1.0000 </r>
       <r>  -17.2196    1.0000 </r>
       <r>  -15.1437    1.0000 </r>
       <r>  -14.3186    1.0000 </r>
       <r>  -10.4468    1.0000 </r>
       <r>   -9.8859    1.0000 </r>
       <r>   -5.7053    1.0000 </r>
       <r>   -4.9618    1.0000 </r>
       <r>   -0.9003    0.0000 </r>
       <r>   -0.0766    0.0000 </r>
       <r>    5.9055    0.0000 </r>
       <r>    6.3700    0.0000 </r>
      </set>
      <set comment="kpoint 229">
       <r>  -17.9567    1.0000 </r>
       <r>  -17.1275    1.0000 </r>
       <r>  -15.4157    1.0000 </r>
       <r>  -14.6116    1.0000 </r>
       <r>  -10.1341    1.0000 </r>
       <r>   -9.6420    1.0000 </r>
       <r>   -5.6223    1.0000 </r>
       <r>   -4.9634    1.0000 </r>
       <r>   -0.9862    0.0000 </r>
       <r>   -0.2608    0.0000 </r>
       <r>    5.5007    0.0000 </r>
       <r>    5.9973    0.0000 </r>
      </set>
      <set comment="kpoint 230">
       <r>  -17.8209    1.0000 </r>
       <r>  -17.0399    1.0000 </r>
       <r>  -15.6537    1.0000 </r>
       <r>  -14.8918    1.0000 </r>
       <r>   -9.8490    1.0000 </r>
       <r>   -9.4368    1.0000 </r>
       <r>   -5.5326    1.0000 </r>
       <r>   -4.9761    1.0000 </r>
       <r>   -1.0514    0.0000 </r>
       <r>   -0.4421    0.0000 </r>
       <r>    5.1558    0.0000 </r>
       <r>    5.5724    0.0000 </r>
      </set>
      <set comment="kpoint 231">
       <r>  -17.6709    1.0000 </r>
       <r>  -16.9776    1.0000 </r>
       <r>  -15.8349    1.0000 </r>
       <r>  -15.1554    1.0000 </r>
       <r>   -9.6009    1.0000 </r>
       <r>   -9.2796    1.0000 </r>
       <r>   -5.4394    1.0000 </r>
       <r>   -5.0026    1.0000 </r>
       <r>   -1.0888    0.0000 </r>
       <r>   -0.6127    0.0000 </r>
       <r>    4.8886    0.0000 </r>
       <r>    5.2140    0.0000 </r>
      </set>
      <set comment="kpoint 232">
       <r>  -17.5098    1.0000 </r>
       <r>  -16.9736    1.0000 </r>
       <r>  -15.9252    1.0000 </r>
       <r>  -15.3979    1.0000 </r>
       <r>   -9.3989    1.0000 </r>
       <r>   -9.1783    1.0000 </r>
       <r>   -5.3459    1.0000 </r>
       <r>   -5.0446    1.0000 </r>
       <r>   -1.0931    0.0000 </r>
       <r>   -0.7658    0.0000 </r>
       <r>    4.7083    0.0000 </r>
       <r>    4.9321    0.0000 </r>
      </set>
      <set comment="kpoint 233">
       <r>  -17.3433    1.0000 </r>
       <r>  -17.0481    1.0000 </r>
       <r>  -15.9035    1.0000 </r>
       <r>  -15.6128    1.0000 </r>
       <r>   -9.2508    1.0000 </r>
       <r>   -9.1385    1.0000 </r>
       <r>   -5.2559    1.0000 </r>
       <r>   -5.1020    1.0000 </r>
       <r>   -1.0618    0.0000 </r>
       <r>   -0.8950    0.0000 </r>
       <r>    4.6213    0.0000 </r>
       <r>    4.7354    0.0000 </r>
      </set>
      <set comment="kpoint 234">
       <r>  -17.1822    1.0000 </r>
       <r>  -17.1822    1.0000 </r>
       <r>  -15.7885    1.0000 </r>
       <r>  -15.7885    1.0000 </r>
       <r>   -9.1628    1.0000 </r>
       <r>   -9.1628    1.0000 </r>
       <r>   -5.1734    1.0000 </r>
       <r>   -5.1734    1.0000 </r>
       <r>   -0.9950    0.0000 </r>
       <r>   -0.9950    0.0000 </r>
       <r>    4.6305    0.0000 </r>
       <r>    4.6305    0.0000 </r>
      </set>
      <set comment="kpoint 235">
       <r>  -17.9745    1.0000 </r>
       <r>  -17.9745    1.0000 </r>
       <r>  -13.2740    1.0000 </r>
       <r>  -13.2740    1.0000 </r>
       <r>  -11.6913    1.0000 </r>
       <r>  -11.6913    1.0000 </r>
       <r>   -5.4874    1.0000 </r>
       <r>   -5.4874    1.0000 </r>
       <r>    0.0550    0.0000 </r>
       <r>    0.0550    0.0000 </r>
       <r>    6.4785    0.0000 </r>
       <r>    6.4785    0.0000 </r>
      </set>
      <set comment="kpoint 236">
       <r>  -17.9652    1.0000 </r>
       <r>  -17.9652    1.0000 </r>
       <r>  -13.3586    1.0000 </r>
       <r>  -13.3586    1.0000 </r>
       <r>  -11.6040    1.0000 </r>
       <r>  -11.6040    1.0000 </r>
       <r>   -5.4819    1.0000 </r>
       <r>   -5.4819    1.0000 </r>
       <r>    0.0344    0.0000 </r>
       <r>    0.0344    0.0000 </r>
       <r>    6.4919    0.0000 </r>
       <r>    6.4919    0.0000 </r>
      </set>
      <set comment="kpoint 237">
       <r>  -17.9374    1.0000 </r>
       <r>  -17.9374    1.0000 </r>
       <r>  -13.5707    1.0000 </r>
       <r>  -13.5707    1.0000 </r>
       <r>  -11.3844    1.0000 </r>
       <r>  -11.3844    1.0000 </r>
       <r>   -5.4656    1.0000 </r>
       <r>   -5.4656    1.0000 </r>
       <r>   -0.0256    0.0000 </r>
       <r>   -0.0256    0.0000 </r>
       <r>    6.5322    0.0000 </r>
       <r>    6.5322    0.0000 </r>
      </set>
      <set comment="kpoint 238">
       <r>  -17.8913    1.0000 </r>
       <r>  -17.8913    1.0000 </r>
       <r>  -13.8458    1.0000 </r>
       <r>  -13.8458    1.0000 </r>
       <r>  -11.0984    1.0000 </r>
       <r>  -11.0984    1.0000 </r>
       <r>   -5.4391    1.0000 </r>
       <r>   -5.4391    1.0000 </r>
       <r>   -0.1198    0.0000 </r>
       <r>   -0.1198    0.0000 </r>
       <r>    6.5983    0.0000 </r>
       <r>    6.5983    0.0000 </r>
      </set>
      <set comment="kpoint 239">
       <r>  -17.8272    1.0000 </r>
       <r>  -17.8272    1.0000 </r>
       <r>  -14.1454    1.0000 </r>
       <r>  -14.1454    1.0000 </r>
       <r>  -10.7869    1.0000 </r>
       <r>  -10.7869    1.0000 </r>
       <r>   -5.4038    1.0000 </r>
       <r>   -5.4038    1.0000 </r>
       <r>   -0.2406    0.0000 </r>
       <r>   -0.2406    0.0000 </r>
       <r>    6.6852    0.0000 </r>
       <r>    6.6852    0.0000 </r>
      </set>
      <set comment="kpoint 240">
       <r>  -17.7460    1.0000 </r>
       <r>  -17.7460    1.0000 </r>
       <r>  -14.4507    1.0000 </r>
       <r>  -14.4507    1.0000 </r>
       <r>  -10.4723    1.0000 </r>
       <r>  -10.4723    1.0000 </r>
       <r>   -5.3614    1.0000 </r>
       <r>   -5.3614    1.0000 </r>
       <r>   -0.3788    0.0000 </r>
       <r>   -0.3788    0.0000 </r>
       <r>    6.6443    0.0000 </r>
       <r>    6.6443    0.0000 </r>
      </set>
      <set comment="kpoint 241">
       <r>  -17.6484    1.0000 </r>
       <r>  -17.6484    1.0000 </r>
       <r>  -14.7512    1.0000 </r>
       <r>  -14.7512    1.0000 </r>
       <r>  -10.1693    1.0000 </r>
       <r>  -10.1693    1.0000 </r>
       <r>   -5.3141    1.0000 </r>
       <r>   -5.3141    1.0000 </r>
       <r>   -0.5248    0.0000 </r>
       <r>   -0.5248    0.0000 </r>
       <r>    6.1791    0.0000 </r>
       <r>    6.1791    0.0000 </r>
      </set>
      <set comment="kpoint 242">
       <r>  -17.5364    1.0000 </r>
       <r>  -17.5364    1.0000 </r>
       <r>  -15.0400    1.0000 </r>
       <r>  -15.0400    1.0000 </r>
       <r>   -9.8891    1.0000 </r>
       <r>   -9.8891    1.0000 </r>
       <r>   -5.2649    1.0000 </r>
       <r>   -5.2649    1.0000 </r>
       <r>   -0.6690    0.0000 </r>
       <r>   -0.6690    0.0000 </r>
       <r>    5.7313    0.0000 </r>
       <r>    5.7313    0.0000 </r>
      </set>
      <set comment="kpoint 243">
       <r>  -17.4129    1.0000 </r>
       <r>  -17.4129    1.0000 </r>
       <r>  -15.3111    1.0000 </r>
       <r>  -15.3111    1.0000 </r>
       <r>   -9.6421    1.0000 </r>
       <r>   -9.6421    1.0000 </r>
       <r>   -5.2171    1.0000 </r>
       <r>   -5.2171    1.0000 </r>
       <r>   -0.8021    0.0000 </r>
       <r>   -0.8021    0.0000 </r>
       <r>    5.3436    0.0000 </r>
       <r>    5.3436    0.0000 </r>
      </set>
      <set comment="kpoint 244">
       <r>  -17.2833    1.0000 </r>
       <r>  -17.2833    1.0000 </r>
       <r>  -15.5571    1.0000 </r>
       <r>  -15.5571    1.0000 </r>
       <r>   -9.4378    1.0000 </r>
       <r>   -9.4378    1.0000 </r>
       <r>   -5.1744    1.0000 </r>
       <r>   -5.1744    1.0000 </r>
       <r>   -0.9159    0.0000 </r>
       <r>   -0.9159    0.0000 </r>
       <r>    5.0285    0.0000 </r>
       <r>    5.0285    0.0000 </r>
      </set>
      <set comment="kpoint 245">
       <r>  -17.1585    1.0000 </r>
       <r>  -17.1585    1.0000 </r>
       <r>  -15.7657    1.0000 </r>
       <r>  -15.7657    1.0000 </r>
       <r>   -9.2847    1.0000 </r>
       <r>   -9.2847    1.0000 </r>
       <r>   -5.1405    1.0000 </r>
       <r>   -5.1405    1.0000 </r>
       <r>   -1.0030    0.0000 </r>
       <r>   -1.0030    0.0000 </r>
       <r>    4.7957    0.0000 </r>
       <r>    4.7957    0.0000 </r>
      </set>
      <set comment="kpoint 246">
       <r>  -17.0600    1.0000 </r>
       <r>  -17.0600    1.0000 </r>
       <r>  -15.9149    1.0000 </r>
       <r>  -15.9149    1.0000 </r>
       <r>   -9.1897    1.0000 </r>
       <r>   -9.1897    1.0000 </r>
       <r>   -5.1186    1.0000 </r>
       <r>   -5.1186    1.0000 </r>
       <r>   -1.0578    0.0000 </r>
       <r>   -1.0578    0.0000 </r>
       <r>    4.6527    0.0000 </r>
       <r>    4.6527    0.0000 </r>
      </set>
      <set comment="kpoint 247">
       <r>  -17.0205    1.0000 </r>
       <r>  -17.0205    1.0000 </r>
       <r>  -15.9714    1.0000 </r>
       <r>  -15.9714    1.0000 </r>
       <r>   -9.1575    1.0000 </r>
       <r>   -9.1575    1.0000 </r>
       <r>   -5.1111    1.0000 </r>
       <r>   -5.1111    1.0000 </r>
       <r>   -1.0765    0.0000 </r>
       <r>   -1.0765    0.0000 </r>
       <r>    4.6044    0.0000 </r>
       <r>    4.6044    0.0000 </r>
      </set>
     </set>
    </set>
   </array>
  </eigenvalues>
  <separator name="orbital magnetization" >
   <v name="MAGDIPOLOUT">      0.00000000      0.00000000      0.00000000</v>
  </separator>
 </calculation>
 <structure name="finalpos" >
  <crystal>
   <varray name="basis" >
    <v>       4.27359543       0.00000000       0.00000000 </v>
    <v>       0.00000000       2.46766938       0.00000000 </v>
    <v>       0.00000000       0.00000000      19.99255533 </v>
   </varray>
   <i name="volume">    210.83790140 </i>
   <varray name="rec_basis" >
    <v>       0.23399501       0.00000000       0.00000000 </v>
    <v>       0.00000000       0.40524067       0.00000000 </v>
    <v>       0.00000000       0.00000000       0.05001862 </v>
   </varray>
  </crystal>
  <varray name="positions" >
   <v>       0.00000349      -0.00000000       0.00000000 </v>
   <v>       0.16666318       0.50000000      -0.00000000 </v>
   <v>       0.50000349       0.50000000       0.00000000 </v>
   <v>       0.66666318       0.00000000      -0.00000000 </v>
  </varray>
 </structure>
</modeling>
