gr                                      
           1
     4.273595    0.000000    0.000000
     0.000000    2.467669    0.000000
     0.000000    0.000000   19.992555
   C 
   4
Direct configuration=     1
   0.00013158  0.00000000  0.00000000
   0.16653509  0.50000000  0.00000000
   0.50013158  0.50000000  0.00000000
   0.66653509  0.00000000  0.00000000
Direct configuration=     2
  -0.00050773  0.00000000  0.00000000
   0.16717440  0.50000000 -0.00000000
   0.49949227  0.50000000  0.00000000
   0.66717440 -0.00000000 -0.00000000
Direct configuration=     3
   0.00000464  0.00000000  0.00000000
   0.16666203  0.50000000 -0.00000000
   0.50000464  0.50000000  0.00000000
   0.66666203 -0.00000000 -0.00000000
Direct configuration=     4
   0.00000348 -0.00000000  0.00000000
   0.16666319  0.50000000 -0.00000000
   0.50000348  0.50000000  0.00000000
   0.66666319 -0.00000000 -0.00000000
Direct configuration=     5
   0.00000349 -0.00000000  0.00000000
   0.16666318  0.50000000 -0.00000000
   0.50000349  0.50000000  0.00000000
   0.66666318 -0.00000000 -0.00000000
Direct configuration=     6
   0.00000348 -0.00000000  0.00000000
   0.16666318  0.50000000 -0.00000000
   0.50000348  0.50000000  0.00000000
   0.66666318  0.00000000 -0.00000000
Direct configuration=     7
   0.00000349 -0.00000000  0.00000000
   0.16666318  0.50000000 -0.00000000
   0.50000349  0.50000000  0.00000000
   0.66666318  0.00000000 -0.00000000
