    4    4  400    1
  0.5270948E+02  0.4273469E-09  0.2467448E-09  0.1999494E-08  0.5000000E-15
  1.000000000000000E-004
  CAR 
 gr                                      
     16    247     12
 
  0.0000000E+00  0.0000000E+00  0.0000000E+00  0.1157407E-02
    1      -22.252269
    2      -17.019458
    3      -15.972049
    4      -10.357872
    5       -9.159137
    6       -5.786926
    7       -5.786103
    8       -5.110100
    9       -1.075758
   10        0.524037
   11        1.325098
   12        1.708136
 
  0.4166667E-01  0.0000000E+00  0.0000000E+00  0.2314815E-02
    1      -22.242021
    2      -17.184488
    3      -15.791757
    4      -10.345629
    5       -9.148951
    6       -5.828849
    7       -5.809502
    8       -5.176602
    9       -0.993278
   10        0.537937
   11        1.339182
   12        1.722390
 
  0.8333333E-01  0.0000000E+00  0.0000000E+00  0.2314815E-02
    1      -22.211281
    2      -17.521507
    3      -15.409035
    4      -10.308919
    5       -9.118442
    6       -5.955325
    7       -5.875981
    8       -5.361132
    9       -0.760984
   10        0.579641
   11        1.381430
   12        1.765153
 
  0.1250000E+00  0.0000000E+00  0.0000000E+00  0.2314815E-02
    1      -22.160069
    2      -17.897900
    3      -14.956760
    4      -10.247798
    5       -9.067766
    6       -6.160547
    7       -5.982825
    8       -5.630375
    9       -0.412707
   10        0.649154
   11        1.451830
   12        1.836425
 
  0.1666667E+00  0.0000000E+00  0.0000000E+00  0.2314815E-02
    1      -22.088418
    2      -18.276961
    3      -14.472079
    4      -10.162365
    5       -8.997184
    6       -6.437076
    7       -6.124766
    8       -5.951310
    9        0.017660
   10        0.746482
   11        1.550359
   12        1.936208
 
  0.2083333E+00  0.0000000E+00  0.0000000E+00  0.2314815E-02
    1      -21.996378
    2      -18.647348
    3      -13.966972
    4      -10.052760
    5       -8.907074
    6       -6.776028
    7       -6.299360
    8       -6.295522
    9        0.504290
   10        0.871623
   11        1.676985
   12        2.064503
 
  0.2500000E+00  0.0000000E+00  0.0000000E+00  0.2314815E-02
    1      -21.884012
    2      -19.004496
    3      -13.446848
    4       -9.919173
    5       -8.797943
    6       -7.168000
    7       -6.658147
    8       -6.488471
    9        1.024566
   10        1.029135
   11        1.831655
   12        2.221309
 
  0.2916667E+00  0.0000000E+00  0.0000000E+00  0.2314815E-02
    1      -21.751399
    2      -19.346146
    3      -12.915043
    4       -9.761848
    5       -8.670443
    6       -7.603794
    7       -7.017042
    8       -6.697172
    9        1.205287
   10        1.579392
   11        2.014292
   12        2.406624
 
  0.3333333E+00  0.0000000E+00  0.0000000E+00  0.2314815E-02
    1      -21.598639
    2      -19.670997
    3      -12.374199
    4       -9.581096
    5       -8.525392
    6       -8.074863
    7       -7.369070
    8       -6.915701
    9        1.413748
   10        2.145163
   11        2.224771
   12        2.620443
 
  0.3750000E+00  0.0000000E+00  0.0000000E+00  0.2314815E-02
    1      -21.425843
    2      -19.978207
    3      -11.826796
    4       -9.377307
    5       -8.573543
    6       -8.363802
    7       -7.709536
    8       -7.138809
    9        1.649899
   10        2.462875
   11        2.717120
   12        2.862756
 
  0.4166667E+00  0.0000000E+00  0.0000000E+00  0.2314815E-02
    1      -21.233149
    2      -20.267183
    3      -11.275415
    4       -9.150969
    5       -9.093109
    6       -8.186916
    7       -8.035176
    8       -7.361962
    9        1.913666
   10        2.728157
   11        3.133550
   12        3.242103
 
  0.4583333E+00  0.0000000E+00  0.0000000E+00  0.2314815E-02
    1      -21.020721
    2      -20.537480
    3      -10.722890
    4       -9.627741
    5       -8.902695
    6       -8.343656
    7       -7.996248
    8       -7.581314
    9        2.204952
   10        2.869458
   11        3.019455
   12        3.432799
 
  0.5000000E+00  0.0000000E+00  0.0000000E+00  0.1157407E-02
    1      -20.788754
    2      -20.788754
    3      -10.172433
    4      -10.172433
    5       -8.633260
    6       -8.633260
    7       -7.793638
    8       -7.793638
    9        2.523619
   10        2.523619
   11        3.332096
   12        3.332096
 
  0.0000000E+00  0.2777778E-01  0.0000000E+00  0.2314815E-02
    1      -22.238607
    2      -17.007736
    3      -15.960465
    4      -10.341551
    5       -9.220711
    6       -5.843726
    7       -5.816288
    8       -5.093474
    9       -1.079707
   10        0.542568
   11        1.343874
   12        1.727139
 
  0.4166667E-01  0.2777778E-01  0.0000000E+00  0.4629630E-02
    1      -22.228359
    2      -17.172596
    3      -15.780394
    4      -10.329312
    5       -9.210507
    6       -5.885767
    7       -5.838894
    8       -5.160122
    9       -0.997200
   10        0.556469
   11        1.357957
   12        1.741393
 
  0.8333333E-01  0.2777778E-01  0.0000000E+00  0.4629630E-02
    1      -22.197623
    2      -17.509355
    3      -15.398088
    4      -10.292614
    5       -9.179948
    6       -6.009030
    7       -5.906681
    8       -5.344986
    9       -0.764929
   10        0.598175
   11        1.400203
   12        1.784156
 
  0.1250000E+00  0.2777778E-01  0.0000000E+00  0.4629630E-02
    1      -22.146418
    2      -17.885520
    3      -14.946307
    4      -10.231514
    5       -9.129181
    6       -6.208926
    7       -6.016034
    8       -5.614572
    9       -0.416905
   10        0.667692
   11        1.470598
   12        1.855429
 
  0.1666667E+00  0.2777778E-01  0.0000000E+00  0.4629630E-02
    1      -22.074778
    2      -18.264387
    3      -14.462204
    4      -10.146110
    5       -9.058464
    6       -6.478947
    7       -6.161150
    8       -5.935760
    9        0.012879
   10        0.765025
   11        1.569122
   12        1.955214
 
  0.2083333E+00  0.2777778E-01  0.0000000E+00  0.4629630E-02
    1      -21.982753
    2      -18.634609
    3      -13.957780
    4      -10.036543
    5       -8.968165
    6       -6.810982
    7       -6.335335
    8       -6.283957
    9        0.498577
   10        0.890175
   11        1.695740
   12        2.083510
 
  0.2500000E+00  0.2777778E-01  0.0000000E+00  0.4629630E-02
    1      -21.870405
    2      -18.991616
    3      -13.438466
    4       -9.903002
    5       -8.858779
    6       -7.196197
    7       -6.642802
    8       -6.531669
    9        1.022168
   10        1.043128
   11        1.850402
   12        2.240319
 
  0.2916667E+00  0.2777778E-01  0.0000000E+00  0.4629630E-02
    1      -21.737815
    2      -19.333144
    3      -12.907625
    4       -9.745732
    5       -8.730943
    6       -7.625749
    7       -7.001693
    8       -6.743521
    9        1.223861
   10        1.570892
   11        2.033031
   12        2.425637
 
  0.3333333E+00  0.2777778E-01  0.0000000E+00  0.4629630E-02
    1      -21.585080
    2      -19.657890
    3      -12.367934
    4       -9.565043
    5       -8.585453
    6       -8.091268
    7       -7.353676
    8       -6.964862
    9        1.432336
   10        2.134933
   11        2.243505
   12        2.639459
 
  0.3750000E+00  0.2777778E-01  0.0000000E+00  0.4629630E-02
    1      -21.412315
    2      -19.965010
    3      -11.821914
    4       -9.361325
    5       -8.585139
    6       -8.423301
    7       -7.694071
    8       -7.190401
    9        1.668502
   10        2.481608
   11        2.705182
   12        2.881777
 
  0.4166667E+00  0.2777778E-01  0.0000000E+00  0.4629630E-02
    1      -21.219658
    2      -20.253909
    3      -11.272192
    4       -9.135065
    5       -9.100611
    6       -8.245699
    7       -8.019627
    8       -7.415610
    9        1.932286
   10        2.746900
   11        3.152579
   12        3.260952
 
  0.4583333E+00  0.2777778E-01  0.0000000E+00  0.4629630E-02
    1      -21.007272
    2      -20.524139
    3      -10.721663
    4       -9.631796
    5       -8.886875
    6       -8.328017
    7       -8.054128
    8       -7.636669
    9        2.223594
   10        2.888182
   11        3.038228
   12        3.451839
 
  0.5000000E+00  0.2777778E-01  0.0000000E+00  0.2314815E-02
    1      -20.775355
    2      -20.775355
    3      -10.173606
    4      -10.173606
    5       -8.617528
    6       -8.617528
    7       -7.850389
    8       -7.850389
    9        2.542293
   10        2.542293
   11        3.350846
   12        3.350846
 
  0.0000000E+00  0.5555556E-01  0.0000000E+00  0.2314815E-02
    1      -22.197629
    2      -16.972572
    3      -15.925865
    4      -10.292620
    5       -9.400505
    6       -6.009605
    7       -5.906109
    8       -5.043616
    9       -1.092388
   10        0.598167
   11        1.400195
   12        1.784149
 
  0.4166667E-01  0.5555556E-01  0.0000000E+00  0.4629630E-02
    1      -22.187386
    2      -17.136933
    3      -15.746451
    4      -10.280394
    5       -9.390246
    6       -6.052346
    7       -5.926039
    8       -5.110715
    9       -1.009792
   10        0.612069
   11        1.414276
   12        1.798403
 
  0.8333333E-01  0.5555556E-01  0.0000000E+00  0.4629630E-02
    1      -22.156663
    2      -17.472920
    3      -15.365398
    4      -10.243735
    5       -9.359515
    6       -6.172945
    7       -5.990903
    8       -5.296608
    9       -0.777581
   10        0.653779
   11        1.456513
   12        1.841167
 
  0.1250000E+00  0.5555556E-01  0.0000000E+00  0.4629630E-02
    1      -22.105480
    2      -17.848402
    3      -14.915119
    4      -10.182699
    5       -9.308450
    6       -6.362225
    7       -6.102565
    8       -5.567246
    9       -0.430324
   10        0.723304
   11        1.526895
   12        1.912441
 
  0.1666667E+00  0.5555556E-01  0.0000000E+00  0.4629630E-02
    1      -22.033873
    2      -18.226686
    3      -14.432786
    4      -10.097384
    5       -9.237288
    6       -6.614849
    7       -6.255197
    8       -5.889206
    9       -0.002324
   10        0.820651
   11        1.625400
   12        2.012229
 
  0.2083333E+00  0.5555556E-01  0.0000000E+00  0.4629630E-02
    1      -21.941890
    2      -18.596412
    3      -13.930458
    4       -9.987932
    5       -9.146367
    6       -6.925910
    7       -6.439970
    8       -6.237846
    9        0.480529
   10        0.945820
   11        1.751995
   12        2.140530
 
  0.2500000E+00  0.5555556E-01  0.0000000E+00  0.4629630E-02
    1      -21.829595
    2      -18.952993
    3      -13.413641
    4       -9.854532
    5       -9.036141
    6       -7.289481
    7       -6.647872
    8       -6.596866
    9        1.000286
   10        1.098798
   11        1.906632
   12        2.297344
 
  0.2916667E+00  0.5555556E-01  0.0000000E+00  0.4629630E-02
    1      -21.697072
    2      -19.294156
    3      -12.885786
    4       -9.697427
    5       -8.907195
    6       -7.698618
    7       -6.955739
    8       -6.870868
    9        1.279561
   10        1.544321
   11        2.089235
   12        2.482670
 
  0.3333333E+00  0.5555556E-01  0.0000000E+00  0.4629630E-02
    1      -21.544415
    2      -19.618588
    3      -12.349679
    4       -9.516929
    5       -8.760262
    6       -8.145903
    7       -7.307581
    8       -7.102206
    9        1.488071
   10        2.103042
   11        2.299689
   12        2.696503
 
  0.3750000E+00  0.5555556E-01  0.0000000E+00  0.4629630E-02
    1      -21.371744
    2      -19.925437
    3      -11.807975
    4       -9.313426
    5       -8.624027
    6       -8.596247
    7       -7.647757
    8       -7.336330
    9        1.724274
   10        2.537788
   11        2.667912
   12        2.938834
 
  0.4166667E+00  0.5555556E-01  0.0000000E+00  0.4629630E-02
    1      -21.179197
    2      -20.214101
    3      -11.263465
    4       -9.126180
    5       -9.087404
    6       -8.416262
    7       -7.973053
    8       -7.568709
    9        1.988102
   10        2.803113
   11        3.209654
   12        3.226700
 
  0.4583333E+00  0.5555556E-01  0.0000000E+00  0.4629630E-02
    1      -20.966939
    2      -20.484130
    3      -10.719241
    4       -9.646238
    5       -8.839471
    6       -8.281165
    7       -8.221668
    8       -7.795646
    9        2.279463
   10        2.944237
   11        3.094538
   12        3.508964
 
  0.5000000E+00  0.5555556E-01  0.0000000E+00  0.2314815E-02
    1      -20.735171
    2      -20.735171
    3      -10.178817
    4      -10.178817
    5       -8.570397
    6       -8.570397
    7       -8.014122
    8       -8.014122
    9        2.598233
   10        2.598233
   11        3.407075
   12        3.407075
 
  0.0000000E+00  0.8333333E-01  0.0000000E+00  0.2314815E-02
    1      -22.129372
    2      -16.913979
    3      -15.868734
    4      -10.211183
    5       -9.685098
    6       -6.272364
    7       -6.053413
    8       -4.960588
    9       -1.116297
   10        0.690846
   11        1.494040
   12        1.879167
 
  0.4166667E-01  0.8333333E-01  0.0000000E+00  0.4629630E-02
    1      -22.119136
    2      -17.077545
    3      -15.690394
    4      -10.198978
    5       -9.674728
    6       -6.316303
    7       -6.068999
    8       -5.028483
    9       -1.033527
   10        0.704748
   11        1.508115
   12        1.893422
 
  0.8333333E-01  0.8333333E-01  0.0000000E+00  0.4629630E-02
    1      -22.088435
    2      -17.412270
    3      -15.311448
    4      -10.162384
    5       -9.643658
    6       -6.437768
    7       -6.124071
    8       -5.216186
    9       -0.801381
   10        0.746459
   11        1.550337
   12        1.936186
 
  0.1250000E+00  0.8333333E-01  0.0000000E+00  0.4629630E-02
    1      -22.037291
    2      -17.786617
    3      -14.863748
    4      -10.101457
    5       -9.592002
    6       -6.621297
    7       -6.228123
    8       -5.488656
    9       -0.455424
   10        0.815988
   11        1.620694
   12        2.007462
 
  0.1666667E+00  0.8333333E-01  0.0000000E+00  0.4629630E-02
    1      -21.965738
    2      -18.163928
    3      -14.384491
    4      -10.016296
    5       -9.519956
    6       -6.857550
    7       -6.381082
    8       -5.811944
    9       -0.030491
   10        0.913345
   11        1.719165
   12        2.107252
 
  0.2083333E+00  0.8333333E-01  0.0000000E+00  0.4629630E-02
    1      -21.873825
    2      -18.532821
    3      -13.885838
    4       -9.907041
    5       -9.427799
    6       -7.141793
    7       -6.575654
    8       -6.161335
    9        0.447454
   10        1.038531
   11        1.845718
   12        2.235558
 
  0.2500000E+00  0.8333333E-01  0.0000000E+00  0.4629630E-02
    1      -21.761621
    2      -18.888687
    3      -13.373435
    4       -9.773882
    5       -9.315903
    6       -7.471535
    7       -6.800725
    8       -6.520639
    9        0.960601
   10        1.191536
   11        2.000306
   12        2.392380
 
  0.2916667E+00  0.8333333E-01  0.0000000E+00  0.4629630E-02
    1      -21.629208
    2      -19.229236
    3      -12.850905
    4       -9.617063
    5       -9.184744
    6       -7.844520
    7       -7.044435
    8       -6.879468
    9        1.372333
   10        1.496539
   11        2.182859
   12        2.577716
 
  0.3333333E+00  0.8333333E-01  0.0000000E+00  0.4629630E-02
    1      -21.476683
    2      -19.553139
    3      -12.321250
    4       -9.436894
    5       -9.034911
    6       -8.257261
    7       -7.296524
    8       -7.231051
    9        1.580882
   10        2.046003
   11        2.393270
   12        2.791561
 
  0.3750000E+00  0.8333333E-01  0.0000000E+00  0.4629630E-02
    1      -21.304167
    2      -19.859533
    3      -11.787400
    4       -9.233761
    5       -8.867127
    6       -8.704696
    7       -7.570842
    8       -7.549309
    9        1.817129
   10        2.601180
   11        2.631355
   12        3.033909
 
  0.4166667E+00  0.8333333E-01  0.0000000E+00  0.4629630E-02
    1      -21.111803
    2      -20.147805
    3      -11.252487
    4       -9.180762
    5       -9.008148
    6       -8.682270
    7       -7.895683
    8       -7.797430
    9        2.081003
   10        2.896732
   11        3.153127
   12        3.304751
 
  0.4583333E+00  0.8333333E-01  0.0000000E+00  0.4629630E-02
    1      -20.899761
    2      -20.417495
    3      -10.720026
    4       -9.679185
    5       -8.760659
    6       -8.481408
    7       -8.203310
    8       -8.037168
    9        2.372417
   10        3.037367
   11        3.188343
   12        3.604204
 
  0.5000000E+00  0.8333333E-01  0.0000000E+00  0.2314815E-02
    1      -20.668244
    2      -20.668244
    3      -10.194044
    4      -10.194044
    5       -8.492056
    6       -8.492056
    7       -8.265839
    8       -8.265839
    9        2.691256
   10        2.691256
   11        3.500685
   12        3.500685
 
  0.0000000E+00  0.1111111E+00  0.0000000E+00  0.2314815E-02
    1      -22.033896
    2      -16.831977
    3      -15.789989
    4      -10.097410
    5      -10.055774
    6       -6.615317
    7       -6.254739
    8       -4.844491
    9       -1.155556
   10        0.820620
   11        1.625371
   12        2.012199
 
  0.4166667E-01  0.1111111E+00  0.0000000E+00  0.4629630E-02
    1      -22.023671
    2      -16.994510
    3      -15.613107
    4      -10.085237
    5      -10.045209
    6       -6.660862
    7       -6.264621
    8       -4.913611
    9       -1.072476
   10        0.834519
   11        1.639438
   12        2.026453
 
  0.8333333E-01  0.1111111E+00  0.0000000E+00  0.4629630E-02
    1      -21.993002
    2      -17.327526
    3      -15.237164
    4      -10.048739
    5      -10.013539
    6       -6.785329
    7       -6.304983
    8       -5.104064
    9       -0.840323
   10        0.876221
   11        1.681635
   12        2.069216
 
  0.1250000E+00  0.1111111E+00  0.0000000E+00  0.4629630E-02
    1      -21.941910
    2      -17.700295
    3      -14.793266
    4       -9.987972
    5       -9.960837
    6       -6.968618
    7       -6.391560
    8       -5.379274
    9       -0.496207
   10        0.945740
   11        1.751951
   12        2.140491
 
  0.1666667E+00  0.1111111E+00  0.0000000E+00  0.4629630E-02
    1      -21.870433
    2      -18.076235
    3      -14.318629
    4       -9.903035
    5       -9.887222
    6       -7.196861
    7       -6.530976
    8       -5.704512
    9       -0.075746
   10        1.043090
   11        1.850365
   12        2.240282
 
  0.2083333E+00  0.1111111E+00  0.0000000E+00  0.4629630E-02
    1      -21.778622
    2      -18.443947
    3      -13.825583
    4       -9.794068
    5       -9.792861
    6       -7.462198
    7       -6.721272
    8       -6.054977
    9        0.395019
   10        1.168277
   11        1.976846
   12        2.368590
 
  0.2500000E+00  0.1111111E+00  0.0000000E+00  0.4629630E-02
    1      -21.666545
    2      -18.798800
    3      -13.320008
    4       -9.677966
    5       -9.661262
    6       -7.760926
    7       -6.954373
    8       -6.414660
    9        0.898496
   10        1.321293
   11        2.131350
   12        2.525418
 
  0.2916667E+00  0.1111111E+00  0.0000000E+00  0.4629630E-02
    1      -21.534285
    2      -19.138478
    3      -12.805843
    4       -9.542790
    5       -9.504862
    6       -8.092339
    7       -7.218123
    8       -6.773387
    9        1.422588
   10        1.502110
   11        2.313813
   12        2.710763
 
  0.3333333E+00  0.1111111E+00  0.0000000E+00  0.4629630E-02
    1      -21.381945
    2      -19.461632
    3      -12.286497
    4       -9.387627
    5       -9.325175
    6       -8.457348
    7       -7.498554
    8       -7.124561
    9        1.710686
   10        1.958425
   11        2.524141
   12        2.924620
 
  0.3750000E+00  0.1111111E+00  0.0000000E+00  0.4629630E-02
    1      -21.209649
    2      -19.767380
    3      -11.765427
    4       -9.212799
    5       -9.122586
    6       -8.856535
    7       -7.782576
    8       -7.463760
    9        1.946961
   10        2.498896
   11        2.762179
   12        3.166984
 
  0.4166667E+00  0.1111111E+00  0.0000000E+00  0.4629630E-02
    1      -21.017544
    2      -20.055096
    3      -11.246449
    4       -9.288427
    5       -9.018663
    6       -8.897577
    7       -8.060196
    8       -7.787913
    9        2.210863
   10        3.027616
   11        3.037342
   12        3.437846
 
  0.4583333E+00  0.1111111E+00  0.0000000E+00  0.4629630E-02
    1      -20.805806
    2      -20.324308
    3      -10.733931
    4       -9.749074
    5       -8.805618
    6       -8.650743
    7       -8.325167
    8       -8.094816
    9        2.502302
   10        3.167319
   11        3.319541
   12        3.560811
 
  0.5000000E+00  0.1111111E+00  0.0000000E+00  0.2314815E-02
    1      -20.574644
    2      -20.574644
    3      -10.232912
    4      -10.232912
    5       -8.574178
    6       -8.574178
    7       -8.382838
    8       -8.382838
    9        2.821169
   10        2.821169
   11        3.631279
   12        3.631279
 
  0.0000000E+00  0.1388889E+00  0.0000000E+00  0.2314815E-02
    1      -21.911290
    2      -16.726594
    3      -15.691184
    4      -10.491847
    5       -9.951551
    6       -7.020671
    7       -6.505537
    8       -4.695473
    9       -1.215803
   10        0.987496
   11        1.794131
   12        2.183247
 
  0.4166667E-01  0.1388889E+00  0.0000000E+00  0.4629630E-02
    1      -21.901078
    2      -16.887951
    3      -15.516103
    4      -10.480950
    5       -9.939422
    6       -7.068159
    7       -6.508673
    8       -4.766385
    9       -1.132169
   10        1.001387
   11        1.808185
   12        2.197499
 
  0.8333333E-01  0.1388889E+00  0.0000000E+00  0.4629630E-02
    1      -21.870450
    2      -17.218880
    3      -15.144157
    4      -10.448255
    5       -9.903054
    6       -7.196912
    7       -6.530941
    8       -4.960798
    9       -0.899768
   10        1.043067
   11        1.850343
   12        2.240259
 
  0.1250000E+00  0.1388889E+00  0.0000000E+00  0.4629630E-02
    1      -21.819428
    2      -17.589633
    3      -14.705570
    4      -10.393753
    5       -9.842504
    6       -7.383256
    7       -6.593310
    8       -5.239863
    9       -0.557982
   10        1.112553
   11        1.920594
   12        2.311530
 
  0.1666667E+00  0.1388889E+00  0.0000000E+00  0.4629630E-02
    1      -21.748050
    2      -17.963792
    3      -14.237577
    4      -10.317418
    5       -9.757871
    6       -7.609939
    7       -6.708131
    8       -5.567765
    9       -0.143509
   10        1.209868
   11        2.018916
   12        2.411316
 
  0.2083333E+00  0.1388889E+00  0.0000000E+00  0.4629630E-02
    1      -21.656369
    2      -18.329960
    3      -13.752779
    4      -10.219193
    5       -9.649298
    6       -7.866413
    7       -6.878661
    8       -5.919641
    9        0.317581
   10        1.335024
   11        2.145278
   12        2.539622
 
  0.2500000E+00  0.1388889E+00  0.0000000E+00  0.4629630E-02
    1      -21.544455
    2      -18.683486
    3      -13.257482
    4      -10.098959
    5       -9.516975
    6       -8.146570
    7       -7.101474
    8       -6.279767
    9        0.808047
   10        1.488018
   11        2.299637
   12        2.696451
 
  0.2916667E+00  0.1388889E+00  0.0000000E+00  0.4629630E-02
    1      -21.412395
    2      -19.022022
    3      -12.756214
    4       -9.956503
    5       -9.361146
    6       -8.447634
    7       -7.368146
    8       -6.638282
    9        1.316239
   10        1.668825
   11        2.481934
   12        2.881800
 
  0.3333333E+00  0.1388889E+00  0.0000000E+00  0.4629630E-02
    1      -21.260295
    2      -19.344194
    3      -12.253185
    4       -9.791468
    5       -9.182120
    6       -8.769723
    7       -7.666514
    8       -6.988833
    9        1.833773
   10        1.877398
   11        2.692089
   12        3.095667
 
  0.3750000E+00  0.1388889E+00  0.0000000E+00  0.4629630E-02
    1      -21.088284
    2      -19.649098
    3      -11.752910
    4       -9.603294
    5       -9.115358
    6       -8.980280
    7       -7.981997
    8       -7.327171
    9        2.113672
   10        2.354160
   11        2.929985
   12        3.338043
 
  0.4166667E+00  0.1388889E+00  0.0000000E+00  0.4629630E-02
    1      -20.896516
    2      -19.936088
    3      -11.260545
    4       -9.488235
    5       -9.391209
    6       -8.756101
    7       -8.299473
    8       -7.650344
    9        2.377568
   10        2.871981
   11        3.195421
   12        3.608920
 
  0.4583333E+00  0.1388889E+00  0.0000000E+00  0.4629630E-02
    1      -20.685173
    2      -20.204675
    3      -10.781984
    4       -9.891069
    5       -9.154344
    6       -8.605837
    7       -8.510173
    8       -7.956226
    9        2.668989
   10        3.333920
   11        3.382026
   12        3.487829
 
  0.5000000E+00  0.1388889E+00  0.0000000E+00  0.2314815E-02
    1      -20.454474
    2      -20.454474
    3      -10.323554
    4      -10.323554
    5       -8.892214
    6       -8.892214
    7       -8.243237
    8       -8.243237
    9        2.987821
   10        2.987821
   11        3.791999
   12        3.791999
 
  0.0000000E+00  0.1666667E+00  0.0000000E+00  0.2314815E-02
    1      -21.761672
    2      -16.597869
    3      -15.574937
    4      -10.972776
    5       -9.773940
    6       -7.471865
    7       -6.800415
    8       -4.513728
    9       -1.303893
   10        1.191467
   11        2.000240
   12        2.392313
 
  0.4166667E-01  0.1666667E+00  0.0000000E+00  0.4629630E-02
    1      -21.751477
    2      -16.758057
    3      -15.401953
    4      -10.961305
    5       -9.761867
    6       -7.521574
    7       -6.796089
    8       -4.587238
    9       -1.219253
   10        1.205345
   11        2.014274
   12        2.406564
 
  0.8333333E-01  0.1666667E+00  0.0000000E+00  0.4629630E-02
    1      -21.720900
    2      -17.086622
    3      -15.035223
    4      -10.926837
    5       -9.725669
    6       -7.655478
    7       -6.798030
    8       -4.787268
    9       -0.986001
   10        1.246987
   11        2.056369
   12        2.449318
 
  0.1250000E+00  0.1666667E+00  0.0000000E+00  0.4629630E-02
    1      -21.669963
    2      -17.454932
    3      -14.604046
    4      -10.869193
    5       -9.665405
    6       -7.846787
    7       -6.831865
    8       -5.071611
    9       -0.646860
   10        1.316415
   11        2.126514
   12        2.520579
 
  0.1666667E+00  0.1666667E+00  0.0000000E+00  0.4629630E-02
    1      -21.598707
    2      -17.826879
    3      -14.145702
    4      -10.788042
    5       -9.581173
    6       -8.075649
    7       -6.914845
    8       -5.403015
    9       -0.239917
   10        1.413658
   11        2.224682
   12        2.620354
 
  0.2083333E+00  0.1666667E+00  0.0000000E+00  0.4629630E-02
    1      -21.507185
    2      -18.191113
    3      -13.673297
    4      -10.682842
    5       -9.473118
    6       -8.329721
    7       -7.054653
    8       -5.756636
    9        0.208854
   10        1.538738
   11        2.350839
   12        2.748649
 
  0.2500000E+00  0.1666667E+00  0.0000000E+00  0.4629630E-02
    1      -21.395472
    2      -18.542968
    3      -13.193968
    4      -10.552751
    5       -9.341431
    6       -8.601345
    7       -7.251943
    8       -6.117203
    9        0.682808
   10        1.691662
   11        2.504935
   12        2.905469
 
  0.2916667E+00  0.1666667E+00  0.0000000E+00  0.4629630E-02
    1      -21.263658
    2      -18.880069
    3      -12.713443
    4      -10.396512
    5       -9.186358
    6       -8.885949
    7       -7.502133
    8       -6.475300
    9        1.170954
   10        1.872411
   11        2.686905
   12        3.090816
 
  0.3333333E+00  0.1666667E+00  0.0000000E+00  0.4629630E-02
    1      -21.111854
    2      -19.201009
    3      -12.237546
    4      -10.212341
    5       -9.181435
    6       -9.008207
    7       -7.796656
    8       -6.824913
    9        1.665552
   10        2.080937
   11        2.896663
   12        3.304684
 
  0.3750000E+00  0.1666667E+00  0.0000000E+00  0.4629630E-02
    1      -20.940196
    2      -19.504854
    3      -11.772776
    4       -9.997926
    5       -9.488081
    6       -8.807361
    7       -8.123899
    8       -7.162023
    9        2.160772
   10        2.317168
   11        3.134094
   12        3.547068
 
  0.4166667E+00  0.1666667E+00  0.0000000E+00  0.4629630E-02
    1      -20.748847
    2      -19.790935
    3      -11.326219
    4       -9.808602
    5       -9.750839
    6       -8.584290
    7       -8.469936
    8       -7.483831
    9        2.581014
   10        2.651944
   11        3.399042
   12        3.817957
 
  0.4583333E+00  0.1666667E+00  0.0000000E+00  0.4629630E-02
    1      -20.537996
    2      -20.058742
    3      -10.904508
    4      -10.147898
    5       -9.469786
    6       -8.819350
    7       -8.339577
    8       -7.788311
    9        2.872366
   10        3.135121
   11        3.537053
   12        3.691185
 
  0.5000000E+00  0.1666667E+00  0.0000000E+00  0.2314815E-02
    1      -20.307871
    2      -20.307871
    3      -10.511793
    4      -10.511793
    5       -9.156823
    6       -9.156823
    7       -8.073947
    8       -8.073947
    9        3.191096
   10        3.191096
   11        3.606681
   12        3.606681
 