gr                                      
           1
     4.273469    0.000000    0.000000
     0.000000    2.467448    0.000000
     0.000000    0.000000   19.994945
   C 
   4
Direct configuration=     1
   0.99987391  0.00000000  0.00000000
   0.16679275  0.50000000  0.00000000
   0.49987391  0.50000000  0.00000000
   0.66679275  0.00000000  0.00000000
Direct configuration=     2
   1.00051609  0.00000000 -0.00000000
   0.16615058  0.50000000  0.00000000
   0.50051609  0.50000000 -0.00000000
   0.66615058 -0.00000000  0.00000000
Direct configuration=     3
   1.00000242 -0.00000000 -0.00000000
   0.16666424  0.50000000  0.00000000
   0.50000242  0.50000000 -0.00000000
   0.66666424 -0.00000000  0.00000000
Direct configuration=     4
   1.00000220 -0.00000000 -0.00000000
   0.16666446  0.50000000  0.00000000
   0.50000220  0.50000000 -0.00000000
   0.66666446  0.00000000  0.00000000
Direct configuration=     5
   1.00000218 -0.00000000 -0.00000000
   0.16666449  0.50000000  0.00000000
   0.50000218  0.50000000 -0.00000000
   0.66666449  0.00000000  0.00000000
Direct configuration=     6
   1.00000217 -0.00000000 -0.00000000
   0.16666449  0.50000000  0.00000000
   0.50000217  0.50000000 -0.00000000
   0.66666449 -0.00000000  0.00000000
Direct configuration=     7
   1.00000218 -0.00000000 -0.00000000
   0.16666449  0.50000000  0.00000000
   0.50000218  0.50000000 -0.00000000
   0.66666449 -0.00000000  0.00000000
