    4    4  400    1
  0.5270948E+02  0.4317274E-09  0.2462716E-09  0.1983010E-08  0.5000000E-15
  1.000000000000000E-004
  CAR 
 gr                                      
     16    247     12
 
  0.0000000E+00  0.0000000E+00  0.0000000E+00  0.1157407E-02
    1      -22.182594
    2      -17.122169
    3      -15.917601
    4      -10.304062
    5       -9.008947
    6       -5.880040
    7       -5.760416
    8       -5.205687
    9       -1.123012
   10        0.532338
   11        1.332246
   12        1.719396
 
  0.4166667E-01  0.0000000E+00  0.0000000E+00  0.2314815E-02
    1      -22.172550
    2      -17.265101
    3      -15.759520
    4      -10.292097
    5       -8.999071
    6       -5.923450
    7       -5.781929
    8       -5.268871
    9       -1.043933
   10        0.545946
   11        1.346039
   12        1.733358
 
  0.8333333E-01  0.0000000E+00  0.0000000E+00  0.2314815E-02
    1      -22.142425
    2      -17.574688
    3      -15.404567
    4      -10.256219
    5       -8.969491
    6       -6.051773
    7       -5.845308
    8       -5.444824
    9       -0.820461
   10        0.586771
   11        1.387415
   12        1.775247
 
  0.1250000E+00  0.0000000E+00  0.0000000E+00  0.2314815E-02
    1      -22.092236
    2      -17.932219
    3      -14.971700
    4      -10.196486
    5       -8.920363
    6       -6.259638
    7       -5.947260
    8       -5.702868
    9       -0.483772
   10        0.654826
   11        1.456361
   12        1.845065
 
  0.1666667E+00  0.0000000E+00  0.0000000E+00  0.2314815E-02
    1      -22.022020
    2      -18.297435
    3      -14.501596
    4      -10.112996
    5       -8.851947
    6       -6.539100
    7       -6.082867
    8       -6.011931
    9       -0.065778
   10        0.750123
   11        1.552852
   12        1.942813
 
  0.2083333E+00  0.0000000E+00  0.0000000E+00  0.2314815E-02
    1      -21.931826
    2      -18.656711
    3      -14.008487
    4      -10.005890
    5       -8.764619
    6       -6.880759
    7       -6.348377
    8       -6.246231
    9        0.408672
   10        0.872666
   11        1.676852
   12        2.068493
 
  0.2500000E+00  0.0000000E+00  0.0000000E+00  0.2314815E-02
    1      -21.821716
    2      -19.004401
    3      -13.498818
    4       -9.875358
    5       -8.658883
    6       -7.274788
    7       -6.696173
    8       -6.431101
    9        0.921921
   10        1.022450
   11        1.828303
   12        2.222106
 
  0.2916667E+00  0.0000000E+00  0.0000000E+00  0.2314815E-02
    1      -21.691772
    2      -19.337715
    3      -12.976404
    4       -9.721647
    5       -8.535389
    6       -7.711692
    7       -7.044782
    8       -6.631359
    9        1.199453
   10        1.461297
   11        2.007118
   12        2.403649
 
  0.3333333E+00  0.0000000E+00  0.0000000E+00  0.2314815E-02
    1      -21.542094
    2      -19.655064
    3      -12.444109
    4       -9.545067
    5       -8.394948
    6       -8.182757
    7       -7.387228
    8       -6.841344
    9        1.403641
   10        2.016944
   11        2.213152
   12        2.613118
 
  0.3750000E+00  0.0000000E+00  0.0000000E+00  0.2314815E-02
    1      -21.372799
    2      -19.955449
    3      -11.904499
    4       -9.346012
    5       -8.680255
    6       -8.238563
    7       -7.718787
    8       -7.056006
    9        1.634965
   10        2.446141
   11        2.579571
   12        2.850505
 
  0.4166667E+00  0.0000000E+00  0.0000000E+00  0.2314815E-02
    1      -21.184027
    2      -20.238178
    3      -11.360164
    4       -9.197473
    5       -9.124973
    6       -8.067465
    7       -8.036168
    8       -7.270968
    9        1.893356
   10        2.705530
   11        3.115796
   12        3.133601
 
  0.4583333E+00  0.0000000E+00  0.0000000E+00  0.2314815E-02
    1      -20.975950
    2      -20.502747
    3      -10.813902
    4       -9.728648
    5       -8.882568
    6       -8.337010
    7       -7.883150
    8       -7.482491
    9        2.178722
   10        2.829815
   11        2.989793
   12        3.408975
 
  0.5000000E+00  0.0000000E+00  0.0000000E+00  0.1157407E-02
    1      -20.748774
    2      -20.748774
    3      -10.268859
    4      -10.268859
    5       -8.619579
    6       -8.619579
    7       -7.687429
    8       -7.687429
    9        2.490937
   10        2.490937
   11        3.292324
   12        3.292324
 
  0.0000000E+00  0.2777778E-01  0.0000000E+00  0.2314815E-02
    1      -22.168857
    2      -17.110325
    3      -15.905925
    4      -10.287697
    5       -9.071272
    6       -5.908491
    7       -5.818191
    8       -5.189029
    9       -1.126303
   10        0.550964
   11        1.351091
   12        1.738472
 
  0.4166667E-01  0.2777778E-01  0.0000000E+00  0.4629630E-02
    1      -22.158815
    2      -17.253111
    3      -15.748039
    4      -10.275735
    5       -9.061381
    6       -5.955202
    7       -5.835759
    8       -5.252345
    9       -1.047203
   10        0.564571
   11        1.364883
   12        1.752435
 
  0.8333333E-01  0.2777778E-01  0.0000000E+00  0.4629630E-02
    1      -22.128693
    2      -17.562453
    3      -15.393477
    4      -10.239870
    5       -9.031758
    6       -6.086985
    7       -5.893859
    8       -5.428603
    9       -0.823760
   10        0.605398
   11        1.406257
   12        1.794324
 
  0.1250000E+00  0.2777778E-01  0.0000000E+00  0.4629630E-02
    1      -22.078513
    2      -17.919762
    3      -14.961081
    4      -10.180157
    5       -8.982553
    6       -6.294649
    7       -5.993324
    8       -5.686967
    9       -0.487309
   10        0.673455
   11        1.475199
   12        1.864142
 
  0.1666667E+00  0.2777778E-01  0.0000000E+00  0.4629630E-02
    1      -22.008307
    2      -18.284787
    3      -14.491527
    4      -10.096695
    5       -8.914022
    6       -6.571127
    7       -6.128733
    8       -5.996272
    9       -0.069857
   10        0.768756
   11        1.571685
   12        1.961891
 
  0.2083333E+00  0.2777778E-01  0.0000000E+00  0.4629630E-02
    1      -21.918128
    2      -18.643900
    3      -13.999064
    4       -9.989626
    5       -8.826534
    6       -6.908342
    7       -6.332862
    8       -6.293211
    9        0.403727
   10        0.891305
   11        1.695678
   12        2.087573
 
  0.2500000E+00  0.2777778E-01  0.0000000E+00  0.4629630E-02
    1      -21.808036
    2      -18.991450
    3      -13.490156
    4       -9.859139
    5       -8.720583
    6       -7.297410
    7       -6.680721
    8       -6.479819
    9        0.915808
   10        1.041096
   11        1.847123
   12        2.241188
 
  0.2916667E+00  0.2777778E-01  0.0000000E+00  0.4629630E-02
    1      -21.678115
    2      -19.324643
    3      -12.968643
    4       -9.705480
    5       -8.596805
    6       -7.729408
    7       -7.029332
    8       -6.682026
    9        1.218108
   10        1.453756
   11        2.025932
   12        2.422734
 
  0.3333333E+00  0.2777778E-01  0.0000000E+00  0.4629630E-02
    1      -21.528463
    2      -19.641889
    3      -12.437416
    4       -9.528960
    5       -8.455997
    6       -8.195928
    7       -7.371739
    8       -6.893929
    9        1.422307
   10        2.007787
   11        2.231962
   12        2.632206
 
  0.3750000E+00  0.2777778E-01  0.0000000E+00  0.4629630E-02
    1      -21.359199
    2      -19.942184
    3      -11.899077
    4       -9.329973
    5       -8.689377
    6       -8.299144
    7       -7.703235
    8       -7.110356
    9        1.653643
   10        2.464954
   11        2.568814
   12        2.869598
 
  0.4166667E+00  0.2777778E-01  0.0000000E+00  0.4629630E-02
    1      -21.170465
    2      -20.224835
    3      -11.356257
    4       -9.203078
    5       -9.109008
    6       -8.127454
    7       -8.020538
    8       -7.326870
    9        1.912048
   10        2.724356
   11        3.122325
   12        3.134896
 
  0.4583333E+00  0.2777778E-01  0.0000000E+00  0.4629630E-02
    1      -20.962430
    2      -20.489336
    3      -10.811799
    4       -9.731244
    5       -8.866683
    6       -8.321296
    7       -7.942399
    8       -7.539720
    9        2.197432
   10        2.848589
   11        3.008646
   12        3.428082
 
  0.5000000E+00  0.2777778E-01  0.0000000E+00  0.2314815E-02
    1      -20.735305
    2      -20.735305
    3      -10.268905
    4      -10.268905
    5       -8.603779
    6       -8.603779
    7       -7.745767
    8       -7.745767
    9        2.509672
   10        2.509672
   11        3.311054
   12        3.311054
 
  0.0000000E+00  0.5555556E-01  0.0000000E+00  0.2314815E-02
    1      -22.127657
    2      -17.074796
    3      -15.871044
    4      -10.238635
    5       -9.253234
    6       -5.993264
    7       -5.986853
    8       -5.139074
    9       -1.136996
   10        0.606842
   11        1.407618
   12        1.795703
 
  0.4166667E-01  0.5555556E-01  0.0000000E+00  0.4629630E-02
    1      -22.117618
    2      -17.217152
    3      -15.713736
    4      -10.226686
    5       -9.243295
    6       -6.066035
    7       -5.976470
    8       -5.202796
    9       -1.057830
   10        0.620449
   11        1.421408
   12        1.809666
 
  0.8333333E-01  0.5555556E-01  0.0000000E+00  0.4629630E-02
    1      -22.087510
    2      -17.525767
    3      -15.360352
    4      -10.190857
    5       -9.213525
    6       -6.206325
    7       -6.020717
    8       -5.379995
    9       -0.834467
   10        0.661277
   11        1.462774
   12        1.851555
 
  0.1250000E+00  0.5555556E-01  0.0000000E+00  0.4629630E-02
    1      -22.037353
    2      -17.882411
    3      -14.929387
    4      -10.131206
    5       -9.164066
    6       -6.410737
    7       -6.115488
    8       -5.639342
    9       -0.498739
   10        0.729339
   11        1.531703
   12        1.921374
 
  0.1666667E+00  0.5555556E-01  0.0000000E+00  0.4629630E-02
    1      -21.967181
    2      -18.246864
    3      -14.461514
    4      -10.047831
    5       -9.095155
    6       -6.676531
    7       -6.252129
    8       -5.949385
    9       -0.082944
   10        0.824647
   11        1.628173
   12        2.019126
 
  0.2083333E+00  0.5555556E-01  0.0000000E+00  0.4629630E-02
    1      -21.877044
    2      -18.605486
    3      -13.971030
    4       -9.940873
    5       -9.007137
    6       -6.998970
    7       -6.421452
    8       -6.286413
    9        0.387996
   10        0.947209
   11        1.752147
   12        2.144811
 
  0.2500000E+00  0.5555556E-01  0.0000000E+00  0.4629630E-02
    1      -21.767007
    2      -18.952615
    3      -13.464462
    4       -9.810521
    5       -8.900474
    6       -7.371772
    7       -6.634458
    8       -6.614688
    9        0.896506
   10        1.097018
   11        1.903570
   12        2.298431
 
  0.2916667E+00  0.5555556E-01  0.0000000E+00  0.4629630E-02
    1      -21.637154
    2      -19.285444
    3      -12.945728
    4       -9.657021
    5       -8.775759
    6       -7.787759
    7       -6.983071
    8       -6.824024
    9        1.274053
   10        1.430078
   11        2.082358
   12        2.479984
 
  0.3333333E+00  0.5555556E-01  0.0000000E+00  0.4629630E-02
    1      -21.487582
    2      -19.602377
    3      -12.417810
    4       -9.480686
    5       -8.633738
    6       -8.239516
    7       -7.325359
    8       -7.042787
    9        1.478278
   10        1.979139
   11        2.288376
   12        2.689466
 
  0.3750000E+00  0.5555556E-01  0.0000000E+00  0.4629630E-02
    1      -21.318413
    2      -19.902401
    3      -11.883425
    4       -9.281904
    5       -8.719886
    6       -8.475333
    7       -7.656658
    8       -7.265406
    9        1.709644
   10        2.521374
   11        2.535132
   12        2.926869
 
  0.4166667E+00  0.5555556E-01  0.0000000E+00  0.4629630E-02
    1      -21.129789
    2      -20.184818
    3      -11.345333
    4       -9.222289
    5       -9.061166
    6       -8.301678
    7       -7.973721
    8       -7.487288
    9        1.968083
   10        2.780819
   11        3.086176
   12        3.192184
 
  0.4583333E+00  0.5555556E-01  0.0000000E+00  0.4629630E-02
    1      -20.921885
    2      -20.449118
    3      -10.806539
    4       -9.740849
    5       -8.819086
    6       -8.274221
    7       -8.114159
    8       -7.704670
    9        2.253507
   10        2.904806
   11        3.065199
   12        3.485392
 
  0.5000000E+00  0.5555556E-01  0.0000000E+00  0.2314815E-02
    1      -20.694910
    2      -20.694910
    3      -10.270421
    4      -10.270421
    5       -8.556440
    6       -8.556440
    7       -7.914468
    8       -7.914468
    9        2.565802
   10        2.565802
   11        3.367175
   12        3.367175
 
  0.0000000E+00  0.8333333E-01  0.0000000E+00  0.2314815E-02
    1      -22.059028
    2      -17.015595
    3      -15.813425
    4      -10.156980
    5       -9.541190
    6       -6.253839
    7       -6.132636
    8       -5.055885
    9       -1.157557
   10        0.699978
   11        1.501805
   12        1.891089
 
  0.4166667E-01  0.8333333E-01  0.0000000E+00  0.4629630E-02
    1      -22.048997
    2      -17.157260
    3      -15.657068
    4      -10.145052
    5       -9.531156
    6       -6.306198
    7       -6.139640
    8       -5.120327
    9       -1.078257
   10        0.713584
   11        1.515590
   12        1.905052
 
  0.8333333E-01  0.8333333E-01  0.0000000E+00  0.4629630E-02
    1      -22.018911
    2      -17.464688
    3      -15.305660
    4      -10.109287
    5       -9.501093
    6       -6.439230
    7       -6.182564
    8       -5.299179
    9       -0.855000
   10        0.754410
   11        1.556943
   12        1.946941
 
  0.1250000E+00  0.8333333E-01  0.0000000E+00  0.4629630E-02
    1      -21.968793
    2      -17.820229
    3      -14.877144
    4      -10.049742
    5       -9.451123
    6       -6.632762
    7       -6.275383
    8       -5.560235
    9       -0.520501
   10        0.822470
   11        1.625850
   12        2.016761
 
  0.1666667E+00  0.8333333E-01  0.0000000E+00  0.4629630E-02
    1      -21.898677
    2      -18.183728
    3      -14.412180
    4       -9.966515
    5       -9.381452
    6       -6.879673
    7       -6.415509
    8       -5.871550
    9       -0.107559
   10        0.917781
   11        1.722288
   12        2.114514
 
  0.2083333E+00  0.8333333E-01  0.0000000E+00  0.4629630E-02
    1      -21.808613
    2      -18.541528
    3      -13.925149
    4       -9.859747
    5       -9.292376
    6       -7.176212
    7       -6.594407
    8       -6.209324
    9        0.358816
   10        1.040351
   11        1.846225
   12        2.240203
 
  0.2500000E+00  0.8333333E-01  0.0000000E+00  0.4629630E-02
    1      -21.698668
    2      -18.887950
    3      -13.422696
    4       -9.729628
    5       -9.184291
    6       -7.519202
    7       -6.801475
    8       -6.557674
    9        0.861160
   10        1.190175
   11        1.997606
   12        2.393829
 
  0.2916667E+00  0.8333333E-01  0.0000000E+00  0.4629630E-02
    1      -21.568926
    2      -19.220171
    3      -12.908884
    4       -9.576403
    5       -9.057704
    6       -7.904801
    7       -7.026384
    8       -6.906277
    9        1.367232
   10        1.387165
   11        2.176355
   12        2.575390
 
  0.3333333E+00  0.8333333E-01  0.0000000E+00  0.4629630E-02
    1      -21.419488
    2      -19.536578
    3      -12.386878
    4       -9.400382
    5       -8.913251
    6       -8.328038
    7       -7.260415
    8       -7.248346
    9        1.571485
   10        1.927562
   11        2.382345
   12        2.784884
 
  0.3750000E+00  0.8333333E-01  0.0000000E+00  0.4629630E-02
    1      -21.250477
    2      -19.836148
    3      -11.859616
    4       -9.201956
    5       -8.783061
    6       -8.751717
    7       -7.579298
    8       -7.496806
    9        1.802882
   10        2.474483
   11        2.615348
   12        3.022302
 
  0.4166667E+00  0.8333333E-01  0.0000000E+00  0.4629630E-02
    1      -21.062039
    2      -20.118173
    3      -11.330130
    4       -9.263690
    5       -8.981609
    6       -8.574066
    7       -7.895942
    8       -7.730487
    9        2.061353
   10        2.874870
   11        3.018933
   12        3.287636
 
  0.4583333E+00  0.8333333E-01  0.0000000E+00  0.4629630E-02
    1      -20.854352
    2      -20.382132
    3      -10.801754
    4       -9.763926
    5       -8.739951
    6       -8.381479
    7       -8.195990
    8       -7.957655
    9        2.346813
   10        2.998231
   11        3.159426
   12        3.523131
 
  0.5000000E+00  0.8333333E-01  0.0000000E+00  0.2314815E-02
    1      -20.627631
    2      -20.627631
    3      -10.278251
    4      -10.278251
    5       -8.477751
    6       -8.477751
    7       -8.175408
    8       -8.175408
    9        2.659154
   10        2.659154
   11        3.460356
   12        3.460356
 
  0.0000000E+00  0.1111111E+00  0.0000000E+00  0.2314815E-02
    1      -21.963031
    2      -16.932742
    3      -15.733948
    4      -10.042909
    5       -9.916167
    6       -6.602020
    7       -6.323788
    8       -4.939569
    9       -1.192074
   10        0.830378
   11        1.633614
   12        2.024633
 
  0.4166667E-01  0.1111111E+00  0.0000000E+00  0.4629630E-02
    1      -21.953011
    2      -17.073500
    3      -15.578894
    4      -10.031012
    5       -9.905963
    6       -6.649295
    7       -6.331910
    8       -5.005112
    9       -1.112531
   10        0.843980
   11        1.647392
   12        2.038595
 
  0.8333333E-01  0.1111111E+00  0.0000000E+00  0.4629630E-02
    1      -21.922958
    2      -17.379319
    3      -15.230297
    4       -9.995339
    5       -9.875379
    6       -6.776138
    7       -6.369699
    8       -5.186474
    9       -0.889342
   10        0.884794
   11        1.688722
   12        2.080483
 
  0.1250000E+00  0.1111111E+00  0.0000000E+00  0.4629630E-02
    1      -21.872894
    2      -17.733332
    3      -14.805369
    4       -9.935948
    5       -9.824502
    6       -6.961177
    7       -6.453898
    8       -5.450089
    9       -0.556588
   10        0.952839
   11        1.757591
   12        2.150301
 
  0.1666667E+00  0.1111111E+00  0.0000000E+00  0.4629630E-02
    1      -21.802855
    2      -18.095490
    3      -14.344744
    4       -9.852937
    5       -9.753477
    6       -7.191991
    7       -6.589333
    8       -5.763275
    9       -0.147811
   10        1.048134
   11        1.853979
   12        2.248053
 
  0.2083333E+00  0.1111111E+00  0.0000000E+00  0.4629630E-02
    1      -21.712894
    2      -18.452130
    3      -13.862937
    4       -9.746448
    5       -9.662509
    6       -7.462290
    7       -6.772135
    8       -6.102120
    9        0.311871
   10        1.170695
   11        1.977852
   12        2.373743
 
  0.2500000E+00  0.1111111E+00  0.0000000E+00  0.4629630E-02
    1      -21.603079
    2      -18.797553
    3      -13.366791
    4       -9.616670
    5       -9.551869
    6       -7.769344
    7       -6.993015
    8       -6.450886
    9        0.805177
   10        1.320517
   11        2.129161
   12        2.527373
 
  0.2916667E+00  0.1111111E+00  0.0000000E+00  0.4629630E-02
    1      -21.473493
    2      -19.128912
    3      -12.860626
    4       -9.463847
    5       -9.421893
    6       -8.112414
    7       -7.239733
    8       -6.799443
    9        1.320078
   10        1.497579
   11        2.307837
   12        2.708941
 
  0.3333333E+00  0.1111111E+00  0.0000000E+00  0.4629630E-02
    1      -21.324243
    2      -19.444575
    3      -12.347937
    4       -9.288290
    5       -9.272991
    6       -8.491092
    7       -7.499656
    8       -7.141161
    9        1.701843
   10        1.847683
   11        2.513768
   12        2.918445
 
  0.3750000E+00  0.1111111E+00  0.0000000E+00  0.4629630E-02
    1      -21.155455
    2      -19.743501
    3      -11.832082
    4       -9.105653
    5       -9.090386
    6       -8.903742
    7       -7.762029
    8       -7.471580
    9        1.933252
   10        2.380797
   11        2.746762
   12        3.155877
 
  0.4166667E+00  0.1111111E+00  0.0000000E+00  0.4629630E-02
    1      -20.967279
    2      -20.024971
    3      -11.316622
    4       -9.346821
    5       -8.920463
    6       -8.870615
    7       -8.019097
    8       -7.787590
    9        2.191734
   10        2.912579
   11        3.006394
   12        3.421228
 
  0.4583333E+00  0.1111111E+00  0.0000000E+00  0.4629630E-02
    1      -20.759900
    2      -20.288452
    3      -10.805544
    4       -9.815270
    5       -8.718129
    6       -8.629581
    7       -8.265926
    8       -8.086961
    9        2.477201
   10        3.128629
   11        3.291274
   12        3.430377
 
  0.5000000E+00  0.1111111E+00  0.0000000E+00  0.2314815E-02
    1      -20.533535
    2      -20.533535
    3      -10.303382
    4      -10.303382
    5       -8.499544
    6       -8.499544
    7       -8.368042
    8       -8.368042
    9        2.789545
   10        2.789545
   11        3.588983
   12        3.588983
 
  0.0000000E+00  0.1388889E+00  0.0000000E+00  0.2314815E-02
    1      -21.839754
    2      -16.826266
    3      -15.634100
    4      -10.357273
    5       -9.896675
    6       -7.013207
    7       -6.562911
    8       -4.790275
    9       -1.246167
   10        0.998039
   11        1.802987
   12        2.196337
 
  0.4166667E-01  0.1388889E+00  0.0000000E+00  0.4629630E-02
    1      -21.829748
    2      -16.965969
    3      -15.480677
    4      -10.346778
    5       -9.884820
    6       -7.059922
    7       -6.566910
    8       -4.857425
    9       -1.166183
   10        1.011633
   11        1.816753
   12        2.210298
 
  0.8333333E-01  0.1388889E+00  0.0000000E+00  0.4629630E-02
    1      -21.799737
    2      -17.269822
    3      -15.135806
    4      -10.315301
    5       -9.849273
    6       -7.186269
    7       -6.591747
    8       -5.042398
    9       -0.942879
   10        1.052424
   11        1.858047
   12        2.252183
 
  0.1250000E+00  0.1388889E+00  0.0000000E+00  0.4629630E-02
    1      -21.749743
    2      -17.621894
    3      -14.715843
    4      -10.262862
    5       -9.790092
    6       -7.369240
    7       -6.657444
    8       -5.309614
    9       -0.612350
   10        1.120432
   11        1.926857
   12        2.321994
 
  0.1666667E+00  0.1388889E+00  0.0000000E+00  0.4629630E-02
    1      -21.679806
    2      -17.982320
    3      -14.261391
    4      -10.189491
    5       -9.707376
    6       -7.592799
    7       -6.774752
    8       -5.625366
    9       -0.209162
   10        1.215685
   11        2.023161
   12        2.419740
 
  0.2083333E+00  0.1388889E+00  0.0000000E+00  0.4629630E-02
    1      -21.589977
    2      -18.337452
    3      -13.787176
    4      -10.095216
    5       -9.601266
    6       -7.847532
    7       -6.945394
    8       -5.965627
    9        0.241479
   10        1.338203
   11        2.146927
   12        2.545425
 
  0.2500000E+00  0.1388889E+00  0.0000000E+00  0.4629630E-02
    1      -21.480327
    2      -18.681569
    3      -13.300386
    4       -9.980052
    5       -9.471953
    6       -8.128360
    7       -7.164596
    8       -6.314898
    9        0.722584
   10        1.487990
   11        2.298111
   12        2.699054
 
  0.2916667E+00  0.1388889E+00  0.0000000E+00  0.4629630E-02
    1      -21.350946
    2      -19.011801
    3      -12.805814
    4       -9.843978
    5       -9.319682
    6       -8.433453
    7       -7.422802
    8       -6.663324
    9        1.222523
   10        1.665026
   11        2.476649
   12        2.880624
 
  0.3333333E+00  0.1388889E+00  0.0000000E+00  0.4629630E-02
    1      -21.201939
    2      -19.326492
    3      -12.307585
    4       -9.686913
    5       -9.144760
    6       -8.763578
    7       -7.707159
    8       -7.004507
    9        1.732856
   10        1.869269
   11        2.682452
   12        3.090134
 
  0.3750000E+00  0.1388889E+00  0.0000000E+00  0.4629630E-02
    1      -21.033439
    2      -19.624579
    3      -11.809882
    4       -9.508690
    5       -9.121099
    6       -8.947572
    7       -8.003326
    8       -7.334149
    9        2.100658
   10        2.246996
   11        2.915374
   12        3.327576
 
  0.4166667E+00  0.1388889E+00  0.0000000E+00  0.4629630E-02
    1      -20.845604
    2      -19.905324
    3      -11.317322
    4       -9.508236
    5       -9.309045
    6       -8.728596
    7       -8.297821
    8       -7.649257
    9        2.359114
   10        2.759359
   11        3.175122
   12        3.592941
 
  0.4583333E+00  0.1388889E+00  0.0000000E+00  0.4629630E-02
    1      -20.638623
    2      -20.168180
    3      -10.835134
    4       -9.925153
    5       -9.087678
    6       -8.580291
    7       -8.488424
    8       -7.947674
    9        2.644542
   10        3.264338
   11        3.295831
   12        3.460609
 
  0.5000000E+00  0.1388889E+00  0.0000000E+00  0.2314815E-02
    1      -20.412724
    2      -20.412724
    3      -10.369112
    4      -10.369112
    5       -8.844506
    6       -8.844506
    7       -8.227803
    8       -8.227803
    9        2.956828
   10        2.956828
   11        3.715816
   12        3.715816
 
  0.0000000E+00  0.1666667E+00  0.0000000E+00  0.2314815E-02
    1      -21.689314
    2      -16.696206
    3      -15.516375
    4      -10.843875
    5       -9.718617
    6       -7.470536
    7       -6.845361
    8       -4.608205
    9       -1.326734
   10        1.202948
   11        2.009842
   12        2.406204
 
  0.4166667E-01  0.1666667E+00  0.0000000E+00  0.4629630E-02
    1      -21.679325
    2      -16.834815
    3      -15.364895
    4      -10.832881
    5       -9.706817
    6       -7.518157
    7       -6.843307
    8       -4.677675
    9       -1.245932
   10        1.216529
   11        2.023589
   12        2.420162
 
  0.8333333E-01  0.1666667E+00  0.0000000E+00  0.4629630E-02
    1      -21.649366
    2      -17.136438
    3      -15.024848
    4      -10.799863
    5       -9.671435
    6       -7.646909
    7       -6.850850
    8       -4.867757
    9       -1.022021
   10        1.257282
   11        2.064825
   12        2.462040
 
  0.1250000E+00  0.1666667E+00  0.0000000E+00  0.4629630E-02
    1      -21.599460
    2      -17.486177
    3      -14.611719
    4      -10.744708
    5       -9.612531
    6       -7.831841
    7       -6.891510
    8       -5.139913
    9       -0.694041
   10        1.325230
   11        2.133536
   12        2.531841
 
  0.1666667E+00  0.1666667E+00  0.0000000E+00  0.4629630E-02
    1      -21.529646
    2      -17.844470
    3      -14.166094
    4      -10.667206
    5       -9.530203
    6       -8.054345
    7       -6.980901
    8       -5.459052
    9       -0.297904
   10        1.420406
   11        2.229699
   12        2.629573
 
  0.2083333E+00  0.1666667E+00  0.0000000E+00  0.4629630E-02
    1      -21.439979
    2      -18.197723
    3      -13.703087
    4      -10.567005
    5       -9.424594
    6       -8.302847
    7       -7.125505
    8       -5.801088
    9        0.141188
   10        1.542839
   11        2.353281
   12        2.755244
 
  0.2500000E+00  0.1666667E+00  0.0000000E+00  0.4629630E-02
    1      -21.330534
    2      -18.540208
    3      -13.230542
    4      -10.443564
    5       -9.295895
    6       -8.570291
    7       -7.324991
    8       -6.150897
    9        0.606740
   10        1.692541
   11        2.504232
   12        2.908861
 
  0.2916667E+00  0.1666667E+00  0.0000000E+00  0.4629630E-02
    1      -21.201402
    2      -18.869030
    3      -12.754198
    4      -10.296061
    5       -9.144352
    6       -8.852724
    7       -7.573900
    8       -6.499030
    9        1.087711
   10        1.869501
   11        2.682492
   12        3.090425
 
  0.3333333E+00  0.1666667E+00  0.0000000E+00  0.4629630E-02
    1      -21.052696
    2      -19.182504
    3      -12.279460
    4      -10.123315
    5       -9.148773
    6       -8.970272
    7       -7.862832
    8       -6.839400
    9        1.576253
   10        2.073677
   11        2.887978
   12        3.299934
 
  0.3750000E+00  0.1666667E+00  0.0000000E+00  0.4629630E-02
    1      -20.884554
    2      -19.479542
    3      -11.812142
    4       -9.923746
    5       -9.459516
    6       -8.774037
    7       -8.179409
    8       -7.167931
    9        2.066403
   10        2.305002
   11        3.120585
   12        3.537380
 
  0.4166667E+00  0.1666667E+00  0.0000000E+00  0.4629630E-02
    1      -20.697141
    2      -19.759383
    3      -11.358664
    4       -9.788295
    5       -9.695545
    6       -8.556120
    7       -8.509215
    8       -7.481780
    9        2.553348
   10        2.563386
   11        3.380172
   12        3.802753
 
  0.4583333E+00  0.1666667E+00  0.0000000E+00  0.4629630E-02
    1      -20.490656
    2      -20.021460
    3      -10.925628
    4      -10.139874
    5       -9.437347
    6       -8.837166
    7       -8.317106
    8       -7.778888
    9        2.848722
   10        3.032990
   11        3.499713
   12        3.666534
 
  0.5000000E+00  0.1666667E+00  0.0000000E+00  0.2314815E-02
    1      -20.265334
    2      -20.265334
    3      -10.518519
    4      -10.518519
    5       -9.149721
    6       -9.149721
    7       -8.057722
    8       -8.057722
    9        3.160882
   10        3.160882
   11        3.501665
   12        3.501665
 