       N       E                     dE             d eps       ncg     rms          rms(c)
DAV:   1     0.188536084480E+03    0.18854E+03   -0.10555E+04  5928   0.274E+03
DAV:   2    -0.889725769706E+01   -0.19743E+03   -0.17432E+03 10276   0.261E+02
DAV:   3    -0.382194441799E+02   -0.29322E+02   -0.28382E+02  7432   0.119E+02    0.723E+00
RMM:   4    -0.376724235196E+02    0.54702E+00   -0.10029E+01  5928   0.267E+01    0.420E+00
RMM:   5    -0.369243241425E+02    0.74810E+00   -0.28312E+00  5937   0.115E+01    0.732E-01
RMM:   6    -0.369257845537E+02   -0.14604E-02   -0.85831E-02  6367   0.203E+00    0.514E-01
RMM:   7    -0.369164590532E+02    0.93255E-02   -0.33100E-02  5940   0.159E+00    0.339E-01
RMM:   8    -0.369111109579E+02    0.53481E-02   -0.68271E-03  5933   0.548E-01    0.140E-01
RMM:   9    -0.369107204043E+02    0.39055E-03   -0.21010E-02  5928   0.859E-01    0.157E-01
RMM:  10    -0.369106304401E+02    0.89964E-04   -0.24144E-03  5928   0.356E-01    0.287E-02
RMM:  11    -0.369131244915E+02   -0.24941E-02   -0.76655E-04  5932   0.181E-01    0.453E-02
RMM:  12    -0.369135758173E+02   -0.45133E-03   -0.22892E-04  5944   0.999E-02    0.494E-03
RMM:  13    -0.369138230008E+02   -0.24718E-03   -0.49391E-05  6018   0.388E-02    0.392E-03
RMM:  14    -0.369139059764E+02   -0.82976E-04   -0.10673E-05  5949   0.176E-02    0.178E-03
RMM:  15    -0.369139154200E+02   -0.94436E-05   -0.15911E-06  5994   0.729E-03    0.120E-03
RMM:  16    -0.369139274113E+02   -0.11991E-04   -0.76348E-07  5928   0.559E-03    0.890E-04
RMM:  17    -0.369139319449E+02   -0.45335E-05   -0.51084E-08  6079   0.144E-03    0.675E-04
RMM:  18    -0.369139332044E+02   -0.12595E-05   -0.62268E-08  5928   0.186E-03    0.126E-04
RMM:  19    -0.369139338969E+02   -0.69256E-06   -0.94269E-09  6035   0.493E-04    0.169E-05
RMM:  20    -0.369139339464E+02   -0.49478E-07   -0.76871E-10  4515   0.139E-04    0.255E-05
RMM:  21    -0.369139339649E+02   -0.18513E-07   -0.26765E-10  4400   0.945E-05    0.554E-06
RMM:  22    -0.369139339649E+02    0.98908E-11   -0.12987E-11  3888   0.491E-05
   1 F= -.36913934E+02 E0= -.36913920E+02  d E =-.369139E+02
       N       E                     dE             d eps       ncg     rms          rms(c)
DAV:   1    -0.369139127356E+02    0.21229E-04   -0.19113E-03  6784   0.410E-01    0.853E-03
RMM:   2    -0.369139139055E+02   -0.11699E-05   -0.30729E-05  5943   0.492E-02    0.614E-03
RMM:   3    -0.369139130410E+02    0.86443E-06   -0.53260E-06  5961   0.186E-02    0.160E-03
RMM:   4    -0.369139129400E+02    0.10106E-06   -0.34511E-07  6099   0.468E-03    0.454E-04
RMM:   5    -0.369139129463E+02   -0.63618E-08   -0.26066E-08  6184   0.113E-03    0.210E-04
RMM:   6    -0.369139129440E+02    0.23171E-08   -0.39425E-09  6009   0.489E-04    0.178E-05
RMM:   7    -0.369139129443E+02   -0.30411E-09   -0.21761E-10  4180   0.114E-04    0.102E-05
RMM:   8    -0.369139129442E+02    0.13995E-09   -0.22918E-11  3758   0.523E-05    0.288E-06
RMM:   9    -0.369139129445E+02   -0.30457E-09   -0.12741E-11  3732   0.432E-05    0.285E-06
RMM:  10    -0.369139129447E+02   -0.17269E-09   -0.13949E-11  3362   0.354E-05    0.855E-07
RMM:  11    -0.369139129446E+02    0.17621E-10   -0.75721E-12  3131   0.303E-05
   2 F= -.36913913E+02 E0= -.36913902E+02  d E =0.210203E-04
       N       E                     dE             d eps       ncg     rms          rms(c)
DAV:   1    -0.369139353929E+02   -0.22448E-04   -0.12160E-03  6728   0.328E-01    0.683E-03
RMM:   2    -0.369139360438E+02   -0.65091E-06   -0.19079E-05  5940   0.392E-02    0.489E-03
RMM:   3    -0.369139354670E+02    0.57684E-06   -0.33391E-06  5956   0.147E-02    0.124E-03
RMM:   4    -0.369139354114E+02    0.55586E-07   -0.21062E-07  6105   0.367E-03    0.361E-04
RMM:   5    -0.369139354105E+02    0.86072E-09   -0.15697E-08  6175   0.888E-04    0.169E-04
RMM:   6    -0.369139354098E+02    0.75033E-09   -0.25117E-09  5970   0.391E-04    0.139E-05
RMM:   7    -0.369139354094E+02    0.32026E-09   -0.12820E-10  4039   0.926E-05    0.749E-06
RMM:   8    -0.369139354096E+02   -0.14631E-09   -0.21884E-11  3664   0.496E-05    0.253E-06
RMM:   9    -0.369139354102E+02   -0.64563E-09   -0.13491E-11  3710   0.425E-05    0.439E-06
RMM:  10    -0.369139354103E+02   -0.21487E-10   -0.59622E-12  3276   0.340E-05
   3 F= -.36913935E+02 E0= -.36913922E+02  d E =-.224656E-04
       N       E                     dE             d eps       ncg     rms          rms(c)
DAV:   1    -0.369139354097E+02    0.53819E-09    0.56803E-09  4652   0.409E-05    0.201E-06
RMM:   2    -0.369139354104E+02   -0.67757E-09   -0.12408E-13  1859   0.156E-05    0.125E-06
RMM:   3    -0.369139354100E+02    0.35834E-09   -0.12502E-12  1804   0.160E-05    0.731E-08
RMM:   4    -0.369139354103E+02   -0.25580E-09   -0.56718E-13  1761   0.158E-05    0.391E-08
RMM:   5    -0.369139354104E+02   -0.17462E-09   -0.79303E-13  1721   0.156E-05    0.301E-08
RMM:   6    -0.369139354103E+02    0.12699E-09    0.18302E-13  1664   0.151E-05    0.197E-08
RMM:   7    -0.369139354103E+02   -0.92086E-11    0.39031E-13  1651   0.148E-05
   4 F= -.36913935E+02 E0= -.36913922E+02  d E =-.721911E-10
       N       E                     dE             d eps       ncg     rms          rms(c)
DAV:   1    -0.369139354099E+02    0.39654E-09    0.56899E-09  4792   0.376E-05    0.473E-07
RMM:   2    -0.369139354103E+02   -0.33469E-09    0.17587E-13  1351   0.108E-05    0.292E-07
RMM:   3    -0.369139354103E+02   -0.21714E-10    0.43998E-15  1330   0.107E-05    0.944E-09
RMM:   4    -0.369139354103E+02   -0.20464E-11   -0.97987E-14  1292   0.107E-05    0.495E-09
RMM:   5    -0.369139354103E+02   -0.84128E-11   -0.19252E-13  1230   0.108E-05
   5 F= -.36913935E+02 E0= -.36913922E+02  d E =0.388809E-10
       N       E                     dE             d eps       ncg     rms          rms(c)
DAV:   1    -0.369139354095E+02    0.73635E-09    0.56968E-09  4732   0.279E-05    0.368E-07
RMM:   2    -0.369139354105E+02   -0.91381E-09   -0.41119E-15   857   0.810E-06    0.227E-07
RMM:   3    -0.369139354104E+02    0.81968E-10    0.21382E-14   900   0.794E-06    0.961E-09
RMM:   4    -0.369139354103E+02    0.44224E-10    0.80594E-15   985   0.794E-06    0.291E-09
RMM:   5    -0.369139354105E+02   -0.18861E-09   -0.43751E-14   938   0.794E-06    0.204E-09
RMM:   6    -0.369139354101E+02    0.40427E-09    0.67436E-15  1095   0.794E-06    0.869E-10
RMM:   7    -0.369139354103E+02   -0.15552E-09    0.00000E+00   736   0.794E-06    0.561E-10
RMM:   8    -0.369139354100E+02    0.23601E-09    0.00000E+00   903   0.794E-06    0.249E-10
RMM:   9    -0.369139354102E+02   -0.18235E-09    0.00000E+00   639   0.794E-06    0.278E-10
RMM:  10    -0.369139354103E+02   -0.12585E-09    0.00000E+00   485   0.794E-06    0.201E-10
RMM:  11    -0.369139354104E+02   -0.30127E-10    0.00000E+00   458   0.794E-06
   6 F= -.36913935E+02 E0= -.36913922E+02  d E =-.850378E-10
