<?xml version="1.0" encoding="ISO-8859-1"?>
<modeling>
 <generator>
  <i name="program" type="string">vasp </i>
  <i name="version" type="string">5.3.5  </i>
  <i name="subversion" type="string">31Mar14 (build Mar 02 2015 18:14:16) complex                          parallel </i>
  <i name="platform" type="string">LinuxIFC </i>
  <i name="date" type="string">2018 08 09 </i>
  <i name="time" type="string">15:01:31 </i>
 </generator>
 <incar>
  <i type="string" name="SYSTEM">  gr</i>
  <i type="string" name="PREC">accurate : accuracy</i>
  <i type="string" name="ALGO"> FAST.</i>
  <i type="int" name="NELM">   100</i>
  <i type="int" name="NELMDL">    -3</i>
  <i type="int" name="NELMIN">     5</i>
  <i type="int" name="IBRION">     1</i>
  <i name="EDIFF">      0.00000000</i>
  <i name="EDIFFG">     -0.00000100</i>
  <i type="int" name="NSW">   400</i>
  <i type="int" name="ISIF">     2</i>
  <i name="ENCUT">   2000.00000000</i>
  <i type="int" name="ISMEAR">     0</i>
  <i name="SIGMA">      0.05000000</i>
  <i type="int" name="NWRITE">     2</i>
  <i type="logical" name="LWAVE"> F  </i>
  <i type="logical" name="LCHARG"> F  </i>
  <i type="int" name="NELM">   100</i>
 </incar>
 <kpoints>
  <generation param="Gamma">
   <v type="int" name="divisions">      24       36        1 </v>
   <v name="usershift">      0.00000000       0.00000000       0.00000000 </v>
   <v name="genvec1">      0.04166667       0.00000000       0.00000000 </v>
   <v name="genvec2">      0.00000000       0.02777778       0.00000000 </v>
   <v name="genvec3">      0.00000000       0.00000000       1.00000000 </v>
   <v name="shift">      0.00000000       0.00000000       0.00000000 </v>
  </generation>
  <varray name="kpointlist" >
   <v>       0.00000000       0.00000000       0.00000000 </v>
   <v>       0.04166667       0.00000000       0.00000000 </v>
   <v>       0.08333333       0.00000000       0.00000000 </v>
   <v>       0.12500000       0.00000000       0.00000000 </v>
   <v>       0.16666667       0.00000000       0.00000000 </v>
   <v>       0.20833333       0.00000000       0.00000000 </v>
   <v>       0.25000000       0.00000000       0.00000000 </v>
   <v>       0.29166667       0.00000000       0.00000000 </v>
   <v>       0.33333333       0.00000000       0.00000000 </v>
   <v>       0.37500000       0.00000000       0.00000000 </v>
   <v>       0.41666667       0.00000000       0.00000000 </v>
   <v>       0.45833333       0.00000000       0.00000000 </v>
   <v>       0.50000000       0.00000000       0.00000000 </v>
   <v>       0.00000000       0.02777778       0.00000000 </v>
   <v>       0.04166667       0.02777778       0.00000000 </v>
   <v>       0.08333333       0.02777778       0.00000000 </v>
   <v>       0.12500000       0.02777778       0.00000000 </v>
   <v>       0.16666667       0.02777778       0.00000000 </v>
   <v>       0.20833333       0.02777778       0.00000000 </v>
   <v>       0.25000000       0.02777778       0.00000000 </v>
   <v>       0.29166667       0.02777778       0.00000000 </v>
   <v>       0.33333333       0.02777778       0.00000000 </v>
   <v>       0.37500000       0.02777778       0.00000000 </v>
   <v>       0.41666667       0.02777778       0.00000000 </v>
   <v>       0.45833333       0.02777778       0.00000000 </v>
   <v>       0.50000000       0.02777778       0.00000000 </v>
   <v>       0.00000000       0.05555556       0.00000000 </v>
   <v>       0.04166667       0.05555556       0.00000000 </v>
   <v>       0.08333333       0.05555556       0.00000000 </v>
   <v>       0.12500000       0.05555556       0.00000000 </v>
   <v>       0.16666667       0.05555556       0.00000000 </v>
   <v>       0.20833333       0.05555556       0.00000000 </v>
   <v>       0.25000000       0.05555556       0.00000000 </v>
   <v>       0.29166667       0.05555556       0.00000000 </v>
   <v>       0.33333333       0.05555556       0.00000000 </v>
   <v>       0.37500000       0.05555556       0.00000000 </v>
   <v>       0.41666667       0.05555556       0.00000000 </v>
   <v>       0.45833333       0.05555556       0.00000000 </v>
   <v>       0.50000000       0.05555556       0.00000000 </v>
   <v>       0.00000000       0.08333333       0.00000000 </v>
   <v>       0.04166667       0.08333333       0.00000000 </v>
   <v>       0.08333333       0.08333333       0.00000000 </v>
   <v>       0.12500000       0.08333333       0.00000000 </v>
   <v>       0.16666667       0.08333333       0.00000000 </v>
   <v>       0.20833333       0.08333333       0.00000000 </v>
   <v>       0.25000000       0.08333333       0.00000000 </v>
   <v>       0.29166667       0.08333333       0.00000000 </v>
   <v>       0.33333333       0.08333333       0.00000000 </v>
   <v>       0.37500000       0.08333333       0.00000000 </v>
   <v>       0.41666667       0.08333333       0.00000000 </v>
   <v>       0.45833333       0.08333333       0.00000000 </v>
   <v>       0.50000000       0.08333333       0.00000000 </v>
   <v>       0.00000000       0.11111111       0.00000000 </v>
   <v>       0.04166667       0.11111111       0.00000000 </v>
   <v>       0.08333333       0.11111111       0.00000000 </v>
   <v>       0.12500000       0.11111111       0.00000000 </v>
   <v>       0.16666667       0.11111111       0.00000000 </v>
   <v>       0.20833333       0.11111111       0.00000000 </v>
   <v>       0.25000000       0.11111111       0.00000000 </v>
   <v>       0.29166667       0.11111111       0.00000000 </v>
   <v>       0.33333333       0.11111111       0.00000000 </v>
   <v>       0.37500000       0.11111111       0.00000000 </v>
   <v>       0.41666667       0.11111111       0.00000000 </v>
   <v>       0.45833333       0.11111111       0.00000000 </v>
   <v>       0.50000000       0.11111111       0.00000000 </v>
   <v>       0.00000000       0.13888889       0.00000000 </v>
   <v>       0.04166667       0.13888889       0.00000000 </v>
   <v>       0.08333333       0.13888889       0.00000000 </v>
   <v>       0.12500000       0.13888889       0.00000000 </v>
   <v>       0.16666667       0.13888889       0.00000000 </v>
   <v>       0.20833333       0.13888889       0.00000000 </v>
   <v>       0.25000000       0.13888889       0.00000000 </v>
   <v>       0.29166667       0.13888889       0.00000000 </v>
   <v>       0.33333333       0.13888889       0.00000000 </v>
   <v>       0.37500000       0.13888889       0.00000000 </v>
   <v>       0.41666667       0.13888889       0.00000000 </v>
   <v>       0.45833333       0.13888889       0.00000000 </v>
   <v>       0.50000000       0.13888889       0.00000000 </v>
   <v>       0.00000000       0.16666667       0.00000000 </v>
   <v>       0.04166667       0.16666667       0.00000000 </v>
   <v>       0.08333333       0.16666667       0.00000000 </v>
   <v>       0.12500000       0.16666667       0.00000000 </v>
   <v>       0.16666667       0.16666667       0.00000000 </v>
   <v>       0.20833333       0.16666667       0.00000000 </v>
   <v>       0.25000000       0.16666667       0.00000000 </v>
   <v>       0.29166667       0.16666667       0.00000000 </v>
   <v>       0.33333333       0.16666667       0.00000000 </v>
   <v>       0.37500000       0.16666667       0.00000000 </v>
   <v>       0.41666667       0.16666667       0.00000000 </v>
   <v>       0.45833333       0.16666667       0.00000000 </v>
   <v>       0.50000000       0.16666667       0.00000000 </v>
   <v>       0.00000000       0.19444444       0.00000000 </v>
   <v>       0.04166667       0.19444444       0.00000000 </v>
   <v>       0.08333333       0.19444444       0.00000000 </v>
   <v>       0.12500000       0.19444444       0.00000000 </v>
   <v>       0.16666667       0.19444444       0.00000000 </v>
   <v>       0.20833333       0.19444444       0.00000000 </v>
   <v>       0.25000000       0.19444444       0.00000000 </v>
   <v>       0.29166667       0.19444444       0.00000000 </v>
   <v>       0.33333333       0.19444444       0.00000000 </v>
   <v>       0.37500000       0.19444444       0.00000000 </v>
   <v>       0.41666667       0.19444444       0.00000000 </v>
   <v>       0.45833333       0.19444444       0.00000000 </v>
   <v>       0.50000000       0.19444444       0.00000000 </v>
   <v>       0.00000000       0.22222222       0.00000000 </v>
   <v>       0.04166667       0.22222222       0.00000000 </v>
   <v>       0.08333333       0.22222222       0.00000000 </v>
   <v>       0.12500000       0.22222222       0.00000000 </v>
   <v>       0.16666667       0.22222222       0.00000000 </v>
   <v>       0.20833333       0.22222222       0.00000000 </v>
   <v>       0.25000000       0.22222222       0.00000000 </v>
   <v>       0.29166667       0.22222222       0.00000000 </v>
   <v>       0.33333333       0.22222222       0.00000000 </v>
   <v>       0.37500000       0.22222222       0.00000000 </v>
   <v>       0.41666667       0.22222222       0.00000000 </v>
   <v>       0.45833333       0.22222222       0.00000000 </v>
   <v>       0.50000000       0.22222222       0.00000000 </v>
   <v>       0.00000000       0.25000000       0.00000000 </v>
   <v>       0.04166667       0.25000000       0.00000000 </v>
   <v>       0.08333333       0.25000000       0.00000000 </v>
   <v>       0.12500000       0.25000000       0.00000000 </v>
   <v>       0.16666667       0.25000000       0.00000000 </v>
   <v>       0.20833333       0.25000000       0.00000000 </v>
   <v>       0.25000000       0.25000000       0.00000000 </v>
   <v>       0.29166667       0.25000000       0.00000000 </v>
   <v>       0.33333333       0.25000000       0.00000000 </v>
   <v>       0.37500000       0.25000000       0.00000000 </v>
   <v>       0.41666667       0.25000000       0.00000000 </v>
   <v>       0.45833333       0.25000000       0.00000000 </v>
   <v>       0.50000000       0.25000000       0.00000000 </v>
   <v>       0.00000000       0.27777778       0.00000000 </v>
   <v>       0.04166667       0.27777778       0.00000000 </v>
   <v>       0.08333333       0.27777778       0.00000000 </v>
   <v>       0.12500000       0.27777778       0.00000000 </v>
   <v>       0.16666667       0.27777778       0.00000000 </v>
   <v>       0.20833333       0.27777778       0.00000000 </v>
   <v>       0.25000000       0.27777778       0.00000000 </v>
   <v>       0.29166667       0.27777778       0.00000000 </v>
   <v>       0.33333333       0.27777778       0.00000000 </v>
   <v>       0.37500000       0.27777778       0.00000000 </v>
   <v>       0.41666667       0.27777778       0.00000000 </v>
   <v>       0.45833333       0.27777778       0.00000000 </v>
   <v>       0.50000000       0.27777778       0.00000000 </v>
   <v>       0.00000000       0.30555556       0.00000000 </v>
   <v>       0.04166667       0.30555556       0.00000000 </v>
   <v>       0.08333333       0.30555556       0.00000000 </v>
   <v>       0.12500000       0.30555556       0.00000000 </v>
   <v>       0.16666667       0.30555556       0.00000000 </v>
   <v>       0.20833333       0.30555556       0.00000000 </v>
   <v>       0.25000000       0.30555556       0.00000000 </v>
   <v>       0.29166667       0.30555556       0.00000000 </v>
   <v>       0.33333333       0.30555556       0.00000000 </v>
   <v>       0.37500000       0.30555556       0.00000000 </v>
   <v>       0.41666667       0.30555556       0.00000000 </v>
   <v>       0.45833333       0.30555556       0.00000000 </v>
   <v>       0.50000000       0.30555556       0.00000000 </v>
   <v>       0.00000000       0.33333333       0.00000000 </v>
   <v>       0.04166667       0.33333333       0.00000000 </v>
   <v>       0.08333333       0.33333333       0.00000000 </v>
   <v>       0.12500000       0.33333333       0.00000000 </v>
   <v>       0.16666667       0.33333333       0.00000000 </v>
   <v>       0.20833333       0.33333333       0.00000000 </v>
   <v>       0.25000000       0.33333333       0.00000000 </v>
   <v>       0.29166667       0.33333333       0.00000000 </v>
   <v>       0.33333333       0.33333333       0.00000000 </v>
   <v>       0.37500000       0.33333333       0.00000000 </v>
   <v>       0.41666667       0.33333333       0.00000000 </v>
   <v>       0.45833333       0.33333333       0.00000000 </v>
   <v>       0.50000000       0.33333333       0.00000000 </v>
   <v>       0.00000000       0.36111111       0.00000000 </v>
   <v>       0.04166667       0.36111111       0.00000000 </v>
   <v>       0.08333333       0.36111111       0.00000000 </v>
   <v>       0.12500000       0.36111111       0.00000000 </v>
   <v>       0.16666667       0.36111111       0.00000000 </v>
   <v>       0.20833333       0.36111111       0.00000000 </v>
   <v>       0.25000000       0.36111111       0.00000000 </v>
   <v>       0.29166667       0.36111111       0.00000000 </v>
   <v>       0.33333333       0.36111111       0.00000000 </v>
   <v>       0.37500000       0.36111111       0.00000000 </v>
   <v>       0.41666667       0.36111111       0.00000000 </v>
   <v>       0.45833333       0.36111111       0.00000000 </v>
   <v>       0.50000000       0.36111111       0.00000000 </v>
   <v>       0.00000000       0.38888889       0.00000000 </v>
   <v>       0.04166667       0.38888889       0.00000000 </v>
   <v>       0.08333333       0.38888889       0.00000000 </v>
   <v>       0.12500000       0.38888889       0.00000000 </v>
   <v>       0.16666667       0.38888889       0.00000000 </v>
   <v>       0.20833333       0.38888889       0.00000000 </v>
   <v>       0.25000000       0.38888889       0.00000000 </v>
   <v>       0.29166667       0.38888889       0.00000000 </v>
   <v>       0.33333333       0.38888889       0.00000000 </v>
   <v>       0.37500000       0.38888889       0.00000000 </v>
   <v>       0.41666667       0.38888889       0.00000000 </v>
   <v>       0.45833333       0.38888889       0.00000000 </v>
   <v>       0.50000000       0.38888889       0.00000000 </v>
   <v>       0.00000000       0.41666667       0.00000000 </v>
   <v>       0.04166667       0.41666667       0.00000000 </v>
   <v>       0.08333333       0.41666667       0.00000000 </v>
   <v>       0.12500000       0.41666667       0.00000000 </v>
   <v>       0.16666667       0.41666667       0.00000000 </v>
   <v>       0.20833333       0.41666667       0.00000000 </v>
   <v>       0.25000000       0.41666667       0.00000000 </v>
   <v>       0.29166667       0.41666667       0.00000000 </v>
   <v>       0.33333333       0.41666667       0.00000000 </v>
   <v>       0.37500000       0.41666667       0.00000000 </v>
   <v>       0.41666667       0.41666667       0.00000000 </v>
   <v>       0.45833333       0.41666667       0.00000000 </v>
   <v>       0.50000000       0.41666667       0.00000000 </v>
   <v>       0.00000000       0.44444444       0.00000000 </v>
   <v>       0.04166667       0.44444444       0.00000000 </v>
   <v>       0.08333333       0.44444444       0.00000000 </v>
   <v>       0.12500000       0.44444444       0.00000000 </v>
   <v>       0.16666667       0.44444444       0.00000000 </v>
   <v>       0.20833333       0.44444444       0.00000000 </v>
   <v>       0.25000000       0.44444444       0.00000000 </v>
   <v>       0.29166667       0.44444444       0.00000000 </v>
   <v>       0.33333333       0.44444444       0.00000000 </v>
   <v>       0.37500000       0.44444444       0.00000000 </v>
   <v>       0.41666667       0.44444444       0.00000000 </v>
   <v>       0.45833333       0.44444444       0.00000000 </v>
   <v>       0.50000000       0.44444444       0.00000000 </v>
   <v>       0.00000000       0.47222222       0.00000000 </v>
   <v>       0.04166667       0.47222222       0.00000000 </v>
   <v>       0.08333333       0.47222222       0.00000000 </v>
   <v>       0.12500000       0.47222222       0.00000000 </v>
   <v>       0.16666667       0.47222222       0.00000000 </v>
   <v>       0.20833333       0.47222222       0.00000000 </v>
   <v>       0.25000000       0.47222222       0.00000000 </v>
   <v>       0.29166667       0.47222222       0.00000000 </v>
   <v>       0.33333333       0.47222222       0.00000000 </v>
   <v>       0.37500000       0.47222222       0.00000000 </v>
   <v>       0.41666667       0.47222222       0.00000000 </v>
   <v>       0.45833333       0.47222222       0.00000000 </v>
   <v>       0.50000000       0.47222222       0.00000000 </v>
   <v>       0.00000000       0.50000000       0.00000000 </v>
   <v>       0.04166667       0.50000000       0.00000000 </v>
   <v>       0.08333333       0.50000000       0.00000000 </v>
   <v>       0.12500000       0.50000000       0.00000000 </v>
   <v>       0.16666667       0.50000000       0.00000000 </v>
   <v>       0.20833333       0.50000000       0.00000000 </v>
   <v>       0.25000000       0.50000000       0.00000000 </v>
   <v>       0.29166667       0.50000000       0.00000000 </v>
   <v>       0.33333333       0.50000000       0.00000000 </v>
   <v>       0.37500000       0.50000000       0.00000000 </v>
   <v>       0.41666667       0.50000000       0.00000000 </v>
   <v>       0.45833333       0.50000000       0.00000000 </v>
   <v>       0.50000000       0.50000000       0.00000000 </v>
  </varray>
  <varray name="weights" >
   <v>       0.00115741 </v>
   <v>       0.00231481 </v>
   <v>       0.00231481 </v>
   <v>       0.00231481 </v>
   <v>       0.00231481 </v>
   <v>       0.00231481 </v>
   <v>       0.00231481 </v>
   <v>       0.00231481 </v>
   <v>       0.00231481 </v>
   <v>       0.00231481 </v>
   <v>       0.00231481 </v>
   <v>       0.00231481 </v>
   <v>       0.00115741 </v>
   <v>       0.00231481 </v>
   <v>       0.00462963 </v>
   <v>       0.00462963 </v>
   <v>       0.00462963 </v>
   <v>       0.00462963 </v>
   <v>       0.00462963 </v>
   <v>       0.00462963 </v>
   <v>       0.00462963 </v>
   <v>       0.00462963 </v>
   <v>       0.00462963 </v>
   <v>       0.00462963 </v>
   <v>       0.00462963 </v>
   <v>       0.00231481 </v>
   <v>       0.00231481 </v>
   <v>       0.00462963 </v>
   <v>       0.00462963 </v>
   <v>       0.00462963 </v>
   <v>       0.00462963 </v>
   <v>       0.00462963 </v>
   <v>       0.00462963 </v>
   <v>       0.00462963 </v>
   <v>       0.00462963 </v>
   <v>       0.00462963 </v>
   <v>       0.00462963 </v>
   <v>       0.00462963 </v>
   <v>       0.00231481 </v>
   <v>       0.00231481 </v>
   <v>       0.00462963 </v>
   <v>       0.00462963 </v>
   <v>       0.00462963 </v>
   <v>       0.00462963 </v>
   <v>       0.00462963 </v>
   <v>       0.00462963 </v>
   <v>       0.00462963 </v>
   <v>       0.00462963 </v>
   <v>       0.00462963 </v>
   <v>       0.00462963 </v>
   <v>       0.00462963 </v>
   <v>       0.00231481 </v>
   <v>       0.00231481 </v>
   <v>       0.00462963 </v>
   <v>       0.00462963 </v>
   <v>       0.00462963 </v>
   <v>       0.00462963 </v>
   <v>       0.00462963 </v>
   <v>       0.00462963 </v>
   <v>       0.00462963 </v>
   <v>       0.00462963 </v>
   <v>       0.00462963 </v>
   <v>       0.00462963 </v>
   <v>       0.00462963 </v>
   <v>       0.00231481 </v>
   <v>       0.00231481 </v>
   <v>       0.00462963 </v>
   <v>       0.00462963 </v>
   <v>       0.00462963 </v>
   <v>       0.00462963 </v>
   <v>       0.00462963 </v>
   <v>       0.00462963 </v>
   <v>       0.00462963 </v>
   <v>       0.00462963 </v>
   <v>       0.00462963 </v>
   <v>       0.00462963 </v>
   <v>       0.00462963 </v>
   <v>       0.00231481 </v>
   <v>       0.00231481 </v>
   <v>       0.00462963 </v>
   <v>       0.00462963 </v>
   <v>       0.00462963 </v>
   <v>       0.00462963 </v>
   <v>       0.00462963 </v>
   <v>       0.00462963 </v>
   <v>       0.00462963 </v>
   <v>       0.00462963 </v>
   <v>       0.00462963 </v>
   <v>       0.00462963 </v>
   <v>       0.00462963 </v>
   <v>       0.00231481 </v>
   <v>       0.00231481 </v>
   <v>       0.00462963 </v>
   <v>       0.00462963 </v>
   <v>       0.00462963 </v>
   <v>       0.00462963 </v>
   <v>       0.00462963 </v>
   <v>       0.00462963 </v>
   <v>       0.00462963 </v>
   <v>       0.00462963 </v>
   <v>       0.00462963 </v>
   <v>       0.00462963 </v>
   <v>       0.00462963 </v>
   <v>       0.00231481 </v>
   <v>       0.00231481 </v>
   <v>       0.00462963 </v>
   <v>       0.00462963 </v>
   <v>       0.00462963 </v>
   <v>       0.00462963 </v>
   <v>       0.00462963 </v>
   <v>       0.00462963 </v>
   <v>       0.00462963 </v>
   <v>       0.00462963 </v>
   <v>       0.00462963 </v>
   <v>       0.00462963 </v>
   <v>       0.00462963 </v>
   <v>       0.00231481 </v>
   <v>       0.00231481 </v>
   <v>       0.00462963 </v>
   <v>       0.00462963 </v>
   <v>       0.00462963 </v>
   <v>       0.00462963 </v>
   <v>       0.00462963 </v>
   <v>       0.00462963 </v>
   <v>       0.00462963 </v>
   <v>       0.00462963 </v>
   <v>       0.00462963 </v>
   <v>       0.00462963 </v>
   <v>       0.00462963 </v>
   <v>       0.00231481 </v>
   <v>       0.00231481 </v>
   <v>       0.00462963 </v>
   <v>       0.00462963 </v>
   <v>       0.00462963 </v>
   <v>       0.00462963 </v>
   <v>       0.00462963 </v>
   <v>       0.00462963 </v>
   <v>       0.00462963 </v>
   <v>       0.00462963 </v>
   <v>       0.00462963 </v>
   <v>       0.00462963 </v>
   <v>       0.00462963 </v>
   <v>       0.00231481 </v>
   <v>       0.00231481 </v>
   <v>       0.00462963 </v>
   <v>       0.00462963 </v>
   <v>       0.00462963 </v>
   <v>       0.00462963 </v>
   <v>       0.00462963 </v>
   <v>       0.00462963 </v>
   <v>       0.00462963 </v>
   <v>       0.00462963 </v>
   <v>       0.00462963 </v>
   <v>       0.00462963 </v>
   <v>       0.00462963 </v>
   <v>       0.00231481 </v>
   <v>       0.00231481 </v>
   <v>       0.00462963 </v>
   <v>       0.00462963 </v>
   <v>       0.00462963 </v>
   <v>       0.00462963 </v>
   <v>       0.00462963 </v>
   <v>       0.00462963 </v>
   <v>       0.00462963 </v>
   <v>       0.00462963 </v>
   <v>       0.00462963 </v>
   <v>       0.00462963 </v>
   <v>       0.00462963 </v>
   <v>       0.00231481 </v>
   <v>       0.00231481 </v>
   <v>       0.00462963 </v>
   <v>       0.00462963 </v>
   <v>       0.00462963 </v>
   <v>       0.00462963 </v>
   <v>       0.00462963 </v>
   <v>       0.00462963 </v>
   <v>       0.00462963 </v>
   <v>       0.00462963 </v>
   <v>       0.00462963 </v>
   <v>       0.00462963 </v>
   <v>       0.00462963 </v>
   <v>       0.00231481 </v>
   <v>       0.00231481 </v>
   <v>       0.00462963 </v>
   <v>       0.00462963 </v>
   <v>       0.00462963 </v>
   <v>       0.00462963 </v>
   <v>       0.00462963 </v>
   <v>       0.00462963 </v>
   <v>       0.00462963 </v>
   <v>       0.00462963 </v>
   <v>       0.00462963 </v>
   <v>       0.00462963 </v>
   <v>       0.00462963 </v>
   <v>       0.00231481 </v>
   <v>       0.00231481 </v>
   <v>       0.00462963 </v>
   <v>       0.00462963 </v>
   <v>       0.00462963 </v>
   <v>       0.00462963 </v>
   <v>       0.00462963 </v>
   <v>       0.00462963 </v>
   <v>       0.00462963 </v>
   <v>       0.00462963 </v>
   <v>       0.00462963 </v>
   <v>       0.00462963 </v>
   <v>       0.00462963 </v>
   <v>       0.00231481 </v>
   <v>       0.00231481 </v>
   <v>       0.00462963 </v>
   <v>       0.00462963 </v>
   <v>       0.00462963 </v>
   <v>       0.00462963 </v>
   <v>       0.00462963 </v>
   <v>       0.00462963 </v>
   <v>       0.00462963 </v>
   <v>       0.00462963 </v>
   <v>       0.00462963 </v>
   <v>       0.00462963 </v>
   <v>       0.00462963 </v>
   <v>       0.00231481 </v>
   <v>       0.00231481 </v>
   <v>       0.00462963 </v>
   <v>       0.00462963 </v>
   <v>       0.00462963 </v>
   <v>       0.00462963 </v>
   <v>       0.00462963 </v>
   <v>       0.00462963 </v>
   <v>       0.00462963 </v>
   <v>       0.00462963 </v>
   <v>       0.00462963 </v>
   <v>       0.00462963 </v>
   <v>       0.00462963 </v>
   <v>       0.00231481 </v>
   <v>       0.00115741 </v>
   <v>       0.00231481 </v>
   <v>       0.00231481 </v>
   <v>       0.00231481 </v>
   <v>       0.00231481 </v>
   <v>       0.00231481 </v>
   <v>       0.00231481 </v>
   <v>       0.00231481 </v>
   <v>       0.00231481 </v>
   <v>       0.00231481 </v>
   <v>       0.00231481 </v>
   <v>       0.00231481 </v>
   <v>       0.00115741 </v>
  </varray>
 </kpoints>
 <parameters>
  <separator name="general" >
   <i type="string" name="SYSTEM">gr</i>
   <i type="logical" name="LCOMPAT"> F  </i>
  </separator>
  <separator name="electronic" >
   <i type="string" name="PREC">accura</i>
   <i name="ENMAX">   2000.00000000</i>
   <i name="ENAUG">    644.87300000</i>
   <i name="EDIFF">      0.00000000</i>
   <i type="int" name="IALGO">    68</i>
   <i type="int" name="IWAVPR">    11</i>
   <i type="int" name="NBANDS">    12</i>
   <i name="NELECT">     16.00000000</i>
   <i type="int" name="TURBO">     0</i>
   <i type="int" name="IRESTART">     0</i>
   <i type="int" name="NREBOOT">     0</i>
   <i type="int" name="NMIN">     0</i>
   <i name="EREF">      0.00000000</i>
   <separator name="electronic smearing" >
    <i type="int" name="ISMEAR">     0</i>
    <i name="SIGMA">      0.05000000</i>
    <i name="KSPACING">      0.50000000</i>
    <i type="logical" name="KGAMMA"> T  </i>
   </separator>
   <separator name="electronic projectors" >
    <i type="logical" name="LREAL"> F  </i>
    <v name="ROPT">      0.00000000</v>
    <i type="int" name="LMAXPAW">  -100</i>
    <i type="int" name="LMAXMIX">     2</i>
    <i type="logical" name="NLSPLINE"> F  </i>
   </separator>
   <separator name="electronic startup" >
    <i type="int" name="ISTART">     0</i>
    <i type="int" name="ICHARG">     2</i>
    <i type="int" name="INIWAV">     1</i>
   </separator>
   <separator name="electronic spin" >
    <i type="int" name="ISPIN">     1</i>
    <i type="logical" name="LNONCOLLINEAR"> F  </i>
    <v name="MAGMOM">      1.00000000      1.00000000      1.00000000      1.00000000</v>
    <i name="NUPDOWN">     -1.00000000</i>
    <i type="logical" name="LSORBIT"> F  </i>
    <v name="SAXIS">      0.00000000      0.00000000      1.00000000</v>
    <i type="logical" name="LSPIRAL"> F  </i>
    <v name="QSPIRAL">      0.00000000      0.00000000      0.00000000</v>
    <i type="logical" name="LZEROZ"> F  </i>
   </separator>
   <separator name="electronic exchange-correlation" >
    <i type="logical" name="LASPH"> F  </i>
    <i type="logical" name="LMETAGGA"> F  </i>
   </separator>
   <separator name="electronic convergence" >
    <i type="int" name="NELM">   100</i>
    <i type="int" name="NELMDL">    -3</i>
    <i type="int" name="NELMIN">     5</i>
    <i name="ENINI">   2000.00000000</i>
    <separator name="electronic convergence detail" >
     <i type="logical" name="LDIAG"> T  </i>
     <i type="logical" name="LSUBROT"> F  </i>
     <i name="WEIMIN">      0.00100000</i>
     <i name="EBREAK">      0.00000000</i>
     <i name="DEPER">      0.30000000</i>
     <i type="int" name="NRMM">     4</i>
     <i name="TIME">      0.40000000</i>
    </separator>
   </separator>
   <separator name="electronic mixer" >
    <i name="AMIX">      0.40000000</i>
    <i name="BMIX">      1.00000000</i>
    <i name="AMIN">      0.10000000</i>
    <i name="AMIX_MAG">      1.60000000</i>
    <i name="BMIX_MAG">      1.00000000</i>
    <separator name="electronic mixer details" >
     <i type="int" name="IMIX">     4</i>
     <i type="int" name="MAXMIX">   -45</i>
     <i name="WC">    100.00000000</i>
     <i type="int" name="INIMIX">     1</i>
     <i type="int" name="MIXPRE">     1</i>
     <i type="int" name="MREMOVE">     5</i>
    </separator>
   </separator>
   <separator name="electronic dipolcorrection" >
    <i type="logical" name="LDIPOL"> F  </i>
    <i type="logical" name="LMONO"> F  </i>
    <i type="int" name="IDIPOL">     0</i>
    <i name="EPSILON">      1.00000000</i>
    <v name="DIPOL">   -100.00000000   -100.00000000   -100.00000000</v>
    <i name="EFIELD">      0.00000000</i>
   </separator>
  </separator>
  <separator name="grids" >
   <i type="int" name="NGX">    64</i>
   <i type="int" name="NGY">    36</i>
   <i type="int" name="NGZ">   294</i>
   <i type="int" name="NGXF">   128</i>
   <i type="int" name="NGYF">    72</i>
   <i type="int" name="NGZF">   588</i>
   <i type="logical" name="ADDGRID"> F  </i>
  </separator>
  <separator name="ionic" >
   <i type="int" name="NSW">   400</i>
   <i type="int" name="IBRION">     1</i>
   <i type="int" name="ISIF">     2</i>
   <i name="PSTRESS">      0.00000000</i>
   <i name="EDIFFG">     -0.00000100</i>
   <i type="int" name="NFREE">     0</i>
   <i name="POTIM">      0.50000000</i>
   <i name="SMASS">     -3.00000000</i>
   <i name="SCALEE">      1.00000000</i>
  </separator>
  <separator name="ionic md" >
   <i name="TEBEG">      0.00010000</i>
   <i name="TEEND">      0.00010000</i>
   <i type="int" name="NBLOCK">     1</i>
   <i type="int" name="KBLOCK">   400</i>
   <i type="int" name="NPACO">   256</i>
   <i name="APACO">     16.00000000</i>
  </separator>
  <separator name="symmetry" >
   <i type="int" name="ISYM">     2</i>
   <i name="SYMPREC">      0.00001000</i>
  </separator>
  <separator name="dos" >
   <i type="logical" name="LORBIT"> F  </i>
   <v name="RWIGS">     -1.00000000</v>
   <i type="int" name="NEDOS">   301</i>
   <i name="EMIN">     10.00000000</i>
   <i name="EMAX">    -10.00000000</i>
   <i name="EFERMI">      0.00000000</i>
  </separator>
  <separator name="writing" >
   <i type="int" name="NWRITE">     2</i>
   <i type="logical" name="LWAVE"> F  </i>
   <i type="logical" name="LCHARG"> F  </i>
   <i type="logical" name="LPARD"> F  </i>
   <i type="logical" name="LVTOT"> F  </i>
   <i type="logical" name="LVHAR"> F  </i>
   <i type="logical" name="LELF"> F  </i>
   <i type="logical" name="LOPTICS"> F  </i>
   <v name="STM">      0.00000000      0.00000000      0.00000000      0.00000000      0.00000000      0.00000000      0.00000000</v>
  </separator>
  <separator name="performance" >
   <i type="int" name="NPAR">     4</i>
   <i type="int" name="NSIM">     4</i>
   <i type="int" name="NBLK">    -1</i>
   <i type="logical" name="LPLANE"> T  </i>
   <i type="logical" name="LSCALAPACK"> F  </i>
   <i type="logical" name="LSCAAWARE"> F  </i>
   <i type="logical" name="LSCALU"> F  </i>
   <i type="logical" name="LASYNC"> F  </i>
   <i type="logical" name="LORBITALREAL"> F  </i>
  </separator>
  <separator name="miscellaneous" >
   <i type="int" name="IDIOT">     3</i>
   <i type="logical" name="LMUSIC"> F  </i>
   <v name="POMASS">     12.01100000</v>
   <v name="DARWINR">      0.00000000</v>
   <v name="DARWINV">      1.00000000</v>
   <i type="logical" name="LCORR"> T  </i>
  </separator>
  <i type="logical" name="GGA_COMPAT"> T  </i>
  <i type="logical" name="LBERRY"> F  </i>
  <i type="int" name="ICORELEVEL">     0</i>
  <i type="logical" name="LDAU"> F  </i>
  <i type="int" name="I_CONSTRAINED_M">     0</i>
  <separator name="electronic exchange-correlation" >
   <i type="string" name="GGA">--</i>
   <i type="int" name="VOSKOWN">     0</i>
   <i type="logical" name="LHFCALC"> F  </i>
   <i type="string" name="PRECFOCK"></i>
   <i type="logical" name="LSYMGRAD"> F  </i>
   <i type="logical" name="LHFONE"> F  </i>
   <i type="logical" name="LRHFCALC"> F  </i>
   <i type="logical" name="LTHOMAS"> F  </i>
   <i type="logical" name="LMODELHF"> F  </i>
   <i name="ENCUT4O">     -1.00000000</i>
   <i type="int" name="EXXOEP">     0</i>
   <i type="int" name="FOURORBIT">     0</i>
   <i name="AEXX">      0.00000000</i>
   <i name="HFALPHA">      0.00000000</i>
   <i name="MCALPHA">      0.00000000</i>
   <i name="ALDAX">      1.00000000</i>
   <i name="AGGAX">      1.00000000</i>
   <i name="ALDAC">      1.00000000</i>
   <i name="AGGAC">      1.00000000</i>
   <i type="int" name="NKREDX">     1</i>
   <i type="int" name="NKREDY">     1</i>
   <i type="int" name="NKREDZ">     1</i>
   <i type="logical" name="SHIFTRED"> F  </i>
   <i type="logical" name="ODDONLY"> F  </i>
   <i type="logical" name="EVENONLY"> F  </i>
   <i type="int" name="LMAXFOCK">     0</i>
   <i type="int" name="NMAXFOCKAE">     0</i>
   <i type="logical" name="LFOCKAEDFT"> F  </i>
   <i name="HFSCREEN">      0.00000000</i>
   <i name="HFSCREENC">      0.00000000</i>
   <i type="int" name="NBANDSGWLOW">     0</i>
  </separator>
  <separator name="vdW DFT" >
   <i type="logical" name="LUSE_VDW"> F  </i>
   <i name="Zab_VDW">     -0.84910000</i>
   <i name="PARAM1">      0.12340000</i>
   <i name="PARAM2">      1.00000000</i>
   <i name="PARAM3">      0.00000000</i>
  </separator>
  <separator name="model GW" >
   <i type="int" name="MODEL_GW">     0</i>
   <i name="MODEL_EPS0">     31.62568521</i>
   <i name="MODEL_ALPHA">      1.00000000</i>
  </separator>
  <separator name="linear response parameters" >
   <i type="logical" name="LEPSILON"> F  </i>
   <i type="logical" name="LRPA"> F  </i>
   <i type="logical" name="LNABLA"> F  </i>
   <i type="logical" name="LVEL"> F  </i>
   <i type="int" name="KINTER">     0</i>
   <i name="CSHIFT">      0.10000000</i>
   <i name="OMEGAMAX">     -1.00000000</i>
   <i name="DEG_THRESHOLD">      0.00200000</i>
  </separator>
  <separator name="orbital magnetization" >
   <i type="logical" name="NUCIND"> F  </i>
   <v name="MAGPOS">      0.00000000      0.00000000      0.00000000</v>
   <i type="logical" name="LNICSALL"> T  </i>
   <i type="logical" name="ORBITALMAG"> F  </i>
   <i type="logical" name="LMAGBLOCH"> F  </i>
   <i type="logical" name="LCHIMAG"> F  </i>
   <i type="logical" name="LGAUGE"> T  </i>
   <i type="int" name="MAGATOM">     0</i>
   <v name="MAGDIPOL">      0.00000000      0.00000000      0.00000000</v>
   <v name="AVECCONST">      0.00000000      0.00000000      0.00000000</v>
  </separator>
  <separator name="response functions" >
   <i type="logical" name="LADDER"> F  </i>
   <i type="logical" name="LFXC"> F  </i>
   <i type="logical" name="LHARTREE"> T  </i>
   <i type="int" name="IBSE">     0</i>
   <i type="logical" name="LTCTE"> F  </i>
   <i type="logical" name="LTETE"> F  </i>
   <i type="logical" name="LTRIPLET"> F  </i>
   <i type="logical" name="LFXCEPS"> F  </i>
   <i type="logical" name="LFXHEG"> F  </i>
   <i type="logical" name="L2ORDER"> F  </i>
   <i type="logical" name="LUSEW"> F  </i>
   <i name="ENCUTGW">     -2.00000000</i>
   <i name="ENCUTGWSOFT">     -2.00000000</i>
   <i name="ENCUTLF">     -1.00000000</i>
   <i type="int" name="LMAXMP2">    -1</i>
   <i name="SCISSOR">      0.00000000</i>
   <i type="int" name="NOMEGA">     0</i>
   <i type="int" name="NOMEGAR">     0</i>
   <i type="int" name="NBANDSGW">    -1</i>
   <i type="int" name="NBANDSO">    -1</i>
   <i type="int" name="NBANDSV">    -1</i>
   <i type="int" name="NELM">   100</i>
   <i type="int" name="DIM">     3</i>
   <i type="int" name="ANTIRES">     0</i>
   <i name="OMEGAMAX">    -30.00000000</i>
   <i name="OMEGAMIN">    -30.00000000</i>
   <i name="OMEGATL">   -200.00000000</i>
   <i type="int" name="OMEGAGRID">     0</i>
   <i name="CSHIFT">     -0.10000000</i>
   <i type="logical" name="SELFENERGY"> F  </i>
   <i type="logical" name="LSPECTRAL"> F  </i>
   <i type="logical" name="ODDONLYGW"> F  </i>
   <i type="logical" name="EVENONLYGW"> F  </i>
   <i type="int" name="NKREDLFX">     1</i>
   <i type="int" name="NKREDLFY">     1</i>
   <i type="int" name="NKREDLFZ">     1</i>
   <i type="int" name="MAXMEM">  1800</i>
   <i type="int" name="TELESCOPE">     0</i>
   <i type="int" name="TAUPAR">     1</i>
  </separator>
  <separator name="External order field" >
   <i name="OFIELD_KAPPA">      0.00000000</i>
   <v name="OFIELD_K">      0.00000000      0.00000000      0.00000000</v>
   <i name="OFIELD_Q6_NEAR">      0.00000000</i>
   <i name="OFIELD_Q6_FAR">      0.00000000</i>
   <i name="OFIELD_A">      0.00000000</i>
  </separator>
 </parameters>
 <atominfo>
  <atoms>       4 </atoms>
  <types>       1 </types>
  <array name="atoms" >
   <dimension dim="1">ion</dimension>
   <field type="string">element</field>
   <field type="int">atomtype</field>
   <set>
    <rc><c>C </c><c>   1</c></rc>
    <rc><c>C </c><c>   1</c></rc>
    <rc><c>C </c><c>   1</c></rc>
    <rc><c>C </c><c>   1</c></rc>
   </set>
  </array>
  <array name="atomtypes" >
   <dimension dim="1">type</dimension>
   <field type="int">atomspertype</field>
   <field type="string">element</field>
   <field>mass</field>
   <field>valence</field>
   <field type="string">pseudopotential</field>
   <set>
    <rc><c>   4</c><c>C </c><c>     12.01100000</c><c>      4.00000000</c><c> PAW_PBE C 08Apr2002                    </c></rc>
   </set>
  </array>
 </atominfo>
 <structure name="initialpos" >
  <crystal>
   <varray name="basis" >
    <v>       4.31727383       0.00000000       0.00000000 </v>
    <v>       0.00000000       2.46271552       0.00000000 </v>
    <v>       0.00000000       0.00000000      19.83009717 </v>
   </varray>
   <i name="volume">    210.83790140 </i>
   <varray name="rec_basis" >
    <v>       0.23162765       0.00000000       0.00000000 </v>
    <v>       0.00000000       0.40605583       0.00000000 </v>
    <v>       0.00000000       0.00000000       0.05042840 </v>
   </varray>
  </crystal>
  <varray name="positions" >
   <v>       0.99972986       0.00000000       0.00000000 </v>
   <v>       0.16693681       0.50000000       0.00000000 </v>
   <v>       0.49972986       0.50000000       0.00000000 </v>
   <v>       0.66693681       0.00000000       0.00000000 </v>
  </varray>
 </structure>
 <calculation>
  <scstep>
   <time name="dav">  300.73  301.73</time>
   <time name="total">  303.30  304.31</time>
   <energy>
    <i name="alphaZ">      6.18334092 </i>
    <i name="ewald">   2529.48713214 </i>
    <i name="hartreedc">  -2956.58405802 </i>
    <i name="XCdc">     54.98156385 </i>
    <i name="pawpsdc">    151.32577238 </i>
    <i name="pawaedc">   -155.92769107 </i>
    <i name="eentropy">     -0.00160326 </i>
    <i name="bandstr">    -29.55189937 </i>
    <i name="atom">    588.62352690 </i>
    <i name="e_fr_energy">    188.53608448 </i>
    <i name="e_wo_entrp">    188.53768774 </i>
    <i name="e_0_energy">    188.53688611 </i>
   </energy>
  </scstep>
  <scstep>
   <time name="dav">  452.15  453.44</time>
   <time name="total">  452.16  453.45</time>
   <energy>
    <i name="e_fr_energy">     -8.89725770 </i>
    <i name="e_wo_entrp">     -8.89696765 </i>
    <i name="e_0_energy">     -8.89711267 </i>
   </energy>
  </scstep>
  <scstep>
   <time name="dav">  351.88  353.14</time>
   <time name="total">  382.89  384.56</time>
   <energy>
    <i name="e_fr_energy">    -38.21944418 </i>
    <i name="e_wo_entrp">    -38.21944347 </i>
    <i name="e_0_energy">    -38.21944382 </i>
   </energy>
  </scstep>
  <scstep>
   <time name="diag">   82.06   82.57</time>
   <time name="diis">  353.03  354.21</time>
   <time name="orth">    3.08    3.10</time>
   <time name="total">  471.75  473.87</time>
   <energy>
    <i name="e_fr_energy">    -37.67242352 </i>
    <i name="e_wo_entrp">    -37.67240845 </i>
    <i name="e_0_energy">    -37.67241598 </i>
   </energy>
  </scstep>
  <scstep>
   <time name="diag">   81.82   82.56</time>
   <time name="diis">  348.11  351.60</time>
   <time name="orth">    3.08    3.11</time>
   <time name="total">  466.49  471.17</time>
   <energy>
    <i name="e_fr_energy">    -36.92432414 </i>
    <i name="e_wo_entrp">    -36.92429672 </i>
    <i name="e_0_energy">    -36.92431043 </i>
   </energy>
  </scstep>
  <scstep>
   <time name="diag">   81.75   82.56</time>
   <time name="diis">  383.57  387.17</time>
   <time name="orth">    3.08    3.08</time>
   <time name="total">  501.91  506.83</time>
   <energy>
    <i name="e_fr_energy">    -36.92578455 </i>
    <i name="e_wo_entrp">    -36.92575483 </i>
    <i name="e_0_energy">    -36.92576969 </i>
   </energy>
  </scstep>
  <scstep>
   <time name="diag">   82.17   82.55</time>
   <time name="diis">  348.98  351.78</time>
   <time name="orth">    3.08    3.11</time>
   <time name="total">  467.92  471.44</time>
   <energy>
    <i name="e_fr_energy">    -36.91645905 </i>
    <i name="e_wo_entrp">    -36.91643131 </i>
    <i name="e_0_energy">    -36.91644518 </i>
   </energy>
  </scstep>
  <scstep>
   <time name="diag">   81.91   82.53</time>
   <time name="diis">  350.37  352.04</time>
   <time name="orth">    3.09    3.11</time>
   <time name="total">  468.91  471.52</time>
   <energy>
    <i name="e_fr_energy">    -36.91111096 </i>
    <i name="e_wo_entrp">    -36.91108265 </i>
    <i name="e_0_energy">    -36.91109681 </i>
   </energy>
  </scstep>
  <scstep>
   <time name="diag">   81.95   82.51</time>
   <time name="diis">  334.88  338.39</time>
   <time name="orth">    3.08    3.08</time>
   <time name="total">  453.29  457.84</time>
   <energy>
    <i name="e_fr_energy">    -36.91072040 </i>
    <i name="e_wo_entrp">    -36.91069111 </i>
    <i name="e_0_energy">    -36.91070576 </i>
   </energy>
  </scstep>
  <scstep>
   <time name="diag">   82.15   82.52</time>
   <time name="diis">  338.47  339.12</time>
   <time name="orth">    3.08    3.08</time>
   <time name="total">  457.40  458.52</time>
   <energy>
    <i name="e_fr_energy">    -36.91063044 </i>
    <i name="e_wo_entrp">    -36.91060172 </i>
    <i name="e_0_energy">    -36.91061608 </i>
   </energy>
  </scstep>
  <scstep>
   <time name="diag">   82.48   82.51</time>
   <time name="diis">  339.44  340.86</time>
   <time name="orth">    3.08    3.08</time>
   <time name="total">  458.59  460.15</time>
   <energy>
    <i name="e_fr_energy">    -36.91312449 </i>
    <i name="e_wo_entrp">    -36.91309603 </i>
    <i name="e_0_energy">    -36.91311026 </i>
   </energy>
  </scstep>
  <scstep>
   <time name="diag">   82.23   82.50</time>
   <time name="diis">  337.42  340.76</time>
   <time name="orth">    3.08    3.08</time>
   <time name="total">  456.35  460.25</time>
   <energy>
    <i name="e_fr_energy">    -36.91357582 </i>
    <i name="e_wo_entrp">    -36.91354712 </i>
    <i name="e_0_energy">    -36.91356147 </i>
   </energy>
  </scstep>
  <scstep>
   <time name="diag">   82.32   82.52</time>
   <time name="diis">  347.18  347.77</time>
   <time name="orth">    3.09    3.11</time>
   <time name="total">  466.37  467.23</time>
   <energy>
    <i name="e_fr_energy">    -36.91382300 </i>
    <i name="e_wo_entrp">    -36.91379427 </i>
    <i name="e_0_energy">    -36.91380864 </i>
   </energy>
  </scstep>
  <scstep>
   <time name="diag">   82.25   82.48</time>
   <time name="diis">  341.76  342.13</time>
   <time name="orth">    3.09    3.10</time>
   <time name="total">  460.84  461.52</time>
   <energy>
    <i name="e_fr_energy">    -36.91390598 </i>
    <i name="e_wo_entrp">    -36.91387731 </i>
    <i name="e_0_energy">    -36.91389164 </i>
   </energy>
  </scstep>
  <scstep>
   <time name="diag">   82.52   82.55</time>
   <time name="diis">  344.87  345.16</time>
   <time name="orth">    3.10    3.10</time>
   <time name="total">  464.67  465.02</time>
   <energy>
    <i name="e_fr_energy">    -36.91391542 </i>
    <i name="e_wo_entrp">    -36.91388673 </i>
    <i name="e_0_energy">    -36.91390108 </i>
   </energy>
  </scstep>
  <scstep>
   <time name="diag">   82.48   82.50</time>
   <time name="diis">  339.51  339.59</time>
   <time name="orth">    3.10    3.10</time>
   <time name="total">  459.10  459.23</time>
   <energy>
    <i name="e_fr_energy">    -36.91392741 </i>
    <i name="e_wo_entrp">    -36.91389871 </i>
    <i name="e_0_energy">    -36.91391306 </i>
   </energy>
  </scstep>
  <scstep>
   <time name="diag">   82.44   82.53</time>
   <time name="diis">  351.13  352.74</time>
   <time name="orth">    3.08    3.08</time>
   <time name="total">  470.67  472.41</time>
   <energy>
    <i name="e_fr_energy">    -36.91393194 </i>
    <i name="e_wo_entrp">    -36.91390326 </i>
    <i name="e_0_energy">    -36.91391760 </i>
   </energy>
  </scstep>
  <scstep>
   <time name="diag">   82.53   82.55</time>
   <time name="diis">  337.56  337.63</time>
   <time name="orth">    3.10    3.10</time>
   <time name="total">  457.34  457.45</time>
   <energy>
    <i name="e_fr_energy">    -36.91393320 </i>
    <i name="e_wo_entrp">    -36.91390451 </i>
    <i name="e_0_energy">    -36.91391886 </i>
   </energy>
  </scstep>
  <scstep>
   <time name="diag">   82.56   82.58</time>
   <time name="diis">  345.36  345.44</time>
   <time name="orth">    3.10    3.10</time>
   <time name="total">  464.92  465.05</time>
   <energy>
    <i name="e_fr_energy">    -36.91393390 </i>
    <i name="e_wo_entrp">    -36.91390520 </i>
    <i name="e_0_energy">    -36.91391955 </i>
   </energy>
  </scstep>
  <scstep>
   <time name="diag">   82.18   82.57</time>
   <time name="diis">  269.66  269.85</time>
   <time name="orth">    3.13    3.13</time>
   <time name="total">  389.09  389.73</time>
   <energy>
    <i name="e_fr_energy">    -36.91393395 </i>
    <i name="e_wo_entrp">    -36.91390525 </i>
    <i name="e_0_energy">    -36.91391960 </i>
   </energy>
  </scstep>
  <scstep>
   <time name="diag">   82.55   82.56</time>
   <time name="diis">  263.68  263.74</time>
   <time name="orth">    3.08    3.08</time>
   <time name="total">  383.39  383.51</time>
   <energy>
    <i name="e_fr_energy">    -36.91393396 </i>
    <i name="e_wo_entrp">    -36.91390527 </i>
    <i name="e_0_energy">    -36.91391962 </i>
   </energy>
  </scstep>
  <scstep>
   <time name="diag">   82.55   82.57</time>
   <time name="diis">  233.30  233.35</time>
   <time name="orth">    3.10    3.10</time>
   <time name="total">  321.42  321.51</time>
   <energy>
    <i name="alphaZ">      6.18334092 </i>
    <i name="ewald">   2529.48713214 </i>
    <i name="hartreedc">  -3023.57500315 </i>
    <i name="XCdc">     57.36502051 </i>
    <i name="pawpsdc">    273.62798359 </i>
    <i name="pawaedc">   -278.76115855 </i>
    <i name="eentropy">     -0.00002869 </i>
    <i name="bandstr">   -189.86474764 </i>
    <i name="atom">    588.62352690 </i>
    <i name="e_fr_energy">    -36.91393396 </i>
    <i name="e_wo_entrp">    -36.91390527 </i>
    <i name="e_0_energy">    -36.91391962 </i>
   </energy>
  </scstep>
  <structure>
   <crystal>
    <varray name="basis" >
     <v>       4.31727383       0.00000000       0.00000000 </v>
     <v>       0.00000000       2.46271552       0.00000000 </v>
     <v>       0.00000000       0.00000000      19.83009717 </v>
    </varray>
    <i name="volume">    210.83790140 </i>
    <varray name="rec_basis" >
     <v>       0.23162765       0.00000000       0.00000000 </v>
     <v>       0.00000000       0.40605583       0.00000000 </v>
     <v>       0.00000000       0.00000000       0.05042840 </v>
    </varray>
   </crystal>
   <varray name="positions" >
    <v>       0.99972986       0.00000000       0.00000000 </v>
    <v>       0.16693681       0.50000000       0.00000000 </v>
    <v>       0.49972986       0.50000000       0.00000000 </v>
    <v>       0.66693681       0.00000000       0.00000000 </v>
   </varray>
  </structure>
  <varray name="forces" >
   <v>       0.00859134       0.00000000      -0.00000000 </v>
   <v>      -0.00859134      -0.00000000       0.00000000 </v>
   <v>       0.00859134      -0.00000000      -0.00000000 </v>
   <v>      -0.00859134       0.00000000       0.00000000 </v>
  </varray>
  <varray name="stress" >
   <v>     -17.14920637       0.00000000       0.00000000 </v>
   <v>       0.00000000      -0.02093885       0.00000000 </v>
   <v>       0.00000000       0.00000000      -0.01025880 </v>
  </varray>
  <energy>
   <i name="e_fr_energy">    -36.91393396 </i>
   <i name="e_wo_entrp">    -36.91391962 </i>
   <i name="e_0_energy">     -0.00002869 </i>
  </energy>
  <time name="totalsc"> 9782.37 9820.25</time>
 </calculation>
 <calculation>
  <scstep>
   <time name="dav">  328.49  329.12</time>
   <time name="total">  362.27  362.91</time>
   <energy>
    <i name="alphaZ">      6.18334092 </i>
    <i name="ewald">   2529.49091371 </i>
    <i name="hartreedc">  -3023.57663294 </i>
    <i name="XCdc">     57.36512713 </i>
    <i name="pawpsdc">    273.62802192 </i>
    <i name="pawaedc">   -278.76119725 </i>
    <i name="eentropy">     -0.00002109 </i>
    <i name="bandstr">   -189.86699203 </i>
    <i name="atom">    588.62352690 </i>
    <i name="e_fr_energy">    -36.91391274 </i>
    <i name="e_wo_entrp">    -36.91389165 </i>
    <i name="e_0_energy">    -36.91390219 </i>
   </energy>
  </scstep>
  <scstep>
   <time name="diag">   82.32   82.34</time>
   <time name="diis">  338.19  338.56</time>
   <time name="orth">    3.11    3.11</time>
   <time name="total">  457.53  457.93</time>
   <energy>
    <i name="e_fr_energy">    -36.91391391 </i>
    <i name="e_wo_entrp">    -36.91389259 </i>
    <i name="e_0_energy">    -36.91390325 </i>
   </energy>
  </scstep>
  <scstep>
   <time name="diag">   82.23   82.42</time>
   <time name="diis">  341.18  342.85</time>
   <time name="orth">    3.09    3.09</time>
   <time name="total">  460.29  462.34</time>
   <energy>
    <i name="e_fr_energy">    -36.91391304 </i>
    <i name="e_wo_entrp">    -36.91389132 </i>
    <i name="e_0_energy">    -36.91390218 </i>
   </energy>
  </scstep>
  <scstep>
   <time name="diag">   82.06   82.43</time>
   <time name="diis">  353.49  353.99</time>
   <time name="orth">    3.10    3.10</time>
   <time name="total">  472.20  473.13</time>
   <energy>
    <i name="e_fr_energy">    -36.91391294 </i>
    <i name="e_wo_entrp">    -36.91389132 </i>
    <i name="e_0_energy">    -36.91390213 </i>
   </energy>
  </scstep>
  <scstep>
   <time name="diag">   82.35   82.37</time>
   <time name="diis">  355.17  355.33</time>
   <time name="orth">    3.10    3.10</time>
   <time name="total">  474.40  474.60</time>
   <energy>
    <i name="e_fr_energy">    -36.91391295 </i>
    <i name="e_wo_entrp">    -36.91389134 </i>
    <i name="e_0_energy">    -36.91390214 </i>
   </energy>
  </scstep>
  <scstep>
   <time name="diag">   82.33   82.35</time>
   <time name="diis">  346.68  346.76</time>
   <time name="orth">    3.10    3.10</time>
   <time name="total">  465.73  465.85</time>
   <energy>
    <i name="e_fr_energy">    -36.91391294 </i>
    <i name="e_wo_entrp">    -36.91389132 </i>
    <i name="e_0_energy">    -36.91390213 </i>
   </energy>
  </scstep>
  <scstep>
   <time name="diag">   82.39   82.40</time>
   <time name="diis">  244.39  245.48</time>
   <time name="orth">    3.08    3.11</time>
   <time name="total">  363.41  364.73</time>
   <energy>
    <i name="e_fr_energy">    -36.91391294 </i>
    <i name="e_wo_entrp">    -36.91389132 </i>
    <i name="e_0_energy">    -36.91390213 </i>
   </energy>
  </scstep>
  <scstep>
   <time name="diag">   82.02   82.42</time>
   <time name="diis">  225.23  226.35</time>
   <time name="orth">    3.09    3.11</time>
   <time name="total">  344.11  345.84</time>
   <energy>
    <i name="e_fr_energy">    -36.91391294 </i>
    <i name="e_wo_entrp">    -36.91389132 </i>
    <i name="e_0_energy">    -36.91390213 </i>
   </energy>
  </scstep>
  <scstep>
   <time name="diag">   81.95   82.36</time>
   <time name="diis">  225.52  225.97</time>
   <time name="orth">    3.10    3.10</time>
   <time name="total">  344.29  345.20</time>
   <energy>
    <i name="e_fr_energy">    -36.91391294 </i>
    <i name="e_wo_entrp">    -36.91389132 </i>
    <i name="e_0_energy">    -36.91390213 </i>
   </energy>
  </scstep>
  <scstep>
   <time name="diag">   82.35   82.36</time>
   <time name="diis">  214.76  214.82</time>
   <time name="orth">    3.10    3.10</time>
   <time name="total">  334.05  334.21</time>
   <energy>
    <i name="e_fr_energy">    -36.91391294 </i>
    <i name="e_wo_entrp">    -36.91389132 </i>
    <i name="e_0_energy">    -36.91390213 </i>
   </energy>
  </scstep>
  <scstep>
   <time name="diag">   81.94   82.33</time>
   <time name="diis">  207.05  207.26</time>
   <time name="orth">    3.09    3.09</time>
   <time name="total">  294.50  295.40</time>
   <energy>
    <i name="alphaZ">      6.18334092 </i>
    <i name="ewald">   2529.49091371 </i>
    <i name="hartreedc">  -3023.57826306 </i>
    <i name="XCdc">     57.36519325 </i>
    <i name="pawpsdc">    273.63461836 </i>
    <i name="pawaedc">   -278.76782269 </i>
    <i name="eentropy">     -0.00002162 </i>
    <i name="bandstr">   -189.86539872 </i>
    <i name="atom">    588.62352690 </i>
    <i name="e_fr_energy">    -36.91391294 </i>
    <i name="e_wo_entrp">    -36.91389132 </i>
    <i name="e_0_energy">    -36.91390213 </i>
   </energy>
  </scstep>
  <structure>
   <crystal>
    <varray name="basis" >
     <v>       4.31727383       0.00000000       0.00000000 </v>
     <v>       0.00000000       2.46271552       0.00000000 </v>
     <v>       0.00000000       0.00000000      19.83009717 </v>
    </varray>
    <i name="volume">    210.83790140 </i>
    <varray name="rec_basis" >
     <v>       0.23162765       0.00000000       0.00000000 </v>
     <v>       0.00000000       0.40605583       0.00000000 </v>
     <v>       0.00000000       0.00000000       0.05042840 </v>
    </varray>
   </crystal>
   <varray name="positions" >
    <v>       0.99982586       0.00000000      -0.00000000 </v>
    <v>       0.16684081       0.50000000       0.00000000 </v>
    <v>       0.49982586       0.50000000      -0.00000000 </v>
    <v>       0.66684081       0.00000000       0.00000000 </v>
   </varray>
  </structure>
  <varray name="forces" >
   <v>      -0.03400302      -0.00000000      -0.00000000 </v>
   <v>       0.03400302       0.00000000       0.00000000 </v>
   <v>      -0.03400302       0.00000000      -0.00000000 </v>
   <v>       0.03400302      -0.00000000       0.00000000 </v>
  </varray>
  <varray name="stress" >
   <v>     -17.25794660       0.00000000       0.00000000 </v>
   <v>       0.00000000       0.11744561       0.00000000 </v>
   <v>       0.00000000       0.00000000      -0.01015886 </v>
  </varray>
  <energy>
   <i name="e_fr_energy">    -36.91391294 </i>
   <i name="e_wo_entrp">    -36.91390213 </i>
   <i name="e_0_energy">     -0.00002162 </i>
  </energy>
  <time name="totalsc"> 4476.65 4486.51</time>
 </calculation>
 <calculation>
  <scstep>
   <time name="dav">  326.80  326.98</time>
   <time name="total">  360.69  360.88</time>
   <energy>
    <i name="alphaZ">      6.18334092 </i>
    <i name="ewald">   2529.48787552 </i>
    <i name="hartreedc">  -3023.57695298 </i>
    <i name="XCdc">     57.36510707 </i>
    <i name="pawpsdc">    273.63461868 </i>
    <i name="pawaedc">   -278.76782299 </i>
    <i name="eentropy">     -0.00002766 </i>
    <i name="bandstr">   -189.86360087 </i>
    <i name="atom">    588.62352690 </i>
    <i name="e_fr_energy">    -36.91393539 </i>
    <i name="e_wo_entrp">    -36.91390773 </i>
    <i name="e_0_energy">    -36.91392156 </i>
   </energy>
  </scstep>
  <scstep>
   <time name="diag">   82.41   82.43</time>
   <time name="diis">  340.66  340.77</time>
   <time name="orth">    3.12    3.12</time>
   <time name="total">  460.09  460.23</time>
   <energy>
    <i name="e_fr_energy">    -36.91393604 </i>
    <i name="e_wo_entrp">    -36.91390860 </i>
    <i name="e_0_energy">    -36.91392232 </i>
   </energy>
  </scstep>
  <scstep>
   <time name="diag">   82.32   82.34</time>
   <time name="diis">  343.31  343.45</time>
   <time name="orth">    3.10    3.10</time>
   <time name="total">  462.72  462.94</time>
   <energy>
    <i name="e_fr_energy">    -36.91393547 </i>
    <i name="e_wo_entrp">    -36.91390841 </i>
    <i name="e_0_energy">    -36.91392194 </i>
   </energy>
  </scstep>
  <scstep>
   <time name="diag">   82.33   82.34</time>
   <time name="diis">  356.27  356.35</time>
   <time name="orth">    3.10    3.10</time>
   <time name="total">  475.50  475.73</time>
   <energy>
    <i name="e_fr_energy">    -36.91393541 </i>
    <i name="e_wo_entrp">    -36.91390826 </i>
    <i name="e_0_energy">    -36.91392183 </i>
   </energy>
  </scstep>
  <scstep>
   <time name="diag">   82.32   82.35</time>
   <time name="diis">  355.55  355.65</time>
   <time name="orth">    3.10    3.10</time>
   <time name="total">  474.93  475.11</time>
   <energy>
    <i name="e_fr_energy">    -36.91393541 </i>
    <i name="e_wo_entrp">    -36.91390825 </i>
    <i name="e_0_energy">    -36.91392183 </i>
   </energy>
  </scstep>
  <scstep>
   <time name="diag">   82.32   82.34</time>
   <time name="diis">  341.95  342.02</time>
   <time name="orth">    3.11    3.11</time>
   <time name="total">  461.46  461.62</time>
   <energy>
    <i name="e_fr_energy">    -36.91393541 </i>
    <i name="e_wo_entrp">    -36.91390826 </i>
    <i name="e_0_energy">    -36.91392183 </i>
   </energy>
  </scstep>
  <scstep>
   <time name="diag">   82.33   82.35</time>
   <time name="diis">  242.26  242.36</time>
   <time name="orth">    3.09    3.09</time>
   <time name="total">  361.95  362.10</time>
   <energy>
    <i name="e_fr_energy">    -36.91393541 </i>
    <i name="e_wo_entrp">    -36.91390826 </i>
    <i name="e_0_energy">    -36.91392183 </i>
   </energy>
  </scstep>
  <scstep>
   <time name="diag">   82.34   82.36</time>
   <time name="diis">  227.86  227.90</time>
   <time name="orth">    3.12    3.13</time>
   <time name="total">  347.32  347.42</time>
   <energy>
    <i name="e_fr_energy">    -36.91393541 </i>
    <i name="e_wo_entrp">    -36.91390826 </i>
    <i name="e_0_energy">    -36.91392183 </i>
   </energy>
  </scstep>
  <scstep>
   <time name="diag">   82.37   82.40</time>
   <time name="diis">  228.69  228.75</time>
   <time name="orth">    3.11    3.11</time>
   <time name="total">  348.05  348.18</time>
   <energy>
    <i name="e_fr_energy">    -36.91393541 </i>
    <i name="e_wo_entrp">    -36.91390826 </i>
    <i name="e_0_energy">    -36.91392183 </i>
   </energy>
  </scstep>
  <scstep>
   <time name="diag">   82.29   82.31</time>
   <time name="diis">  215.75  215.80</time>
   <time name="orth">    3.11    3.11</time>
   <time name="total">  303.59  303.67</time>
   <energy>
    <i name="alphaZ">      6.18334092 </i>
    <i name="ewald">   2529.48787552 </i>
    <i name="hartreedc">  -3023.57567732 </i>
    <i name="XCdc">     57.36505550 </i>
    <i name="pawpsdc">    273.62933016 </i>
    <i name="pawaedc">   -278.76251140 </i>
    <i name="eentropy">     -0.00002715 </i>
    <i name="bandstr">   -189.86484855 </i>
    <i name="atom">    588.62352690 </i>
    <i name="e_fr_energy">    -36.91393541 </i>
    <i name="e_wo_entrp">    -36.91390826 </i>
    <i name="e_0_energy">    -36.91392183 </i>
   </energy>
  </scstep>
  <structure>
   <crystal>
    <varray name="basis" >
     <v>       4.31727383       0.00000000       0.00000000 </v>
     <v>       0.00000000       2.46271552       0.00000000 </v>
     <v>       0.00000000       0.00000000      19.83009717 </v>
    </varray>
    <i name="volume">    210.83790140 </i>
    <varray name="rec_basis" >
     <v>       0.23162765       0.00000000       0.00000000 </v>
     <v>       0.00000000       0.40605583       0.00000000 </v>
     <v>       0.00000000       0.00000000       0.05042840 </v>
    </varray>
   </crystal>
   <varray name="positions" >
    <v>       0.99974922       0.00000000      -0.00000000 </v>
    <v>       0.16691745       0.50000000       0.00000000 </v>
    <v>       0.49974922       0.50000000      -0.00000000 </v>
    <v>       0.66691745       0.00000000       0.00000000 </v>
   </varray>
  </structure>
  <varray name="forces" >
   <v>       0.00000210      -0.00000000       0.00000000 </v>
   <v>      -0.00000210       0.00000000       0.00000000 </v>
   <v>       0.00000210      -0.00000000       0.00000000 </v>
   <v>      -0.00000210       0.00000000       0.00000000 </v>
  </varray>
  <varray name="stress" >
   <v>     -17.17117115       0.00000000       0.00000000 </v>
   <v>       0.00000000       0.00679927       0.00000000 </v>
   <v>       0.00000000       0.00000000      -0.01023160 </v>
  </varray>
  <energy>
   <i name="e_fr_energy">    -36.91393541 </i>
   <i name="e_wo_entrp">    -36.91392183 </i>
   <i name="e_0_energy">     -0.00002715 </i>
  </energy>
  <time name="totalsc"> 4160.97 4162.78</time>
 </calculation>
 <calculation>
  <scstep>
   <time name="dav">  257.69  257.86</time>
   <time name="total">  292.08  292.25</time>
   <energy>
    <i name="alphaZ">      6.18334092 </i>
    <i name="ewald">   2529.48787571 </i>
    <i name="hartreedc">  -3023.57567325 </i>
    <i name="XCdc">     57.36505549 </i>
    <i name="pawpsdc">    273.62932951 </i>
    <i name="pawaedc">   -278.76251073 </i>
    <i name="eentropy">     -0.00002715 </i>
    <i name="bandstr">   -189.86485281 </i>
    <i name="atom">    588.62352690 </i>
    <i name="e_fr_energy">    -36.91393541 </i>
    <i name="e_wo_entrp">    -36.91390826 </i>
    <i name="e_0_energy">    -36.91392183 </i>
   </energy>
  </scstep>
  <scstep>
   <time name="diag">   82.35   82.37</time>
   <time name="diis">  172.43  172.48</time>
   <time name="orth">    3.09    3.09</time>
   <time name="total">  292.23  292.30</time>
   <energy>
    <i name="e_fr_energy">    -36.91393541 </i>
    <i name="e_wo_entrp">    -36.91390826 </i>
    <i name="e_0_energy">    -36.91392183 </i>
   </energy>
  </scstep>
  <scstep>
   <time name="diag">   82.04   82.43</time>
   <time name="diis">  169.56  170.26</time>
   <time name="orth">    3.08    3.09</time>
   <time name="total">  288.10  289.21</time>
   <energy>
    <i name="e_fr_energy">    -36.91393541 </i>
    <i name="e_wo_entrp">    -36.91390826 </i>
    <i name="e_0_energy">    -36.91392183 </i>
   </energy>
  </scstep>
  <scstep>
   <time name="diag">   82.35   82.38</time>
   <time name="diis">  168.31  168.35</time>
   <time name="orth">    3.12    3.12</time>
   <time name="total">  288.04  288.13</time>
   <energy>
    <i name="e_fr_energy">    -36.91393541 </i>
    <i name="e_wo_entrp">    -36.91390826 </i>
    <i name="e_0_energy">    -36.91392183 </i>
   </energy>
  </scstep>
  <scstep>
   <time name="diag">   81.65   82.39</time>
   <time name="diis">  165.68  166.70</time>
   <time name="orth">    3.10    3.11</time>
   <time name="total">  284.03  285.94</time>
   <energy>
    <i name="e_fr_energy">    -36.91393541 </i>
    <i name="e_wo_entrp">    -36.91390826 </i>
    <i name="e_0_energy">    -36.91392183 </i>
   </energy>
  </scstep>
  <scstep>
   <time name="diag">   81.76   82.39</time>
   <time name="diis">  164.07  165.21</time>
   <time name="orth">    3.10    3.11</time>
   <time name="total">  282.74  284.88</time>
   <energy>
    <i name="e_fr_energy">    -36.91393541 </i>
    <i name="e_wo_entrp">    -36.91390826 </i>
    <i name="e_0_energy">    -36.91392183 </i>
   </energy>
  </scstep>
  <scstep>
   <time name="diag">   81.76   82.38</time>
   <time name="diis">  165.87  166.37</time>
   <time name="orth">    3.09    3.11</time>
   <time name="total">  253.14  254.35</time>
   <energy>
    <i name="alphaZ">      6.18334092 </i>
    <i name="ewald">   2529.48787571 </i>
    <i name="hartreedc">  -3023.57567248 </i>
    <i name="XCdc">     57.36505575 </i>
    <i name="pawpsdc">    273.62933222 </i>
    <i name="pawaedc">   -278.76251349 </i>
    <i name="eentropy">     -0.00002715 </i>
    <i name="bandstr">   -189.86485379 </i>
    <i name="atom">    588.62352690 </i>
    <i name="e_fr_energy">    -36.91393541 </i>
    <i name="e_wo_entrp">    -36.91390826 </i>
    <i name="e_0_energy">    -36.91392183 </i>
   </energy>
  </scstep>
  <structure>
   <crystal>
    <varray name="basis" >
     <v>       4.31727383       0.00000000       0.00000000 </v>
     <v>       0.00000000       2.46271552       0.00000000 </v>
     <v>       0.00000000       0.00000000      19.83009717 </v>
    </varray>
    <i name="volume">    210.83790140 </i>
    <varray name="rec_basis" >
     <v>       0.23162765       0.00000000       0.00000000 </v>
     <v>       0.00000000       0.40605583       0.00000000 </v>
     <v>       0.00000000       0.00000000       0.05042840 </v>
    </varray>
   </crystal>
   <varray name="positions" >
    <v>       0.99974923      -0.00000000      -0.00000000 </v>
    <v>       0.16691744       0.50000000       0.00000000 </v>
    <v>       0.49974923       0.50000000      -0.00000000 </v>
    <v>       0.66691744       0.00000000       0.00000000 </v>
   </varray>
  </structure>
  <varray name="forces" >
   <v>       0.00000134       0.00000000       0.00000000 </v>
   <v>      -0.00000134       0.00000000      -0.00000000 </v>
   <v>       0.00000134      -0.00000000       0.00000000 </v>
   <v>      -0.00000134      -0.00000000      -0.00000000 </v>
  </varray>
  <varray name="stress" >
   <v>     -17.17115179       0.00000000       0.00000000 </v>
   <v>       0.00000000       0.00676374       0.00000000 </v>
   <v>       0.00000000       0.00000000      -0.01017691 </v>
  </varray>
  <energy>
   <i name="e_fr_energy">    -36.91393541 </i>
   <i name="e_wo_entrp">    -36.91392183 </i>
   <i name="e_0_energy">     -0.00002715 </i>
  </energy>
  <time name="totalsc"> 2084.30 2091.11</time>
 </calculation>
 <calculation>
  <scstep>
   <time name="dav">  261.48  262.90</time>
   <time name="total">  295.33  297.00</time>
   <energy>
    <i name="alphaZ">      6.18334092 </i>
    <i name="ewald">   2529.48787603 </i>
    <i name="hartreedc">  -3023.57567243 </i>
    <i name="XCdc">     57.36505576 </i>
    <i name="pawpsdc">    273.62933224 </i>
    <i name="pawaedc">   -278.76251351 </i>
    <i name="eentropy">     -0.00002715 </i>
    <i name="bandstr">   -189.86485417 </i>
    <i name="atom">    588.62352690 </i>
    <i name="e_fr_energy">    -36.91393541 </i>
    <i name="e_wo_entrp">    -36.91390826 </i>
    <i name="e_0_energy">    -36.91392183 </i>
   </energy>
  </scstep>
  <scstep>
   <time name="diag">   81.75   82.41</time>
   <time name="diis">  152.86  154.31</time>
   <time name="orth">    3.08    3.11</time>
   <time name="total">  271.70  274.22</time>
   <energy>
    <i name="e_fr_energy">    -36.91393541 </i>
    <i name="e_wo_entrp">    -36.91390826 </i>
    <i name="e_0_energy">    -36.91392183 </i>
   </energy>
  </scstep>
  <scstep>
   <time name="diag">   81.51   82.37</time>
   <time name="diis">  152.12  153.54</time>
   <time name="orth">    3.09    3.09</time>
   <time name="total">  270.57  273.37</time>
   <energy>
    <i name="e_fr_energy">    -36.91393541 </i>
    <i name="e_wo_entrp">    -36.91390826 </i>
    <i name="e_0_energy">    -36.91392183 </i>
   </energy>
  </scstep>
  <scstep>
   <time name="diag">   81.50   82.36</time>
   <time name="diis">  151.07  152.15</time>
   <time name="orth">    3.09    3.10</time>
   <time name="total">  269.80  272.10</time>
   <energy>
    <i name="e_fr_energy">    -36.91393541 </i>
    <i name="e_wo_entrp">    -36.91390826 </i>
    <i name="e_0_energy">    -36.91392183 </i>
   </energy>
  </scstep>
  <scstep>
   <time name="diag">   81.90   82.36</time>
   <time name="diis">  149.76  149.84</time>
   <time name="orth">    3.10    3.11</time>
   <time name="total">  237.21  237.81</time>
   <energy>
    <i name="alphaZ">      6.18334092 </i>
    <i name="ewald">   2529.48787603 </i>
    <i name="hartreedc">  -3023.57567076 </i>
    <i name="XCdc">     57.36505571 </i>
    <i name="pawpsdc">    273.62933101 </i>
    <i name="pawaedc">   -278.76251228 </i>
    <i name="eentropy">     -0.00002715 </i>
    <i name="bandstr">   -189.86485579 </i>
    <i name="atom">    588.62352690 </i>
    <i name="e_fr_energy">    -36.91393541 </i>
    <i name="e_wo_entrp">    -36.91390826 </i>
    <i name="e_0_energy">    -36.91392183 </i>
   </energy>
  </scstep>
  <structure>
   <crystal>
    <varray name="basis" >
     <v>       4.31727383       0.00000000       0.00000000 </v>
     <v>       0.00000000       2.46271552       0.00000000 </v>
     <v>       0.00000000       0.00000000      19.83009717 </v>
    </varray>
    <i name="volume">    210.83790140 </i>
    <varray name="rec_basis" >
     <v>       0.23162765       0.00000000       0.00000000 </v>
     <v>       0.00000000       0.40605583       0.00000000 </v>
     <v>       0.00000000       0.00000000       0.05042840 </v>
    </varray>
   </crystal>
   <varray name="positions" >
    <v>       0.99974923       0.00000000       0.00000000 </v>
    <v>       0.16691743       0.50000000      -0.00000000 </v>
    <v>       0.49974923       0.50000000       0.00000000 </v>
    <v>       0.66691743      -0.00000000      -0.00000000 </v>
   </varray>
  </structure>
  <varray name="forces" >
   <v>      -0.00000487       0.00000000       0.00000000 </v>
   <v>       0.00000487      -0.00000000       0.00000000 </v>
   <v>      -0.00000487      -0.00000000       0.00000000 </v>
   <v>       0.00000487      -0.00000000       0.00000000 </v>
  </varray>
  <varray name="stress" >
   <v>     -17.17116914       0.00000000       0.00000000 </v>
   <v>       0.00000000       0.00679814       0.00000000 </v>
   <v>       0.00000000       0.00000000      -0.01019553 </v>
  </varray>
  <energy>
   <i name="e_fr_energy">    -36.91393541 </i>
   <i name="e_wo_entrp">    -36.91392183 </i>
   <i name="e_0_energy">     -0.00002715 </i>
  </energy>
  <time name="totalsc"> 1449.55 1459.74</time>
 </calculation>
 <calculation>
  <scstep>
   <time name="dav">  258.64  260.41</time>
   <time name="total">  292.56  294.76</time>
   <energy>
    <i name="alphaZ">      6.18334092 </i>
    <i name="ewald">   2529.48787578 </i>
    <i name="hartreedc">  -3023.57567057 </i>
    <i name="XCdc">     57.36505571 </i>
    <i name="pawpsdc">    273.62933101 </i>
    <i name="pawaedc">   -278.76251228 </i>
    <i name="eentropy">     -0.00002715 </i>
    <i name="bandstr">   -189.86485572 </i>
    <i name="atom">    588.62352690 </i>
    <i name="e_fr_energy">    -36.91393541 </i>
    <i name="e_wo_entrp">    -36.91390826 </i>
    <i name="e_0_energy">    -36.91392183 </i>
   </energy>
  </scstep>
  <scstep>
   <time name="diag">   81.39   82.33</time>
   <time name="diis">  131.83  133.08</time>
   <time name="orth">    3.09    3.14</time>
   <time name="total">  250.51  252.96</time>
   <energy>
    <i name="e_fr_energy">    -36.91393541 </i>
    <i name="e_wo_entrp">    -36.91390826 </i>
    <i name="e_0_energy">    -36.91392183 </i>
   </energy>
  </scstep>
  <scstep>
   <time name="diag">   81.89   82.35</time>
   <time name="diis">  132.06  133.15</time>
   <time name="orth">    3.11    3.11</time>
   <time name="total">  251.21  253.04</time>
   <energy>
    <i name="e_fr_energy">    -36.91393541 </i>
    <i name="e_wo_entrp">    -36.91390826 </i>
    <i name="e_0_energy">    -36.91392183 </i>
   </energy>
  </scstep>
  <scstep>
   <time name="diag">   81.75   82.38</time>
   <time name="diis">  135.18  136.02</time>
   <time name="orth">    3.11    3.11</time>
   <time name="total">  254.06  255.86</time>
   <energy>
    <i name="e_fr_energy">    -36.91393541 </i>
    <i name="e_wo_entrp">    -36.91390826 </i>
    <i name="e_0_energy">    -36.91392183 </i>
   </energy>
  </scstep>
  <scstep>
   <time name="diag">   82.45   82.47</time>
   <time name="diis">  135.42  135.45</time>
   <time name="orth">    3.11    3.11</time>
   <time name="total">  255.24  255.34</time>
   <energy>
    <i name="e_fr_energy">    -36.91393541 </i>
    <i name="e_wo_entrp">    -36.91390826 </i>
    <i name="e_0_energy">    -36.91392183 </i>
   </energy>
  </scstep>
  <scstep>
   <time name="diag">   82.39   82.42</time>
   <time name="diis">  146.16  146.19</time>
   <time name="orth">    3.11    3.11</time>
   <time name="total">  265.87  265.97</time>
   <energy>
    <i name="e_fr_energy">    -36.91393541 </i>
    <i name="e_wo_entrp">    -36.91390826 </i>
    <i name="e_0_energy">    -36.91392183 </i>
   </energy>
  </scstep>
  <scstep>
   <time name="diag">   82.42   82.44</time>
   <time name="diis">  131.10  131.13</time>
   <time name="orth">    3.08    3.08</time>
   <time name="total">  250.92  250.99</time>
   <energy>
    <i name="e_fr_energy">    -36.91393541 </i>
    <i name="e_wo_entrp">    -36.91390826 </i>
    <i name="e_0_energy">    -36.91392183 </i>
   </energy>
  </scstep>
  <scstep>
   <time name="diag">   82.43   82.45</time>
   <time name="diis">  137.96  137.98</time>
   <time name="orth">    3.10    3.10</time>
   <time name="total">  257.78  257.89</time>
   <energy>
    <i name="e_fr_energy">    -36.91393541 </i>
    <i name="e_wo_entrp">    -36.91390826 </i>
    <i name="e_0_energy">    -36.91392183 </i>
   </energy>
  </scstep>
  <scstep>
   <time name="diag">   82.39   82.41</time>
   <time name="diis">  126.23  126.26</time>
   <time name="orth">    3.10    3.10</time>
   <time name="total">  246.03  246.12</time>
   <energy>
    <i name="e_fr_energy">    -36.91393541 </i>
    <i name="e_wo_entrp">    -36.91390826 </i>
    <i name="e_0_energy">    -36.91392183 </i>
   </energy>
  </scstep>
  <scstep>
   <time name="diag">   82.38   82.41</time>
   <time name="diis">  117.90  117.92</time>
   <time name="orth">    3.10    3.10</time>
   <time name="total">  237.76  237.83</time>
   <energy>
    <i name="e_fr_energy">    -36.91393541 </i>
    <i name="e_wo_entrp">    -36.91390826 </i>
    <i name="e_0_energy">    -36.91392183 </i>
   </energy>
  </scstep>
  <scstep>
   <time name="diag">   82.42   82.43</time>
   <time name="diis">  120.73  120.81</time>
   <time name="orth">    3.09    3.10</time>
   <time name="total">  208.74  208.87</time>
   <energy>
    <i name="alphaZ">      6.18334092 </i>
    <i name="ewald">   2529.48787578 </i>
    <i name="hartreedc">  -3023.57567198 </i>
    <i name="XCdc">     57.36505575 </i>
    <i name="pawpsdc">    273.62933231 </i>
    <i name="pawaedc">   -278.76251359 </i>
    <i name="eentropy">     -0.00002715 </i>
    <i name="bandstr">   -189.86485435 </i>
    <i name="atom">    588.62352690 </i>
    <i name="e_fr_energy">    -36.91393541 </i>
    <i name="e_wo_entrp">    -36.91390826 </i>
    <i name="e_0_energy">    -36.91392183 </i>
   </energy>
  </scstep>
  <structure>
   <crystal>
    <varray name="basis" >
     <v>       4.31727383       0.00000000       0.00000000 </v>
     <v>       0.00000000       2.46271552       0.00000000 </v>
     <v>       0.00000000       0.00000000      19.83009717 </v>
    </varray>
    <i name="volume">    210.83790140 </i>
    <varray name="rec_basis" >
     <v>       0.23162765       0.00000000       0.00000000 </v>
     <v>       0.00000000       0.40605583       0.00000000 </v>
     <v>       0.00000000       0.00000000       0.05042840 </v>
    </varray>
   </crystal>
   <varray name="positions" >
    <v>       0.99974923       0.00000000       0.00000000 </v>
    <v>       0.16691744       0.50000000      -0.00000000 </v>
    <v>       0.49974923       0.50000000       0.00000000 </v>
    <v>       0.66691744       0.00000000      -0.00000000 </v>
   </varray>
  </structure>
  <varray name="forces" >
   <v>      -0.00000006       0.00000000       0.00000000 </v>
   <v>       0.00000006       0.00000000      -0.00000000 </v>
   <v>      -0.00000006       0.00000000       0.00000000 </v>
   <v>       0.00000006      -0.00000000      -0.00000000 </v>
  </varray>
  <varray name="stress" >
   <v>     -17.17115792       0.00000000       0.00000000 </v>
   <v>       0.00000000       0.00677379       0.00000000 </v>
   <v>       0.00000000       0.00000000      -0.01018077 </v>
  </varray>
  <energy>
   <i name="e_fr_energy">    -36.91393541 </i>
   <i name="e_wo_entrp">    -36.91392183 </i>
   <i name="e_0_energy">     -0.00002715 </i>
  </energy>
  <time name="totalsc"> 2867.20 2876.63</time>
  <eigenvalues>
   <array>
    <dimension dim="1">band</dimension>
    <dimension dim="2">kpoint</dimension>
    <dimension dim="3">spin</dimension>
    <field>eigene</field>
    <field>occ</field>
    <set>
     <set comment="spin 1">
      <set comment="kpoint 1">
       <r>  -22.1826    1.0000 </r>
       <r>  -17.1222    1.0000 </r>
       <r>  -15.9176    1.0000 </r>
       <r>  -10.3041    1.0000 </r>
       <r>   -9.0089    1.0000 </r>
       <r>   -5.8800    1.0000 </r>
       <r>   -5.7604    1.0000 </r>
       <r>   -5.2057    1.0000 </r>
       <r>   -1.1230    0.0000 </r>
       <r>    0.5323    0.0000 </r>
       <r>    1.3322    0.0000 </r>
       <r>    1.7194    0.0000 </r>
      </set>
      <set comment="kpoint 2">
       <r>  -22.1726    1.0000 </r>
       <r>  -17.2651    1.0000 </r>
       <r>  -15.7595    1.0000 </r>
       <r>  -10.2921    1.0000 </r>
       <r>   -8.9991    1.0000 </r>
       <r>   -5.9235    1.0000 </r>
       <r>   -5.7819    1.0000 </r>
       <r>   -5.2689    1.0000 </r>
       <r>   -1.0439    0.0000 </r>
       <r>    0.5459    0.0000 </r>
       <r>    1.3460    0.0000 </r>
       <r>    1.7334    0.0000 </r>
      </set>
      <set comment="kpoint 3">
       <r>  -22.1424    1.0000 </r>
       <r>  -17.5747    1.0000 </r>
       <r>  -15.4046    1.0000 </r>
       <r>  -10.2562    1.0000 </r>
       <r>   -8.9695    1.0000 </r>
       <r>   -6.0518    1.0000 </r>
       <r>   -5.8453    1.0000 </r>
       <r>   -5.4448    1.0000 </r>
       <r>   -0.8205    0.0000 </r>
       <r>    0.5868    0.0000 </r>
       <r>    1.3874    0.0000 </r>
       <r>    1.7752    0.0000 </r>
      </set>
      <set comment="kpoint 4">
       <r>  -22.0922    1.0000 </r>
       <r>  -17.9322    1.0000 </r>
       <r>  -14.9717    1.0000 </r>
       <r>  -10.1965    1.0000 </r>
       <r>   -8.9204    1.0000 </r>
       <r>   -6.2596    1.0000 </r>
       <r>   -5.9473    1.0000 </r>
       <r>   -5.7029    1.0000 </r>
       <r>   -0.4838    0.0000 </r>
       <r>    0.6548    0.0000 </r>
       <r>    1.4564    0.0000 </r>
       <r>    1.8451    0.0000 </r>
      </set>
      <set comment="kpoint 5">
       <r>  -22.0220    1.0000 </r>
       <r>  -18.2974    1.0000 </r>
       <r>  -14.5016    1.0000 </r>
       <r>  -10.1130    1.0000 </r>
       <r>   -8.8519    1.0000 </r>
       <r>   -6.5391    1.0000 </r>
       <r>   -6.0829    1.0000 </r>
       <r>   -6.0119    1.0000 </r>
       <r>   -0.0658    0.0000 </r>
       <r>    0.7501    0.0000 </r>
       <r>    1.5529    0.0000 </r>
       <r>    1.9428    0.0000 </r>
      </set>
      <set comment="kpoint 6">
       <r>  -21.9318    1.0000 </r>
       <r>  -18.6567    1.0000 </r>
       <r>  -14.0085    1.0000 </r>
       <r>  -10.0059    1.0000 </r>
       <r>   -8.7646    1.0000 </r>
       <r>   -6.8808    1.0000 </r>
       <r>   -6.3484    1.0000 </r>
       <r>   -6.2462    1.0000 </r>
       <r>    0.4087    0.0000 </r>
       <r>    0.8727    0.0000 </r>
       <r>    1.6769    0.0000 </r>
       <r>    2.0685    0.0000 </r>
      </set>
      <set comment="kpoint 7">
       <r>  -21.8217    1.0000 </r>
       <r>  -19.0044    1.0000 </r>
       <r>  -13.4988    1.0000 </r>
       <r>   -9.8754    1.0000 </r>
       <r>   -8.6589    1.0000 </r>
       <r>   -7.2748    1.0000 </r>
       <r>   -6.6962    1.0000 </r>
       <r>   -6.4311    1.0000 </r>
       <r>    0.9219    0.0000 </r>
       <r>    1.0224    0.0000 </r>
       <r>    1.8283    0.0000 </r>
       <r>    2.2221    0.0000 </r>
      </set>
      <set comment="kpoint 8">
       <r>  -21.6918    1.0000 </r>
       <r>  -19.3377    1.0000 </r>
       <r>  -12.9764    1.0000 </r>
       <r>   -9.7216    1.0000 </r>
       <r>   -8.5354    1.0000 </r>
       <r>   -7.7117    1.0000 </r>
       <r>   -7.0448    1.0000 </r>
       <r>   -6.6314    1.0000 </r>
       <r>    1.1995    0.0000 </r>
       <r>    1.4613    0.0000 </r>
       <r>    2.0071    0.0000 </r>
[...]
       <r>   -9.2721    1.0000 </r>
       <r>   -5.5617    1.0000 </r>
       <r>   -5.5617    1.0000 </r>
       <r>   -0.4494    0.0000 </r>
       <r>   -0.4494    0.0000 </r>
       <r>    4.5462    0.0000 </r>
       <r>    4.5462    0.0000 </r>
      </set>
      <set comment="kpoint 209">
       <r>  -18.7495    1.0000 </r>
       <r>  -16.9476    1.0000 </r>
       <r>  -14.1203    1.0000 </r>
       <r>  -12.4758    1.0000 </r>
       <r>  -12.3716    1.0000 </r>
       <r>  -10.8470    1.0000 </r>
       <r>   -6.3597    1.0000 </r>
       <r>   -4.4742    1.0000 </r>
       <r>   -1.0759    0.0000 </r>
       <r>    1.0890    0.0000 </r>
       <r>    5.2772    0.0000 </r>
       <r>    6.0579    0.0000 </r>
      </set>
      <set comment="kpoint 210">
       <r>  -18.7400    1.0000 </r>
       <r>  -16.9401    1.0000 </r>
       <r>  -14.1979    1.0000 </r>
       <r>  -12.5478    1.0000 </r>
       <r>  -12.2863    1.0000 </r>
       <r>  -10.7773    1.0000 </r>
       <r>   -6.3511    1.0000 </r>
       <r>   -4.4776    1.0000 </r>
       <r>   -1.0842    0.0000 </r>
       <r>    1.0647    0.0000 </r>
       <r>    5.2905    0.0000 </r>
       <r>    6.0735    0.0000 </r>
      </set>
      <set comment="kpoint 211">
       <r>  -18.7115    1.0000 </r>
       <r>  -16.9179    1.0000 </r>
       <r>  -14.3948    1.0000 </r>
       <r>  -12.7338    1.0000 </r>
       <r>  -12.0662    1.0000 </r>
       <r>  -10.5991    1.0000 </r>
       <r>   -6.3254    1.0000 </r>
       <r>   -4.4882    1.0000 </r>
       <r>   -1.1072    0.0000 </r>
       <r>    0.9935    0.0000 </r>
       <r>    5.3303    0.0000 </r>
       <r>    6.1202    0.0000 </r>
      </set>
      <set comment="kpoint 212">
       <r>  -18.6641    1.0000 </r>
       <r>  -16.8823    1.0000 </r>
       <r>  -14.6519    1.0000 </r>
       <r>  -12.9831    1.0000 </r>
       <r>  -11.7708    1.0000 </r>
       <r>  -10.3650    1.0000 </r>
       <r>   -6.2829    1.0000 </r>
       <r>   -4.5075    1.0000 </r>
       <r>   -1.1403    0.0000 </r>
       <r>    0.8802    0.0000 </r>
       <r>    5.3961    0.0000 </r>
       <r>    6.1968    0.0000 </r>
      </set>
      <set comment="kpoint 213">
       <r>  -18.5979    1.0000 </r>
       <r>  -16.8360    1.0000 </r>
       <r>  -14.9289    1.0000 </r>
       <r>  -13.2615    1.0000 </r>
       <r>  -11.4396    1.0000 </r>
       <r>  -10.1126    1.0000 </r>
       <r>   -6.2240    1.0000 </r>
       <r>   -4.5376    1.0000 </r>
       <r>   -1.1765    0.0000 </r>
       <r>    0.7320    0.0000 </r>
       <r>    5.4860    0.0000 </r>
       <r>    6.3031    0.0000 </r>
      </set>
      <set comment="kpoint 214">
       <r>  -18.5132    1.0000 </r>
       <r>  -16.7845    1.0000 </r>
       <r>  -15.2014    1.0000 </r>
       <r>  -13.5504    1.0000 </r>
       <r>  -11.0949    1.0000 </r>
       <r>   -9.8648    1.0000 </r>
       <r>   -6.1494    1.0000 </r>
       <r>   -4.5810    1.0000 </r>
       <r>   -1.2074    0.0000 </r>
       <r>    0.5570    0.0000 </r>
       <r>    5.5813    0.0000 </r>
       <r>    5.8619    0.0000 </r>
      </set>
      <set comment="kpoint 215">
       <r>  -18.4101    1.0000 </r>
       <r>  -16.7389    1.0000 </r>
       <r>  -15.4482    1.0000 </r>
       <r>  -13.8399    1.0000 </r>
       <r>  -10.7509    1.0000 </r>
       <r>   -9.6371    1.0000 </r>
       <r>   -6.0602    1.0000 </r>
       <r>   -4.6399    1.0000 </r>
       <r>   -1.2250    0.0000 </r>
       <r>    0.3635    0.0000 </r>
       <r>    5.3642    0.0000 </r>
       <r>    5.7887    0.0000 </r>
      </set>
      <set comment="kpoint 216">
       <r>  -18.2892    1.0000 </r>
       <r>  -16.7210    1.0000 </r>
       <r>  -15.6421    1.0000 </r>
       <r>  -14.1239    1.0000 </r>
       <r>  -10.4183    1.0000 </r>
       <r>   -9.4420    1.0000 </r>
       <r>   -5.9574    1.0000 </r>
       <r>   -4.7157    1.0000 </r>
       <r>   -1.2219    0.0000 </r>
       <r>    0.1595    0.0000 </r>
       <r>    5.0043    0.0000 </r>
       <r>    5.9507    0.0000 </r>
      </set>
      <set comment="kpoint 217">
       <r>  -18.1510    1.0000 </r>
       <r>  -16.7630    1.0000 </r>
       <r>  -15.7479    1.0000 </r>
       <r>  -14.3982    1.0000 </r>
       <r>  -10.1065    1.0000 </r>
       <r>   -9.2896    1.0000 </r>
       <r>   -5.8427    1.0000 </r>
       <r>   -4.8087    1.0000 </r>
       <r>   -1.1931    0.0000 </r>
       <r>   -0.0479    0.0000 </r>
       <r>    4.7105    0.0000 </r>
       <r>    5.5300    0.0000 </r>
      </set>
      <set comment="kpoint 218">
       <r>  -17.9962    1.0000 </r>
       <r>  -16.8806    1.0000 </r>
       <r>  -15.7477    1.0000 </r>
       <r>  -14.6599    1.0000 </r>
       <r>   -9.8248    1.0000 </r>
       <r>   -9.1887    1.0000 </r>
       <r>   -5.7179    1.0000 </r>
       <r>   -4.9174    1.0000 </r>
       <r>   -1.1356    0.0000 </r>
       <r>   -0.2522    0.0000 </r>
       <r>    4.4989    0.0000 </r>
       <r>    5.1389    0.0000 </r>
      </set>
      <set comment="kpoint 219">
       <r>  -17.8260    1.0000 </r>
       <r>  -17.0523    1.0000 </r>
       <r>  -15.6618    1.0000 </r>
       <r>  -14.9062    1.0000 </r>
       <r>   -9.5820    1.0000 </r>
       <r>   -9.1457    1.0000 </r>
       <r>   -5.5854    1.0000 </r>
       <r>   -5.0394    1.0000 </r>
       <r>   -1.0487    0.0000 </r>
       <r>   -0.4478    0.0000 </r>
       <r>    4.3769    0.0000 </r>
       <r>    4.8168    0.0000 </r>
      </set>
      <set comment="kpoint 220">
       <r>  -17.6421    1.0000 </r>
       <r>  -17.2478    1.0000 </r>
       <r>  -15.5198    1.0000 </r>
       <r>  -15.1343    1.0000 </r>
       <r>   -9.3866    1.0000 </r>
       <r>   -9.1645    1.0000 </r>
       <r>   -5.4479    1.0000 </r>
       <r>   -5.1711    1.0000 </r>
       <r>   -0.9336    0.0000 </r>
       <r>   -0.6294    0.0000 </r>
       <r>    4.3488    0.0000 </r>
       <r>    4.5729    0.0000 </r>
      </set>
      <set comment="kpoint 221">
       <r>  -17.4477    1.0000 </r>
       <r>  -17.4477    1.0000 </r>
       <r>  -15.3407    1.0000 </r>
       <r>  -15.3407    1.0000 </r>
       <r>   -9.2456    1.0000 </r>
       <r>   -9.2456    1.0000 </r>
       <r>   -5.3086    1.0000 </r>
       <r>   -5.3086    1.0000 </r>
       <r>   -0.7927    0.0000 </r>
       <r>   -0.7927    0.0000 </r>
       <r>    4.4150    0.0000 </r>
       <r>    4.4150    0.0000 </r>
      </set>
      <set comment="kpoint 222">
       <r>  -18.3243    1.0000 </r>
       <r>  -17.4196    1.0000 </r>
       <r>  -13.7397    1.0000 </r>
       <r>  -12.9166    1.0000 </r>
       <r>  -12.0224    1.0000 </r>
       <r>  -11.2553    1.0000 </r>
       <r>   -5.8998    1.0000 </r>
       <r>   -4.9515    1.0000 </r>
       <r>   -0.5676    0.0000 </r>
       <r>    0.5170    0.0000 </r>
       <r>    5.8801    0.0000 </r>
       <r>    6.6205    0.0000 </r>
      </set>
      <set comment="kpoint 223">
       <r>  -18.3149    1.0000 </r>
       <r>  -17.4110    1.0000 </r>
       <r>  -13.8174    1.0000 </r>
       <r>  -12.9910    1.0000 </r>
       <r>  -11.9397    1.0000 </r>
       <r>  -11.1807    1.0000 </r>
       <r>   -5.8925    1.0000 </r>
       <r>   -4.9495    1.0000 </r>
       <r>   -0.5827    0.0000 </r>
       <r>    0.4947    0.0000 </r>
       <r>    5.8933    0.0000 </r>
       <r>    6.6370    0.0000 </r>
      </set>
      <set comment="kpoint 224">
       <r>  -18.2869    1.0000 </r>
       <r>  -17.3854    1.0000 </r>
       <r>  -14.0155    1.0000 </r>
       <r>  -13.1824    1.0000 </r>
       <r>  -11.7270    1.0000 </r>
       <r>  -10.9893    1.0000 </r>
       <r>   -5.8708    1.0000 </r>
       <r>   -4.9435    1.0000 </r>
       <r>   -0.6261    0.0000 </r>
       <r>    0.4296    0.0000 </r>
       <r>    5.9329    0.0000 </r>
       <r>    6.6862    0.0000 </r>
      </set>
      <set comment="kpoint 225">
       <r>  -18.2404    1.0000 </r>
       <r>  -17.3432    1.0000 </r>
       <r>  -14.2762    1.0000 </r>
       <r>  -13.4372    1.0000 </r>
       <r>  -11.4431    1.0000 </r>
       <r>  -10.7365    1.0000 </r>
       <r>   -5.8351    1.0000 </r>
       <r>   -4.9349    1.0000 </r>
       <r>   -0.6932    0.0000 </r>
       <r>    0.3265    0.0000 </r>
       <r>    5.9980    0.0000 </r>
       <r>    6.7667    0.0000 </r>
      </set>
      <set comment="kpoint 226">
       <r>  -18.1755    1.0000 </r>
       <r>  -17.2853    1.0000 </r>
       <r>  -14.5618    1.0000 </r>
       <r>  -13.7201    1.0000 </r>
       <r>  -11.1274    1.0000 </r>
       <r>  -10.4603    1.0000 </r>
       <r>   -5.7861    1.0000 </r>
       <r>   -4.9253    1.0000 </r>
       <r>   -0.7767    0.0000 </r>
       <r>    0.1924    0.0000 </r>
       <r>    6.0838    0.0000 </r>
       <r>    6.6166    0.0000 </r>
      </set>
      <set comment="kpoint 227">
       <r>  -18.0927    1.0000 </r>
       <r>  -17.2133    1.0000 </r>
       <r>  -14.8518    1.0000 </r>
       <r>  -14.0124    1.0000 </r>
       <r>  -10.8022    1.0000 </r>
       <r>  -10.1837    1.0000 </r>
       <r>   -5.7250    1.0000 </r>
       <r>   -4.9173    1.0000 </r>
       <r>   -0.8677    0.0000 </r>
       <r>    0.0356    0.0000 </r>
       <r>    6.0373    0.0000 </r>
       <r>    6.2638    0.0000 </r>
      </set>
      <set comment="kpoint 228">
       <r>  -17.9923    1.0000 </r>
       <r>  -17.1301    1.0000 </r>
       <r>  -15.1336    1.0000 </r>
       <r>  -14.3037    1.0000 </r>
       <r>  -10.4822    1.0000 </r>
       <r>   -9.9219    1.0000 </r>
       <r>   -5.6531    1.0000 </r>
       <r>   -4.9137    1.0000 </r>
       <r>   -0.9567    0.0000 </r>
       <r>   -0.1353    0.0000 </r>
       <r>    5.5989    0.0000 </r>
       <r>    6.1557    0.0000 </r>
      </set>
      <set comment="kpoint 229">
       <r>  -17.8751    1.0000 </r>
       <r>  -17.0411    1.0000 </r>
       <r>  -15.3962    1.0000 </r>
       <r>  -14.5878    1.0000 </r>
       <r>  -10.1784    1.0000 </r>
       <r>   -9.6869    1.0000 </r>
       <r>   -5.5724    1.0000 </r>
       <r>   -4.9178    1.0000 </r>
       <r>   -1.0345    0.0000 </r>
       <r>   -0.3119    0.0000 </r>
       <r>    5.1914    0.0000 </r>
       <r>    5.6815    0.0000 </r>
      </set>
      <set comment="kpoint 230">
       <r>  -17.7421    1.0000 </r>
       <r>  -16.9573    1.0000 </r>
       <r>  -15.6254    1.0000 </r>
       <r>  -14.8602    1.0000 </r>
       <r>   -9.9008    1.0000 </r>
       <r>   -9.4893    1.0000 </r>
       <r>   -5.4852    1.0000 </r>
       <r>   -4.9329    1.0000 </r>
       <r>   -1.0926    0.0000 </r>
       <r>   -0.4861    0.0000 </r>
       <r>    4.8507    0.0000 </r>
       <r>    5.2628    0.0000 </r>
      </set>
      <set comment="kpoint 231">
       <r>  -17.5952    1.0000 </r>
       <r>  -16.9000    1.0000 </r>
       <r>  -15.7979    1.0000 </r>
       <r>  -15.1169    1.0000 </r>
       <r>   -9.6589    1.0000 </r>
       <r>   -9.3381    1.0000 </r>
       <r>   -5.3943    1.0000 </r>
       <r>   -4.9613    1.0000 </r>
       <r>   -1.1240    0.0000 </r>
       <r>   -0.6506    0.0000 </r>
       <r>    4.5877    0.0000 </r>
       <r>    4.9100    0.0000 </r>
      </set>
      <set comment="kpoint 232">
       <r>  -17.4373    1.0000 </r>
       <r>  -16.9016    1.0000 </r>
       <r>  -15.8800    1.0000 </r>
       <r>  -15.3535    1.0000 </r>
       <r>   -9.4613    1.0000 </r>
       <r>   -9.2412    1.0000 </r>
       <r>   -5.3029    1.0000 </r>
       <r>   -5.0045    1.0000 </r>
       <r>   -1.1241    0.0000 </r>
       <r>   -0.7989    0.0000 </r>
       <r>    4.4109    0.0000 </r>
       <r>    4.6325    0.0000 </r>
      </set>
      <set comment="kpoint 233">
       <r>  -17.2736    1.0000 </r>
       <r>  -16.9799    1.0000 </r>
       <r>  -15.8531    1.0000 </r>
       <r>  -15.5639    1.0000 </r>
       <r>   -9.3160    1.0000 </r>
       <r>   -9.2039    1.0000 </r>
       <r>   -5.2147    1.0000 </r>
       <r>   -5.0623    1.0000 </r>
       <r>   -1.0905    0.0000 </r>
       <r>   -0.9248    0.0000 </r>
       <r>    4.3258    0.0000 </r>
       <r>    4.4388    0.0000 </r>
      </set>
      <set comment="kpoint 234">
       <r>  -17.1144    1.0000 </r>
       <r>  -17.1144    1.0000 </r>
       <r>  -15.7372    1.0000 </r>
       <r>  -15.7372    1.0000 </r>
       <r>   -9.2291    1.0000 </r>
       <r>   -9.2291    1.0000 </r>
       <r>   -5.1333    1.0000 </r>
       <r>   -5.1333    1.0000 </r>
       <r>   -1.0233    0.0000 </r>
       <r>   -1.0233    0.0000 </r>
       <r>    4.3354    0.0000 </r>
       <r>    4.3354    0.0000 </r>
      </set>
      <set comment="kpoint 235">
       <r>  -17.8800    1.0000 </r>
       <r>  -17.8800    1.0000 </r>
       <r>  -13.3382    1.0000 </r>
       <r>  -13.3382    1.0000 </r>
       <r>  -11.6486    1.0000 </r>
       <r>  -11.6486    1.0000 </r>
       <r>   -5.4288    1.0000 </r>
       <r>   -5.4288    1.0000 </r>
       <r>   -0.0360    0.0000 </r>
       <r>   -0.0360    0.0000 </r>
       <r>    6.5148    0.0000 </r>
       <r>    6.5148    0.0000 </r>
      </set>
      <set comment="kpoint 236">
       <r>  -17.8709    1.0000 </r>
       <r>  -17.8709    1.0000 </r>
       <r>  -13.4146    1.0000 </r>
       <r>  -13.4146    1.0000 </r>
       <r>  -11.5695    1.0000 </r>
       <r>  -11.5695    1.0000 </r>
       <r>   -5.4235    1.0000 </r>
       <r>   -5.4235    1.0000 </r>
       <r>   -0.0553    0.0000 </r>
       <r>   -0.0553    0.0000 </r>
       <r>    6.5280    0.0000 </r>
       <r>    6.5280    0.0000 </r>
      </set>
      <set comment="kpoint 237">
       <r>  -17.8437    1.0000 </r>
       <r>  -17.8437    1.0000 </r>
       <r>  -13.6102    1.0000 </r>
       <r>  -13.6102    1.0000 </r>
       <r>  -11.3666    1.0000 </r>
       <r>  -11.3666    1.0000 </r>
       <r>   -5.4078    1.0000 </r>
       <r>   -5.4078    1.0000 </r>
       <r>   -0.1117    0.0000 </r>
       <r>   -0.1117    0.0000 </r>
       <r>    6.5672    0.0000 </r>
       <r>    6.5672    0.0000 </r>
      </set>
      <set comment="kpoint 238">
       <r>  -17.7987    1.0000 </r>
       <r>  -17.7987    1.0000 </r>
       <r>  -13.8692    1.0000 </r>
       <r>  -13.8692    1.0000 </r>
       <r>  -11.0970    1.0000 </r>
       <r>  -11.0970    1.0000 </r>
       <r>   -5.3825    1.0000 </r>
       <r>   -5.3825    1.0000 </r>
       <r>   -0.2004    0.0000 </r>
       <r>   -0.2004    0.0000 </r>
       <r>    6.6309    0.0000 </r>
       <r>    6.6309    0.0000 </r>
      </set>
      <set comment="kpoint 239">
       <r>  -17.7361    1.0000 </r>
       <r>  -17.7361    1.0000 </r>
       <r>  -14.1551    1.0000 </r>
       <r>  -14.1551    1.0000 </r>
       <r>  -10.7997    1.0000 </r>
       <r>  -10.7997    1.0000 </r>
       <r>   -5.3488    1.0000 </r>
       <r>   -5.3488    1.0000 </r>
       <r>   -0.3143    0.0000 </r>
       <r>   -0.3143    0.0000 </r>
       <r>    6.6992    0.0000 </r>
       <r>    6.6992    0.0000 </r>
      </set>
      <set comment="kpoint 240">
       <r>  -17.6567    1.0000 </r>
       <r>  -17.6567    1.0000 </r>
       <r>  -14.4487    1.0000 </r>
       <r>  -14.4487    1.0000 </r>
       <r>  -10.4973    1.0000 </r>
       <r>  -10.4973    1.0000 </r>
       <r>   -5.3082    1.0000 </r>
       <r>   -5.3082    1.0000 </r>
       <r>   -0.4448    0.0000 </r>
       <r>   -0.4448    0.0000 </r>
       <r>    6.3530    0.0000 </r>
       <r>    6.3530    0.0000 </r>
      </set>
      <set comment="kpoint 241">
       <r>  -17.5614    1.0000 </r>
       <r>  -17.5614    1.0000 </r>
       <r>  -14.7390    1.0000 </r>
       <r>  -14.7390    1.0000 </r>
       <r>  -10.2047    1.0000 </r>
       <r>  -10.2047    1.0000 </r>
       <r>   -5.2631    1.0000 </r>
       <r>   -5.2631    1.0000 </r>
       <r>   -0.5828    0.0000 </r>
       <r>   -0.5828    0.0000 </r>
       <r>    5.8618    0.0000 </r>
       <r>    5.8618    0.0000 </r>
      </set>
      <set comment="kpoint 242">
       <r>  -17.4519    1.0000 </r>
       <r>  -17.4519    1.0000 </r>
       <r>  -15.0189    1.0000 </r>
       <r>  -15.0189    1.0000 </r>
       <r>   -9.9335    1.0000 </r>
       <r>   -9.9335    1.0000 </r>
       <r>   -5.2162    1.0000 </r>
       <r>   -5.2162    1.0000 </r>
       <r>   -0.7192    0.0000 </r>
       <r>   -0.7192    0.0000 </r>
       <r>    5.4177    0.0000 </r>
       <r>    5.4177    0.0000 </r>
      </set>
      <set comment="kpoint 243">
       <r>  -17.3312    1.0000 </r>
       <r>  -17.3312    1.0000 </r>
       <r>  -15.2823    1.0000 </r>
       <r>  -15.2823    1.0000 </r>
       <r>   -9.6940    1.0000 </r>
       <r>   -9.6940    1.0000 </r>
       <r>   -5.1706    1.0000 </r>
       <r>   -5.1706    1.0000 </r>
       <r>   -0.8453    0.0000 </r>
       <r>   -0.8453    0.0000 </r>
       <r>    5.0355    0.0000 </r>
       <r>    5.0355    0.0000 </r>
      </set>
      <set comment="kpoint 244">
       <r>  -17.2046    1.0000 </r>
       <r>  -17.2046    1.0000 </r>
       <r>  -15.5215    1.0000 </r>
       <r>  -15.5215    1.0000 </r>
       <r>   -9.4957    1.0000 </r>
       <r>   -9.4957    1.0000 </r>
       <r>   -5.1300    1.0000 </r>
       <r>   -5.1300    1.0000 </r>
       <r>   -0.9532    0.0000 </r>
       <r>   -0.9532    0.0000 </r>
       <r>    4.7254    0.0000 </r>
       <r>    4.7254    0.0000 </r>
      </set>
      <set comment="kpoint 245">
       <r>  -17.0827    1.0000 </r>
       <r>  -17.0827    1.0000 </r>
       <r>  -15.7246    1.0000 </r>
       <r>  -15.7246    1.0000 </r>
       <r>   -9.3470    1.0000 </r>
       <r>   -9.3470    1.0000 </r>
       <r>   -5.0978    1.0000 </r>
       <r>   -5.0978    1.0000 </r>
       <r>   -1.0358    0.0000 </r>
       <r>   -1.0358    0.0000 </r>
       <r>    4.4965    0.0000 </r>
       <r>    4.4965    0.0000 </r>
      </set>
      <set comment="kpoint 246">
       <r>  -16.9864    1.0000 </r>
       <r>  -16.9864    1.0000 </r>
       <r>  -15.8700    1.0000 </r>
       <r>  -15.8700    1.0000 </r>
       <r>   -9.2547    1.0000 </r>
       <r>   -9.2547    1.0000 </r>
       <r>   -5.0770    1.0000 </r>
       <r>   -5.0770    1.0000 </r>
       <r>   -1.0877    0.0000 </r>
       <r>   -1.0877    0.0000 </r>
       <r>    4.3560    0.0000 </r>
       <r>    4.3560    0.0000 </r>
      </set>
      <set comment="kpoint 247">
       <r>  -16.9478    1.0000 </r>
       <r>  -16.9478    1.0000 </r>
       <r>  -15.9250    1.0000 </r>
       <r>  -15.9250    1.0000 </r>
       <r>   -9.2234    1.0000 </r>
       <r>   -9.2234    1.0000 </r>
       <r>   -5.0698    1.0000 </r>
       <r>   -5.0698    1.0000 </r>
       <r>   -1.1054    0.0000 </r>
       <r>   -1.1054    0.0000 </r>
       <r>    4.3086    0.0000 </r>
       <r>    4.3086    0.0000 </r>
      </set>
     </set>
    </set>
   </array>
  </eigenvalues>
  <separator name="orbital magnetization" >
   <v name="MAGDIPOLOUT">      0.00000000      0.00000000      0.00000000</v>
  </separator>
 </calculation>
 <structure name="finalpos" >
  <crystal>
   <varray name="basis" >
    <v>       4.31727383       0.00000000       0.00000000 </v>
    <v>       0.00000000       2.46271552       0.00000000 </v>
    <v>       0.00000000       0.00000000      19.83009717 </v>
   </varray>
   <i name="volume">    210.83790140 </i>
   <varray name="rec_basis" >
    <v>       0.23162765       0.00000000       0.00000000 </v>
    <v>       0.00000000       0.40605583       0.00000000 </v>
    <v>       0.00000000       0.00000000       0.05042840 </v>
   </varray>
  </crystal>
  <varray name="positions" >
   <v>       0.99974923       0.00000000       0.00000000 </v>
   <v>       0.16691744       0.50000000      -0.00000000 </v>
   <v>       0.49974923       0.50000000       0.00000000 </v>
   <v>       0.66691744       0.00000000      -0.00000000 </v>
  </varray>
 </structure>
</modeling>
