gr                                      
           1
     4.317274    0.000000    0.000000
     0.000000    2.462716    0.000000
     0.000000    0.000000   19.830097
   C 
   4
Direct configuration=     1
   0.99972986  0.00000000  0.00000000
   0.16693681  0.50000000  0.00000000
   0.49972986  0.50000000  0.00000000
   0.66693681  0.00000000  0.00000000
Direct configuration=     2
   0.99982586  0.00000000 -0.00000000
   0.16684081  0.50000000  0.00000000
   0.49982586  0.50000000 -0.00000000
   0.66684081  0.00000000  0.00000000
Direct configuration=     3
   0.99974922  0.00000000 -0.00000000
   0.16691745  0.50000000  0.00000000
   0.49974922  0.50000000 -0.00000000
   0.66691745  0.00000000  0.00000000
Direct configuration=     4
   0.99974923 -0.00000000 -0.00000000
   0.16691744  0.50000000  0.00000000
   0.49974923  0.50000000 -0.00000000
   0.66691744  0.00000000  0.00000000
Direct configuration=     5
   0.99974923  0.00000000  0.00000000
   0.16691743  0.50000000 -0.00000000
   0.49974923  0.50000000  0.00000000
   0.66691743 -0.00000000 -0.00000000
Direct configuration=     6
   0.99974923  0.00000000  0.00000000
   0.16691744  0.50000000 -0.00000000
   0.49974923  0.50000000  0.00000000
   0.66691744  0.00000000 -0.00000000
