 running on    8 total cores
 distrk:  each k-point on    8 cores,    1 groups
 distr:  one band on    2 cores,    4 groups
 using from now: INCAR     
 vasp.5.3.5 31Mar14 (build Mar 02 2015 18:14:16) complex                        
  
 POSCAR found type information on POSCAR  C 
 POSCAR found :  1 types and       4 ions
 LDA part: xc-table for Pade appr. of Perdew
 POSCAR, INCAR and KPOINTS ok, starting setup
 WARNING: small aliasing (wrap around) errors must be expected
 FFT: planning ...
 WAVECAR not read
 entering main loop
       N       E                     dE             d eps       ncg     rms          rms(c)
DAV:   1     0.188510251147E+03    0.18851E+03   -0.10635E+04  5928   0.275E+03
DAV:   2    -0.897375867124E+01   -0.19748E+03   -0.17495E+03 10336   0.260E+02
DAV:   3    -0.382655855911E+02   -0.29292E+02   -0.28609E+02  7336   0.119E+02    0.724E+00
RMM:   4    -0.376715497232E+02    0.59404E+00   -0.96766E+00  5928   0.266E+01    0.420E+00
RMM:   5    -0.369248194431E+02    0.74673E+00   -0.27945E+00  5932   0.114E+01    0.722E-01
RMM:   6    -0.369266255045E+02   -0.18061E-02   -0.85734E-02  6376   0.204E+00    0.511E-01
RMM:   7    -0.369171434480E+02    0.94821E-02   -0.32010E-02  5942   0.156E+00    0.333E-01
RMM:   8    -0.369119068648E+02    0.52366E-02   -0.70457E-03  5931   0.557E-01    0.132E-01
RMM:   9    -0.369115790282E+02    0.32784E-03   -0.19868E-02  5928   0.832E-01    0.156E-01
RMM:  10    -0.369115064013E+02    0.72627E-04   -0.25047E-03  5928   0.361E-01    0.302E-02
RMM:  11    -0.369139853957E+02   -0.24790E-02   -0.67964E-04  5934   0.170E-01    0.443E-02
RMM:  12    -0.369144530159E+02   -0.46762E-03   -0.22420E-04  5943   0.987E-02    0.470E-03
RMM:  13    -0.369147051555E+02   -0.25214E-03   -0.49672E-05  6020   0.388E-02    0.423E-03
RMM:  14    -0.369147881258E+02   -0.82970E-04   -0.11052E-05  5950   0.184E-02    0.190E-03
RMM:  15    -0.369147967827E+02   -0.86569E-05   -0.15023E-06  5999   0.727E-03    0.117E-03
RMM:  16    -0.369148086144E+02   -0.11832E-04   -0.63663E-07  5935   0.496E-03    0.665E-04
RMM:  17    -0.369148134976E+02   -0.48832E-05   -0.42164E-08  6120   0.140E-03    0.711E-04
RMM:  18    -0.369148146929E+02   -0.11953E-05   -0.50783E-08  5929   0.169E-03    0.793E-05
WARNING in EDDRMM: call to ZHEGV failed, returncode =   6  3  1
WARNING in EDDRMM: call to ZHEGV failed, returncode =   6  3  1
WARNING in EDDRMM: call to ZHEGV failed, returncode =   6  3  1
RMM:  19    -0.369148154710E+02   -0.77816E-06   -0.10736E-08  5952   0.487E-04    0.199E-05
RMM:  20    -0.369148155228E+02   -0.51749E-07   -0.74462E-10  4465   0.130E-04    0.246E-05
RMM:  21    -0.369148155417E+02   -0.18886E-07   -0.26685E-10  4404   0.965E-05    0.391E-06
RMM:  22    -0.369148155416E+02    0.27626E-10   -0.91123E-12  3886   0.415E-05
   1 F= -.36914816E+02 E0= -.36914800E+02  d E =-.369148E+02
 BRION: g(F)=  0.112E-05 g(S)=  0.000E+00
 bond charge predicted
       N       E                     dE             d eps       ncg     rms          rms(c)
DAV:   1    -0.369148137937E+02    0.17480E-05   -0.15095E-04  6644   0.116E-01    0.242E-03
RMM:   2    -0.369148138933E+02   -0.99594E-07   -0.25084E-06  5940   0.139E-02    0.175E-03
RMM:   3    -0.369148138308E+02    0.62492E-07   -0.42288E-07  5973   0.525E-03    0.452E-04
RMM:   4    -0.369148138213E+02    0.94738E-08   -0.26547E-08  6061   0.128E-03    0.127E-04
RMM:   5    -0.369148138229E+02   -0.16250E-08   -0.20005E-09  5943   0.320E-04    0.577E-05
RMM:   6    -0.369148138226E+02    0.31969E-09   -0.27973E-10  4318   0.135E-04    0.565E-06
RMM:   7    -0.369148138227E+02   -0.87766E-10   -0.16406E-11  3752   0.568E-05
   2 F= -.36914814E+02 E0= -.36914800E+02  d E =0.171897E-05
 BRION: g(F)=  0.187E-04 g(S)=  0.000E+00 retain N=  1 mean eig= 0.20
 eig:   0.197
 bond charge predicted
       N       E                     dE             d eps       ncg     rms          rms(c)
DAV:   1    -0.369148156608E+02   -0.18382E-05   -0.97344E-05  6604   0.930E-02    0.195E-03
RMM:   2    -0.369148157136E+02   -0.52868E-07   -0.15450E-06  5940   0.111E-02    0.140E-03
RMM:   3    -0.369148156585E+02    0.55125E-07   -0.26597E-07  5964   0.417E-03    0.343E-04
RMM:   4    -0.369148156555E+02    0.29652E-08   -0.15758E-08  6055   0.999E-04    0.101E-04
RMM:   5    -0.369148156544E+02    0.11403E-08   -0.12422E-09  5556   0.255E-04    0.470E-05
RMM:   6    -0.369148156548E+02   -0.41382E-09   -0.18097E-10  3925   0.111E-04    0.467E-06
RMM:   7    -0.369148156545E+02    0.27148E-09   -0.79590E-12  3728   0.532E-05    0.227E-06
RMM:   8    -0.369148156544E+02    0.93564E-10   -0.15147E-11  3427   0.425E-05
   3 F= -.36914816E+02 E0= -.36914801E+02  d E =-.183176E-05
 BRION: g(F)=  0.644E-11 g(S)=  0.000E+00 retain N=  1 mean eig= 0.20
 eig:   0.197
 bond charge predicted
       N       E                     dE             d eps       ncg     rms          rms(c)
DAV:   1    -0.369148156543E+02    0.27421E-09    0.56825E-09  4736   0.608E-05    0.703E-07
RMM:   2    -0.369148156546E+02   -0.31037E-09    0.11667E-12  2388   0.207E-05    0.437E-07
RMM:   3    -0.369148156548E+02   -0.18554E-09   -0.75865E-13  2144   0.208E-05    0.481E-08
RMM:   4    -0.369148156546E+02    0.15234E-09   -0.12657E-12  2025   0.207E-05    0.493E-08
RMM:   5    -0.369148156548E+02   -0.23510E-09   -0.25399E-12  1905   0.195E-05    0.218E-08
RMM:   6    -0.369148156547E+02    0.12426E-09   -0.65733E-13  1805   0.185E-05    0.171E-08
RMM:   7    -0.369148156546E+02    0.71282E-10   -0.49310E-13  1731   0.180E-05
   4 F= -.36914816E+02 E0= -.36914801E+02  d E =-.202476E-09
 BRION: g(F)=  0.800E-11 g(S)=  0.000E+00 retain N=  1 mean eig= 0.09
 eig:   0.093
 bond charge predicted
       N       E                     dE             d eps       ncg     rms          rms(c)
DAV:   1    -0.369148156541E+02    0.57798E-09    0.57063E-09  4476   0.298E-05    0.386E-07
RMM:   2    -0.369148156543E+02   -0.19918E-09    0.30803E-13  1355   0.950E-06    0.238E-07
RMM:   3    -0.369148156546E+02   -0.21862E-09    0.36674E-13  1349   0.935E-06    0.119E-08
RMM:   4    -0.369148156546E+02   -0.87766E-10    0.18705E-13  1278   0.922E-06    0.744E-09
RMM:   5    -0.369148156546E+02    0.43428E-10    0.66367E-14  1310   0.928E-06
   5 F= -.36914816E+02 E0= -.36914801E+02  d E =0.445652E-10
 BRION: g(F)=  0.944E-14 g(S)=  0.000E+00 retain N=  1 mean eig= 0.10
 eig:   0.096
 reached required accuracy - stopping structural energy minimisation
