    4    4  400    1
  0.5270948E+02  0.4265755E-09  0.2491603E-09  0.1983690E-08  0.5000000E-15
  1.000000000000000E-004
  CAR 
 gr                                      
     16    247     12
 
  0.0000000E+00  0.0000000E+00  0.0000000E+00  0.1157407E-02
    1      -22.185468
    2      -16.894389
    3      -15.928980
    4      -10.306282
    5       -9.290462
    6       -5.873852
    7       -5.763907
    8       -5.028163
    9       -1.098882
   10        0.531992
   11        1.331949
   12        1.718939
 
  0.4166667E-01  0.0000000E+00  0.0000000E+00  0.2314815E-02
    1      -22.175167
    2      -17.070875
    3      -15.737323
    4      -10.294009
    5       -9.280184
    6       -5.896886
    7       -5.805649
    8       -5.096073
    9       -1.015439
   10        0.545958
   11        1.346081
   12        1.733245
 
  0.8333333E-01  0.0000000E+00  0.0000000E+00  0.2314815E-02
    1      -22.144271
    2      -17.419672
    3      -15.343101
    4      -10.257208
    5       -9.249399
    6       -5.964690
    7       -5.929237
    8       -5.284009
    9       -0.781075
   10        0.587859
   11        1.388474
   12        1.776163
 
  0.1250000E+00  0.0000000E+00  0.0000000E+00  0.2314815E-02
    1      -22.092798
    2      -17.802921
    3      -14.884441
    4      -10.195938
    5       -9.198259
    6       -6.130026
    7       -6.073599
    8       -5.557208
    9       -0.431077
   10        0.657693
   11        1.459115
   12        1.847694
 
  0.1666667E+00  0.0000000E+00  0.0000000E+00  0.2314815E-02
    1      -22.020782
    2      -18.186445
    3      -14.395976
    4      -10.110294
    5       -9.127025
    6       -6.401048
    7       -6.218169
    8       -5.881761
    9       -0.000237
   10        0.755459
   11        1.557984
   12        1.947838
 
  0.2083333E+00  0.0000000E+00  0.0000000E+00  0.2314815E-02
    1      -21.928274
    2      -18.560119
    3      -13.888493
    4      -10.000418
    5       -9.036073
    6       -6.733908
    7       -6.391929
    8       -6.232827
    9        0.485349
   10        0.881149
   11        1.685049
   12        2.076595
 
  0.2500000E+00  0.0000000E+00  0.0000000E+00  0.2314815E-02
    1      -21.815336
    2      -18.919900
    3      -13.366901
    4       -9.866498
    5       -8.925905
    6       -7.119646
    7       -6.594056
    8       -6.588084
    9        1.007673
   10        1.034746
   11        1.840262
   12        2.233963
 
  0.2916667E+00  0.0000000E+00  0.0000000E+00  0.2314815E-02
    1      -21.682047
    2      -19.263781
    3      -12.834320
    4       -9.708778
    5       -8.797169
    6       -7.549411
    7       -6.954930
    8       -6.800052
    9        1.216221
   10        1.554094
   11        2.023552
   12        2.419938
 
  0.3333333E+00  0.0000000E+00  0.0000000E+00  0.2314815E-02
    1      -21.528507
    2      -19.590586
    3      -12.293300
    4       -9.527566
    5       -8.650678
    6       -8.014902
    7       -7.308584
    8       -7.021802
    9        1.425534
   10        2.114989
   11        2.234805
   12        2.634514
 
  0.3750000E+00  0.0000000E+00  0.0000000E+00  0.2314815E-02
    1      -21.354828
    2      -19.899546
    3      -11.746294
    4       -9.323250
    5       -8.508603
    6       -8.487440
    7       -7.650408
    8       -7.248010
    9        1.662629
   10        2.473829
   11        2.681679
   12        2.877680
 
  0.4166667E+00  0.0000000E+00  0.0000000E+00  0.2314815E-02
    1      -21.161145
    2      -20.190108
    3      -11.195889
    4       -9.096313
    5       -9.023870
    6       -8.308691
    7       -7.977203
    8       -7.474096
    9        1.927428
   10        2.740231
   11        3.149417
   12        3.259910
 
  0.4583333E+00  0.0000000E+00  0.0000000E+00  0.2314815E-02
    1      -20.947620
    2      -20.461852
    3      -10.644946
    4       -9.554909
    5       -8.847360
    6       -8.286682
    7       -8.115942
    8       -7.696183
    9        2.219821
   10        2.886631
   11        3.032985
   12        3.449680
 
  0.5000000E+00  0.0000000E+00  0.0000000E+00  0.1157407E-02
    1      -20.714447
    2      -20.714447
    3      -10.096708
    4      -10.096708
    5       -8.577157
    6       -8.577157
    7       -7.911030
    8       -7.911030
    9        2.539646
   10        2.539646
   11        3.347804
   12        3.347804
 
  0.0000000E+00  0.2777778E-01  0.0000000E+00  0.2314815E-02
    1      -22.172066
    2      -16.882864
    3      -15.917860
    4      -10.290313
    5       -9.350679
    6       -5.929302
    7       -5.794951
    8       -5.011887
    9       -1.103726
   10        0.550150
   11        1.350355
   12        1.737571
 
  0.4166667E-01  0.2777778E-01  0.0000000E+00  0.4629630E-02
    1      -22.161766
    2      -17.059201
    3      -15.726408
    4      -10.278044
    5       -9.340378
    6       -5.957477
    7       -5.830853
    8       -5.079954
    9       -1.020249
   10        0.564117
   11        1.364486
   12        1.751877
 
  0.8333333E-01  0.2777778E-01  0.0000000E+00  0.4629630E-02
    1      -22.130874
    2      -17.407760
    3      -15.332591
    4      -10.241257
    5       -9.309526
    6       -6.046449
    7       -5.931305
    8       -5.268248
    9       -0.785900
   10        0.606020
   11        1.406876
   12        1.794796
 
  0.1250000E+00  0.2777778E-01  0.0000000E+00  0.4629630E-02
    1      -22.079408
    2      -17.790791
    3      -14.874434
    4      -10.180008
    5       -9.258270
    6       -6.212214
    7       -6.072331
    8       -5.541809
    9       -0.436163
   10        0.675859
   11        1.477513
   12        1.866327
 
  0.1666667E+00  0.2777778E-01  0.0000000E+00  0.4629630E-02
    1      -22.007403
    2      -18.174125
    3      -14.386573
    4      -10.094394
    5       -9.186862
    6       -6.461556
    7       -6.235144
    8       -5.866624
    9       -0.005935
   10        0.773632
   11        1.576375
   12        1.966473
 
  0.2083333E+00  0.2777778E-01  0.0000000E+00  0.4629630E-02
    1      -21.914909
    2      -18.547636
    3      -13.879811
    4       -9.984557
    5       -9.095668
    6       -6.780540
    7       -6.419190
    8       -6.217837
    9        0.478673
   10        0.899332
   11        1.703432
   12        2.095232
 
  0.2500000E+00  0.2777778E-01  0.0000000E+00  0.4629630E-02
    1      -21.801988
    2      -18.907277
    3      -13.359083
    4       -9.850685
    5       -8.985176
    6       -7.155816
    7       -6.622349
    8       -6.579121
    9        0.999682
   10        1.052940
   11        1.858636
   12        2.252602
 
  0.2916667E+00  0.2777778E-01  0.0000000E+00  0.4629630E-02
    1      -21.668722
    2      -19.251036
    3      -12.827539
    4       -9.693021
    5       -8.856013
    6       -7.577090
    7       -6.939985
    8       -6.839650
    9        1.234428
   10        1.544494
   11        2.041916
   12        2.438581
 
  0.3333333E+00  0.2777778E-01  0.0000000E+00  0.4629630E-02
    1      -21.515207
    2      -19.577737
    3      -12.287768
    4       -9.511875
    5       -8.708970
    6       -8.035547
    7       -7.293588
    8       -7.065648
    9        1.443755
   10        2.103562
   11        2.253161
   12        2.653161
 
  0.3750000E+00  0.2777778E-01  0.0000000E+00  0.4629630E-02
    1      -21.341558
    2      -19.886607
    3      -11.742272
    4       -9.307632
    5       -8.545022
    6       -8.523411
    7       -7.635335
    8       -7.295289
    9        1.680867
   10        2.492182
   11        2.668387
   12        2.896333
 
  0.4166667E+00  0.2777778E-01  0.0000000E+00  0.4629630E-02
    1      -21.147912
    2      -20.177092
    3      -11.193694
    4       -9.080776
    5       -9.033848
    6       -8.365370
    7       -7.962040
    8       -7.524153
    9        1.945685
   10        2.758593
   11        3.168077
   12        3.226707
 
  0.4583333E+00  0.2777778E-01  0.0000000E+00  0.4629630E-02
    1      -20.934429
    2      -20.448769
    3      -10.644968
    4       -9.560905
    5       -8.831911
    6       -8.271422
    7       -8.171478
    8       -7.748482
    9        2.238104
   10        2.905025
   11        3.051381
   12        3.468399
 
  0.5000000E+00  0.2777778E-01  0.0000000E+00  0.2314815E-02
    1      -20.701306
    2      -20.701306
    3      -10.099426
    4      -10.099426
    5       -8.561801
    6       -8.561801
    7       -7.965128
    8       -7.965128
    9        2.557969
   10        2.557969
   11        3.366199
   12        3.366199
 
  0.0000000E+00  0.5555556E-01  0.0000000E+00  0.2314815E-02
    1      -22.131869
    2      -16.848294
    3      -15.884674
    4      -10.242440
    5       -9.526458
    6       -6.091284
    7       -5.887229
    8       -4.963079
    9       -1.119072
   10        0.604631
   11        1.405567
   12        1.793467
 
  0.4166667E-01  0.5555556E-01  0.0000000E+00  0.4629630E-02
    1      -22.121574
    2      -17.024195
    3      -15.693828
    4      -10.230184
    5       -9.516086
    6       -6.126720
    7       -5.913832
    8       -5.031633
    9       -1.035485
   10        0.618600
   11        1.419695
   12        1.807774
 
  0.8333333E-01  0.5555556E-01  0.0000000E+00  0.4629630E-02
    1      -22.090694
    2      -17.372047
    3      -15.301232
    4      -10.193436
    5       -9.485015
    6       -6.231390
    7       -5.992827
    8       -5.221029
    9       -0.801170
   10        0.660509
   11        1.462076
   12        1.850694
 
  0.1250000E+00  0.5555556E-01  0.0000000E+00  0.4629630E-02
    1      -22.039250
    2      -17.754426
    3      -14.844611
    4      -10.132252
    5       -9.433378
    6       -6.401862
    7       -6.120588
    8       -5.495699
    9       -0.452221
   10        0.730359
   11        1.532697
   12        1.922228
 
  0.1666667E+00  0.5555556E-01  0.0000000E+00  0.4629630E-02
    1      -21.967278
    2      -18.137191
    3      -14.358601
    4      -10.046731
    5       -9.361403
    6       -6.634874
    7       -6.289560
    8       -5.821311
    9       -0.023859
   10        0.828149
   11        1.631539
   12        2.022377
 
  0.2083333E+00  0.5555556E-01  0.0000000E+00  0.4629630E-02
    1      -21.874825
    2      -18.510209
    3      -13.854063
    4       -9.937013
    5       -9.269420
    6       -6.927118
    7       -6.489679
    8       -6.172969
    9        0.457767
   10        0.953871
   11        1.758570
   12        2.151141
 
  0.2500000E+00  0.5555556E-01  0.0000000E+00  0.4629630E-02
    1      -21.761957
    2      -18.869427
    3      -13.336008
    4       -9.803286
    5       -9.157868
    6       -7.273927
    7       -6.710980
    8       -6.534417
    9        0.974763
   10        1.107507
   11        1.913744
   12        2.308518
 
  0.2916667E+00  0.5555556E-01  0.0000000E+00  0.4629630E-02
    1      -21.628757
    2      -19.212821
    3      -12.807689
    4       -9.645794
    5       -9.027310
    6       -7.668872
    7       -6.945140
    8       -6.895247
    9        1.289028
   10        1.514666
   11        2.096993
   12        2.494506
 
  0.3333333E+00  0.5555556E-01  0.0000000E+00  0.4629630E-02
    1      -21.475320
    2      -19.539208
    3      -12.271821
    4       -9.464846
    5       -8.878452
    6       -8.104482
    7       -7.248688
    8       -7.185605
    9        1.498392
   10        2.068135
   11        2.308212
   12        2.709098
 
  0.3750000E+00  0.5555556E-01  0.0000000E+00  0.4629630E-02
    1      -21.301764
    2      -19.847807
    3      -11.731064
    4       -9.260826
    5       -8.712165
    6       -8.573148
    7       -7.590197
    8       -7.427193
    9        1.735545
   10        2.547221
   11        2.627145
   12        2.952285
 
  0.4166667E+00  0.5555556E-01  0.0000000E+00  0.4629630E-02
    1      -21.108226
    2      -20.138059
    3      -11.188264
    4       -9.067725
    5       -9.034217
    6       -8.529515
    7       -7.916624
    8       -7.665727
    9        2.000411
   10        2.813659
   11        3.181637
   12        3.224052
 
  0.4583333E+00  0.5555556E-01  0.0000000E+00  0.4629630E-02
    1      -20.894872
    2      -20.409534
    3      -10.646598
    4       -9.581788
    5       -8.785621
    6       -8.331798
    7       -8.225712
    8       -7.897794
    9        2.292893
   10        2.960071
   11        3.106551
   12        3.524386
 
  0.5000000E+00  0.5555556E-01  0.0000000E+00  0.2314815E-02
    1      -20.661897
    2      -20.661897
    3      -10.109705
    4      -10.109705
    5       -8.515796
    6       -8.515796
    7       -8.120588
    8       -8.120588
    9        2.612851
   10        2.612851
   11        3.421364
   12        3.421364
 
  0.0000000E+00  0.8333333E-01  0.0000000E+00  0.2314815E-02
    1      -22.064914
    2      -16.790690
    3      -15.829975
    4      -10.162761
    5       -9.804524
    6       -6.348000
    7       -6.038248
    8       -4.881798
    9       -1.147360
   10        0.695451
   11        1.497563
   12        1.886632
 
  0.4166667E-01  0.8333333E-01  0.0000000E+00  0.4629630E-02
    1      -22.054626
    2      -16.965911
    3      -15.640109
    4      -10.150528
    5       -9.794013
    6       -6.388659
    7       -6.056403
    8       -4.951216
    9       -1.063559
   10        0.709421
   11        1.511686
   12        1.900939
 
  0.8333333E-01  0.8333333E-01  0.0000000E+00  0.4629630E-02
    1      -22.023768
    2      -17.312616
    3      -15.249576
    4      -10.113847
    5       -9.762515
    6       -6.503497
    7       -6.116073
    8       -5.142551
    9       -0.829255
   10        0.751333
   11        1.554049
   12        1.943860
 
  0.1250000E+00  0.8333333E-01  0.0000000E+00  0.4629630E-02
    1      -21.972362
    2      -17.693909
    3      -14.795605
    4      -10.052776
    5       -9.710136
    6       -6.679341
    7       -6.224756
    8       -5.419150
    9       -0.481633
   10        0.821191
   11        1.624643
   12        2.015396
 
  0.1666667E+00  0.8333333E-01  0.0000000E+00  0.4629630E-02
    1      -21.900443
    2      -18.075719
    3      -14.312834
    4       -9.967413
    5       -9.637056
    6       -6.905998
    7       -6.383629
    8       -5.746132
    9       -0.056468
   10        0.918997
   11        1.723446
   12        2.115549
 
  0.2083333E+00  0.8333333E-01  0.0000000E+00  0.4629630E-02
    1      -21.808061
    2      -18.447910
    3      -13.812222
    4       -9.857898
    5       -9.543529
    6       -7.177654
    7       -6.586895
    8       -6.098544
    9        0.420036
   10        1.044742
   11        1.850429
   12        2.244319
 
  0.2500000E+00  0.8333333E-01  0.0000000E+00  0.4629630E-02
    1      -21.695283
    2      -18.806415
    3      -13.298933
    4       -9.724421
    5       -9.429893
    6       -7.491812
    7       -6.823804
    8       -6.460254
    9        0.930140
   10        1.198410
   11        2.005546
   12        2.401705
 
  0.2916667E+00  0.8333333E-01  0.0000000E+00  0.4629630E-02
    1      -21.562191
    2      -19.149195
    3      -12.776417
    4       -9.567224
    5       -9.296574
    6       -7.847534
    7       -7.081434
    8       -6.821008
    9        1.379970
   10        1.461608
   11        2.188734
   12        2.587704
 
  0.3333333E+00  0.8333333E-01  0.0000000E+00  0.4629630E-02
    1      -21.408884
    2      -19.475052
    3      -12.247649
    4       -9.386616
    5       -9.144096
    6       -8.243314
    7       -7.347705
    8       -7.174157
    9        1.589378
   10        2.005404
   11        2.399897
   12        2.802311
 
  0.3750000E+00  0.8333333E-01  0.0000000E+00  0.4629630E-02
    1      -21.235483
    2      -19.783196
    3      -11.715622
    4       -9.182981
    5       -8.973091
    6       -8.675676
    7       -7.613414
    8       -7.515247
    9        1.826578
   10        2.554108
   11        2.638876
   12        3.045517
 
  0.4166667E+00  0.8333333E-01  0.0000000E+00  0.4629630E-02
    1      -21.042127
    2      -20.073055
    3      -11.183603
    4       -9.139258
    5       -8.956798
    6       -8.784313
    7       -7.872512
    8       -7.841187
    9        2.091497
   10        2.905351
   11        3.100050
   12        3.317312
 
  0.4583333E+00  0.8333333E-01  0.0000000E+00  0.4629630E-02
    1      -20.828988
    2      -20.344192
    3      -10.655309
    4       -9.627794
    5       -8.708665
    6       -8.578657
    7       -8.149762
    8       -8.121245
    9        2.384043
   10        3.051470
   11        3.198440
   12        3.614704
 
  0.5000000E+00  0.8333333E-01  0.0000000E+00  0.2314815E-02
    1      -20.596264
    2      -20.596264
    3      -10.135043
    4      -10.135043
    5       -8.439334
    6       -8.439334
    7       -8.357196
    8       -8.357196
    9        2.704093
   10        2.704093
   11        3.513223
   12        3.513223
 
  0.0000000E+00  0.1111111E+00  0.0000000E+00  0.2314815E-02
    1      -21.971263
    2      -16.710072
    3      -15.754810
    4      -10.166322
    5      -10.051446
    6       -6.683280
    7       -6.244070
    8       -4.768145
    9       -1.192596
   10        0.822631
   11        1.626306
   12        2.017070
 
  0.4166667E-01  0.1111111E+00  0.0000000E+00  0.4629630E-02
    1      -21.960985
    2      -16.884445
    3      -15.566256
    4      -10.155570
    5      -10.039246
    6       -6.727819
    7       -6.254166
    8       -4.838893
    9       -1.108413
   10        0.836598
   11        1.640419
   12        2.031376
 
  0.8333333E-01  0.1111111E+00  0.0000000E+00  0.4629630E-02
    1      -21.930159
    2      -17.229609
    3      -15.178678
    4      -10.123332
    5      -10.002664
    6       -6.850634
    7       -6.293917
    8       -5.033177
    9       -0.874001
   10        0.878505
   11        1.682755
   12        2.074296
 
  0.1250000E+00  0.1111111E+00  0.0000000E+00  0.4629630E-02
    1      -21.878805
    2      -17.609388
    3      -14.728654
    4      -10.069662
    5       -9.941758
    6       -7.032363
    7       -6.378638
    8       -5.312662
    9       -0.528235
   10        0.948357
   11        1.753304
   12        2.145832
 
  0.1666667E+00  0.1111111E+00  0.0000000E+00  0.4629630E-02
    1      -21.806961
    2      -17.989849
    3      -14.250801
    4       -9.994645
    5       -9.856625
    6       -7.258230
    7       -6.516300
    8       -5.641652
    9       -0.107703
   10        1.046162
   11        1.852043
   12        2.245987
 
  0.2083333E+00  0.1111111E+00  0.0000000E+00  0.4629630E-02
    1      -21.714679
    2      -18.360865
    3      -13.756247
    4       -9.898396
    5       -9.747408
    6       -7.519139
    7       -6.706647
    8       -5.995135
    9        0.361347
   10        1.171916
   11        1.978943
   12        2.374761
 
  0.2500000E+00  0.1111111E+00  0.0000000E+00  0.4629630E-02
    1      -21.602026
    2      -18.718355
    3      -13.250427
    4       -9.781051
    5       -9.614295
    6       -7.810274
    7       -6.943131
    8       -6.357189
    9        0.861431
   10        1.325603
   11        2.133963
   12        2.532154
 
  0.2916667E+00  0.1111111E+00  0.0000000E+00  0.4629630E-02
    1      -21.469087
    2      -19.060260
    3      -12.737162
    4       -9.642756
    5       -9.457531
    6       -8.130211
    7       -7.214614
    8       -6.717792
    9        1.380644
   10        1.507190
   11        2.317042
   12        2.718164
 
  0.3333333E+00  0.1111111E+00  0.0000000E+00  0.4629630E-02
    1      -21.315965
    2      -19.385365
    3      -12.219921
    4       -9.483649
    5       -9.277422
    6       -8.480031
    7       -7.507140
    8       -7.070478
    9        1.716631
   10        1.910342
   11        2.528096
   12        2.932785
 
  0.3750000E+00  0.1111111E+00  0.0000000E+00  0.4629630E-02
    1      -21.142781
    2      -19.692861
    3      -11.702350
    4       -9.303845
    5       -9.074352
    6       -8.861740
    7       -7.806272
    8       -7.410925
    9        1.953866
   10        2.443703
   11        2.766995
   12        3.176010
 
  0.4166667E+00  0.1111111E+00  0.0000000E+00  0.4629630E-02
    1      -20.949684
    2      -19.982162
    3      -11.188566
    4       -9.276103
    5       -9.103412
    6       -8.848797
    7       -8.099781
    8       -7.736129
    9        2.218820
   10        2.974692
   11        3.033492
   12        3.447829
 
  0.4583333E+00  0.1111111E+00  0.0000000E+00  0.4629630E-02
    1      -20.736848
    2      -20.252820
    3      -10.683343
    4       -9.721119
    5       -8.882388
    6       -8.601348
    7       -8.379429
    8       -8.043936
    9        2.511403
   10        3.178953
   11        3.326896
   12        3.494828
 
  0.5000000E+00  0.1111111E+00  0.0000000E+00  0.2314815E-02
    1      -20.504479
    2      -20.504479
    3      -10.192179
    4      -10.192179
    5       -8.640883
    6       -8.640883
    7       -8.332747
    8       -8.332747
    9        2.831498
   10        2.831498
   11        3.641409
   12        3.641409
 
  0.0000000E+00  0.1388889E+00  0.0000000E+00  0.2314815E-02
    1      -21.851006
    2      -16.606471
    3      -15.660960
    4      -10.591266
    5       -9.908740
    6       -7.079825
    7       -6.499603
    8       -4.622264
    9       -1.260199
   10        0.986183
   11        1.791738
   12        2.184784
 
  0.4166667E-01  0.1388889E+00  0.0000000E+00  0.4629630E-02
    1      -21.840741
    2      -16.779954
    3      -15.473987
    4      -10.580108
    5       -9.896584
    6       -7.127646
    7       -6.501555
    8       -4.694961
    9       -1.175342
   10        1.000143
   11        1.805837
   12        2.199090
 
  0.8333333E-01  0.1388889E+00  0.0000000E+00  0.4629630E-02
    1      -21.809955
    2      -17.123260
    3      -15.090381
    4      -10.546618
    5       -9.860136
    6       -7.257618
    7       -6.520159
    8       -4.893501
    9       -0.940498
   10        1.042030
   11        1.848131
   12        2.242007
 
  0.1250000E+00  0.1388889E+00  0.0000000E+00  0.4629630E-02
    1      -21.758670
    2      -17.501101
    3      -14.645953
    4      -10.490749
    5       -9.799453
    6       -7.445775
    7       -6.576996
    8       -5.177043
    9       -0.597040
   10        1.111855
   11        1.918606
   12        2.313539
 
  0.1666667E+00  0.1388889E+00  0.0000000E+00  0.4629630E-02
    1      -21.686925
    2      -17.879799
    3      -14.175283
    4      -10.412404
    5       -9.714634
    6       -7.674036
    7       -6.685707
    8       -5.508769
    9       -0.182662
   10        1.209631
   11        2.017241
   12        2.413689
 
  0.2083333E+00  0.1388889E+00  0.0000000E+00  0.4629630E-02
    1      -21.594772
    2      -18.249268
    3      -13.689793
    4      -10.311414
    5       -9.605822
    6       -7.931045
    7       -6.850861
    8       -5.863647
    9        0.276414
   10        1.335362
   11        2.144006
   12        2.542462
 
  0.2500000E+00  0.1388889E+00  0.0000000E+00  0.4629630E-02
    1      -21.482281
    2      -18.605420
    3      -13.195417
    4      -10.187499
    5       -9.473207
    6       -8.209937
    7       -7.070252
    8       -6.226087
    9        0.763117
   10        1.489037
   11        2.298856
   12        2.699858
 
  0.2916667E+00  0.1388889E+00  0.0000000E+00  0.4629630E-02
    1      -21.349541
    2      -18.946174
    3      -12.696691
    4      -10.040211
    5       -9.317034
    6       -8.507129
    7       -7.336613
    8       -6.586404
    9        1.266028
   10        1.670623
   11        2.481735
   12        2.885874
 
  0.3333333E+00  0.1388889E+00  0.0000000E+00  0.4629630E-02
    1      -21.196657
    2      -19.270289
    3      -12.198058
    4       -9.868866
    5       -9.137609
    6       -8.821881
    7       -7.638858
    8       -6.938389
    9        1.777004
   10        1.880071
   11        2.692567
   12        3.100506
 
  0.3750000E+00  0.1388889E+00  0.0000000E+00  0.4629630E-02
    1      -21.023757
    2      -19.576933
    3      -11.704446
    4       -9.672477
    5       -9.156068
    6       -8.935315
    7       -7.963145
    8       -7.277902
    9        2.117314
   10        2.289804
   11        2.931248
   12        3.343746
 
  0.4166667E+00  0.1388889E+00  0.0000000E+00  0.4629630E-02
    1      -20.830997
    2      -19.865502
    3      -11.221524
    4       -9.513538
    5       -9.449784
    6       -8.710623
    7       -8.294204
    8       -7.602059
    9        2.382271
   10        2.799316
   11        3.197630
   12        3.615584
 
  0.4583333E+00  0.1388889E+00  0.0000000E+00  0.4629630E-02
    1      -20.618557
    2      -20.135532
    3      -10.755617
    4       -9.898477
    5       -9.199535
    6       -8.617405
    7       -8.464119
    8       -7.908785
    9        2.674846
   10        3.301029
   11        3.342352
   12        3.491399
 
  0.5000000E+00  0.1388889E+00  0.0000000E+00  0.2314815E-02
    1      -20.386650
    2      -20.386650
    3      -10.313014
    4      -10.313014
    5       -8.921357
    6       -8.921357
    7       -8.196533
    8       -8.196533
    9        2.994922
   10        2.994922
   11        3.778126
   12        3.778196
 
  0.0000000E+00  0.1666667E+00  0.0000000E+00  0.2314815E-02
    1      -21.704261
    2      -16.479926
    3      -15.551429
    4      -11.058741
    5       -9.734967
    6       -7.521489
    7       -6.798948
    8       -4.444346
    9       -1.356668
   10        1.186104
   11        1.993781
   12        2.389779
 
  0.4166667E-01  0.1666667E+00  0.0000000E+00  0.4629630E-02
    1      -21.694013
    2      -16.652684
    3      -15.366224
    4      -11.046887
    5       -9.722869
    6       -7.572368
    7       -6.792571
    8       -4.519884
    9       -1.270598
   10        1.200052
   11        2.007858
   12        2.404082
 
  0.8333333E-01  0.1666667E+00  0.0000000E+00  0.4629630E-02
    1      -21.663278
    2      -16.993928
    3      -14.987888
    4      -11.011245
    5       -9.686596
    6       -7.709262
    7       -6.788980
    8       -4.724470
    9       -1.034582
   10        1.241903
   11        2.050082
   12        2.446993
 
  0.1250000E+00  0.1666667E+00  0.0000000E+00  0.4629630E-02
    1      -21.612078
    2      -17.369404
    3      -14.551432
    4      -10.951554
    5       -9.626207
    6       -7.904343
    7       -6.815142
    8       -5.013561
    9       -0.693667
   10        1.311673
   11        2.120438
   12        2.518516
 
  0.1666667E+00  0.1666667E+00  0.0000000E+00  0.4629630E-02
    1      -21.540453
    2      -17.745893
    3      -14.091413
    4      -10.867337
    5       -9.541801
    6       -8.136911
    7       -6.889600
    8       -5.348866
    9       -0.286958
   10        1.409383
   11        2.218901
   12        2.618655
 
  0.2083333E+00  0.1666667E+00  0.0000000E+00  0.4629630E-02
    1      -21.448459
    2      -18.113408
    3      -13.619825
    4      -10.757819
    5       -9.433522
    6       -8.394082
    7       -7.021098
    8       -5.705448
    9        0.159523
   10        1.535048
   11        2.345431
   12        2.747418
 
  0.2500000E+00  0.1666667E+00  0.0000000E+00  0.4629630E-02
    1      -21.336169
    2      -18.467865
    3      -13.143597
    4      -10.621818
    5       -9.301563
    6       -8.667800
    7       -7.211183
    8       -6.068235
    9        0.629389
   10        1.688665
   11        2.499974
   12        2.904807
 
  0.2916667E+00  0.1666667E+00  0.0000000E+00  0.4629630E-02
    1      -21.203674
    2      -18.807161
    3      -12.668693
    4      -10.457612
    5       -9.146170
    6       -8.953092
    7       -7.456076
    8       -6.428024
    9        1.111949
   10        1.870206
   11        2.682456
   12        3.090823
 
  0.3333333E+00  0.1666667E+00  0.0000000E+00  0.4629630E-02
    1      -21.051086
    2      -19.130024
    3      -12.201413
    4      -10.262850
    5       -9.247348
    6       -8.967651
    7       -7.747984
    8       -6.778960
    9        1.599748
   10        2.079620
   11        2.892775
   12        3.305459
 
  0.3750000E+00  0.1666667E+00  0.0000000E+00  0.4629630E-02
    1      -20.878541
    2      -19.435594
    3      -11.748742
    4      -10.034727
    5       -9.550152
    6       -8.766386
    7       -8.076114
    8       -7.117140
    9        2.087213
   10        2.316832
   11        3.130780
   12        3.548709
 
  0.4166667E+00  0.1666667E+00  0.0000000E+00  0.4629630E-02
    1      -20.686201
    2      -19.723242
    3      -11.317790
    4       -9.863373
    5       -9.770822
    6       -8.542845
    7       -8.427404
    8       -7.439841
    9        2.569910
   10        2.581750
   11        3.396186
   12        3.820561
 
  0.4583333E+00  0.1666667E+00  0.0000000E+00  0.4629630E-02
    1      -20.474255
    2      -19.992484
    3      -10.914119
    4      -10.191197
    5       -9.470976
    6       -8.787092
    7       -8.297607
    8       -7.745084
    9        2.874267
   10        3.044068
   11        3.541561
   12        3.687168
 
  0.5000000E+00  0.1666667E+00  0.0000000E+00  0.2314815E-02
    1      -20.242927
    2      -20.242927
    3      -10.539528
    4      -10.539528
    5       -9.139685
    6       -9.139685
    7       -8.031387
    8       -8.031387
    9        3.194255
   10        3.194255
   11        3.505809
   12        3.505809
 