gr                                      
           1
     4.265755    0.000000    0.000000
     0.000000    2.491603    0.000000
     0.000000    0.000000   19.836904
   C 
   4
Direct configuration=     1
   0.00026297  0.00000000  0.00000000
   0.16640370  0.50000000  0.00000000
   0.50026297  0.50000000  0.00000000
   0.66640370  0.00000000  0.00000000
Direct configuration=     2
   0.00023569 -0.00000000  0.00000000
   0.16643098  0.50000000 -0.00000000
   0.50023569  0.50000000  0.00000000
   0.66643098 -0.00000000 -0.00000000
Direct configuration=     3
   0.00025760 -0.00000000  0.00000000
   0.16640907  0.50000000 -0.00000000
   0.50025760  0.50000000  0.00000000
   0.66640907  0.00000000 -0.00000000
Direct configuration=     4
   0.00025761 -0.00000000 -0.00000000
   0.16640906  0.50000000  0.00000000
   0.50025761  0.50000000 -0.00000000
   0.66640906  0.00000000  0.00000000
Direct configuration=     5
   0.00025760 -0.00000000 -0.00000000
   0.16640907  0.50000000  0.00000000
   0.50025760  0.50000000 -0.00000000
   0.66640907  0.00000000  0.00000000
