    4    4  400    1
  0.5270948E+02  0.4255034E-09  0.2529478E-09  0.1958911E-08  0.5000000E-15
  1.000000000000000E-004
  CAR 
 gr                                      
     16    247     12
 
  0.0000000E+00  0.0000000E+00  0.0000000E+00  0.1157407E-02
    1      -22.080250
    2      -16.702217
    3      -15.863890
    4      -10.225066
    5       -9.476143
    6       -5.992365
    7       -5.742069
    8       -4.903303
    9       -1.143613
   10        0.544828
   11        1.342839
   12        1.735829
 
  0.4166667E-01  0.0000000E+00  0.0000000E+00  0.2314815E-02
    1      -22.069876
    2      -16.898775
    3      -15.652324
    4      -10.212755
    5       -9.465729
    6       -6.016110
    7       -5.782233
    8       -4.973494
    9       -1.058629
   10        0.558883
   11        1.357037
   12        1.750207
 
  0.8333333E-01  0.0000000E+00  0.0000000E+00  0.2314815E-02
    1      -22.038759
    2      -17.265583
    3      -15.240584
    4      -10.175843
    5       -9.434535
    6       -6.085975
    7       -5.901275
    8       -5.166869
    9       -0.821057
   10        0.601048
   11        1.399627
   12        1.793342
 
  0.1250000E+00  0.0000000E+00  0.0000000E+00  0.2314815E-02
    1      -21.986919
    2      -17.658623
    3      -14.772971
    4      -10.114385
    5       -9.382714
    6       -6.198089
    7       -6.095050
    8       -5.446231
    9       -0.468624
   10        0.671317
   11        1.470598
   12        1.865232
 
  0.1666667E+00  0.0000000E+00  0.0000000E+00  0.2314815E-02
    1      -21.914390
    2      -18.048362
    3      -14.279496
    4      -10.028479
    5       -9.310520
    6       -6.357287
    7       -6.346726
    8       -5.776266
    9       -0.037541
   10        0.769680
   11        1.569931
   12        1.965878
 
  0.2083333E+00  0.0000000E+00  0.0000000E+00  0.2314815E-02
    1      -21.821223
    2      -18.426566
    3      -13.769086
    4       -9.918265
    5       -9.218325
    6       -6.680342
    7       -6.525114
    8       -6.131775
    9        0.445733
   10        0.896123
   11        1.697596
   12        2.095276
 
  0.2500000E+00  0.0000000E+00  0.0000000E+00  0.2314815E-02
    1      -21.707480
    2      -18.789967
    3      -13.245920
    4       -9.783931
    5       -9.106625
    6       -7.055939
    7       -6.726186
    8       -6.496504
    9        0.963308
   10        1.050622
   11        1.853550
   12        2.253425
 
  0.2916667E+00  0.0000000E+00  0.0000000E+00  0.2314815E-02
    1      -21.573244
    2      -19.136912
    3      -12.712812
    4       -9.625719
    5       -8.976061
    6       -7.475783
    7       -6.943142
    8       -6.860140
    9        1.233143
   10        1.502825
   11        2.037729
   12        2.440318
 
  0.3333333E+00  0.0000000E+00  0.0000000E+00  0.2314815E-02
    1      -21.418610
    2      -19.466408
    3      -12.172191
    4       -9.443935
    5       -8.827436
    6       -7.931970
    7       -7.216008
    8       -7.169790
    9        1.443640
   10        2.055071
   11        2.250039
   12        2.655946
 
  0.3750000E+00  0.0000000E+00  0.0000000E+00  0.2314815E-02
    1      -21.243693
    2      -19.777783
    3      -11.626479
    4       -9.238962
    5       -8.661751
    6       -8.417250
    7       -7.559642
    8       -7.400695
    9        1.682050
   10        2.490320
   11        2.612210
   12        2.900290
 
  0.4166667E+00  0.0000000E+00  0.0000000E+00  0.2314815E-02
    1      -21.048627
    2      -20.070539
    3      -11.078280
    4       -9.011275
    5       -8.925120
    6       -8.480232
    7       -7.887949
    8       -7.631205
    9        1.948283
   10        2.758264
   11        3.164649
   12        3.173312
 
  0.4583333E+00  0.0000000E+00  0.0000000E+00  0.2314815E-02
    1      -20.833573
    2      -20.344288
    3      -10.530496
    4       -9.449848
    5       -8.761471
    6       -8.284381
    7       -8.198713
    8       -7.857404
    9        2.242203
   10        2.911921
   11        3.053059
   12        3.475415
 
  0.5000000E+00  0.0000000E+00  0.0000000E+00  0.1157407E-02
    1      -20.598720
    2      -20.598720
    3       -9.986425
    4       -9.986425
    5       -8.490299
    6       -8.490299
    7       -8.076030
    8       -8.076030
    9        2.563577
   10        2.563577
   11        3.371056
   12        3.371058
 
  0.0000000E+00  0.2777778E-01  0.0000000E+00  0.2314815E-02
    1      -22.067243
    2      -16.690988
    3      -15.853522
    4      -10.209630
    5       -9.534305
    6       -6.045942
    7       -5.774252
    8       -4.887557
    9       -1.149787
   10        0.562418
   11        1.360686
   12        1.753899
 
  0.4166667E-01  0.2777778E-01  0.0000000E+00  0.4629630E-02
    1      -22.056870
    2      -16.887447
    3      -15.642118
    4      -10.197324
    5       -9.523860
    6       -6.072659
    7       -5.810712
    8       -4.957927
    9       -1.064757
   10        0.576475
   11        1.374883
   12        1.768278
 
  0.8333333E-01  0.2777778E-01  0.0000000E+00  0.4629630E-02
    1      -22.025757
    2      -17.254055
    3      -15.230765
    4      -10.160425
    5       -9.492572
    6       -6.152577
    7       -5.917635
    8       -5.151699
    9       -0.827183
   10        0.618645
   11        1.417470
   12        1.811413
 
  0.1250000E+00  0.2777778E-01  0.0000000E+00  0.4629630E-02
    1      -21.973923
    2      -17.646889
    3      -14.763679
    4      -10.098990
    5       -9.440585
    6       -6.287089
    7       -6.085963
    8       -5.431453
    9       -0.475020
   10        0.688921
   11        1.488436
   12        1.883305
 
  0.1666667E+00  0.2777778E-01  0.0000000E+00  0.4629630E-02
    1      -21.901405
    2      -18.036442
    3      -14.270857
    4      -10.013116
    5       -9.368148
    6       -6.486002
    7       -6.294326
    8       -5.761762
    9       -0.044591
   10        0.787294
   11        1.587761
   12        1.983953
 
  0.2083333E+00  0.2777778E-01  0.0000000E+00  0.4629630E-02
    1      -21.808252
    2      -18.414483
    3      -13.761244
    4       -9.902943
    5       -9.275615
    6       -6.763870
    7       -6.514158
    8       -6.117418
    9        0.437637
   10        0.913749
   11        1.715416
   12        2.113354
 
  0.2500000E+00  0.2777778E-01  0.0000000E+00  0.4629630E-02
    1      -21.694527
    2      -18.777742
    3      -13.239045
    4       -9.768659
    5       -9.163463
    6       -7.113473
    7       -6.737634
    8       -6.482196
    9        0.953808
   10        1.068261
   11        1.871358
   12        2.271506
 
  0.2916667E+00  0.2777778E-01  0.0000000E+00  0.4629630E-02
    1      -21.560312
    2      -19.124565
    3      -12.707113
    4       -9.610506
    5       -9.032307
    6       -7.517112
    7       -6.967534
    8       -6.845813
    9        1.250796
   10        1.491608
   11        2.055524
   12        2.458403
 
  0.3333333E+00  0.2777778E-01  0.0000000E+00  0.4629630E-02
    1      -21.405704
    2      -19.453956
    3      -12.167926
    4       -9.428791
    5       -8.882915
    6       -7.961957
    7       -7.202671
    8       -7.201619
    9        1.461309
   10        2.041890
   11        2.267822
   12        2.674036
 
  0.3750000E+00  0.2777778E-01  0.0000000E+00  0.4629630E-02
    1      -21.230817
    2      -19.765239
    3      -11.623970
    4       -9.223895
    5       -8.716243
    6       -8.438744
    7       -7.545165
    8       -7.439621
    9        1.699737
   10        2.508096
   11        2.596951
   12        2.918388
 
  0.4166667E+00  0.2777778E-01  0.0000000E+00  0.4629630E-02
    1      -21.035788
    2      -20.057918
    3      -11.077929
    4       -8.996295
    5       -8.940040
    6       -8.533459
    7       -7.873372
    8       -7.674637
    9        1.965994
   10        2.776044
   11        3.147812
   12        3.191426
 
  0.4583333E+00  0.2777778E-01  0.0000000E+00  0.4629630E-02
    1      -20.820776
    2      -20.331599
    3      -10.532809
    4       -9.459589
    5       -8.746585
    6       -8.335989
    7       -8.184031
    8       -7.904277
    9        2.259949
   10        2.929868
   11        3.070874
   12        3.526508
 
  0.5000000E+00  0.2777778E-01  0.0000000E+00  0.2314815E-02
    1      -20.585973
    2      -20.585973
    3       -9.992043
    4       -9.992043
    5       -8.475513
    6       -8.475513
    7       -8.125565
    8       -8.125565
    9        2.581385
   10        2.581385
   11        3.388910
   12        3.388910
 
  0.0000000E+00  0.5555556E-01  0.0000000E+00  0.2314815E-02
    1      -22.028230
    2      -16.657305
    3      -15.822630
    4      -10.163354
    5       -9.703995
    6       -6.202506
    7       -5.869769
    8       -4.840340
    9       -1.169093
   10        0.615199
   11        1.414221
   12        1.808112
 
  0.4166667E-01  0.5555556E-01  0.0000000E+00  0.4629630E-02
    1      -22.017861
    2      -16.853487
    3      -15.611693
    4      -10.151061
    5       -9.693450
    6       -6.235496
    7       -5.897823
    8       -4.911261
    9       -1.083913
   10        0.629260
   11        1.428415
   12        1.822491
 
  0.8333333E-01  0.5555556E-01  0.0000000E+00  0.4629630E-02
    1      -21.986761
    2      -17.219502
    3      -15.201516
    4      -10.114204
    5       -9.661856
    6       -6.332452
    7       -5.981684
    8       -5.106260
    9       -0.846317
   10        0.671440
   11        1.470991
   12        1.865628
 
  0.1250000E+00  0.5555556E-01  0.0000000E+00  0.4629630E-02
    1      -21.934950
    2      -17.611720
    3      -14.736043
    4      -10.052837
    5       -9.609340
    6       -6.488771
    7       -6.119262
    8       -5.387213
    9       -0.494965
   10        0.741734
   11        1.541939
   12        1.937524
 
  0.1666667E+00  0.5555556E-01  0.0000000E+00  0.4629630E-02
    1      -21.862464
    2      -18.000713
    3      -14.245237
    4       -9.967060
    5       -9.536116
    6       -6.700164
    7       -6.304535
    8       -5.718357
    9       -0.066521
   10        0.840132
   11        1.641239
   12        2.038176
 
  0.2083333E+00  0.5555556E-01  0.0000000E+00  0.4629630E-02
    1      -21.769352
    2      -18.378261
    3      -13.738092
    4       -9.857011
    5       -9.442491
    6       -6.964553
    7       -6.526745
    8       -6.074458
    9        0.412527
   10        0.966617
   11        1.768862
   12        2.167584
 
  0.2500000E+00  0.5555556E-01  0.0000000E+00  0.4629630E-02
    1      -21.655679
    2      -18.741094
    3      -13.218906
    4       -9.722880
    5       -9.328875
    6       -7.281325
    7       -6.772349
    8       -6.439378
    9        0.924426
   10        1.121163
   11        1.924767
   12        2.325745
 
  0.2916667E+00  0.5555556E-01  0.0000000E+00  0.4629630E-02
    1      -21.521530
    2      -19.087547
    3      -12.690656
    4       -9.564908
    5       -9.195790
    6       -7.648438
    7       -7.029008
    8       -6.802930
    9        1.303737
   10        1.457007
   11        2.108892
   12        2.512653
 
  0.3333333E+00  0.5555556E-01  0.0000000E+00  0.4629630E-02
    1      -21.366999
    2      -19.416620
    3      -12.155986
    4       -9.383402
    5       -9.043889
    6       -8.060661
    7       -7.288177
    8       -7.158541
    9        1.514291
   10        2.001305
   11        2.321150
   12        2.728301
 
  0.3750000E+00  0.5555556E-01  0.0000000E+00  0.4629630E-02
    1      -21.192205
    2      -19.727629
    3      -11.617595
    4       -9.178743
    5       -8.873965
    6       -8.510583
    7       -7.544617
    8       -7.501818
    9        1.752766
   10        2.549969
   11        2.561397
   12        2.972674
 
  0.4166667E+00  0.5555556E-01  0.0000000E+00  0.4629630E-02
    1      -20.997285
    2      -20.020071
    3      -11.078446
    4       -8.990399
    5       -8.951406
    6       -8.686980
    7       -7.829716
    8       -7.794868
    9        2.019081
   10        2.829356
   11        3.095338
   12        3.245749
 
  0.4583333E+00  0.5555556E-01  0.0000000E+00  0.4629630E-02
    1      -20.782401
    2      -20.293550
    3      -10.541906
    4       -9.492920
    5       -8.701982
    6       -8.484085
    7       -8.140054
    8       -8.036280
    9        2.313119
   10        2.983493
   11        3.124294
   12        3.596786
 
  0.5000000E+00  0.5555556E-01  0.0000000E+00  0.2314815E-02
    1      -20.547748
    2      -20.547748
    3      -10.011876
    4      -10.011876
    5       -8.431216
    6       -8.431216
    7       -8.266648
    8       -8.266648
    9        2.634700
   10        2.634700
   11        3.442463
   12        3.443702
 
  0.0000000E+00  0.8333333E-01  0.0000000E+00  0.2314815E-02
    1      -21.963250
    2      -16.601180
    3      -15.771882
    4      -10.086334
    5       -9.972114
    6       -6.450771
    7       -6.025631
    8       -4.761708
    9       -1.203861
   10        0.703196
   11        1.503423
   12        1.898471
 
  0.4166667E-01  0.8333333E-01  0.0000000E+00  0.4629630E-02
    1      -21.952888
    2      -16.796971
    3      -15.561679
    4      -10.074065
    5       -9.961379
    6       -6.490039
    7       -6.044061
    8       -4.833610
    9       -1.118387
   10        0.717260
   11        1.517610
   12        1.912851
 
  0.8333333E-01  0.8333333E-01  0.0000000E+00  0.4629630E-02
    1      -21.921810
    2      -17.162030
    3      -15.153498
    4      -10.037278
    5       -9.929202
    6       -6.601616
    7       -6.103795
    8       -5.030768
    9       -0.880691
   10        0.759449
   11        1.560166
   12        1.955990
 
  0.1250000E+00  0.8333333E-01  0.0000000E+00  0.4629630E-02
    1      -21.870036
    2      -17.553221
    3      -14.690841
    4       -9.976030
    5       -9.875672
    6       -6.772700
    7       -6.212377
    8       -5.313810
    9       -0.530687
   10        0.829761
   11        1.631081
   12        2.027889
 
  0.1666667E+00  0.8333333E-01  0.0000000E+00  0.4629630E-02
    1      -21.797603
    2      -17.941271
    3      -14.203599
    4       -9.890418
    5       -9.800937
    6       -6.991774
    7       -6.372897
    8       -5.646386
    9       -0.105623
   10        0.928186
   11        1.730336
   12        2.128548
 
  0.2083333E+00  0.8333333E-01  0.0000000E+00  0.4629630E-02
    1      -21.704561
    2      -18.317987
    3      -13.700864
    4       -9.780583
    5       -9.705203
    6       -7.251176
    7       -6.582023
    8       -6.003234
    9        0.367994
   10        1.054706
   11        1.857900
   12        2.257964
 
  0.2500000E+00  0.8333333E-01  0.0000000E+00  0.4629630E-02
    1      -21.590978
    2      -18.680097
    3      -13.187116
    4       -9.646713
    5       -9.588738
    6       -7.547141
    7       -6.830821
    8       -6.368376
    9        0.872603
   10        1.209295
   11        2.013733
   12        2.416136
 
  0.2916667E+00  0.8333333E-01  0.0000000E+00  0.4629630E-02
    1      -21.456937
    2      -19.025926
    3      -12.665588
    4       -9.489052
    5       -9.451871
    6       -7.879092
    7       -7.106424
    8       -6.731797
    9        1.391916
   10        1.396281
   11        2.197778
   12        2.603059
 
  0.3333333E+00  0.8333333E-01  0.0000000E+00  0.4629630E-02
    1      -21.302536
    2      -19.354461
    3      -12.139267
    4       -9.307905
    5       -9.294984
    6       -8.247996
    7       -7.394547
    8       -7.087057
    9        1.602522
   10        1.930353
   11        2.409954
   12        2.818725
 
  0.3750000E+00  0.8333333E-01  0.0000000E+00  0.4629630E-02
    1      -21.127897
    2      -19.665007
    3      -11.611309
    4       -9.118516
    5       -9.103653
    6       -8.653920
    7       -7.682587
    8       -7.429857
    9        1.841053
   10        2.467925
   11        2.650135
   12        3.063124
 
  0.4166667E+00  0.8333333E-01  0.0000000E+00  0.4629630E-02
    1      -20.933160
    2      -19.957051
    3      -11.085272
    4       -9.094243
    5       -8.922951
    6       -8.876768
    7       -7.961791
    8       -7.757215
    9        2.107433
   10        2.918093
   11        3.002694
   12        3.336238
 
  0.4583333E+00  0.8333333E-01  0.0000000E+00  0.4629630E-02
    1      -20.718493
    2      -20.230188
    3      -10.565301
    4       -9.563806
    5       -8.708811
    6       -8.627839
    7       -8.227278
    8       -8.066993
    9        2.401558
   10        3.072369
   11        3.213221
   12        3.533275
 
  0.5000000E+00  0.8333333E-01  0.0000000E+00  0.2314815E-02
    1      -20.484092
    2      -20.484092
    3      -10.056260
    4      -10.056260
    5       -8.476677
    6       -8.476677
    7       -8.357602
    8       -8.357602
    9        2.723282
   10        2.723282
   11        3.531667
   12        3.531869
 
  0.0000000E+00  0.1111111E+00  0.0000000E+00  0.2314815E-02
    1      -21.872366
    2      -16.522635
    3      -15.702550
    4      -10.320303
    5       -9.978735
    6       -6.775242
    7       -6.237201
    8       -4.651761
    9       -1.257876
   10        0.826440
   11        1.628254
   12        2.024984
 
  0.4166667E-01  0.1111111E+00  0.0000000E+00  0.4629630E-02
    1      -21.862015
    2      -16.718037
    3      -15.493270
    4      -10.309243
    5       -9.966501
    6       -6.819841
    7       -6.246001
    8       -4.725176
    9       -1.171883
   10        0.840503
   11        1.642430
   12        2.039364
 
  0.8333333E-01  0.1111111E+00  0.0000000E+00  0.4629630E-02
    1      -21.830968
    2      -17.081834
    3      -15.087986
    4      -10.276071
    5       -9.929816
    6       -6.943236
    7       -6.281634
    8       -4.925625
    9       -0.933879
   10        0.882693
   11        1.684955
   12        2.082504
 
  0.1250000E+00  0.1111111E+00  0.0000000E+00  0.4629630E-02
    1      -21.779247
    2      -17.471583
    3      -14.629592
    4      -10.220803
    5       -9.868740
    6       -7.125786
    7       -6.360143
    8       -5.211788
    9       -0.585722
   10        0.953010
   11        1.755816
   12        2.154404
 
  0.1666667E+00  0.1111111E+00  0.0000000E+00  0.4629630E-02
    1      -21.706888
    2      -17.858288
    3      -14.147856
    4      -10.143457
    5       -9.783369
    6       -7.351471
    7       -6.491391
    8       -5.546455
    9       -0.165511
   10        1.051447
   11        1.854993
   12        2.255066
 
  0.2083333E+00  0.1111111E+00  0.0000000E+00  0.4629630E-02
    1      -21.613946
    2      -18.233813
    3      -13.652049
    4      -10.044045
    5       -9.673846
    6       -7.609755
    7       -6.677261
    8       -5.904357
    9        0.300267
   10        1.177990
   11        1.982458
   12        2.384489
 
  0.2500000E+00  0.1111111E+00  0.0000000E+00  0.4629630E-02
    1      -21.500488
    2      -18.594888
    3      -13.146992
    4       -9.922549
    5       -9.540359
    6       -7.894371
    7       -6.913283
    8       -6.269776
    9        0.794373
   10        1.332612
   11        2.138167
   12        2.542672
 
  0.2916667E+00  0.1111111E+00  0.0000000E+00  0.4629630E-02
    1      -21.366599
    2      -18.939824
    3      -12.636407
    4       -9.778896
    5       -9.383153
    6       -8.202515
    7       -7.190181
    8       -6.632959
    9        1.305256
   10        1.515274
   11        2.322068
   12        2.729608
 
  0.3333333E+00  0.1111111E+00  0.0000000E+00  0.4629630E-02
    1      -21.212384
    2      -19.267589
    3      -12.123950
    4       -9.612914
    5       -9.202533
    6       -8.534403
    7       -7.495169
    8       -6.987666
    9        1.725925
   10        1.824638
   11        2.534085
   12        2.945293
 
  0.3750000E+00  0.1111111E+00  0.0000000E+00  0.4629630E-02
    1      -21.037964
    2      -19.577474
    3      -11.613671
    4       -9.424291
    5       -8.998878
    6       -8.892556
    7       -7.813443
    8       -7.329736
    9        1.964502
   10        2.346116
   11        2.774115
   12        3.189716
 
  0.4166667E+00  0.1111111E+00  0.0000000E+00  0.4629630E-02
    1      -20.843486
    2      -19.868950
    3      -11.110276
    4       -9.280179
    5       -9.212537
    6       -8.772659
    7       -8.130364
    8       -7.656280
    9        2.230929
   10        2.864330
   11        3.041997
   12        3.462865
 
  0.4583333E+00  0.1111111E+00  0.0000000E+00  0.4629630E-02
    1      -20.629126
    2      -20.141599
    3      -10.619253
    4       -9.698815
    5       -8.977040
    6       -8.524459
    7       -8.434106
    8       -7.965219
    9        2.525110
   10        3.196175
   11        3.337359
   12        3.374075
 
  0.5000000E+00  0.1111111E+00  0.0000000E+00  0.2314815E-02
    1      -20.395083
    2      -20.395083
    3      -10.146734
    4      -10.146734
    5       -8.717370
    6       -8.717370
    7       -8.255006
    8       -8.255006
    9        2.846920
   10        2.846920
   11        3.656250
   12        3.656259
 
  0.0000000E+00  0.1388889E+00  0.0000000E+00  0.2314815E-02
    1      -21.755670
    2      -16.421700
    3      -15.616799
    4      -10.728060
    5       -9.840793
    6       -7.159286
    7       -6.498624
    8       -4.510638
    9       -1.336180
   10        0.984952
   11        1.788658
   12        2.187657
 
  0.4166667E-01  0.1388889E+00  0.0000000E+00  0.4629630E-02
    1      -21.745332
    2      -16.616917
    3      -15.408514
    4      -10.716461
    5       -9.828605
    6       -7.208408
    7       -6.497954
    8       -4.586283
    9       -1.249283
   10        0.999010
   11        1.802817
   12        2.202035
 
  0.8333333E-01  0.1388889E+00  0.0000000E+00  0.4629630E-02
    1      -21.714325
    2      -16.979229
    3      -15.007204
    4      -10.681624
    5       -9.792060
    6       -7.341802
    7       -6.509342
    8       -4.791491
    9       -1.010495
   10        1.041186
   11        1.845291
   12        2.245172
 
  0.1250000E+00  0.1388889E+00  0.0000000E+00  0.4629630E-02
    1      -21.662672
    2      -17.367109
    3      -14.555003
    4      -10.623424
    5       -9.731217
    6       -7.534262
    7       -6.556063
    8       -5.082037
    9       -0.664563
   10        1.111484
   11        1.916066
   12        2.317070
 
  0.1666667E+00  0.1388889E+00  0.0000000E+00  0.4629630E-02
    1      -21.590413
    2      -17.752037
    3      -14.081499
    4      -10.541628
    5       -9.646174
    6       -7.766452
    7       -6.653682
    8       -5.419538
    9       -0.250723
   10        1.209906
   11        2.015120
   12        2.417730
 
  0.2083333E+00  0.1388889E+00  0.0000000E+00  0.4629630E-02
    1      -21.497600
    2      -18.125979
    3      -13.596309
    4      -10.435851
    5       -9.537076
    6       -8.026049
    7       -6.808484
    8       -5.778793
    9        0.204675
   10        1.336443
   11        2.142417
   12        2.547155
 
  0.2500000E+00  0.1388889E+00  0.0000000E+00  0.4629630E-02
    1      -21.384304
    2      -18.485676
    3      -13.104901
    4      -10.305492
    5       -9.404111
    6       -8.305354
    7       -7.019804
    8       -6.144489
    9        0.684914
   10        1.491071
   11        2.297914
   12        2.705343
 
  0.2916667E+00  0.1388889E+00  0.0000000E+00  0.4629630E-02
    1      -21.250615
    2      -18.829424
    3      -12.611945
    4      -10.149650
    5       -9.247526
    6       -8.599864
    7       -7.281847
    8       -6.507255
    9        1.179000
   10        1.673749
   11        2.481548
   12        2.892290
 
  0.3333333E+00  0.1388889E+00  0.0000000E+00  0.4629630E-02
    1      -21.096640
    2      -19.156168
    3      -12.122377
    4       -9.967031
    5       -9.067626
    6       -8.907729
    7       -7.584994
    8       -6.861129
    9        1.679197
   10        1.884423
   11        2.693241
   12        3.107989
 
  0.3750000E+00  0.1388889E+00  0.0000000E+00  0.4629630E-02
    1      -20.922507
    2      -19.465177
    3      -11.641836
    4       -9.755921
    5       -9.229626
    6       -8.864790
    7       -7.916778
    8       -7.202141
    9        2.123022
   10        2.179651
   11        2.932888
   12        3.352432
 
  0.4166667E+00  0.1388889E+00  0.0000000E+00  0.4629630E-02
    1      -20.728371
    2      -19.755901
    3      -11.176687
    4       -9.568635
    5       -9.514406
    6       -8.639487
    7       -8.262729
    8       -7.527528
    9        2.389466
   10        2.675647
   11        3.200355
   12        3.625608
 
  0.4583333E+00  0.1388889E+00  0.0000000E+00  0.4629630E-02
    1      -20.514412
    2      -20.027908
    3      -10.733406
    4       -9.929548
    5       -9.241170
    6       -8.607549
    7       -8.392294
    8       -7.835289
    9        2.683657
   10        3.163172
   11        3.354758
   12        3.495446
 
  0.5000000E+00  0.1388889E+00  0.0000000E+00  0.2314815E-02
    1      -20.280842
    2      -20.280842
    3      -10.317084
    4      -10.317084
    5       -8.937145
    6       -8.937145
    7       -8.123927
    8       -8.123927
    9        3.005474
   10        3.005474
   11        3.638460
   12        3.638686
 
  0.0000000E+00  0.1666667E+00  0.0000000E+00  0.2314815E-02
    1      -21.613283
    2      -16.298416
    3      -15.518266
    4      -11.174592
    5       -9.672822
    6       -7.587322
    7       -6.803299
    8       -4.338523
    9       -1.444677
   10        1.178738
   11        1.984555
   12        2.386493
 
  0.4166667E-01  0.1666667E+00  0.0000000E+00  0.4629630E-02
    1      -21.602962
    2      -16.493994
    3      -15.310874
    4      -11.162075
    5       -9.660695
    6       -7.640455
    7       -6.793313
    8       -4.417443
    9       -1.356181
   10        1.192785
   11        1.998688
   12        2.400870
 
  0.8333333E-01  0.1666667E+00  0.0000000E+00  0.4629630E-02
    1      -21.572006
    2      -16.854720
    3      -14.915008
    4      -11.124392
    5       -9.624333
    6       -7.782799
    7       -6.780357
    8       -4.629437
    9       -1.115621
   10        1.234928
   11        2.041081
   12        2.444000
 
  0.1250000E+00  0.1666667E+00  0.0000000E+00  0.4629630E-02
    1      -21.520439
    2      -17.240279
    3      -14.471914
    4      -11.061129
    5       -9.563796
    6       -7.984414
    7       -6.793937
    8       -4.925963
    9       -0.772014
   10        1.305179
   11        2.111716
   12        2.515889
 
  0.1666667E+00  0.1666667E+00  0.0000000E+00  0.4629630E-02
    1      -21.448300
    2      -17.622935
    3      -14.010965
    4      -10.971528
    5       -9.479184
    6       -8.223277
    7       -6.854565
    8       -5.267137
    9       -0.366007
   10        1.403547
   11        2.210561
   12        2.616539
 
  0.2083333E+00  0.1666667E+00  0.0000000E+00  0.4629630E-02
    1      -21.355647
    2      -17.994842
    3      -13.542489
    4      -10.854379
    5       -9.370643
    6       -8.485820
    7       -6.972429
    8       -5.628001
    9        0.076440
   10        1.530035
   11        2.337571
   12        2.745956
 
  0.2500000E+00  0.1666667E+00  0.0000000E+00  0.4629630E-02
    1      -21.242554
    2      -18.352769
    3      -13.073229
    4      -10.707883
    5       -9.238366
    6       -8.763553
    7       -7.150263
    8       -5.993872
    9        0.539448
   10        1.684625
   11        2.492677
   12        2.904140
 
  0.2916667E+00  0.1666667E+00  0.0000000E+00  0.4629630E-02
    1      -21.109114
    2      -18.694993
    3      -12.609610
    4      -10.529531
    5       -9.082599
    6       -9.051085
    7       -7.385330
    8       -6.355916
    9        1.012864
   10        1.867280
   11        2.675778
   12        3.091090
 
  0.3333333E+00  0.1666667E+00  0.0000000E+00  0.4629630E-02
    1      -20.955439
    2      -19.020433
    3      -12.158601
    4      -10.316196
    5       -9.345265
    6       -8.903651
    7       -7.670805
    8       -6.708553
    9        1.489712
   10        2.077941
   11        2.886719
   12        3.306799
 
  0.3750000E+00  0.1666667E+00  0.0000000E+00  0.4629630E-02
    1      -20.781666
    2      -19.328326
    3      -11.727448
    4      -10.064806
    5       -9.644896
    6       -8.701901
    7       -7.996899
    8       -7.048062
    9        1.964849
   10        2.316529
   11        3.125203
   12        3.551257
 
  0.4166667E+00  0.1666667E+00  0.0000000E+00  0.4629630E-02
    1      -20.587958
    2      -19.618096
    3      -11.322218
    4       -9.950776
    5       -9.774044
    6       -8.477818
    7       -8.351666
    8       -7.371840
    9        2.434208
   10        2.582952
   11        3.390293
   12        3.824455
 
  0.4583333E+00  0.1666667E+00  0.0000000E+00  0.4629630E-02
    1      -20.374504
    2      -19.889289
    3      -10.945541
    4      -10.265873
    5       -9.446785
    6       -8.721500
    7       -8.231971
    8       -7.677986
    9        2.877103
   10        2.894259
   11        3.548047
   12        3.662804
 
  0.5000000E+00  0.1666667E+00  0.0000000E+00  0.2314815E-02
    1      -20.141528
    2      -20.141528
    3      -10.595310
    4      -10.595310
    5       -9.091561
    6       -9.091561
    7       -7.965067
    8       -7.965067
    9        3.198853
   10        3.198853
   11        3.340780
   12        3.340794
 