       N       E                     dE             d eps       ncg     rms          rms(c)
DAV:   1     0.186789860451E+03    0.18679E+03   -0.10572E+04  5928   0.274E+03
DAV:   2    -0.906803263456E+01   -0.19586E+03   -0.17430E+03 10480   0.262E+02
DAV:   3    -0.380738892572E+02   -0.29006E+02   -0.28346E+02  7372   0.119E+02    0.707E+00
RMM:   4    -0.375718099092E+02    0.50208E+00   -0.96063E+00  5928   0.265E+01    0.411E+00
RMM:   5    -0.368662076926E+02    0.70560E+00   -0.26626E+00  5931   0.112E+01    0.705E-01
RMM:   6    -0.368682284295E+02   -0.20207E-02   -0.85104E-02  6390   0.203E+00    0.501E-01
RMM:   7    -0.368593971934E+02    0.88312E-02   -0.31822E-02  5946   0.155E+00    0.325E-01
RMM:   8    -0.368545623167E+02    0.48349E-02   -0.62524E-03  5930   0.525E-01    0.136E-01
RMM:   9    -0.368543682789E+02    0.19404E-03   -0.19715E-02  5928   0.831E-01    0.152E-01
RMM:  10    -0.368542650013E+02    0.10328E-03   -0.21418E-03  5928   0.334E-01    0.263E-02
RMM:  11    -0.368565380381E+02   -0.22730E-02   -0.70159E-04  5930   0.179E-01    0.435E-02
RMM:  12    -0.368570332317E+02   -0.49519E-03   -0.19941E-04  5942   0.937E-02    0.617E-03
RMM:  13    -0.368572907409E+02   -0.25751E-03   -0.52687E-05  6017   0.395E-02    0.330E-03
RMM:  14    -0.368573720715E+02   -0.81331E-04   -0.10013E-05  5982   0.152E-02    0.973E-04
RMM:  15    -0.368573845812E+02   -0.12510E-04   -0.18382E-06  5967   0.750E-03    0.210E-03
RMM:  16    -0.368573979117E+02   -0.13330E-04   -0.17170E-06  5928   0.854E-03    0.123E-03
RMM:  17    -0.368574038838E+02   -0.59721E-05   -0.12158E-07  6027   0.213E-03    0.701E-04
RMM:  18    -0.368574049240E+02   -0.10402E-05   -0.57259E-08  5932   0.181E-03    0.883E-05
RMM:  19    -0.368574056538E+02   -0.72985E-06   -0.98597E-09  5819   0.458E-04    0.137E-05
RMM:  20    -0.368574057037E+02   -0.49854E-07   -0.75171E-10  4466   0.133E-04    0.205E-05
RMM:  21    -0.368574057164E+02   -0.12768E-07   -0.18922E-10  4329   0.830E-05    0.795E-06
RMM:  22    -0.368574057167E+02   -0.23363E-09   -0.19574E-11  3899   0.499E-05    0.937E-07
RMM:  23    -0.368574057171E+02   -0.39336E-09   -0.17199E-11  3624   0.397E-05    0.188E-06
RMM:  24    -0.368574057173E+02   -0.19747E-09   -0.86984E-12  3188   0.304E-05    0.676E-07
RMM:  25    -0.368574057173E+02   -0.51955E-10   -0.44405E-12  2866   0.254E-05
   1 F= -.36857406E+02 E0= -.36857406E+02  d E =-.368574E+02
       N       E                     dE             d eps       ncg     rms          rms(c)
DAV:   1    -0.368574050136E+02    0.70363E-06   -0.61345E-05  6292   0.738E-02    0.149E-03
RMM:   2    -0.368574050567E+02   -0.43107E-07   -0.10407E-06  5949   0.889E-03    0.110E-03
RMM:   3    -0.368574050155E+02    0.41251E-07   -0.16472E-07  5982   0.329E-03    0.277E-04
RMM:   4    -0.368574050148E+02    0.63676E-09   -0.10169E-08  6053   0.795E-04    0.796E-05
RMM:   5    -0.368574050127E+02    0.21744E-08   -0.82630E-10  5037   0.207E-04    0.355E-05
RMM:   6    -0.368574050131E+02   -0.42678E-09   -0.10056E-10  3821   0.888E-05    0.455E-06
RMM:   7    -0.368574050128E+02    0.30013E-09   -0.21073E-11  3774   0.566E-05    0.368E-06
RMM:   8    -0.368574050130E+02   -0.19259E-09   -0.16232E-11  3347   0.403E-05    0.163E-06
RMM:   9    -0.368574050133E+02   -0.31105E-09   -0.35508E-12  3087   0.301E-05    0.132E-06
RMM:  10    -0.368574050131E+02    0.14779E-09   -0.51709E-12  2913   0.274E-05    0.192E-06
RMM:  11    -0.368574050128E+02    0.32878E-09   -0.25228E-12  2621   0.243E-05    0.946E-07
RMM:  12    -0.368574050131E+02   -0.24590E-09   -0.18631E-12  2426   0.222E-05    0.518E-07
RMM:  13    -0.368574050128E+02    0.26296E-09    0.81118E-13  2423   0.213E-05    0.231E-07
RMM:  14    -0.368574050128E+02   -0.62528E-11   -0.16418E-12  2229   0.204E-05
   2 F= -.36857405E+02 E0= -.36857405E+02  d E =0.704498E-06
       N       E                     dE             d eps       ncg     rms          rms(c)
DAV:   1    -0.368574057392E+02   -0.72639E-06   -0.39194E-05  6612   0.590E-02    0.120E-03
RMM:   2    -0.368574057697E+02   -0.30558E-07   -0.63300E-07  5946   0.708E-03    0.876E-04
RMM:   3    -0.368574057613E+02    0.83965E-08   -0.10188E-07  5987   0.259E-03    0.208E-04
RMM:   4    -0.368574057585E+02    0.28672E-08   -0.58951E-09  6036   0.608E-04    0.641E-05
RMM:   5    -0.368574057597E+02   -0.12161E-08   -0.47370E-10  4539   0.163E-04    0.279E-05
RMM:   6    -0.368574057593E+02    0.42724E-09   -0.59569E-11  3741   0.732E-05    0.400E-06
RMM:   7    -0.368574057594E+02   -0.13699E-09   -0.19722E-11  3729   0.544E-05    0.341E-06
RMM:   8    -0.368574057596E+02   -0.24011E-09   -0.14667E-11  3199   0.376E-05    0.136E-06
RMM:   9    -0.368574057598E+02   -0.15962E-09   -0.71124E-12  2881   0.294E-05    0.718E-07
RMM:  10    -0.368574057594E+02    0.36891E-09   -0.14869E-12  2719   0.259E-05    0.130E-06
RMM:  11    -0.368574057596E+02   -0.12517E-09   -0.33622E-12  2472   0.234E-05    0.802E-07
RMM:  12    -0.368574057598E+02   -0.28126E-09   -0.23011E-12  2446   0.223E-05    0.137E-07
RMM:  13    -0.368574057596E+02    0.28456E-09   -0.15527E-12  2260   0.206E-05    0.239E-07
RMM:  14    -0.368574057596E+02   -0.79808E-10   -0.35992E-13  2114   0.198E-05
   3 F= -.36857406E+02 E0= -.36857406E+02  d E =-.746832E-06
