<?xml version="1.0" encoding="ISO-8859-1"?>
<modeling>
 <generator>
  <i name="program" type="string">vasp </i>
  <i name="version" type="string">5.3.5  </i>
  <i name="subversion" type="string">31Mar14 (build Mar 02 2015 18:14:16) complex                          parallel </i>
  <i name="platform" type="string">LinuxIFC </i>
  <i name="date" type="string">2018 08 09 </i>
  <i name="time" type="string">22:05:51 </i>
 </generator>
 <incar>
  <i type="string" name="SYSTEM">  gr</i>
  <i type="string" name="PREC">accurate : accuracy</i>
  <i type="string" name="ALGO"> FAST.</i>
  <i type="int" name="NELM">   100</i>
  <i type="int" name="NELMDL">    -3</i>
  <i type="int" name="NELMIN">     5</i>
  <i type="int" name="IBRION">     1</i>
  <i name="EDIFF">      0.00000000</i>
  <i name="EDIFFG">     -0.00000100</i>
  <i type="int" name="NSW">   400</i>
  <i type="int" name="ISIF">     2</i>
  <i name="ENCUT">   2000.00000000</i>
  <i type="int" name="ISMEAR">     0</i>
  <i name="SIGMA">      0.05000000</i>
  <i type="int" name="NWRITE">     2</i>
  <i type="logical" name="LWAVE"> F  </i>
  <i type="logical" name="LCHARG"> F  </i>
  <i type="int" name="NELM">   100</i>
 </incar>
 <kpoints>
  <generation param="Gamma">
   <v type="int" name="divisions">      24       36        1 </v>
   <v name="usershift">      0.00000000       0.00000000       0.00000000 </v>
   <v name="genvec1">      0.04166667       0.00000000       0.00000000 </v>
   <v name="genvec2">      0.00000000       0.02777778       0.00000000 </v>
   <v name="genvec3">      0.00000000       0.00000000       1.00000000 </v>
   <v name="shift">      0.00000000       0.00000000       0.00000000 </v>
  </generation>
  <varray name="kpointlist" >
   <v>       0.00000000       0.00000000       0.00000000 </v>
   <v>       0.04166667       0.00000000       0.00000000 </v>
   <v>       0.08333333       0.00000000       0.00000000 </v>
   <v>       0.12500000       0.00000000       0.00000000 </v>
   <v>       0.16666667       0.00000000       0.00000000 </v>
   <v>       0.20833333       0.00000000       0.00000000 </v>
   <v>       0.25000000       0.00000000       0.00000000 </v>
   <v>       0.29166667       0.00000000       0.00000000 </v>
   <v>       0.33333333       0.00000000       0.00000000 </v>
   <v>       0.37500000       0.00000000       0.00000000 </v>
   <v>       0.41666667       0.00000000       0.00000000 </v>
   <v>       0.45833333       0.00000000       0.00000000 </v>
   <v>       0.50000000       0.00000000       0.00000000 </v>
   <v>       0.00000000       0.02777778       0.00000000 </v>
   <v>       0.04166667       0.02777778       0.00000000 </v>
   <v>       0.08333333       0.02777778       0.00000000 </v>
   <v>       0.12500000       0.02777778       0.00000000 </v>
   <v>       0.16666667       0.02777778       0.00000000 </v>
   <v>       0.20833333       0.02777778       0.00000000 </v>
   <v>       0.25000000       0.02777778       0.00000000 </v>
   <v>       0.29166667       0.02777778       0.00000000 </v>
   <v>       0.33333333       0.02777778       0.00000000 </v>
   <v>       0.37500000       0.02777778       0.00000000 </v>
   <v>       0.41666667       0.02777778       0.00000000 </v>
   <v>       0.45833333       0.02777778       0.00000000 </v>
   <v>       0.50000000       0.02777778       0.00000000 </v>
   <v>       0.00000000       0.05555556       0.00000000 </v>
   <v>       0.04166667       0.05555556       0.00000000 </v>
   <v>       0.08333333       0.05555556       0.00000000 </v>
   <v>       0.12500000       0.05555556       0.00000000 </v>
   <v>       0.16666667       0.05555556       0.00000000 </v>
   <v>       0.20833333       0.05555556       0.00000000 </v>
   <v>       0.25000000       0.05555556       0.00000000 </v>
   <v>       0.29166667       0.05555556       0.00000000 </v>
   <v>       0.33333333       0.05555556       0.00000000 </v>
   <v>       0.37500000       0.05555556       0.00000000 </v>
   <v>       0.41666667       0.05555556       0.00000000 </v>
   <v>       0.45833333       0.05555556       0.00000000 </v>
   <v>       0.50000000       0.05555556       0.00000000 </v>
   <v>       0.00000000       0.08333333       0.00000000 </v>
   <v>       0.04166667       0.08333333       0.00000000 </v>
   <v>       0.08333333       0.08333333       0.00000000 </v>
   <v>       0.12500000       0.08333333       0.00000000 </v>
   <v>       0.16666667       0.08333333       0.00000000 </v>
   <v>       0.20833333       0.08333333       0.00000000 </v>
   <v>       0.25000000       0.08333333       0.00000000 </v>
   <v>       0.29166667       0.08333333       0.00000000 </v>
   <v>       0.33333333       0.08333333       0.00000000 </v>
   <v>       0.37500000       0.08333333       0.00000000 </v>
   <v>       0.41666667       0.08333333       0.00000000 </v>
   <v>       0.45833333       0.08333333       0.00000000 </v>
   <v>       0.50000000       0.08333333       0.00000000 </v>
   <v>       0.00000000       0.11111111       0.00000000 </v>
   <v>       0.04166667       0.11111111       0.00000000 </v>
   <v>       0.08333333       0.11111111       0.00000000 </v>
   <v>       0.12500000       0.11111111       0.00000000 </v>
   <v>       0.16666667       0.11111111       0.00000000 </v>
   <v>       0.20833333       0.11111111       0.00000000 </v>
   <v>       0.25000000       0.11111111       0.00000000 </v>
   <v>       0.29166667       0.11111111       0.00000000 </v>
   <v>       0.33333333       0.11111111       0.00000000 </v>
   <v>       0.37500000       0.11111111       0.00000000 </v>
   <v>       0.41666667       0.11111111       0.00000000 </v>
   <v>       0.45833333       0.11111111       0.00000000 </v>
   <v>       0.50000000       0.11111111       0.00000000 </v>
   <v>       0.00000000       0.13888889       0.00000000 </v>
   <v>       0.04166667       0.13888889       0.00000000 </v>
   <v>       0.08333333       0.13888889       0.00000000 </v>
   <v>       0.12500000       0.13888889       0.00000000 </v>
   <v>       0.16666667       0.13888889       0.00000000 </v>
   <v>       0.20833333       0.13888889       0.00000000 </v>
   <v>       0.25000000       0.13888889       0.00000000 </v>
   <v>       0.29166667       0.13888889       0.00000000 </v>
   <v>       0.33333333       0.13888889       0.00000000 </v>
   <v>       0.37500000       0.13888889       0.00000000 </v>
   <v>       0.41666667       0.13888889       0.00000000 </v>
   <v>       0.45833333       0.13888889       0.00000000 </v>
   <v>       0.50000000       0.13888889       0.00000000 </v>
   <v>       0.00000000       0.16666667       0.00000000 </v>
   <v>       0.04166667       0.16666667       0.00000000 </v>
   <v>       0.08333333       0.16666667       0.00000000 </v>
   <v>       0.12500000       0.16666667       0.00000000 </v>
   <v>       0.16666667       0.16666667       0.00000000 </v>
   <v>       0.20833333       0.16666667       0.00000000 </v>
   <v>       0.25000000       0.16666667       0.00000000 </v>
   <v>       0.29166667       0.16666667       0.00000000 </v>
   <v>       0.33333333       0.16666667       0.00000000 </v>
   <v>       0.37500000       0.16666667       0.00000000 </v>
   <v>       0.41666667       0.16666667       0.00000000 </v>
   <v>       0.45833333       0.16666667       0.00000000 </v>
   <v>       0.50000000       0.16666667       0.00000000 </v>
   <v>       0.00000000       0.19444444       0.00000000 </v>
   <v>       0.04166667       0.19444444       0.00000000 </v>
   <v>       0.08333333       0.19444444       0.00000000 </v>
   <v>       0.12500000       0.19444444       0.00000000 </v>
   <v>       0.16666667       0.19444444       0.00000000 </v>
   <v>       0.20833333       0.19444444       0.00000000 </v>
   <v>       0.25000000       0.19444444       0.00000000 </v>
   <v>       0.29166667       0.19444444       0.00000000 </v>
   <v>       0.33333333       0.19444444       0.00000000 </v>
   <v>       0.37500000       0.19444444       0.00000000 </v>
   <v>       0.41666667       0.19444444       0.00000000 </v>
   <v>       0.45833333       0.19444444       0.00000000 </v>
   <v>       0.50000000       0.19444444       0.00000000 </v>
   <v>       0.00000000       0.22222222       0.00000000 </v>
   <v>       0.04166667       0.22222222       0.00000000 </v>
   <v>       0.08333333       0.22222222       0.00000000 </v>
   <v>       0.12500000       0.22222222       0.00000000 </v>
   <v>       0.16666667       0.22222222       0.00000000 </v>
   <v>       0.20833333       0.22222222       0.00000000 </v>
   <v>       0.25000000       0.22222222       0.00000000 </v>
   <v>       0.29166667       0.22222222       0.00000000 </v>
   <v>       0.33333333       0.22222222       0.00000000 </v>
   <v>       0.37500000       0.22222222       0.00000000 </v>
   <v>       0.41666667       0.22222222       0.00000000 </v>
   <v>       0.45833333       0.22222222       0.00000000 </v>
   <v>       0.50000000       0.22222222       0.00000000 </v>
   <v>       0.00000000       0.25000000       0.00000000 </v>
   <v>       0.04166667       0.25000000       0.00000000 </v>
   <v>       0.08333333       0.25000000       0.00000000 </v>
   <v>       0.12500000       0.25000000       0.00000000 </v>
   <v>       0.16666667       0.25000000       0.00000000 </v>
   <v>       0.20833333       0.25000000       0.00000000 </v>
   <v>       0.25000000       0.25000000       0.00000000 </v>
   <v>       0.29166667       0.25000000       0.00000000 </v>
   <v>       0.33333333       0.25000000       0.00000000 </v>
   <v>       0.37500000       0.25000000       0.00000000 </v>
   <v>       0.41666667       0.25000000       0.00000000 </v>
   <v>       0.45833333       0.25000000       0.00000000 </v>
   <v>       0.50000000       0.25000000       0.00000000 </v>
   <v>       0.00000000       0.27777778       0.00000000 </v>
   <v>       0.04166667       0.27777778       0.00000000 </v>
   <v>       0.08333333       0.27777778       0.00000000 </v>
   <v>       0.12500000       0.27777778       0.00000000 </v>
   <v>       0.16666667       0.27777778       0.00000000 </v>
   <v>       0.20833333       0.27777778       0.00000000 </v>
   <v>       0.25000000       0.27777778       0.00000000 </v>
   <v>       0.29166667       0.27777778       0.00000000 </v>
   <v>       0.33333333       0.27777778       0.00000000 </v>
   <v>       0.37500000       0.27777778       0.00000000 </v>
   <v>       0.41666667       0.27777778       0.00000000 </v>
   <v>       0.45833333       0.27777778       0.00000000 </v>
   <v>       0.50000000       0.27777778       0.00000000 </v>
   <v>       0.00000000       0.30555556       0.00000000 </v>
   <v>       0.04166667       0.30555556       0.00000000 </v>
   <v>       0.08333333       0.30555556       0.00000000 </v>
   <v>       0.12500000       0.30555556       0.00000000 </v>
   <v>       0.16666667       0.30555556       0.00000000 </v>
   <v>       0.20833333       0.30555556       0.00000000 </v>
   <v>       0.25000000       0.30555556       0.00000000 </v>
   <v>       0.29166667       0.30555556       0.00000000 </v>
   <v>       0.33333333       0.30555556       0.00000000 </v>
   <v>       0.37500000       0.30555556       0.00000000 </v>
   <v>       0.41666667       0.30555556       0.00000000 </v>
   <v>       0.45833333       0.30555556       0.00000000 </v>
   <v>       0.50000000       0.30555556       0.00000000 </v>
   <v>       0.00000000       0.33333333       0.00000000 </v>
   <v>       0.04166667       0.33333333       0.00000000 </v>
   <v>       0.08333333       0.33333333       0.00000000 </v>
   <v>       0.12500000       0.33333333       0.00000000 </v>
   <v>       0.16666667       0.33333333       0.00000000 </v>
   <v>       0.20833333       0.33333333       0.00000000 </v>
   <v>       0.25000000       0.33333333       0.00000000 </v>
   <v>       0.29166667       0.33333333       0.00000000 </v>
   <v>       0.33333333       0.33333333       0.00000000 </v>
   <v>       0.37500000       0.33333333       0.00000000 </v>
   <v>       0.41666667       0.33333333       0.00000000 </v>
   <v>       0.45833333       0.33333333       0.00000000 </v>
   <v>       0.50000000       0.33333333       0.00000000 </v>
   <v>       0.00000000       0.36111111       0.00000000 </v>
   <v>       0.04166667       0.36111111       0.00000000 </v>
   <v>       0.08333333       0.36111111       0.00000000 </v>
   <v>       0.12500000       0.36111111       0.00000000 </v>
   <v>       0.16666667       0.36111111       0.00000000 </v>
   <v>       0.20833333       0.36111111       0.00000000 </v>
   <v>       0.25000000       0.36111111       0.00000000 </v>
   <v>       0.29166667       0.36111111       0.00000000 </v>
   <v>       0.33333333       0.36111111       0.00000000 </v>
   <v>       0.37500000       0.36111111       0.00000000 </v>
   <v>       0.41666667       0.36111111       0.00000000 </v>
   <v>       0.45833333       0.36111111       0.00000000 </v>
   <v>       0.50000000       0.36111111       0.00000000 </v>
   <v>       0.00000000       0.38888889       0.00000000 </v>
   <v>       0.04166667       0.38888889       0.00000000 </v>
   <v>       0.08333333       0.38888889       0.00000000 </v>
   <v>       0.12500000       0.38888889       0.00000000 </v>
   <v>       0.16666667       0.38888889       0.00000000 </v>
   <v>       0.20833333       0.38888889       0.00000000 </v>
   <v>       0.25000000       0.38888889       0.00000000 </v>
   <v>       0.29166667       0.38888889       0.00000000 </v>
   <v>       0.33333333       0.38888889       0.00000000 </v>
   <v>       0.37500000       0.38888889       0.00000000 </v>
   <v>       0.41666667       0.38888889       0.00000000 </v>
   <v>       0.45833333       0.38888889       0.00000000 </v>
   <v>       0.50000000       0.38888889       0.00000000 </v>
   <v>       0.00000000       0.41666667       0.00000000 </v>
   <v>       0.04166667       0.41666667       0.00000000 </v>
   <v>       0.08333333       0.41666667       0.00000000 </v>
   <v>       0.12500000       0.41666667       0.00000000 </v>
   <v>       0.16666667       0.41666667       0.00000000 </v>
   <v>       0.20833333       0.41666667       0.00000000 </v>
   <v>       0.25000000       0.41666667       0.00000000 </v>
   <v>       0.29166667       0.41666667       0.00000000 </v>
   <v>       0.33333333       0.41666667       0.00000000 </v>
   <v>       0.37500000       0.41666667       0.00000000 </v>
   <v>       0.41666667       0.41666667       0.00000000 </v>
   <v>       0.45833333       0.41666667       0.00000000 </v>
   <v>       0.50000000       0.41666667       0.00000000 </v>
   <v>       0.00000000       0.44444444       0.00000000 </v>
   <v>       0.04166667       0.44444444       0.00000000 </v>
   <v>       0.08333333       0.44444444       0.00000000 </v>
   <v>       0.12500000       0.44444444       0.00000000 </v>
   <v>       0.16666667       0.44444444       0.00000000 </v>
   <v>       0.20833333       0.44444444       0.00000000 </v>
   <v>       0.25000000       0.44444444       0.00000000 </v>
   <v>       0.29166667       0.44444444       0.00000000 </v>
   <v>       0.33333333       0.44444444       0.00000000 </v>
   <v>       0.37500000       0.44444444       0.00000000 </v>
   <v>       0.41666667       0.44444444       0.00000000 </v>
   <v>       0.45833333       0.44444444       0.00000000 </v>
   <v>       0.50000000       0.44444444       0.00000000 </v>
   <v>       0.00000000       0.47222222       0.00000000 </v>
   <v>       0.04166667       0.47222222       0.00000000 </v>
   <v>       0.08333333       0.47222222       0.00000000 </v>
   <v>       0.12500000       0.47222222       0.00000000 </v>
   <v>       0.16666667       0.47222222       0.00000000 </v>
   <v>       0.20833333       0.47222222       0.00000000 </v>
   <v>       0.25000000       0.47222222       0.00000000 </v>
   <v>       0.29166667       0.47222222       0.00000000 </v>
   <v>       0.33333333       0.47222222       0.00000000 </v>
   <v>       0.37500000       0.47222222       0.00000000 </v>
   <v>       0.41666667       0.47222222       0.00000000 </v>
   <v>       0.45833333       0.47222222       0.00000000 </v>
   <v>       0.50000000       0.47222222       0.00000000 </v>
   <v>       0.00000000       0.50000000       0.00000000 </v>
   <v>       0.04166667       0.50000000       0.00000000 </v>
   <v>       0.08333333       0.50000000       0.00000000 </v>
   <v>       0.12500000       0.50000000       0.00000000 </v>
   <v>       0.16666667       0.50000000       0.00000000 </v>
   <v>       0.20833333       0.50000000       0.00000000 </v>
   <v>       0.25000000       0.50000000       0.00000000 </v>
   <v>       0.29166667       0.50000000       0.00000000 </v>
   <v>       0.33333333       0.50000000       0.00000000 </v>
   <v>       0.37500000       0.50000000       0.00000000 </v>
   <v>       0.41666667       0.50000000       0.00000000 </v>
   <v>       0.45833333       0.50000000       0.00000000 </v>
   <v>       0.50000000       0.50000000       0.00000000 </v>
  </varray>
  <varray name="weights" >
   <v>       0.00115741 </v>
   <v>       0.00231481 </v>
   <v>       0.00231481 </v>
   <v>       0.00231481 </v>
   <v>       0.00231481 </v>
   <v>       0.00231481 </v>
   <v>       0.00231481 </v>
   <v>       0.00231481 </v>
   <v>       0.00231481 </v>
   <v>       0.00231481 </v>
   <v>       0.00231481 </v>
   <v>       0.00231481 </v>
   <v>       0.00115741 </v>
   <v>       0.00231481 </v>
   <v>       0.00462963 </v>
   <v>       0.00462963 </v>
   <v>       0.00462963 </v>
   <v>       0.00462963 </v>
   <v>       0.00462963 </v>
   <v>       0.00462963 </v>
   <v>       0.00462963 </v>
   <v>       0.00462963 </v>
   <v>       0.00462963 </v>
   <v>       0.00462963 </v>
   <v>       0.00462963 </v>
   <v>       0.00231481 </v>
   <v>       0.00231481 </v>
   <v>       0.00462963 </v>
   <v>       0.00462963 </v>
   <v>       0.00462963 </v>
   <v>       0.00462963 </v>
   <v>       0.00462963 </v>
   <v>       0.00462963 </v>
   <v>       0.00462963 </v>
   <v>       0.00462963 </v>
   <v>       0.00462963 </v>
   <v>       0.00462963 </v>
   <v>       0.00462963 </v>
   <v>       0.00231481 </v>
   <v>       0.00231481 </v>
   <v>       0.00462963 </v>
   <v>       0.00462963 </v>
   <v>       0.00462963 </v>
   <v>       0.00462963 </v>
   <v>       0.00462963 </v>
   <v>       0.00462963 </v>
   <v>       0.00462963 </v>
   <v>       0.00462963 </v>
   <v>       0.00462963 </v>
   <v>       0.00462963 </v>
   <v>       0.00462963 </v>
   <v>       0.00231481 </v>
   <v>       0.00231481 </v>
   <v>       0.00462963 </v>
   <v>       0.00462963 </v>
   <v>       0.00462963 </v>
   <v>       0.00462963 </v>
   <v>       0.00462963 </v>
   <v>       0.00462963 </v>
   <v>       0.00462963 </v>
   <v>       0.00462963 </v>
   <v>       0.00462963 </v>
   <v>       0.00462963 </v>
   <v>       0.00462963 </v>
   <v>       0.00231481 </v>
   <v>       0.00231481 </v>
   <v>       0.00462963 </v>
   <v>       0.00462963 </v>
   <v>       0.00462963 </v>
   <v>       0.00462963 </v>
   <v>       0.00462963 </v>
   <v>       0.00462963 </v>
   <v>       0.00462963 </v>
   <v>       0.00462963 </v>
   <v>       0.00462963 </v>
   <v>       0.00462963 </v>
   <v>       0.00462963 </v>
   <v>       0.00231481 </v>
   <v>       0.00231481 </v>
   <v>       0.00462963 </v>
   <v>       0.00462963 </v>
   <v>       0.00462963 </v>
   <v>       0.00462963 </v>
   <v>       0.00462963 </v>
   <v>       0.00462963 </v>
   <v>       0.00462963 </v>
   <v>       0.00462963 </v>
   <v>       0.00462963 </v>
   <v>       0.00462963 </v>
   <v>       0.00462963 </v>
   <v>       0.00231481 </v>
   <v>       0.00231481 </v>
   <v>       0.00462963 </v>
   <v>       0.00462963 </v>
   <v>       0.00462963 </v>
   <v>       0.00462963 </v>
   <v>       0.00462963 </v>
   <v>       0.00462963 </v>
   <v>       0.00462963 </v>
   <v>       0.00462963 </v>
   <v>       0.00462963 </v>
   <v>       0.00462963 </v>
   <v>       0.00462963 </v>
   <v>       0.00231481 </v>
   <v>       0.00231481 </v>
   <v>       0.00462963 </v>
   <v>       0.00462963 </v>
   <v>       0.00462963 </v>
   <v>       0.00462963 </v>
   <v>       0.00462963 </v>
   <v>       0.00462963 </v>
   <v>       0.00462963 </v>
   <v>       0.00462963 </v>
   <v>       0.00462963 </v>
   <v>       0.00462963 </v>
   <v>       0.00462963 </v>
   <v>       0.00231481 </v>
   <v>       0.00231481 </v>
   <v>       0.00462963 </v>
   <v>       0.00462963 </v>
   <v>       0.00462963 </v>
   <v>       0.00462963 </v>
   <v>       0.00462963 </v>
   <v>       0.00462963 </v>
   <v>       0.00462963 </v>
   <v>       0.00462963 </v>
   <v>       0.00462963 </v>
   <v>       0.00462963 </v>
   <v>       0.00462963 </v>
   <v>       0.00231481 </v>
   <v>       0.00231481 </v>
   <v>       0.00462963 </v>
   <v>       0.00462963 </v>
   <v>       0.00462963 </v>
   <v>       0.00462963 </v>
   <v>       0.00462963 </v>
   <v>       0.00462963 </v>
   <v>       0.00462963 </v>
   <v>       0.00462963 </v>
   <v>       0.00462963 </v>
   <v>       0.00462963 </v>
   <v>       0.00462963 </v>
   <v>       0.00231481 </v>
   <v>       0.00231481 </v>
   <v>       0.00462963 </v>
   <v>       0.00462963 </v>
   <v>       0.00462963 </v>
   <v>       0.00462963 </v>
   <v>       0.00462963 </v>
   <v>       0.00462963 </v>
   <v>       0.00462963 </v>
   <v>       0.00462963 </v>
   <v>       0.00462963 </v>
   <v>       0.00462963 </v>
   <v>       0.00462963 </v>
   <v>       0.00231481 </v>
   <v>       0.00231481 </v>
   <v>       0.00462963 </v>
   <v>       0.00462963 </v>
   <v>       0.00462963 </v>
   <v>       0.00462963 </v>
   <v>       0.00462963 </v>
   <v>       0.00462963 </v>
   <v>       0.00462963 </v>
   <v>       0.00462963 </v>
   <v>       0.00462963 </v>
   <v>       0.00462963 </v>
   <v>       0.00462963 </v>
   <v>       0.00231481 </v>
   <v>       0.00231481 </v>
   <v>       0.00462963 </v>
   <v>       0.00462963 </v>
   <v>       0.00462963 </v>
   <v>       0.00462963 </v>
   <v>       0.00462963 </v>
   <v>       0.00462963 </v>
   <v>       0.00462963 </v>
   <v>       0.00462963 </v>
   <v>       0.00462963 </v>
   <v>       0.00462963 </v>
   <v>       0.00462963 </v>
   <v>       0.00231481 </v>
   <v>       0.00231481 </v>
   <v>       0.00462963 </v>
   <v>       0.00462963 </v>
   <v>       0.00462963 </v>
   <v>       0.00462963 </v>
   <v>       0.00462963 </v>
   <v>       0.00462963 </v>
   <v>       0.00462963 </v>
   <v>       0.00462963 </v>
   <v>       0.00462963 </v>
   <v>       0.00462963 </v>
   <v>       0.00462963 </v>
   <v>       0.00231481 </v>
   <v>       0.00231481 </v>
   <v>       0.00462963 </v>
   <v>       0.00462963 </v>
   <v>       0.00462963 </v>
   <v>       0.00462963 </v>
   <v>       0.00462963 </v>
   <v>       0.00462963 </v>
   <v>       0.00462963 </v>
   <v>       0.00462963 </v>
   <v>       0.00462963 </v>
   <v>       0.00462963 </v>
   <v>       0.00462963 </v>
   <v>       0.00231481 </v>
   <v>       0.00231481 </v>
   <v>       0.00462963 </v>
   <v>       0.00462963 </v>
   <v>       0.00462963 </v>
   <v>       0.00462963 </v>
   <v>       0.00462963 </v>
   <v>       0.00462963 </v>
   <v>       0.00462963 </v>
   <v>       0.00462963 </v>
   <v>       0.00462963 </v>
   <v>       0.00462963 </v>
   <v>       0.00462963 </v>
   <v>       0.00231481 </v>
   <v>       0.00231481 </v>
   <v>       0.00462963 </v>
   <v>       0.00462963 </v>
   <v>       0.00462963 </v>
   <v>       0.00462963 </v>
   <v>       0.00462963 </v>
   <v>       0.00462963 </v>
   <v>       0.00462963 </v>
   <v>       0.00462963 </v>
   <v>       0.00462963 </v>
   <v>       0.00462963 </v>
   <v>       0.00462963 </v>
   <v>       0.00231481 </v>
   <v>       0.00115741 </v>
   <v>       0.00231481 </v>
   <v>       0.00231481 </v>
   <v>       0.00231481 </v>
   <v>       0.00231481 </v>
   <v>       0.00231481 </v>
   <v>       0.00231481 </v>
   <v>       0.00231481 </v>
   <v>       0.00231481 </v>
   <v>       0.00231481 </v>
   <v>       0.00231481 </v>
   <v>       0.00231481 </v>
   <v>       0.00115741 </v>
  </varray>
 </kpoints>
 <parameters>
  <separator name="general" >
   <i type="string" name="SYSTEM">gr</i>
   <i type="logical" name="LCOMPAT"> F  </i>
  </separator>
  <separator name="electronic" >
   <i type="string" name="PREC">accura</i>
   <i name="ENMAX">   2000.00000000</i>
   <i name="ENAUG">    644.87300000</i>
   <i name="EDIFF">      0.00000000</i>
   <i type="int" name="IALGO">    68</i>
   <i type="int" name="IWAVPR">    11</i>
   <i type="int" name="NBANDS">    12</i>
   <i name="NELECT">     16.00000000</i>
   <i type="int" name="TURBO">     0</i>
   <i type="int" name="IRESTART">     0</i>
   <i type="int" name="NREBOOT">     0</i>
   <i type="int" name="NMIN">     0</i>
   <i name="EREF">      0.00000000</i>
   <separator name="electronic smearing" >
    <i type="int" name="ISMEAR">     0</i>
    <i name="SIGMA">      0.05000000</i>
    <i name="KSPACING">      0.50000000</i>
    <i type="logical" name="KGAMMA"> T  </i>
   </separator>
   <separator name="electronic projectors" >
    <i type="logical" name="LREAL"> F  </i>
    <v name="ROPT">      0.00000000</v>
    <i type="int" name="LMAXPAW">  -100</i>
    <i type="int" name="LMAXMIX">     2</i>
    <i type="logical" name="NLSPLINE"> F  </i>
   </separator>
   <separator name="electronic startup" >
    <i type="int" name="ISTART">     0</i>
    <i type="int" name="ICHARG">     2</i>
    <i type="int" name="INIWAV">     1</i>
   </separator>
   <separator name="electronic spin" >
    <i type="int" name="ISPIN">     1</i>
    <i type="logical" name="LNONCOLLINEAR"> F  </i>
    <v name="MAGMOM">      1.00000000      1.00000000      1.00000000      1.00000000</v>
    <i name="NUPDOWN">     -1.00000000</i>
    <i type="logical" name="LSORBIT"> F  </i>
    <v name="SAXIS">      0.00000000      0.00000000      1.00000000</v>
    <i type="logical" name="LSPIRAL"> F  </i>
    <v name="QSPIRAL">      0.00000000      0.00000000      0.00000000</v>
    <i type="logical" name="LZEROZ"> F  </i>
   </separator>
   <separator name="electronic exchange-correlation" >
    <i type="logical" name="LASPH"> F  </i>
    <i type="logical" name="LMETAGGA"> F  </i>
   </separator>
   <separator name="electronic convergence" >
    <i type="int" name="NELM">   100</i>
    <i type="int" name="NELMDL">    -3</i>
    <i type="int" name="NELMIN">     5</i>
    <i name="ENINI">   2000.00000000</i>
    <separator name="electronic convergence detail" >
     <i type="logical" name="LDIAG"> T  </i>
     <i type="logical" name="LSUBROT"> F  </i>
     <i name="WEIMIN">      0.00100000</i>
     <i name="EBREAK">      0.00000000</i>
     <i name="DEPER">      0.30000000</i>
     <i type="int" name="NRMM">     4</i>
     <i name="TIME">      0.40000000</i>
    </separator>
   </separator>
   <separator name="electronic mixer" >
    <i name="AMIX">      0.40000000</i>
    <i name="BMIX">      1.00000000</i>
    <i name="AMIN">      0.10000000</i>
    <i name="AMIX_MAG">      1.60000000</i>
    <i name="BMIX_MAG">      1.00000000</i>
    <separator name="electronic mixer details" >
     <i type="int" name="IMIX">     4</i>
     <i type="int" name="MAXMIX">   -45</i>
     <i name="WC">    100.00000000</i>
     <i type="int" name="INIMIX">     1</i>
     <i type="int" name="MIXPRE">     1</i>
     <i type="int" name="MREMOVE">     5</i>
    </separator>
   </separator>
   <separator name="electronic dipolcorrection" >
    <i type="logical" name="LDIPOL"> F  </i>
    <i type="logical" name="LMONO"> F  </i>
    <i type="int" name="IDIPOL">     0</i>
    <i name="EPSILON">      1.00000000</i>
    <v name="DIPOL">   -100.00000000   -100.00000000   -100.00000000</v>
    <i name="EFIELD">      0.00000000</i>
   </separator>
  </separator>
  <separator name="grids" >
   <i type="int" name="NGX">    64</i>
   <i type="int" name="NGY">    40</i>
   <i type="int" name="NGZ">   288</i>
   <i type="int" name="NGXF">   128</i>
   <i type="int" name="NGYF">    80</i>
   <i type="int" name="NGZF">   576</i>
   <i type="logical" name="ADDGRID"> F  </i>
  </separator>
  <separator name="ionic" >
   <i type="int" name="NSW">   400</i>
   <i type="int" name="IBRION">     1</i>
   <i type="int" name="ISIF">     2</i>
   <i name="PSTRESS">      0.00000000</i>
   <i name="EDIFFG">     -0.00000100</i>
   <i type="int" name="NFREE">     0</i>
   <i name="POTIM">      0.50000000</i>
   <i name="SMASS">     -3.00000000</i>
   <i name="SCALEE">      1.00000000</i>
  </separator>
  <separator name="ionic md" >
   <i name="TEBEG">      0.00010000</i>
   <i name="TEEND">      0.00010000</i>
   <i type="int" name="NBLOCK">     1</i>
   <i type="int" name="KBLOCK">   400</i>
   <i type="int" name="NPACO">   256</i>
   <i name="APACO">     16.00000000</i>
  </separator>
  <separator name="symmetry" >
   <i type="int" name="ISYM">     2</i>
   <i name="SYMPREC">      0.00001000</i>
  </separator>
  <separator name="dos" >
   <i type="logical" name="LORBIT"> F  </i>
   <v name="RWIGS">     -1.00000000</v>
   <i type="int" name="NEDOS">   301</i>
   <i name="EMIN">     10.00000000</i>
   <i name="EMAX">    -10.00000000</i>
   <i name="EFERMI">      0.00000000</i>
  </separator>
  <separator name="writing" >
   <i type="int" name="NWRITE">     2</i>
   <i type="logical" name="LWAVE"> F  </i>
   <i type="logical" name="LCHARG"> F  </i>
   <i type="logical" name="LPARD"> F  </i>
   <i type="logical" name="LVTOT"> F  </i>
   <i type="logical" name="LVHAR"> F  </i>
   <i type="logical" name="LELF"> F  </i>
   <i type="logical" name="LOPTICS"> F  </i>
   <v name="STM">      0.00000000      0.00000000      0.00000000      0.00000000      0.00000000      0.00000000      0.00000000</v>
  </separator>
  <separator name="performance" >
   <i type="int" name="NPAR">     4</i>
   <i type="int" name="NSIM">     4</i>
   <i type="int" name="NBLK">    -1</i>
   <i type="logical" name="LPLANE"> T  </i>
   <i type="logical" name="LSCALAPACK"> F  </i>
   <i type="logical" name="LSCAAWARE"> F  </i>
   <i type="logical" name="LSCALU"> F  </i>
   <i type="logical" name="LASYNC"> F  </i>
   <i type="logical" name="LORBITALREAL"> F  </i>
  </separator>
  <separator name="miscellaneous" >
   <i type="int" name="IDIOT">     3</i>
   <i type="logical" name="LMUSIC"> F  </i>
   <v name="POMASS">     12.01100000</v>
   <v name="DARWINR">      0.00000000</v>
   <v name="DARWINV">      1.00000000</v>
   <i type="logical" name="LCORR"> T  </i>
  </separator>
  <i type="logical" name="GGA_COMPAT"> T  </i>
  <i type="logical" name="LBERRY"> F  </i>
  <i type="int" name="ICORELEVEL">     0</i>
  <i type="logical" name="LDAU"> F  </i>
  <i type="int" name="I_CONSTRAINED_M">     0</i>
  <separator name="electronic exchange-correlation" >
   <i type="string" name="GGA">--</i>
   <i type="int" name="VOSKOWN">     0</i>
   <i type="logical" name="LHFCALC"> F  </i>
   <i type="string" name="PRECFOCK"></i>
   <i type="logical" name="LSYMGRAD"> F  </i>
   <i type="logical" name="LHFONE"> F  </i>
   <i type="logical" name="LRHFCALC"> F  </i>
   <i type="logical" name="LTHOMAS"> F  </i>
   <i type="logical" name="LMODELHF"> F  </i>
   <i name="ENCUT4O">     -1.00000000</i>
   <i type="int" name="EXXOEP">     0</i>
   <i type="int" name="FOURORBIT">     0</i>
   <i name="AEXX">      0.00000000</i>
   <i name="HFALPHA">      0.00000000</i>
   <i name="MCALPHA">      0.00000000</i>
   <i name="ALDAX">      1.00000000</i>
   <i name="AGGAX">      1.00000000</i>
   <i name="ALDAC">      1.00000000</i>
   <i name="AGGAC">      1.00000000</i>
   <i type="int" name="NKREDX">     1</i>
   <i type="int" name="NKREDY">     1</i>
   <i type="int" name="NKREDZ">     1</i>
   <i type="logical" name="SHIFTRED"> F  </i>
   <i type="logical" name="ODDONLY"> F  </i>
   <i type="logical" name="EVENONLY"> F  </i>
   <i type="int" name="LMAXFOCK">     0</i>
   <i type="int" name="NMAXFOCKAE">     0</i>
   <i type="logical" name="LFOCKAEDFT"> F  </i>
   <i name="HFSCREEN">      0.00000000</i>
   <i name="HFSCREENC">      0.00000000</i>
   <i type="int" name="NBANDSGWLOW">     0</i>
  </separator>
  <separator name="vdW DFT" >
   <i type="logical" name="LUSE_VDW"> F  </i>
   <i name="Zab_VDW">     -0.84910000</i>
   <i name="PARAM1">      0.12340000</i>
   <i name="PARAM2">      1.00000000</i>
   <i name="PARAM3">      0.00000000</i>
  </separator>
  <separator name="model GW" >
   <i type="int" name="MODEL_GW">     0</i>
   <i name="MODEL_EPS0">     31.62568521</i>
   <i name="MODEL_ALPHA">      1.00000000</i>
  </separator>
  <separator name="linear response parameters" >
   <i type="logical" name="LEPSILON"> F  </i>
   <i type="logical" name="LRPA"> F  </i>
   <i type="logical" name="LNABLA"> F  </i>
   <i type="logical" name="LVEL"> F  </i>
   <i type="int" name="KINTER">     0</i>
   <i name="CSHIFT">      0.10000000</i>
   <i name="OMEGAMAX">     -1.00000000</i>
   <i name="DEG_THRESHOLD">      0.00200000</i>
  </separator>
  <separator name="orbital magnetization" >
   <i type="logical" name="NUCIND"> F  </i>
   <v name="MAGPOS">      0.00000000      0.00000000      0.00000000</v>
   <i type="logical" name="LNICSALL"> T  </i>
   <i type="logical" name="ORBITALMAG"> F  </i>
   <i type="logical" name="LMAGBLOCH"> F  </i>
   <i type="logical" name="LCHIMAG"> F  </i>
   <i type="logical" name="LGAUGE"> T  </i>
   <i type="int" name="MAGATOM">     0</i>
   <v name="MAGDIPOL">      0.00000000      0.00000000      0.00000000</v>
   <v name="AVECCONST">      0.00000000      0.00000000      0.00000000</v>
  </separator>
  <separator name="response functions" >
   <i type="logical" name="LADDER"> F  </i>
   <i type="logical" name="LFXC"> F  </i>
   <i type="logical" name="LHARTREE"> T  </i>
   <i type="int" name="IBSE">     0</i>
   <i type="logical" name="LTCTE"> F  </i>
   <i type="logical" name="LTETE"> F  </i>
   <i type="logical" name="LTRIPLET"> F  </i>
   <i type="logical" name="LFXCEPS"> F  </i>
   <i type="logical" name="LFXHEG"> F  </i>
   <i type="logical" name="L2ORDER"> F  </i>
   <i type="logical" name="LUSEW"> F  </i>
   <i name="ENCUTGW">     -2.00000000</i>
   <i name="ENCUTGWSOFT">     -2.00000000</i>
   <i name="ENCUTLF">     -1.00000000</i>
   <i type="int" name="LMAXMP2">    -1</i>
   <i name="SCISSOR">      0.00000000</i>
   <i type="int" name="NOMEGA">     0</i>
   <i type="int" name="NOMEGAR">     0</i>
   <i type="int" name="NBANDSGW">    -1</i>
   <i type="int" name="NBANDSO">    -1</i>
   <i type="int" name="NBANDSV">    -1</i>
   <i type="int" name="NELM">   100</i>
   <i type="int" name="DIM">     3</i>
   <i type="int" name="ANTIRES">     0</i>
   <i name="OMEGAMAX">    -30.00000000</i>
   <i name="OMEGAMIN">    -30.00000000</i>
   <i name="OMEGATL">   -200.00000000</i>
   <i type="int" name="OMEGAGRID">     0</i>
   <i name="CSHIFT">     -0.10000000</i>
   <i type="logical" name="SELFENERGY"> F  </i>
   <i type="logical" name="LSPECTRAL"> F  </i>
   <i type="logical" name="ODDONLYGW"> F  </i>
   <i type="logical" name="EVENONLYGW"> F  </i>
   <i type="int" name="NKREDLFX">     1</i>
   <i type="int" name="NKREDLFY">     1</i>
   <i type="int" name="NKREDLFZ">     1</i>
   <i type="int" name="MAXMEM">  1800</i>
   <i type="int" name="TELESCOPE">     0</i>
   <i type="int" name="TAUPAR">     1</i>
  </separator>
  <separator name="External order field" >
   <i name="OFIELD_KAPPA">      0.00000000</i>
   <v name="OFIELD_K">      0.00000000      0.00000000      0.00000000</v>
   <i name="OFIELD_Q6_NEAR">      0.00000000</i>
   <i name="OFIELD_Q6_FAR">      0.00000000</i>
   <i name="OFIELD_A">      0.00000000</i>
  </separator>
 </parameters>
 <atominfo>
  <atoms>       4 </atoms>
  <types>       1 </types>
  <array name="atoms" >
   <dimension dim="1">ion</dimension>
   <field type="string">element</field>
   <field type="int">atomtype</field>
   <set>
    <rc><c>C </c><c>   1</c></rc>
    <rc><c>C </c><c>   1</c></rc>
    <rc><c>C </c><c>   1</c></rc>
    <rc><c>C </c><c>   1</c></rc>
   </set>
  </array>
  <array name="atomtypes" >
   <dimension dim="1">type</dimension>
   <field type="int">atomspertype</field>
   <field type="string">element</field>
   <field>mass</field>
   <field>valence</field>
   <field type="string">pseudopotential</field>
   <set>
    <rc><c>   4</c><c>C </c><c>     12.01100000</c><c>      4.00000000</c><c> PAW_PBE C 08Apr2002                    </c></rc>
   </set>
  </array>
 </atominfo>
 <structure name="initialpos" >
  <crystal>
   <varray name="basis" >
    <v>       4.25503414       0.00000000       0.00000000 </v>
    <v>       0.00000000       2.52947832       0.00000000 </v>
    <v>       0.00000000       0.00000000      19.58910864 </v>
   </varray>
   <i name="volume">    210.83790140 </i>
   <varray name="rec_basis" >
    <v>       0.23501574       0.00000000       0.00000000 </v>
    <v>       0.00000000       0.39533844       0.00000000 </v>
    <v>       0.00000000       0.00000000       0.05104878 </v>
   </varray>
  </crystal>
  <varray name="positions" >
   <v>       0.00063729       0.00000000       0.00000000 </v>
   <v>       0.16602938       0.50000000       0.00000000 </v>
   <v>       0.50063729       0.50000000       0.00000000 </v>
   <v>       0.66602938       0.00000000       0.00000000 </v>
  </varray>
 </structure>
 <calculation>
  <scstep>
   <time name="dav">  328.71  329.06</time>
   <time name="total">  331.48  331.88</time>
   <energy>
    <i name="alphaZ">      6.18334092 </i>
    <i name="ewald">   2449.04116331 </i>
    <i name="hartreedc">  -2878.55026985 </i>
    <i name="XCdc">     54.81611184 </i>
    <i name="pawpsdc">    151.32577238 </i>
    <i name="pawaedc">   -155.92769107 </i>
    <i name="eentropy">     -0.00197777 </i>
    <i name="bandstr">    -28.72011622 </i>
    <i name="atom">    588.62352690 </i>
    <i name="e_fr_energy">    186.78986045 </i>
    <i name="e_wo_entrp">    186.79183822 </i>
    <i name="e_0_energy">    186.79084934 </i>
   </energy>
  </scstep>
  <scstep>
   <time name="dav">  502.24  503.25</time>
   <time name="total">  502.25  503.27</time>
   <energy>
    <i name="e_fr_energy">     -9.06803263 </i>
    <i name="e_wo_entrp">     -9.06779564 </i>
    <i name="e_0_energy">     -9.06791414 </i>
   </energy>
  </scstep>
  <scstep>
   <time name="dav">  385.73  386.03</time>
   <time name="total">  419.68  420.03</time>
   <energy>
    <i name="e_fr_energy">    -38.07388926 </i>
    <i name="e_wo_entrp">    -38.07388737 </i>
    <i name="e_0_energy">    -38.07388831 </i>
   </energy>
  </scstep>
  <scstep>
   <time name="diag">   90.39   90.41</time>
   <time name="diis">  366.38  368.67</time>
   <time name="orth">    3.08    3.09</time>
   <time name="total">  496.55  499.25</time>
   <energy>
    <i name="e_fr_energy">    -37.57180991 </i>
    <i name="e_wo_entrp">    -37.57180990 </i>
    <i name="e_0_energy">    -37.57180991 </i>
   </energy>
  </scstep>
  <scstep>
   <time name="diag">   90.15   90.45</time>
   <time name="diis">  365.19  367.60</time>
   <time name="orth">    3.07    3.08</time>
   <time name="total">  494.97  498.07</time>
   <energy>
    <i name="e_fr_energy">    -36.86620769 </i>
    <i name="e_wo_entrp">    -36.86620767 </i>
    <i name="e_0_energy">    -36.86620768 </i>
   </energy>
  </scstep>
  <scstep>
   <time name="diag">   89.80   90.33</time>
   <time name="diis">  412.92  414.66</time>
   <time name="orth">    3.08    3.08</time>
   <time name="total">  543.05  545.67</time>
   <energy>
    <i name="e_fr_energy">    -36.86822843 </i>
    <i name="e_wo_entrp">    -36.86822841 </i>
    <i name="e_0_energy">    -36.86822842 </i>
   </energy>
  </scstep>
  <scstep>
   <time name="diag">   90.37   90.42</time>
   <time name="diis">  375.99  376.43</time>
   <time name="orth">    3.10    3.10</time>
   <time name="total">  507.04  507.61</time>
   <energy>
    <i name="e_fr_energy">    -36.85939719 </i>
    <i name="e_wo_entrp">    -36.85939718 </i>
    <i name="e_0_energy">    -36.85939719 </i>
   </energy>
  </scstep>
  <scstep>
   <time name="diag">   90.35   90.38</time>
   <time name="diis">  376.18  376.27</time>
   <time name="orth">    3.08    3.08</time>
   <time name="total">  507.31  507.46</time>
   <energy>
    <i name="e_fr_energy">    -36.85456232 </i>
    <i name="e_wo_entrp">    -36.85456231 </i>
    <i name="e_0_energy">    -36.85456231 </i>
   </energy>
  </scstep>
  <scstep>
   <time name="diag">   90.17   90.34</time>
   <time name="diis">  366.59  367.77</time>
   <time name="orth">    3.08    3.08</time>
   <time name="total">  496.95  498.58</time>
   <energy>
    <i name="e_fr_energy">    -36.85436828 </i>
    <i name="e_wo_entrp">    -36.85436827 </i>
    <i name="e_0_energy">    -36.85436827 </i>
   </energy>
  </scstep>
  <scstep>
   <time name="diag">   89.94   90.39</time>
   <time name="diis">  365.98  367.86</time>
   <time name="orth">    3.09    3.09</time>
   <time name="total">  496.92  499.36</time>
   <energy>
    <i name="e_fr_energy">    -36.85426500 </i>
    <i name="e_wo_entrp">    -36.85426499 </i>
    <i name="e_0_energy">    -36.85426500 </i>
   </energy>
  </scstep>
  <scstep>
   <time name="diag">   90.42   90.45</time>
   <time name="diis">  369.31  369.60</time>
   <time name="orth">    3.07    3.07</time>
   <time name="total">  500.77  501.29</time>
   <energy>
    <i name="e_fr_energy">    -36.85653804 </i>
    <i name="e_wo_entrp">    -36.85653803 </i>
    <i name="e_0_energy">    -36.85653803 </i>
   </energy>
  </scstep>
  <scstep>
   <time name="diag">   90.41   90.46</time>
   <time name="diis">  367.91  369.19</time>
   <time name="orth">    3.08    3.08</time>
   <time name="total">  499.39  500.74</time>
   <energy>
    <i name="e_fr_energy">    -36.85703323 </i>
    <i name="e_wo_entrp">    -36.85703322 </i>
    <i name="e_0_energy">    -36.85703323 </i>
   </energy>
  </scstep>
  <scstep>
   <time name="diag">   90.40   90.42</time>
   <time name="diis">  376.45  376.67</time>
   <time name="orth">    3.10    3.10</time>
   <time name="total">  507.91  508.19</time>
   <energy>
    <i name="e_fr_energy">    -36.85729074 </i>
    <i name="e_wo_entrp">    -36.85729073 </i>
    <i name="e_0_energy">    -36.85729073 </i>
   </energy>
  </scstep>
  <scstep>
   <time name="diag">   90.35   90.37</time>
   <time name="diis">  373.31  373.39</time>
   <time name="orth">    3.11    3.11</time>
   <time name="total">  505.01  505.16</time>
   <energy>
    <i name="e_fr_energy">    -36.85737207 </i>
    <i name="e_wo_entrp">    -36.85737206 </i>
    <i name="e_0_energy">    -36.85737207 </i>
   </energy>
  </scstep>
  <scstep>
   <time name="diag">   90.01   90.42</time>
   <time name="diis">  370.61  370.88</time>
   <time name="orth">    3.08    3.08</time>
   <time name="total">  501.93  502.65</time>
   <energy>
    <i name="e_fr_energy">    -36.85738458 </i>
    <i name="e_wo_entrp">    -36.85738457 </i>
    <i name="e_0_energy">    -36.85738458 </i>
   </energy>
  </scstep>
  <scstep>
   <time name="diag">   90.29   90.31</time>
   <time name="diis">  364.95  365.24</time>
   <time name="orth">    3.10    3.10</time>
   <time name="total">  495.21  495.64</time>
   <energy>
    <i name="e_fr_energy">    -36.85739791 </i>
    <i name="e_wo_entrp">    -36.85739790 </i>
    <i name="e_0_energy">    -36.85739791 </i>
   </energy>
  </scstep>
  <scstep>
   <time name="diag">   90.12   90.56</time>
   <time name="diis">  373.72  375.33</time>
   <time name="orth">    3.09    3.09</time>
   <time name="total">  504.94  507.03</time>
   <energy>
    <i name="e_fr_energy">    -36.85740388 </i>
    <i name="e_wo_entrp">    -36.85740387 </i>
    <i name="e_0_energy">    -36.85740388 </i>
   </energy>
  </scstep>
  <scstep>
   <time name="diag">   90.45   90.49</time>
   <time name="diis">  364.59  364.71</time>
   <time name="orth">    3.07    3.07</time>
   <time name="total">  496.13  496.33</time>
   <energy>
    <i name="e_fr_energy">    -36.85740492 </i>
    <i name="e_wo_entrp">    -36.85740491 </i>
    <i name="e_0_energy">    -36.85740492 </i>
   </energy>
  </scstep>
  <scstep>
   <time name="diag">   90.38   90.41</time>
   <time name="diis">  368.46  368.67</time>
   <time name="orth">    3.07    3.07</time>
   <time name="total">  499.49  499.80</time>
   <energy>
    <i name="e_fr_energy">    -36.85740565 </i>
    <i name="e_wo_entrp">    -36.85740564 </i>
    <i name="e_0_energy">    -36.85740565 </i>
   </energy>
  </scstep>
  <scstep>
   <time name="diag">   90.25   90.30</time>
   <time name="diis">  281.17  281.22</time>
   <time name="orth">    3.09    3.09</time>
   <time name="total">  410.97  411.44</time>
   <energy>
    <i name="e_fr_energy">    -36.85740570 </i>
    <i name="e_wo_entrp">    -36.85740569 </i>
    <i name="e_0_energy">    -36.85740570 </i>
   </energy>
  </scstep>
  <scstep>
   <time name="diag">   89.45   90.26</time>
   <time name="diis">  271.36  273.85</time>
   <time name="orth">    3.08    3.09</time>
   <time name="total">  400.73  404.44</time>
   <energy>
    <i name="e_fr_energy">    -36.85740572 </i>
    <i name="e_wo_entrp">    -36.85740570 </i>
    <i name="e_0_energy">    -36.85740571 </i>
   </energy>
  </scstep>
  <scstep>
   <time name="diag">   89.43   90.26</time>
   <time name="diis">  249.47  252.29</time>
   <time name="orth">    3.07    3.08</time>
   <time name="total">  379.59  383.71</time>
   <energy>
    <i name="e_fr_energy">    -36.85740572 </i>
    <i name="e_wo_entrp">    -36.85740570 </i>
    <i name="e_0_energy">    -36.85740571 </i>
   </energy>
  </scstep>
  <scstep>
   <time name="diag">   90.13   90.15</time>
   <time name="diis">  242.64  242.69</time>
   <time name="orth">    3.09    3.09</time>
   <time name="total">  373.94  374.04</time>
   <energy>
    <i name="e_fr_energy">    -36.85740572 </i>
    <i name="e_wo_entrp">    -36.85740570 </i>
    <i name="e_0_energy">    -36.85740571 </i>
   </energy>
  </scstep>
  <scstep>
   <time name="diag">   90.24   90.28</time>
   <time name="diis">  229.17  229.29</time>
   <time name="orth">    3.07    3.07</time>
   <time name="total">  360.55  360.73</time>
   <energy>
    <i name="e_fr_energy">    -36.85740572 </i>
    <i name="e_wo_entrp">    -36.85740571 </i>
    <i name="e_0_energy">    -36.85740571 </i>
   </energy>
  </scstep>
  <scstep>
   <time name="diag">   90.13   90.16</time>
   <time name="diis">  216.27  216.33</time>
   <time name="orth">    3.09    3.09</time>
   <time name="total">  312.15  312.32</time>
   <energy>
    <i name="alphaZ">      6.18334092 </i>
    <i name="ewald">   2449.04116331 </i>
    <i name="hartreedc">  -2943.32770497 </i>
    <i name="XCdc">     57.14028991 </i>
    <i name="pawpsdc">    268.79097623 </i>
    <i name="pawaedc">   -273.90234041 </i>
    <i name="eentropy">     -0.00000001 </i>
    <i name="bandstr">   -189.40665760 </i>
    <i name="atom">    588.62352690 </i>
    <i name="e_fr_energy">    -36.85740572 </i>
    <i name="e_wo_entrp">    -36.85740571 </i>
    <i name="e_0_energy">    -36.85740571 </i>
   </energy>
  </scstep>
  <structure>
   <crystal>
    <varray name="basis" >
     <v>       4.25503414       0.00000000       0.00000000 </v>
     <v>       0.00000000       2.52947832       0.00000000 </v>
     <v>       0.00000000       0.00000000      19.58910864 </v>
    </varray>
    <i name="volume">    210.83790140 </i>
    <varray name="rec_basis" >
     <v>       0.23501574       0.00000000       0.00000000 </v>
     <v>       0.00000000       0.39533844       0.00000000 </v>
     <v>       0.00000000       0.00000000       0.05104878 </v>
    </varray>
   </crystal>
   <varray name="positions" >
    <v>       0.00063729       0.00000000       0.00000000 </v>
    <v>       0.16602938       0.50000000       0.00000000 </v>
    <v>       0.50063729       0.50000000       0.00000000 </v>
    <v>       0.66602938       0.00000000       0.00000000 </v>
   </varray>
  </structure>
  <varray name="forces" >
   <v>       0.00154226       0.00000000       0.00000000 </v>
   <v>      -0.00154226       0.00000000      -0.00000000 </v>
   <v>       0.00154226       0.00000000       0.00000000 </v>
   <v>      -0.00154226      -0.00000000      -0.00000000 </v>
  </varray>
  <varray name="stress" >
   <v>       0.01007090       0.00000000       0.00000000 </v>
   <v>       0.00000000     -41.22180161       0.00000000 </v>
   <v>       0.00000000       0.00000000      -0.01012644 </v>
  </varray>
  <energy>
   <i name="e_fr_energy">    -36.85740572 </i>
   <i name="e_wo_entrp">    -36.85740571 </i>
   <i name="e_0_energy">     -0.00000001 </i>
  </energy>
  <time name="totalsc">11651.3411681.46</time>
 </calculation>
 <calculation>
  <scstep>
   <time name="dav">  343.53  344.36</time>
   <time name="total">  380.42  381.26</time>
   <energy>
    <i name="alphaZ">      6.18334092 </i>
    <i name="ewald">   2449.03957591 </i>
    <i name="hartreedc">  -2943.32701170 </i>
    <i name="XCdc">     57.14024440 </i>
    <i name="pawpsdc">    268.79097732 </i>
    <i name="pawaedc">   -273.90234147 </i>
    <i name="eentropy">     -0.00000001 </i>
    <i name="bandstr">   -189.40571729 </i>
    <i name="atom">    588.62352690 </i>
    <i name="e_fr_energy">    -36.85740501 </i>
    <i name="e_wo_entrp">    -36.85740500 </i>
    <i name="e_0_energy">    -36.85740501 </i>
   </energy>
  </scstep>
  <scstep>
   <time name="diag">   89.93   90.30</time>
   <time name="diis">  365.71  365.83</time>
   <time name="orth">    3.10    3.10</time>
   <time name="total">  495.76  496.28</time>
   <energy>
    <i name="e_fr_energy">    -36.85740506 </i>
    <i name="e_wo_entrp">    -36.85740504 </i>
    <i name="e_0_energy">    -36.85740505 </i>
   </energy>
  </scstep>
  <scstep>
   <time name="diag">   90.41   90.44</time>
   <time name="diis">  372.45  372.54</time>
   <time name="orth">    3.07    3.08</time>
   <time name="total">  503.96  504.17</time>
   <energy>
    <i name="e_fr_energy">    -36.85740502 </i>
    <i name="e_wo_entrp">    -36.85740500 </i>
    <i name="e_0_energy">    -36.85740501 </i>
   </energy>
  </scstep>
  <scstep>
   <time name="diag">   90.09   90.50</time>
   <time name="diis">  377.13  377.26</time>
   <time name="orth">    3.09    3.10</time>
   <time name="total">  508.39  508.96</time>
   <energy>
    <i name="e_fr_energy">    -36.85740501 </i>
    <i name="e_wo_entrp">    -36.85740500 </i>
    <i name="e_0_energy">    -36.85740501 </i>
   </energy>
  </scstep>
  <scstep>
   <time name="diag">   90.26   90.40</time>
   <time name="diis">  323.05  323.62</time>
   <time name="orth">    3.10    3.10</time>
   <time name="total">  454.52  455.29</time>
   <energy>
    <i name="e_fr_energy">    -36.85740501 </i>
    <i name="e_wo_entrp">    -36.85740500 </i>
    <i name="e_0_energy">    -36.85740501 </i>
   </energy>
  </scstep>
  <scstep>
   <time name="diag">   90.40   90.44</time>
   <time name="diis">  250.41  251.50</time>
   <time name="orth">    3.10    3.10</time>
   <time name="total">  382.07  383.25</time>
   <energy>
    <i name="e_fr_energy">    -36.85740501 </i>
    <i name="e_wo_entrp">    -36.85740500 </i>
    <i name="e_0_energy">    -36.85740501 </i>
   </energy>
  </scstep>
  <scstep>
   <time name="diag">   90.34   90.37</time>
   <time name="diis">  246.47  246.55</time>
   <time name="orth">    3.08    3.08</time>
   <time name="total">  377.52  377.66</time>
   <energy>
    <i name="e_fr_energy">    -36.85740501 </i>
    <i name="e_wo_entrp">    -36.85740500 </i>
    <i name="e_0_energy">    -36.85740501 </i>
   </energy>
  </scstep>
  <scstep>
   <time name="diag">   90.34   90.37</time>
   <time name="diis">  230.55  230.61</time>
   <time name="orth">    3.10    3.10</time>
   <time name="total">  361.68  361.81</time>
   <energy>
    <i name="e_fr_energy">    -36.85740501 </i>
    <i name="e_wo_entrp">    -36.85740500 </i>
    <i name="e_0_energy">    -36.85740501 </i>
   </energy>
  </scstep>
  <scstep>
   <time name="diag">   90.41   90.44</time>
   <time name="diis">  224.50  224.60</time>
   <time name="orth">    3.10    3.10</time>
   <time name="total">  355.87  356.03</time>
   <energy>
    <i name="e_fr_energy">    -36.85740501 </i>
    <i name="e_wo_entrp">    -36.85740500 </i>
    <i name="e_0_energy">    -36.85740501 </i>
   </energy>
  </scstep>
  <scstep>
   <time name="diag">   90.31   90.33</time>
   <time name="diis">  216.36  216.41</time>
   <time name="orth">    3.07    3.07</time>
   <time name="total">  347.24  347.34</time>
   <energy>
    <i name="e_fr_energy">    -36.85740501 </i>
    <i name="e_wo_entrp">    -36.85740500 </i>
    <i name="e_0_energy">    -36.85740501 </i>
   </energy>
  </scstep>
  <scstep>
   <time name="diag">   90.28   90.31</time>
   <time name="diis">  210.24  210.50</time>
   <time name="orth">    3.11    3.11</time>
   <time name="total">  341.02  341.32</time>
   <energy>
    <i name="e_fr_energy">    -36.85740501 </i>
    <i name="e_wo_entrp">    -36.85740500 </i>
    <i name="e_0_energy">    -36.85740501 </i>
   </energy>
  </scstep>
  <scstep>
   <time name="diag">   90.36   90.38</time>
   <time name="diis">  204.81  204.85</time>
   <time name="orth">    3.09    3.09</time>
   <time name="total">  335.94  336.02</time>
   <energy>
    <i name="e_fr_energy">    -36.85740501 </i>
    <i name="e_wo_entrp">    -36.85740500 </i>
    <i name="e_0_energy">    -36.85740501 </i>
   </energy>
  </scstep>
  <scstep>
   <time name="diag">   90.40   90.43</time>
   <time name="diis">  205.33  205.37</time>
   <time name="orth">    3.07    3.07</time>
   <time name="total">  336.89  337.07</time>
   <energy>
    <i name="e_fr_energy">    -36.85740501 </i>
    <i name="e_wo_entrp">    -36.85740500 </i>
    <i name="e_0_energy">    -36.85740501 </i>
   </energy>
  </scstep>
  <scstep>
   <time name="diag">   90.34   90.48</time>
   <time name="diis">  191.83  192.34</time>
   <time name="orth">    3.09    3.09</time>
   <time name="total">  287.93  288.64</time>
   <energy>
    <i name="alphaZ">      6.18334092 </i>
    <i name="ewald">   2449.03957591 </i>
    <i name="hartreedc">  -2943.32633401 </i>
    <i name="XCdc">     57.14021704 </i>
    <i name="pawpsdc">    268.78824198 </i>
    <i name="pawaedc">   -273.89959419 </i>
    <i name="eentropy">     -0.00000001 </i>
    <i name="bandstr">   -189.40637956 </i>
    <i name="atom">    588.62352690 </i>
    <i name="e_fr_energy">    -36.85740501 </i>
    <i name="e_wo_entrp">    -36.85740500 </i>
    <i name="e_0_energy">    -36.85740501 </i>
   </energy>
  </scstep>
  <structure>
   <crystal>
    <varray name="basis" >
     <v>       4.25503414       0.00000000       0.00000000 </v>
     <v>       0.00000000       2.52947832       0.00000000 </v>
     <v>       0.00000000       0.00000000      19.58910864 </v>
    </varray>
    <i name="volume">    210.83790140 </i>
    <varray name="rec_basis" >
     <v>       0.23501574       0.00000000       0.00000000 </v>
     <v>       0.00000000       0.39533844       0.00000000 </v>
     <v>       0.00000000       0.00000000       0.05104878 </v>
    </varray>
   </crystal>
   <varray name="positions" >
    <v>       0.00065478       0.00000000       0.00000000 </v>
    <v>       0.16601189       0.50000000      -0.00000000 </v>
    <v>       0.50065478       0.50000000       0.00000000 </v>
    <v>       0.66601189      -0.00000000      -0.00000000 </v>
   </varray>
  </structure>
  <varray name="forces" >
   <v>      -0.00615843      -0.00000000       0.00000000 </v>
   <v>       0.00615843       0.00000000      -0.00000000 </v>
   <v>      -0.00615843      -0.00000000       0.00000000 </v>
   <v>       0.00615843       0.00000000      -0.00000000 </v>
  </varray>
  <varray name="stress" >
   <v>      -0.02060623       0.00000000       0.00000000 </v>
   <v>       0.00000000     -41.20347115       0.00000000 </v>
   <v>       0.00000000       0.00000000      -0.01013904 </v>
  </varray>
  <energy>
   <i name="e_fr_energy">    -36.85740501 </i>
   <i name="e_wo_entrp">    -36.85740501 </i>
   <i name="e_0_energy">     -0.00000001 </i>
  </energy>
  <time name="totalsc"> 5576.06 5582.32</time>
 </calculation>
 <calculation>
  <scstep>
   <time name="dav">  355.13  355.97</time>
   <time name="total">  392.12  392.98</time>
   <energy>
    <i name="alphaZ">      6.18334092 </i>
    <i name="ewald">   2449.04084478 </i>
    <i name="hartreedc">  -2943.32688672 </i>
    <i name="XCdc">     57.14025339 </i>
    <i name="pawpsdc">    268.78824219 </i>
    <i name="pawaedc">   -273.89959440 </i>
    <i name="eentropy">     -0.00000001 </i>
    <i name="bandstr">   -189.40713279 </i>
    <i name="atom">    588.62352690 </i>
    <i name="e_fr_energy">    -36.85740574 </i>
    <i name="e_wo_entrp">    -36.85740573 </i>
    <i name="e_0_energy">    -36.85740573 </i>
   </energy>
  </scstep>
  <scstep>
   <time name="diag">   90.17   90.18</time>
   <time name="diis">  363.37  364.26</time>
   <time name="orth">    3.08    3.08</time>
   <time name="total">  493.08  494.19</time>
   <energy>
    <i name="e_fr_energy">    -36.85740577 </i>
    <i name="e_wo_entrp">    -36.85740576 </i>
    <i name="e_0_energy">    -36.85740576 </i>
   </energy>
  </scstep>
  <scstep>
   <time name="diag">   90.20   90.34</time>
   <time name="diis">  371.23  371.33</time>
   <time name="orth">    3.08    3.08</time>
   <time name="total">  502.56  502.83</time>
   <energy>
    <i name="e_fr_energy">    -36.85740576 </i>
    <i name="e_wo_entrp">    -36.85740575 </i>
    <i name="e_0_energy">    -36.85740576 </i>
   </energy>
  </scstep>
  <scstep>
   <time name="diag">   90.27   90.33</time>
   <time name="diis">  376.17  376.28</time>
   <time name="orth">    3.10    3.10</time>
   <time name="total">  507.75  507.96</time>
   <energy>
    <i name="e_fr_energy">    -36.85740576 </i>
    <i name="e_wo_entrp">    -36.85740575 </i>
    <i name="e_0_energy">    -36.85740575 </i>
   </energy>
  </scstep>
  <scstep>
   <time name="diag">   90.30   90.33</time>
   <time name="diis">  293.79  294.26</time>
   <time name="orth">    3.08    3.08</time>
   <time name="total">  424.96  425.51</time>
   <energy>
    <i name="e_fr_energy">    -36.85740576 </i>
    <i name="e_wo_entrp">    -36.85740575 </i>
    <i name="e_0_energy">    -36.85740575 </i>
   </energy>
  </scstep>
  <scstep>
   <time name="diag">   90.13   90.15</time>
   <time name="diis">  242.97  243.03</time>
   <time name="orth">    3.11    3.11</time>
   <time name="total">  373.99  374.23</time>
   <energy>
    <i name="e_fr_energy">    -36.85740576 </i>
    <i name="e_wo_entrp">    -36.85740575 </i>
    <i name="e_0_energy">    -36.85740575 </i>
   </energy>
  </scstep>
  <scstep>
   <time name="diag">   89.79   90.20</time>
   <time name="diis">  244.02  244.11</time>
   <time name="orth">    3.11    3.12</time>
   <time name="total">  374.69  375.24</time>
   <energy>
    <i name="e_fr_energy">    -36.85740576 </i>
    <i name="e_wo_entrp">    -36.85740575 </i>
    <i name="e_0_energy">    -36.85740575 </i>
   </energy>
  </scstep>
  <scstep>
   <time name="diag">   90.29   90.35</time>
   <time name="diis">  226.79  227.89</time>
   <time name="orth">    3.14    3.16</time>
   <time name="total">  357.95  359.31</time>
   <energy>
    <i name="e_fr_energy">    -36.85740576 </i>
    <i name="e_wo_entrp">    -36.85740575 </i>
    <i name="e_0_energy">    -36.85740575 </i>
   </energy>
  </scstep>
  <scstep>
   <time name="diag">   90.18   90.39</time>
   <time name="diis">  219.94  220.34</time>
   <time name="orth">    3.07    3.07</time>
   <time name="total">  350.61  351.48</time>
   <energy>
    <i name="e_fr_energy">    -36.85740576 </i>
    <i name="e_wo_entrp">    -36.85740575 </i>
    <i name="e_0_energy">    -36.85740575 </i>
   </energy>
  </scstep>
  <scstep>
   <time name="diag">   89.75   90.36</time>
   <time name="diis">  209.82  211.40</time>
   <time name="orth">    3.07    3.09</time>
   <time name="total">  340.78  343.06</time>
   <energy>
    <i name="e_fr_energy">    -36.85740576 </i>
    <i name="e_wo_entrp">    -36.85740575 </i>
    <i name="e_0_energy">    -36.85740575 </i>
   </energy>
  </scstep>
  <scstep>
   <time name="diag">   90.01   90.45</time>
   <time name="diis">  202.11  202.15</time>
   <time name="orth">    3.09    3.09</time>
   <time name="total">  333.29  334.26</time>
   <energy>
    <i name="e_fr_energy">    -36.85740576 </i>
    <i name="e_wo_entrp">    -36.85740575 </i>
    <i name="e_0_energy">    -36.85740575 </i>
   </energy>
  </scstep>
  <scstep>
   <time name="diag">   90.42   90.44</time>
   <time name="diis">  199.83  199.89</time>
   <time name="orth">    3.09    3.09</time>
   <time name="total">  331.62  331.72</time>
   <energy>
    <i name="e_fr_energy">    -36.85740576 </i>
    <i name="e_wo_entrp">    -36.85740575 </i>
    <i name="e_0_energy">    -36.85740575 </i>
   </energy>
  </scstep>
  <scstep>
   <time name="diag">   90.33   90.35</time>
   <time name="diis">  192.92  192.97</time>
   <time name="orth">    3.09    3.09</time>
   <time name="total">  324.44  324.83</time>
   <energy>
    <i name="e_fr_energy">    -36.85740576 </i>
    <i name="e_wo_entrp">    -36.85740575 </i>
    <i name="e_0_energy">    -36.85740575 </i>
   </energy>
  </scstep>
  <scstep>
   <time name="diag">   90.37   90.40</time>
   <time name="diis">  187.68  187.73</time>
   <time name="orth">    3.09    3.09</time>
   <time name="total">  283.89  283.97</time>
   <energy>
    <i name="alphaZ">      6.18334092 </i>
    <i name="ewald">   2449.04084478 </i>
    <i name="hartreedc">  -2943.32743290 </i>
    <i name="XCdc">     57.14027541 </i>
    <i name="pawpsdc">    268.79043014 </i>
    <i name="pawaedc">   -273.90179197 </i>
    <i name="eentropy">     -0.00000001 </i>
    <i name="bandstr">   -189.40659904 </i>
    <i name="atom">    588.62352690 </i>
    <i name="e_fr_energy">    -36.85740576 </i>
    <i name="e_wo_entrp">    -36.85740575 </i>
    <i name="e_0_energy">    -36.85740575 </i>
   </energy>
  </scstep>
  <structure>
   <crystal>
    <varray name="basis" >
     <v>       4.25503414       0.00000000       0.00000000 </v>
     <v>       0.00000000       2.52947832       0.00000000 </v>
     <v>       0.00000000       0.00000000      19.58910864 </v>
    </varray>
    <i name="volume">    210.83790140 </i>
    <varray name="rec_basis" >
     <v>       0.23501574       0.00000000       0.00000000 </v>
     <v>       0.00000000       0.39533844       0.00000000 </v>
     <v>       0.00000000       0.00000000       0.05104878 </v>
    </varray>
   </crystal>
   <varray name="positions" >
    <v>       0.00064079      -0.00000000       0.00000000 </v>
    <v>       0.16602588       0.50000000      -0.00000000 </v>
    <v>       0.50064079       0.50000000       0.00000000 </v>
    <v>       0.66602588      -0.00000000      -0.00000000 </v>
   </varray>
  </structure>
  <varray name="forces" >
   <v>      -0.00000057       0.00000000       0.00000000 </v>
   <v>       0.00000057      -0.00000000      -0.00000000 </v>
   <v>      -0.00000057      -0.00000000       0.00000000 </v>
   <v>       0.00000057       0.00000000      -0.00000000 </v>
  </varray>
  <varray name="stress" >
   <v>       0.00392937       0.00000000       0.00000000 </v>
   <v>       0.00000000     -41.21811820       0.00000000 </v>
   <v>       0.00000000       0.00000000      -0.01010019 </v>
  </varray>
  <energy>
   <i name="e_fr_energy">    -36.85740576 </i>
   <i name="e_wo_entrp">    -36.85740575 </i>
   <i name="e_0_energy">     -0.00000001 </i>
  </energy>
  <time name="totalsc"> 5492.47 5502.66</time>
  <eigenvalues>
   <array>
    <dimension dim="1">band</dimension>
    <dimension dim="2">kpoint</dimension>
    <dimension dim="3">spin</dimension>
    <field>eigene</field>
    <field>occ</field>
    <set>
     <set comment="spin 1">
      <set comment="kpoint 1">
       <r>  -22.0803    1.0000 </r>
       <r>  -16.7022    1.0000 </r>
       <r>  -15.8639    1.0000 </r>
       <r>  -10.2251    1.0000 </r>
       <r>   -9.4761    1.0000 </r>
       <r>   -5.9924    1.0000 </r>
       <r>   -5.7421    1.0000 </r>
       <r>   -4.9033    1.0000 </r>
       <r>   -1.1436    0.0000 </r>
       <r>    0.5448    0.0000 </r>
       <r>    1.3428    0.0000 </r>
       <r>    1.7358    0.0000 </r>
      </set>
      <set comment="kpoint 2">
       <r>  -22.0699    1.0000 </r>
       <r>  -16.8988    1.0000 </r>
       <r>  -15.6523    1.0000 </r>
       <r>  -10.2128    1.0000 </r>
       <r>   -9.4657    1.0000 </r>
       <r>   -6.0161    1.0000 </r>
       <r>   -5.7822    1.0000 </r>
       <r>   -4.9735    1.0000 </r>
       <r>   -1.0586    0.0000 </r>
       <r>    0.5589    0.0000 </r>
       <r>    1.3570    0.0000 </r>
       <r>    1.7502    0.0000 </r>
      </set>
      <set comment="kpoint 3">
       <r>  -22.0388    1.0000 </r>
       <r>  -17.2656    1.0000 </r>
       <r>  -15.2406    1.0000 </r>
       <r>  -10.1758    1.0000 </r>
       <r>   -9.4345    1.0000 </r>
       <r>   -6.0860    1.0000 </r>
       <r>   -5.9013    1.0000 </r>
       <r>   -5.1669    1.0000 </r>
       <r>   -0.8211    0.0000 </r>
       <r>    0.6010    0.0000 </r>
       <r>    1.3996    0.0000 </r>
       <r>    1.7933    0.0000 </r>
      </set>
      <set comment="kpoint 4">
       <r>  -21.9869    1.0000 </r>
       <r>  -17.6586    1.0000 </r>
       <r>  -14.7730    1.0000 </r>
       <r>  -10.1144    1.0000 </r>
       <r>   -9.3827    1.0000 </r>
       <r>   -6.1981    1.0000 </r>
       <r>   -6.0951    1.0000 </r>
       <r>   -5.4462    1.0000 </r>
       <r>   -0.4686    0.0000 </r>
       <r>    0.6713    0.0000 </r>
       <r>    1.4706    0.0000 </r>
       <r>    1.8652    0.0000 </r>
      </set>
      <set comment="kpoint 5">
       <r>  -21.9144    1.0000 </r>
       <r>  -18.0484    1.0000 </r>
       <r>  -14.2795    1.0000 </r>
       <r>  -10.0285    1.0000 </r>
       <r>   -9.3105    1.0000 </r>
       <r>   -6.3573    1.0000 </r>
       <r>   -6.3467    1.0000 </r>
       <r>   -5.7763    1.0000 </r>
       <r>   -0.0375    0.0000 </r>
       <r>    0.7697    0.0000 </r>
       <r>    1.5699    0.0000 </r>
       <r>    1.9659    0.0000 </r>
      </set>
      <set comment="kpoint 6">
       <r>  -21.8212    1.0000 </r>
       <r>  -18.4266    1.0000 </r>
       <r>  -13.7691    1.0000 </r>
       <r>   -9.9183    1.0000 </r>
       <r>   -9.2183    1.0000 </r>
       <r>   -6.6803    1.0000 </r>
       <r>   -6.5251    1.0000 </r>
       <r>   -6.1318    1.0000 </r>
       <r>    0.4457    0.0000 </r>
       <r>    0.8961    0.0000 </r>
       <r>    1.6976    0.0000 </r>
       <r>    2.0953    0.0000 </r>
      </set>
      <set comment="kpoint 7">
       <r>  -21.7075    1.0000 </r>
       <r>  -18.7900    1.0000 </r>
       <r>  -13.2459    1.0000 </r>
       <r>   -9.7839    1.0000 </r>
       <r>   -9.1066    1.0000 </r>
       <r>   -7.0559    1.0000 </r>
       <r>   -6.7262    1.0000 </r>
       <r>   -6.4965    1.0000 </r>
       <r>    0.9633    0.0000 </r>
       <r>    1.0506    0.0000 </r>
       <r>    1.8535    0.0000 </r>
       <r>    2.2534    0.0000 </r>
      </set>
      <set comment="kpoint 8">
       <r>  -21.5732    1.0000 </r>
       <r>  -19.1369    1.0000 </r>
       <r>  -12.7128    1.0000 </r>
       <r>   -9.6257    1.0000 </r>
       <r>   -8.9761    1.0000 </r>
       <r>   -7.4758    1.0000 </r>
       <r>   -6.9431    1.0000 </r>
       <r>   -6.8601    1.0000 </r>
       <r>    1.2331    0.0000 </r>
       <r>    1.5028    0.0000 </r>
       <r>    2.0377    0.0000 </r>
       <r>    2.4403    0.0000 </r>
      </set>
      <set comment="kpoint 9">
       <r>  -21.4186    1.0000 </r>
       <r>  -19.4664    1.0000 </r>
       <r>  -12.1722    1.0000 </r>
       <r>   -9.4439    1.0000 </r>
       <r>   -8.8274    1.0000 </r>
       <r>   -7.9320    1.0000 </r>
       <r>   -7.2160    1.0000 </r>
       <r>   -7.1698    1.0000 </r>
       <r>    1.4436    0.0000 </r>
       <r>    2.0551    0.0000 </r>
       <r>    2.2500    0.0000 </r>
       <r>    2.6559    0.0000 </r>
      </set>
      <set comment="kpoint 10">
       <r>  -21.2437    1.0000 </r>
       <r>  -19.7778    1.0000 </r>
       <r>  -11.6265    1.0000 </r>
       <r>   -9.2390    1.0000 </r>
       <r>   -8.6618    1.0000 </r>
       <r>   -8.4172    1.0000 </r>
       <r>   -7.5596    1.0000 </r>
       <r>   -7.4007    1.0000 </r>
       <r>    1.6820    0.0000 </r>
       <r>    2.4903    0.0000 </r>
       <r>    2.6122    0.0000 </r>
       <r>    2.9003    0.0000 </r>
      </set>
      <set comment="kpoint 11">
       <r>  -21.0486    1.0000 </r>
       <r>  -20.0705    1.0000 </r>
       <r>  -11.0783    1.0000 </r>
       <r>   -9.0113    1.0000 </r>
       <r>   -8.9251    1.0000 </r>
       <r>   -8.4802    1.0000 </r>
       <r>   -7.8879    1.0000 </r>
       <r>   -7.6312    1.0000 </r>
       <r>    1.9483    0.0000 </r>
       <r>    2.7583    0.0000 </r>
       <r>    3.1646    0.0000 </r>
       <r>    3.1733    0.0000 </r>
      </set>
      <set comment="kpoint 12">
       <r>  -20.8336    1.0000 </r>
       <r>  -20.3443    1.0000 </r>
       <r>  -10.5305    1.0000 </r>
       <r>   -9.4498    1.0000 </r>
       <r>   -8.7615    1.0000 </r>
       <r>   -8.2844    1.0000 </r>
       <r>   -8.1987    1.0000 </r>
       <r>   -7.8574    1.0000 </r>
       <r>    2.2422    0.0000 </r>
       <r>    2.9119    0.0000 </r>
       <r>    3.0531    0.0000 </r>
       <r>    3.4754    0.0000 </r>
      </set>
      <set comment="kpoint 13">
       <r>  -20.5987    1.0000 </r>
       <r>  -20.5987    1.0000 </r>
       <r>   -9.9864    1.0000 </r>
       <r>   -9.9864    1.0000 </r>
       <r>   -8.4903    1.0000 </r>
       <r>   -8.4903    1.0000 </r>
       <r>   -8.0760    1.0000 </r>
       <r>   -8.0760    1.0000 </r>
       <r>    2.5636    0.0000 </r>
       <r>    2.5636    0.0000 </r>
       <r>    3.3711    0.0000 </r>
       <r>    3.3711    0.0000 </r>
      </set>
      <set comment="kpoint 14">
       <r>  -22.0672    1.0000 </r>
       <r>  -16.6910    1.0000 </r>
       <r>  -15.8535    1.0000 </r>
       <r>  -10.2096    1.0000 </r>
       <r>   -9.5343    1.0000 </r>
       <r>   -6.0459    1.0000 </r>
       <r>   -5.7743    1.0000 </r>
       <r>   -4.8876    1.0000 </r>
       <r>   -1.1498    0.0000 </r>
       <r>    0.5624    0.0000 </r>
       <r>    1.3607    0.0000 </r>
       <r>    1.7539    0.0000 </r>
      </set>
      <set comment="kpoint 15">
       <r>  -22.0569    1.0000 </r>
       <r>  -16.8874    1.0000 </r>
       <r>  -15.6421    1.0000 </r>
       <r>  -10.1973    1.0000 </r>
       <r>   -9.5239    1.0000 </r>
       <r>   -6.0727    1.0000 </r>
       <r>   -5.8107    1.0000 </r>
       <r>   -4.9579    1.0000 </r>
       <r>   -1.0648    0.0000 </r>
       <r>    0.5765    0.0000 </r>
       <r>    1.3749    0.0000 </r>
       <r>    1.7683    0.0000 </r>
      </set>
      <set comment="kpoint 16">
       <r>  -22.0258    1.0000 </r>
       <r>  -17.2541    1.0000 </r>
       <r>  -15.2308    1.0000 </r>
       <r>  -10.1604    1.0000 </r>
       <r>   -9.4926    1.0000 </r>
       <r>   -6.1526    1.0000 </r>
       <r>   -5.9176    1.0000 </r>
       <r>   -5.1517    1.0000 </r>
       <r>   -0.8272    0.0000 </r>
       <r>    0.6186    0.0000 </r>
       <r>    1.4175    0.0000 </r>
       <r>    1.8114    0.0000 </r>
      </set>
      <set comment="kpoint 17">
       <r>  -21.9739    1.0000 </r>
       <r>  -17.6469    1.0000 </r>
       <r>  -14.7637    1.0000 </r>
       <r>  -10.0990    1.0000 </r>
       <r>   -9.4406    1.0000 </r>
       <r>   -6.2871    1.0000 </r>
       <r>   -6.0860    1.0000 </r>
       <r>   -5.4315    1.0000 </r>
       <r>   -0.4750    0.0000 </r>
       <r>    0.6889    0.0000 </r>
       <r>    1.4884    0.0000 </r>
       <r>    1.8833    0.0000 </r>
      </set>
      <set comment="kpoint 18">
       <r>  -21.9014    1.0000 </r>
       <r>  -18.0364    1.0000 </r>
       <r>  -14.2709    1.0000 </r>
       <r>  -10.0131    1.0000 </r>
       <r>   -9.3681    1.0000 </r>
       <r>   -6.4860    1.0000 </r>
       <r>   -6.2943    1.0000 </r>
       <r>   -5.7618    1.0000 </r>
       <r>   -0.0446    0.0000 </r>
       <r>    0.7873    0.0000 </r>
       <r>    1.5878    0.0000 </r>
       <r>    1.9840    0.0000 </r>
      </set>
      <set comment="kpoint 19">
       <r>  -21.8083    1.0000 </r>
       <r>  -18.4145    1.0000 </r>
       <r>  -13.7612    1.0000 </r>
       <r>   -9.9029    1.0000 </r>
       <r>   -9.2756    1.0000 </r>
       <r>   -6.7639    1.0000 </r>
       <r>   -6.5142    1.0000 </r>
       <r>   -6.1174    1.0000 </r>
       <r>    0.4376    0.0000 </r>
       <r>    0.9137    0.0000 </r>
       <r>    1.7154    0.0000 </r>
       <r>    2.1134    0.0000 </r>
      </set>
      <set comment="kpoint 20">
       <r>  -21.6945    1.0000 </r>
       <r>  -18.7777    1.0000 </r>
       <r>  -13.2390    1.0000 </r>
       <r>   -9.7687    1.0000 </r>
       <r>   -9.1635    1.0000 </r>
       <r>   -7.1135    1.0000 </r>
       <r>   -6.7376    1.0000 </r>
       <r>   -6.4822    1.0000 </r>
       <r>    0.9538    0.0000 </r>
       <r>    1.0683    0.0000 </r>
       <r>    1.8714    0.0000 </r>
       <r>    2.2715    0.0000 </r>
      </set>
      <set comment="kpoint 21">
       <r>  -21.5603    1.0000 </r>
       <r>  -19.1246    1.0000 </r>
       <r>  -12.7071    1.0000 </r>
       <r>   -9.6105    1.0000 </r>
       <r>   -9.0323    1.0000 </r>
       <r>   -7.5171    1.0000 </r>
       <r>   -6.9675    1.0000 </r>
       <r>   -6.8458    1.0000 </r>
       <r>    1.2508    0.0000 </r>
       <r>    1.4916    0.0000 </r>
       <r>    2.0555    0.0000 </r>
       <r>    2.4584    0.0000 </r>
      </set>
      <set comment="kpoint 22">
       <r>  -21.4057    1.0000 </r>
       <r>  -19.4540    1.0000 </r>
       <r>  -12.1679    1.0000 </r>
       <r>   -9.4288    1.0000 </r>
       <r>   -8.8829    1.0000 </r>
       <r>   -7.9620    1.0000 </r>
       <r>   -7.2027    1.0000 </r>
       <r>   -7.2016    1.0000 </r>
       <r>    1.4613    0.0000 </r>
       <r>    2.0419    0.0000 </r>
       <r>    2.2678    0.0000 </r>
       <r>    2.6740    0.0000 </r>
      </set>
      <set comment="kpoint 23">
       <r>  -21.2308    1.0000 </r>
       <r>  -19.7652    1.0000 </r>
       <r>  -11.6240    1.0000 </r>
       <r>   -9.2239    1.0000 </r>
       <r>   -8.7162    1.0000 </r>
       <r>   -8.4387    1.0000 </r>
       <r>   -7.5452    1.0000 </r>
       <r>   -7.4396    1.0000 </r>
       <r>    1.6997    0.0000 </r>
       <r>    2.5081    0.0000 </r>
       <r>    2.5970    0.0000 </r>
       <r>    2.9184    0.0000 </r>
      </set>
      <set comment="kpoint 24">
       <r>  -21.0358    1.0000 </r>
       <r>  -20.0579    1.0000 </r>
       <r>  -11.0779    1.0000 </r>
       <r>   -8.9963    1.0000 </r>
       <r>   -8.9400    1.0000 </r>
       <r>   -8.5335    1.0000 </r>
       <r>   -7.8734    1.0000 </r>
       <r>   -7.6746    1.0000 </r>
       <r>    1.9660    0.0000 </r>
       <r>    2.7760    0.0000 </r>
       <r>    3.1478    0.0000 </r>
       <r>    3.1914    0.0000 </r>
      </set>
      <set comment="kpoint 25">
       <r>  -20.8208    1.0000 </r>
       <r>  -20.3316    1.0000 </r>
       <r>  -10.5328    1.0000 </r>
       <r>   -9.4596    1.0000 </r>
       <r>   -8.7466    1.0000 </r>
       <r>   -8.3360    1.0000 </r>
       <r>   -8.1840    1.0000 </r>
       <r>   -7.9043    1.0000 </r>
       <r>    2.2599    0.0000 </r>
       <r>    2.9299    0.0000 </r>
       <r>    3.0709    0.0000 </r>
       <r>    3.5265    0.0000 </r>
      </set>
      <set comment="kpoint 26">
       <r>  -20.5860    1.0000 </r>
       <r>  -20.5860    1.0000 </r>
       <r>   -9.9920    1.0000 </r>
       <r>   -9.9920    1.0000 </r>
       <r>   -8.4755    1.0000 </r>
       <r>   -8.4755    1.0000 </r>
       <r>   -8.1256    1.0000 </r>
       <r>   -8.1256    1.0000 </r>
       <r>    2.5814    0.0000 </r>
       <r>    2.5814    0.0000 </r>
       <r>    3.3889    0.0000 </r>
       <r>    3.3889    0.0000 </r>
      </set>
      <set comment="kpoint 27">
       <r>  -22.0282    1.0000 </r>
       <r>  -16.6573    1.0000 </r>
       <r>  -15.8226    1.0000 </r>
       <r>  -10.1634    1.0000 </r>
       <r>   -9.7040    1.0000 </r>
       <r>   -6.2025    1.0000 </r>
       <r>   -5.8698    1.0000 </r>
       <r>   -4.8403    1.0000 </r>
       <r>   -1.1691    0.0000 </r>
       <r>    0.6152    0.0000 </r>
       <r>    1.4142    0.0000 </r>
       <r>    1.8081    0.0000 </r>
      </set>
      <set comment="kpoint 28">
       <r>  -22.0179    1.0000 </r>
       <r>  -16.8535    1.0000 </r>
       <r>  -15.6117    1.0000 </r>
       <r>  -10.1511    1.0000 </r>
       <r>   -9.6935    1.0000 </r>
       <r>   -6.2355    1.0000 </r>
       <r>   -5.8978    1.0000 </r>
       <r>   -4.9113    1.0000 </r>
       <r>   -1.0839    0.0000 </r>
       <r>    0.6293    0.0000 </r>
       <r>    1.4284    0.0000 </r>
       <r>    1.8225    0.0000 </r>
      </set>
      <set comment="kpoint 29">
       <r>  -21.9868    1.0000 </r>
       <r>  -17.2195    1.0000 </r>
       <r>  -15.2015    1.0000 </r>
       <r>  -10.1142    1.0000 </r>
       <r>   -9.6619    1.0000 </r>
       <r>   -6.3325    1.0000 </r>
       <r>   -5.9817    1.0000 </r>
       <r>   -5.1063    1.0000 </r>
       <r>   -0.8463    0.0000 </r>
       <r>    0.6714    0.0000 </r>
       <r>    1.4710    0.0000 </r>
       <r>    1.8656    0.0000 </r>
      </set>
      <set comment="kpoint 30">
       <r>  -21.9349    1.0000 </r>
       <r>  -17.6117    1.0000 </r>
       <r>  -14.7360    1.0000 </r>
       <r>  -10.0528    1.0000 </r>
       <r>   -9.6093    1.0000 </r>
       <r>   -6.4888    1.0000 </r>
       <r>   -6.1193    1.0000 </r>
       <r>   -5.3872    1.0000 </r>
       <r>   -0.4950    0.0000 </r>
       <r>    0.7417    0.0000 </r>
       <r>    1.5419    0.0000 </r>
       <r>    1.9375    0.0000 </r>
      </set>
      <set comment="kpoint 31">
       <r>  -21.8625    1.0000 </r>
       <r>  -18.0007    1.0000 </r>
       <r>  -14.2452    1.0000 </r>
       <r>   -9.9671    1.0000 </r>
       <r>   -9.5361    1.0000 </r>
       <r>   -6.7002    1.0000 </r>
       <r>   -6.3045    1.0000 </r>
       <r>   -5.7184    1.0000 </r>
       <r>   -0.0665    0.0000 </r>
       <r>    0.8401    0.0000 </r>
       <r>    1.6412    0.0000 </r>
       <r>    2.0382    0.0000 </r>
      </set>
      <set comment="kpoint 32">
       <r>  -21.7694    1.0000 </r>
       <r>  -18.3783    1.0000 </r>
       <r>  -13.7381    1.0000 </r>
       <r>   -9.8570    1.0000 </r>
       <r>   -9.4425    1.0000 </r>
       <r>   -6.9646    1.0000 </r>
       <r>   -6.5267    1.0000 </r>
       <r>   -6.0745    1.0000 </r>
       <r>    0.4125    0.0000 </r>
       <r>    0.9666    0.0000 </r>
       <r>    1.7689    0.0000 </r>
       <r>    2.1676    0.0000 </r>
      </set>
      <set comment="kpoint 33">
       <r>  -21.6557    1.0000 </r>
       <r>  -18.7411    1.0000 </r>
       <r>  -13.2189    1.0000 </r>
       <r>   -9.7229    1.0000 </r>
       <r>   -9.3289    1.0000 </r>
       <r>   -7.2813    1.0000 </r>
       <r>   -6.7723    1.0000 </r>
[...]
       <r>   -9.0071    1.0000 </r>
       <r>   -5.6640    1.0000 </r>
       <r>   -5.6640    1.0000 </r>
       <r>   -0.5730    0.0000 </r>
       <r>   -0.5730    0.0000 </r>
       <r>    4.8099    0.0000 </r>
       <r>    4.8099    0.0000 </r>
      </set>
      <set comment="kpoint 209">
       <r>  -18.8385    1.0000 </r>
       <r>  -17.1516    1.0000 </r>
       <r>  -13.8585    1.0000 </r>
       <r>  -12.3112    1.0000 </r>
       <r>  -12.3030    1.0000 </r>
       <r>  -10.8487    1.0000 </r>
       <r>   -6.4984    1.0000 </r>
       <r>   -4.6991    1.0000 </r>
       <r>   -0.9965    0.0000 </r>
       <r>    1.0569    0.0000 </r>
       <r>    5.0316    0.0000 </r>
       <r>    5.8207    0.0000 </r>
      </set>
      <set comment="kpoint 210">
       <r>  -18.8287    1.0000 </r>
       <r>  -17.1441    1.0000 </r>
       <r>  -13.9511    1.0000 </r>
       <r>  -12.3905    1.0000 </r>
       <r>  -12.2101    1.0000 </r>
       <r>  -10.7627    1.0000 </r>
       <r>   -6.4896    1.0000 </r>
       <r>   -4.7012    1.0000 </r>
       <r>   -1.0077    0.0000 </r>
       <r>    1.0309    0.0000 </r>
       <r>    5.0454    0.0000 </r>
       <r>    5.8370    0.0000 </r>
      </set>
      <set comment="kpoint 211">
       <r>  -18.7995    1.0000 </r>
       <r>  -17.1222    1.0000 </r>
       <r>  -14.1769    1.0000 </r>
       <r>  -12.6078    1.0000 </r>
       <r>  -11.9589    1.0000 </r>
       <r>  -10.5507    1.0000 </r>
       <r>   -6.4632    1.0000 </r>
       <r>   -4.7078    1.0000 </r>
       <r>   -1.0394    0.0000 </r>
       <r>    0.9549    0.0000 </r>
       <r>    5.0865    0.0000 </r>
       <r>    5.8853    0.0000 </r>
      </set>
      <set comment="kpoint 212">
       <r>  -18.7509    1.0000 </r>
       <r>  -17.0871    1.0000 </r>
       <r>  -14.4602    1.0000 </r>
       <r>  -12.8874    1.0000 </r>
       <r>  -11.6333    1.0000 </r>
       <r>  -10.2821    1.0000 </r>
       <r>   -6.4196    1.0000 </r>
       <r>   -4.7205    1.0000 </r>
       <r>   -1.0863    0.0000 </r>
       <r>    0.8344    0.0000 </r>
       <r>    5.1547    0.0000 </r>
       <r>    5.9646    0.0000 </r>
      </set>
      <set comment="kpoint 213">
       <r>  -18.6831    1.0000 </r>
       <r>  -17.0416    1.0000 </r>
       <r>  -14.7579    1.0000 </r>
       <r>  -13.1916    1.0000 </r>
       <r>  -11.2760    1.0000 </r>
       <r>   -9.9982    1.0000 </r>
       <r>   -6.3594    1.0000 </r>
       <r>   -4.7417    1.0000 </r>
       <r>   -1.1403    0.0000 </r>
       <r>    0.6773    0.0000 </r>
       <r>    5.2493    0.0000 </r>
       <r>    6.0734    0.0000 </r>
      </set>
      <set comment="kpoint 214">
       <r>  -18.5963    1.0000 </r>
       <r>  -16.9908    1.0000 </r>
       <r>  -15.0467    1.0000 </r>
       <r>  -13.5023    1.0000 </r>
       <r>  -10.9088    1.0000 </r>
       <r>   -9.7218    1.0000 </r>
       <r>   -6.2832    1.0000 </r>
       <r>   -4.7743    1.0000 </r>
       <r>   -1.1919    0.0000 </r>
       <r>    0.4926    0.0000 </r>
       <r>    5.3668    0.0000 </r>
       <r>    6.1849    0.0000 </r>
      </set>
      <set comment="kpoint 215">
       <r>  -18.4910    1.0000 </r>
       <r>  -16.9440    1.0000 </r>
       <r>  -15.3082    1.0000 </r>
       <r>  -13.8101    1.0000 </r>
       <r>  -10.5452    1.0000 </r>
       <r>   -9.4680    1.0000 </r>
       <r>   -6.1921    1.0000 </r>
       <r>   -4.8212    1.0000 </r>
       <r>   -1.2314    0.0000 </r>
       <r>    0.2896    0.0000 </r>
       <r>    5.4781    0.0000 </r>
       <r>    5.7770    0.0000 </r>
      </set>
      <set comment="kpoint 216">
       <r>  -18.3677    1.0000 </r>
       <r>  -16.9178    1.0000 </r>
       <r>  -15.5210    1.0000 </r>
       <r>  -14.1095    1.0000 </r>
       <r>  -10.1955    1.0000 </r>
       <r>   -9.2491    1.0000 </r>
       <r>   -6.0876    1.0000 </r>
       <r>   -4.8848    1.0000 </r>
       <r>   -1.2503    0.0000 </r>
       <r>    0.0768    0.0000 </r>
       <r>    5.2987    0.0000 </r>
       <r>    5.7520    0.0000 </r>
      </set>
      <set comment="kpoint 217">
       <r>  -18.2272    1.0000 </r>
       <r>  -16.9365    1.0000 </r>
       <r>  -15.6580    1.0000 </r>
       <r>  -14.3967    1.0000 </r>
       <r>   -9.8693    1.0000 </r>
       <r>   -9.0756    1.0000 </r>
       <r>   -5.9712    1.0000 </r>
       <r>   -4.9661    1.0000 </r>
       <r>   -1.2418    0.0000 </r>
       <r>   -0.1380    0.0000 </r>
       <r>    5.0075    0.0000 </r>
       <r>    5.8258    0.0000 </r>
      </set>
      <set comment="kpoint 218">
       <r>  -18.0706    1.0000 </r>
       <r>  -17.0192    1.0000 </r>
       <r>  -15.6986    1.0000 </r>
       <r>  -14.6683    1.0000 </r>
       <r>   -9.5761    1.0000 </r>
       <r>   -8.9569    1.0000 </r>
       <r>   -5.8452    1.0000 </r>
       <r>   -5.0647    1.0000 </r>
       <r>   -1.2019    0.0000 </r>
       <r>   -0.3480    0.0000 </r>
       <r>    4.7880    0.0000 </r>
       <r>    5.4261    0.0000 </r>
      </set>
      <set comment="kpoint 219">
       <r>  -17.8995    1.0000 </r>
       <r>  -17.1603    1.0000 </r>
       <r>  -15.6471    1.0000 </r>
       <r>  -14.9215    1.0000 </r>
       <r>   -9.3253    1.0000 </r>
       <r>   -8.8999    1.0000 </r>
       <r>   -5.7122    1.0000 </r>
       <r>   -5.1785    1.0000 </r>
       <r>   -1.1291    0.0000 </r>
       <r>   -0.5468    0.0000 </r>
       <r>    4.6583    0.0000 </r>
       <r>    5.0968    0.0000 </r>
      </set>
      <set comment="kpoint 220">
       <r>  -17.7167    1.0000 </r>
       <r>  -17.3366    1.0000 </r>
       <r>  -15.5261    1.0000 </r>
       <r>  -15.1527    1.0000 </r>
       <r>   -9.1258    1.0000 </r>
       <r>   -8.9090    1.0000 </r>
       <r>   -5.5752    1.0000 </r>
       <r>   -5.3043    1.0000 </r>
       <r>   -1.0241    0.0000 </r>
       <r>   -0.7290    0.0000 </r>
       <r>    4.6248    0.0000 </r>
       <r>    4.8483    0.0000 </r>
      </set>
      <set comment="kpoint 221">
       <r>  -17.5265    1.0000 </r>
       <r>  -17.5265    1.0000 </r>
       <r>  -15.3568    1.0000 </r>
       <r>  -15.3568    1.0000 </r>
       <r>   -8.9852    1.0000 </r>
       <r>   -8.9852    1.0000 </r>
       <r>   -5.4379    1.0000 </r>
       <r>   -5.4379    1.0000 </r>
       <r>   -0.8896    0.0000 </r>
       <r>   -0.8896    0.0000 </r>
       <r>    4.6890    0.0000 </r>
       <r>    4.6890    0.0000 </r>
      </set>
      <set comment="kpoint 222">
       <r>  -18.4390    1.0000 </r>
       <r>  -17.5917    1.0000 </r>
       <r>  -13.4983    1.0000 </r>
       <r>  -12.7198    1.0000 </r>
       <r>  -11.9801    1.0000 </r>
       <r>  -11.2443    1.0000 </r>
       <r>   -6.0617    1.0000 </r>
       <r>   -5.1573    1.0000 </r>
       <r>   -0.5149    0.0000 </r>
       <r>    0.5138    0.0000 </r>
       <r>    5.6002    0.0000 </r>
       <r>    6.3582    0.0000 </r>
      </set>
      <set comment="kpoint 223">
       <r>  -18.4294    1.0000 </r>
       <r>  -17.5831    1.0000 </r>
       <r>  -13.5916    1.0000 </r>
       <r>  -12.8100    1.0000 </r>
       <r>  -11.8811    1.0000 </r>
       <r>  -11.1531    1.0000 </r>
       <r>   -6.0541    1.0000 </r>
       <r>   -5.1546    1.0000 </r>
       <r>   -0.5322    0.0000 </r>
       <r>    0.4898    0.0000 </r>
       <r>    5.6139    0.0000 </r>
       <r>    6.3752    0.0000 </r>
      </set>
      <set comment="kpoint 224">
       <r>  -18.4008    1.0000 </r>
       <r>  -17.5575    1.0000 </r>
       <r>  -13.8198    1.0000 </r>
       <r>  -13.0325    1.0000 </r>
       <r>  -11.6360    1.0000 </r>
       <r>  -10.9282    1.0000 </r>
       <r>   -6.0317    1.0000 </r>
       <r>   -5.1468    1.0000 </r>
       <r>   -0.5820    0.0000 </r>
       <r>    0.4197    0.0000 </r>
       <r>    5.6548    0.0000 </r>
       <r>    6.4258    0.0000 </r>
      </set>
      <set comment="kpoint 225">
       <r>  -18.3534    1.0000 </r>
       <r>  -17.5153    1.0000 </r>
       <r>  -14.1081    1.0000 </r>
       <r>  -13.3172    1.0000 </r>
       <r>  -11.3206    1.0000 </r>
       <r>  -10.6417    1.0000 </r>
       <r>   -5.9948    1.0000 </r>
       <r>   -5.1350    1.0000 </r>
       <r>   -0.6591    0.0000 </r>
       <r>    0.3090    0.0000 </r>
       <r>    5.7225    0.0000 </r>
       <r>    6.5086    0.0000 </r>
      </set>
      <set comment="kpoint 226">
       <r>  -18.2873    1.0000 </r>
       <r>  -17.4578    1.0000 </r>
       <r>  -14.4158    1.0000 </r>
       <r>  -13.6250    1.0000 </r>
       <r>  -10.9775    1.0000 </r>
       <r>  -10.3355    1.0000 </r>
       <r>   -5.9442    1.0000 </r>
       <r>   -5.1212    1.0000 </r>
       <r>   -0.7553    0.0000 </r>
       <r>    0.1655    0.0000 </r>
       <r>    5.8155    0.0000 </r>
       <r>    6.6215    0.0000 </r>
      </set>
      <set comment="kpoint 227">
       <r>  -18.2030    1.0000 </r>
       <r>  -17.3867    1.0000 </r>
       <r>  -14.7227    1.0000 </r>
       <r>  -13.9378    1.0000 </r>
       <r>  -10.6284    1.0000 </r>
       <r>  -10.0319    1.0000 </r>
       <r>   -5.8812    1.0000 </r>
       <r>   -5.1077    1.0000 </r>
       <r>   -0.8609    0.0000 </r>
       <r>   -0.0016    0.0000 </r>
       <r>    5.9249    0.0000 </r>
       <r>    6.4524    0.0000 </r>
      </set>
      <set comment="kpoint 228">
       <r>  -18.1013    1.0000 </r>
       <r>  -17.3053    1.0000 </r>
       <r>  -15.0168    1.0000 </r>
       <r>  -14.2460    1.0000 </r>
       <r>  -10.2873    1.0000 </r>
       <r>   -9.7458    1.0000 </r>
       <r>   -5.8072    1.0000 </r>
       <r>   -5.0979    1.0000 </r>
       <r>   -0.9655    0.0000 </r>
       <r>   -0.1829    0.0000 </r>
       <r>    5.8808    0.0000 </r>
       <r>    6.1680    0.0000 </r>
      </set>
      <set comment="kpoint 229">
       <r>  -17.9830    1.0000 </r>
       <r>  -17.2193    1.0000 </r>
       <r>  -15.2875    1.0000 </r>
       <r>  -14.5437    1.0000 </r>
       <r>   -9.9651    1.0000 </r>
       <r>   -9.4890    1.0000 </r>
       <r>   -5.7244    1.0000 </r>
       <r>   -5.0952    1.0000 </r>
       <r>   -1.0589    0.0000 </r>
       <r>   -0.3690    0.0000 </r>
       <r>    5.5017    0.0000 </r>
       <r>    5.9926    0.0000 </r>
      </set>
      <set comment="kpoint 230">
       <r>  -17.8497    1.0000 </r>
       <r>  -17.1392    1.0000 </r>
       <r>  -15.5217    1.0000 </r>
       <r>  -14.8263    1.0000 </r>
       <r>   -9.6717    1.0000 </r>
       <r>   -9.2721    1.0000 </r>
       <r>   -5.6353    1.0000 </r>
       <r>   -5.1032    1.0000 </r>
       <r>   -1.1318    0.0000 </r>
       <r>   -0.5516    0.0000 </r>
       <r>    5.1548    0.0000 </r>
       <r>    5.5653    0.0000 </r>
      </set>
      <set comment="kpoint 231">
       <r>  -17.7038    1.0000 </r>
       <r>  -17.0831    1.0000 </r>
       <r>  -15.6995    1.0000 </r>
       <r>  -15.0897    1.0000 </r>
       <r>   -9.4169    1.0000 </r>
       <r>   -9.1049    1.0000 </r>
       <r>   -5.5430    1.0000 </r>
       <r>   -5.1250    1.0000 </r>
       <r>   -1.1765    0.0000 </r>
       <r>   -0.7227    0.0000 </r>
       <r>    4.8830    0.0000 </r>
       <r>    5.2037    0.0000 </r>
      </set>
      <set comment="kpoint 232">
       <r>  -17.5493    1.0000 </r>
       <r>  -17.0758    1.0000 </r>
       <r>  -15.7949    1.0000 </r>
       <r>  -15.3284    1.0000 </r>
       <r>   -9.2100    1.0000 </r>
       <r>   -8.9955    1.0000 </r>
       <r>   -5.4509    1.0000 </r>
       <r>   -5.1623    1.0000 </r>
       <r>   -1.1875    0.0000 </r>
       <r>   -0.8752    0.0000 </r>
       <r>    4.6983    0.0000 </r>
       <r>    4.9190    0.0000 </r>
      </set>
      <set comment="kpoint 233">
       <r>  -17.3931    1.0000 </r>
       <r>  -17.1338    1.0000 </r>
       <r>  -15.7905    1.0000 </r>
       <r>  -15.5347    1.0000 </r>
       <r>   -9.0594    1.0000 </r>
       <r>   -8.9501    1.0000 </r>
       <r>   -5.3630    1.0000 </r>
       <r>   -5.2155    1.0000 </r>
       <r>   -1.1619    0.0000 </r>
       <r>   -1.0026    0.0000 </r>
       <r>    4.6081    0.0000 </r>
       <r>    4.7206    0.0000 </r>
      </set>
      <set comment="kpoint 234">
       <r>  -17.2478    1.0000 </r>
       <r>  -17.2478    1.0000 </r>
       <r>  -15.6956    1.0000 </r>
       <r>  -15.6956    1.0000 </r>
       <r>   -8.9715    1.0000 </r>
       <r>   -8.9715    1.0000 </r>
       <r>   -5.2833    1.0000 </r>
       <r>   -5.2833    1.0000 </r>
       <r>   -1.0995    0.0000 </r>
       <r>   -1.0995    0.0000 </r>
       <r>    4.6156    0.0000 </r>
       <r>    4.6156    0.0000 </r>
      </set>
      <set comment="kpoint 235">
       <r>  -18.0223    1.0000 </r>
       <r>  -18.0223    1.0000 </r>
       <r>  -13.1185    1.0000 </r>
       <r>  -13.1185    1.0000 </r>
       <r>  -11.6228    1.0000 </r>
       <r>  -11.6228    1.0000 </r>
       <r>   -5.6132    1.0000 </r>
       <r>   -5.6132    1.0000 </r>
       <r>   -0.0109    0.0000 </r>
       <r>   -0.0109    0.0000 </r>
       <r>    6.1976    0.0000 </r>
       <r>    6.1976    0.0000 </r>
      </set>
      <set comment="kpoint 236">
       <r>  -18.0131    1.0000 </r>
       <r>  -18.0131    1.0000 </r>
       <r>  -13.2108    1.0000 </r>
       <r>  -13.2108    1.0000 </r>
       <r>  -11.5271    1.0000 </r>
       <r>  -11.5271    1.0000 </r>
       <r>   -5.6076    1.0000 </r>
       <r>   -5.6076    1.0000 </r>
       <r>   -0.0321    0.0000 </r>
       <r>   -0.0321    0.0000 </r>
       <r>    6.2112    0.0000 </r>
       <r>    6.2112    0.0000 </r>
      </set>
      <set comment="kpoint 237">
       <r>  -17.9856    1.0000 </r>
       <r>  -17.9856    1.0000 </r>
       <r>  -13.4372    1.0000 </r>
       <r>  -13.4372    1.0000 </r>
       <r>  -11.2911    1.0000 </r>
       <r>  -11.2911    1.0000 </r>
       <r>   -5.5909    1.0000 </r>
       <r>   -5.5909    1.0000 </r>
       <r>   -0.0939    0.0000 </r>
       <r>   -0.0939    0.0000 </r>
       <r>    6.2518    0.0000 </r>
       <r>    6.2518    0.0000 </r>
      </set>
      <set comment="kpoint 238">
       <r>  -17.9400    1.0000 </r>
       <r>  -17.9400    1.0000 </r>
       <r>  -13.7252    1.0000 </r>
       <r>  -13.7252    1.0000 </r>
       <r>  -10.9890    1.0000 </r>
       <r>  -10.9890    1.0000 </r>
       <r>   -5.5639    1.0000 </r>
       <r>   -5.5639    1.0000 </r>
       <r>   -0.1909    0.0000 </r>
       <r>   -0.1909    0.0000 </r>
       <r>    6.3187    0.0000 </r>
       <r>    6.3187    0.0000 </r>
      </set>
      <set comment="kpoint 239">
       <r>  -17.8769    1.0000 </r>
       <r>  -17.8769    1.0000 </r>
       <r>  -14.0347    1.0000 </r>
       <r>  -14.0347    1.0000 </r>
       <r>  -10.6629    1.0000 </r>
       <r>  -10.6629    1.0000 </r>
       <r>   -5.5278    1.0000 </r>
       <r>   -5.5278    1.0000 </r>
       <r>   -0.3152    0.0000 </r>
       <r>   -0.3152    0.0000 </r>
       <r>    6.4087    0.0000 </r>
       <r>    6.4087    0.0000 </r>
      </set>
      <set comment="kpoint 240">
       <r>  -17.7971    1.0000 </r>
       <r>  -17.7971    1.0000 </r>
       <r>  -14.3472    1.0000 </r>
       <r>  -14.3472    1.0000 </r>
       <r>  -10.3351    1.0000 </r>
       <r>  -10.3351    1.0000 </r>
       <r>   -5.4844    1.0000 </r>
       <r>   -5.4844    1.0000 </r>
       <r>   -0.4573    0.0000 </r>
       <r>   -0.4573    0.0000 </r>
       <r>    6.4870    0.0000 </r>
       <r>    6.4878    0.0000 </r>
      </set>
      <set comment="kpoint 241">
       <r>  -17.7018    1.0000 </r>
       <r>  -17.7018    1.0000 </r>
       <r>  -14.6523    1.0000 </r>
       <r>  -14.6523    1.0000 </r>
       <r>  -10.0199    1.0000 </r>
       <r>  -10.0199    1.0000 </r>
       <r>   -5.4360    1.0000 </r>
       <r>   -5.4360    1.0000 </r>
       <r>   -0.6074    0.0000 </r>
       <r>   -0.6074    0.0000 </r>
       <r>    6.1743    0.0000 </r>
       <r>    6.1743    0.0000 </r>
      </set>
      <set comment="kpoint 242">
       <r>  -17.5933    1.0000 </r>
       <r>  -17.5933    1.0000 </r>
       <r>  -14.9431    1.0000 </r>
       <r>  -14.9431    1.0000 </r>
       <r>   -9.7286    1.0000 </r>
       <r>   -9.7286    1.0000 </r>
       <r>   -5.3856    1.0000 </r>
       <r>   -5.3856    1.0000 </r>
       <r>   -0.7554    0.0000 </r>
       <r>   -0.7554    0.0000 </r>
       <r>    5.7314    0.0000 </r>
       <r>    5.7314    0.0000 </r>
      </set>
      <set comment="kpoint 243">
       <r>  -17.4752    1.0000 </r>
       <r>  -17.4752    1.0000 </r>
       <r>  -15.2131    1.0000 </r>
       <r>  -15.2131    1.0000 </r>
       <r>   -9.4717    1.0000 </r>
       <r>   -9.4717    1.0000 </r>
       <r>   -5.3366    1.0000 </r>
       <r>   -5.3366    1.0000 </r>
       <r>   -0.8921    0.0000 </r>
       <r>   -0.8921    0.0000 </r>
       <r>    5.3410    0.0000 </r>
       <r>    5.3410    0.0000 </r>
      </set>
      <set comment="kpoint 244">
       <r>  -17.3539    1.0000 </r>
       <r>  -17.3539    1.0000 </r>
       <r>  -15.4541    1.0000 </r>
       <r>  -15.4541    1.0000 </r>
       <r>   -9.2590    1.0000 </r>
       <r>   -9.2590    1.0000 </r>
       <r>   -5.2928    1.0000 </r>
       <r>   -5.2928    1.0000 </r>
       <r>   -1.0088    0.0000 </r>
       <r>   -1.0088    0.0000 </r>
       <r>    5.0220    0.0000 </r>
       <r>    5.0220    0.0000 </r>
      </set>
      <set comment="kpoint 245">
       <r>  -17.2408    1.0000 </r>
       <r>  -17.2408    1.0000 </r>
       <r>  -15.6534    1.0000 </r>
       <r>  -15.6534    1.0000 </r>
       <r>   -9.0995    1.0000 </r>
       <r>   -9.0995    1.0000 </r>
       <r>   -5.2580    1.0000 </r>
       <r>   -5.2580    1.0000 </r>
       <r>   -1.0983    0.0000 </r>
       <r>   -1.0983    0.0000 </r>
       <r>    4.7856    0.0000 </r>
       <r>    4.7856    0.0000 </r>
      </set>
      <set comment="kpoint 246">
       <r>  -17.1552    1.0000 </r>
       <r>  -17.1552    1.0000 </r>
       <r>  -15.7910    1.0000 </r>
       <r>  -15.7910    1.0000 </r>
       <r>   -9.0004    1.0000 </r>
       <r>   -9.0004    1.0000 </r>
       <r>   -5.2356    1.0000 </r>
       <r>   -5.2356    1.0000 </r>
       <r>   -1.1545    0.0000 </r>
       <r>   -1.1545    0.0000 </r>
       <r>    4.6401    0.0000 </r>
       <r>    4.6401    0.0000 </r>
      </set>
      <set comment="kpoint 247">
       <r>  -17.1222    1.0000 </r>
       <r>  -17.1222    1.0000 </r>
       <r>  -15.8414    1.0000 </r>
       <r>  -15.8414    1.0000 </r>
       <r>   -8.9668    1.0000 </r>
       <r>   -8.9668    1.0000 </r>
       <r>   -5.2278    1.0000 </r>
       <r>   -5.2278    1.0000 </r>
       <r>   -1.1737    0.0000 </r>
       <r>   -1.1737    0.0000 </r>
       <r>    4.5910    0.0000 </r>
       <r>    4.5910    0.0000 </r>
      </set>
     </set>
    </set>
   </array>
  </eigenvalues>
  <separator name="orbital magnetization" >
   <v name="MAGDIPOLOUT">      0.00000000      0.00000000      0.00000000</v>
  </separator>
 </calculation>
 <structure name="finalpos" >
  <crystal>
   <varray name="basis" >
    <v>       4.25503414       0.00000000       0.00000000 </v>
    <v>       0.00000000       2.52947832       0.00000000 </v>
    <v>       0.00000000       0.00000000      19.58910864 </v>
   </varray>
   <i name="volume">    210.83790140 </i>
   <varray name="rec_basis" >
    <v>       0.23501574       0.00000000       0.00000000 </v>
    <v>       0.00000000       0.39533844       0.00000000 </v>
    <v>       0.00000000       0.00000000       0.05104878 </v>
   </varray>
  </crystal>
  <varray name="positions" >
   <v>       0.00064079      -0.00000000       0.00000000 </v>
   <v>       0.16602588       0.50000000      -0.00000000 </v>
   <v>       0.50064079       0.50000000       0.00000000 </v>
   <v>       0.66602588      -0.00000000      -0.00000000 </v>
  </varray>
 </structure>
</modeling>
