gr                                      
           1
     4.255034    0.000000    0.000000
     0.000000    2.529478    0.000000
     0.000000    0.000000   19.589109
   C 
   4
Direct configuration=     1
   0.00063729  0.00000000  0.00000000
   0.16602938  0.50000000  0.00000000
   0.50063729  0.50000000  0.00000000
   0.66602938  0.00000000  0.00000000
Direct configuration=     2
   0.00065478  0.00000000  0.00000000
   0.16601189  0.50000000 -0.00000000
   0.50065478  0.50000000  0.00000000
   0.66601189 -0.00000000 -0.00000000
Direct configuration=     3
   0.00064079 -0.00000000  0.00000000
   0.16602588  0.50000000 -0.00000000
   0.50064079  0.50000000  0.00000000
   0.66602588 -0.00000000 -0.00000000
