    4    4  400    1
  0.5270948E+02  0.4265512E-09  0.2492344E-09  0.1983214E-08  0.5000000E-15
  1.000000000000000E-004
  CAR 
 gr                                      
     16    247     12
 
  0.0000000E+00  0.0000000E+00  0.0000000E+00  0.1157407E-02
    1      -22.183451
    2      -16.890561
    3      -15.927688
    4      -10.304724
    5       -9.294389
    6       -5.876408
    7       -5.763261
    8       -5.025664
    9       -1.099610
   10        0.532235
   11        1.332158
   12        1.719260
 
  0.4166667E-01  0.0000000E+00  0.0000000E+00  0.2314815E-02
    1      -22.173149
    2      -17.067421
    3      -15.735660
    4      -10.292450
    5       -9.284108
    6       -5.899456
    7       -5.804972
    8       -5.093618
    9       -1.016137
   10        0.546204
   11        1.346291
   12        1.733568
 
  0.8333333E-01  0.0000000E+00  0.0000000E+00  0.2314815E-02
    1      -22.142248
    2      -17.416584
    3      -15.341080
    4      -10.255647
    5       -9.253314
    6       -5.967301
    7       -5.928472
    8       -5.281661
    9       -0.781708
   10        0.588110
   11        1.388689
   12        1.776491
 
  0.1250000E+00  0.0000000E+00  0.0000000E+00  0.2314815E-02
    1      -22.090767
    2      -17.800042
    3      -14.882226
    4      -10.194371
    5       -9.202160
    6       -6.129125
    7       -6.076274
    8       -5.554983
    9       -0.431658
   10        0.657954
   11        1.459338
   12        1.848030
 
  0.1666667E+00  0.0000000E+00  0.0000000E+00  0.2314815E-02
    1      -22.018740
    2      -18.183701
    3      -14.393648
    4      -10.108721
    5       -9.130906
    6       -6.399977
    7       -6.220926
    8       -5.879648
    9       -0.000804
   10        0.755733
   11        1.558218
   12        1.948186
 
  0.2083333E+00  0.0000000E+00  0.0000000E+00  0.2314815E-02
    1      -21.926217
    2      -18.557474
    3      -13.886094
    4       -9.998837
    5       -9.039928
    6       -6.732649
    7       -6.394779
    8       -6.230806
    9        0.484747
   10        0.881441
   11        1.685296
   12        2.076957
 
  0.2500000E+00  0.0000000E+00  0.0000000E+00  0.2314815E-02
    1      -21.813261
    2      -18.917336
    3      -13.364458
    4       -9.864906
    5       -8.929728
    6       -7.118195
    7       -6.592110
    8       -6.591033
    9        1.006990
   10        1.035058
   11        1.840526
   12        2.234342
 
  0.2916667E+00  0.0000000E+00  0.0000000E+00  0.2314815E-02
    1      -21.679952
    2      -19.261284
    3      -12.831854
    4       -9.707174
    5       -8.800954
    6       -7.547772
    7       -6.953045
    8       -6.803101
    9        1.216557
   10        1.553290
   11        2.023836
   12        2.420338
 
  0.3333333E+00  0.0000000E+00  0.0000000E+00  0.2314815E-02
    1      -21.526387
    2      -19.588149
    3      -12.290830
    4       -9.525948
    5       -8.654419
    6       -8.013090
    7       -7.306749
    8       -7.024951
    9        1.425896
   10        2.114031
   11        2.235114
   12        2.634938
 
  0.3750000E+00  0.0000000E+00  0.0000000E+00  0.2314815E-02
    1      -21.352681
    2      -19.897163
    3      -11.743838
    4       -9.321615
    5       -8.506636
    6       -8.491129
    7       -7.648615
    8       -7.251255
    9        1.663021
   10        2.474166
   11        2.680551
   12        2.878131
 
  0.4166667E+00  0.0000000E+00  0.0000000E+00  0.2314815E-02
    1      -21.158967
    2      -20.187774
    3      -11.193464
    4       -9.094659
    5       -9.021768
    6       -8.312323
    7       -7.975446
    8       -7.477431
    9        1.927852
   10        2.740603
   11        3.149896
   12        3.239570
 
  0.4583333E+00  0.0000000E+00  0.0000000E+00  0.2314815E-02
    1      -20.945409
    2      -20.459563
    3      -10.642571
    4       -9.552695
    5       -8.845685
    6       -8.284956
    7       -8.119510
    8       -7.699602
    9        2.220280
   10        2.887160
   11        3.033403
   12        3.450342
 
  0.5000000E+00  0.0000000E+00  0.0000000E+00  0.1157407E-02
    1      -20.712198
    2      -20.712198
    3      -10.094403
    4      -10.094403
    5       -8.575458
    6       -8.575458
    7       -7.914527
    8       -7.914527
    9        2.540141
   10        2.540141
   11        3.348290
   12        3.348290
 
  0.0000000E+00  0.2777778E-01  0.0000000E+00  0.2314815E-02
    1      -22.170057
    2      -16.879041
    3      -15.916582
    4      -10.288766
    5       -9.354564
    6       -5.931819
    7       -5.794331
    8       -5.009399
    9       -1.104481
   10        0.550382
   11        1.350553
   12        1.737881
 
  0.4166667E-01  0.2777778E-01  0.0000000E+00  0.4629630E-02
    1      -22.159756
    2      -17.055753
    3      -15.724759
    4      -10.276496
    5       -9.344260
    6       -5.959903
    7       -5.830306
    8       -5.077510
    9       -1.020974
   10        0.564351
   11        1.364686
   12        1.752189
 
  0.8333333E-01  0.2777778E-01  0.0000000E+00  0.4629630E-02
    1      -22.128858
    2      -17.404679
    3      -15.330584
    4      -10.239706
    5       -9.313399
    6       -6.048372
    7       -5.931211
    8       -5.265912
    9       -0.786560
   10        0.606260
   11        1.407080
   12        1.795112
 
  0.1250000E+00  0.2777778E-01  0.0000000E+00  0.4629630E-02
    1      -22.077385
    2      -17.787919
    3      -14.872234
    4      -10.178452
    5       -9.262128
    6       -6.212941
    7       -6.073358
    8       -5.539596
    9       -0.436770
   10        0.676109
   11        1.477724
   12        1.866652
 
  0.1666667E+00  0.2777778E-01  0.0000000E+00  0.4629630E-02
    1      -22.005368
    2      -18.171389
    3      -14.384260
    4      -10.092832
    5       -9.190699
    6       -6.461313
    7       -6.237050
    8       -5.864523
    9       -0.006530
   10        0.773896
   11        1.576597
   12        1.966809
 
  0.2083333E+00  0.2777778E-01  0.0000000E+00  0.4629630E-02
    1      -21.912860
    2      -18.544999
    3      -13.877428
    4       -9.982987
    5       -9.099477
    6       -6.779753
    7       -6.421542
    8       -6.215829
    9        0.478042
   10        0.899612
   11        1.703668
   12        2.095583
 
  0.2500000E+00  0.2777778E-01  0.0000000E+00  0.4629630E-02
    1      -21.799921
    2      -18.904720
    3      -13.356658
    4       -9.849104
    5       -8.988951
    6       -7.154667
    7       -6.624966
    8       -6.577188
    9        0.998968
   10        1.053241
   11        1.858889
   12        2.252971
 
  0.2916667E+00  0.2777778E-01  0.0000000E+00  0.4629630E-02
    1      -21.666634
    2      -19.248548
    3      -12.825093
    4       -9.691428
    5       -8.859747
    6       -7.575660
    7       -6.938113
    8       -6.842460
    9        1.234752
   10        1.543657
   11        2.042189
   12        2.438970
 
  0.3333333E+00  0.2777778E-01  0.0000000E+00  0.4629630E-02
    1      -21.513095
    2      -19.575308
    3      -12.285321
    4       -9.510267
    5       -8.712655
    6       -8.033885
    7       -7.291765
    8       -7.068615
    9        1.444106
   10        2.102567
   11        2.253458
   12        2.653575
 
  0.3750000E+00  0.2777778E-01  0.0000000E+00  0.4629630E-02
    1      -21.339419
    2      -19.884232
    3      -11.739843
    4       -9.306008
    5       -8.548652
    6       -8.521554
    7       -7.633554
    8       -7.298389
    9        1.681247
   10        2.492508
   11        2.667218
   12        2.896773
 
  0.4166667E+00  0.2777778E-01  0.0000000E+00  0.4629630E-02
    1      -21.145742
    2      -20.174766
    3      -11.191303
    4       -9.079133
    5       -9.031831
    6       -8.368936
    7       -7.960294
    8       -7.527370
    9        1.946098
   10        2.758954
   11        3.168547
   12        3.225302
 
  0.4583333E+00  0.2777778E-01  0.0000000E+00  0.4629630E-02
    1      -20.932226
    2      -20.446487
    3      -10.642634
    4       -9.558756
    5       -8.830247
    6       -8.269708
    7       -8.174972
    8       -7.751802
    9        2.238552
   10        2.905545
   11        3.051787
   12        3.468872
 
  0.5000000E+00  0.2777778E-01  0.0000000E+00  0.2314815E-02
    1      -20.699065
    2      -20.699065
    3      -10.097172
    4      -10.097172
    5       -8.560114
    6       -8.560114
    7       -7.968541
    8       -7.968541
    9        2.558453
   10        2.558453
   11        3.366674
   12        3.366674
 
  0.0000000E+00  0.5555556E-01  0.0000000E+00  0.2314815E-02
    1      -22.129884
    2      -16.844489
    3      -15.883441
    4      -10.240925
    5       -9.530222
    6       -6.093685
    7       -5.886681
    8       -4.960622
    9       -1.119908
   10        0.604829
   11        1.405731
   12        1.793744
 
  0.4166667E-01  0.5555556E-01  0.0000000E+00  0.4629630E-02
    1      -22.119587
    2      -17.020767
    3      -15.692220
    4      -10.228668
    5       -9.519846
    6       -6.129013
    7       -5.913374
    8       -5.029222
    9       -1.036290
   10        0.618800
   11        1.419861
   12        1.808052
 
  0.8333333E-01  0.5555556E-01  0.0000000E+00  0.4629630E-02
    1      -22.088702
    2      -17.368989
    3      -15.299266
    4      -10.191917
    5       -9.488764
    6       -6.233377
    7       -5.992620
    8       -5.218728
    9       -0.801909
   10        0.660715
   11        1.462246
   12        1.850977
 
  0.1250000E+00  0.5555556E-01  0.0000000E+00  0.4629630E-02
    1      -22.037250
    2      -17.751577
    3      -14.842452
    4      -10.130729
    5       -9.437109
    6       -6.403378
    7       -6.120769
    8       -5.493522
    9       -0.452909
   10        0.730575
   11        1.532875
   12        1.922519
 
  0.1666667E+00  0.5555556E-01  0.0000000E+00  0.4629630E-02
    1      -21.965267
    2      -18.134478
    3      -14.356333
    4      -10.045201
    5       -9.365109
    6       -6.635802
    7       -6.290228
    8       -5.819247
    9       -0.024537
   10        0.828379
   11        1.631727
   12        2.022680
 
  0.2083333E+00  0.5555556E-01  0.0000000E+00  0.4629630E-02
    1      -21.872800
    2      -18.507596
    3      -13.851728
    4       -9.935475
    5       -9.273093
    6       -6.927424
    7       -6.490862
    8       -6.170999
    9        0.457050
   10        0.954118
   11        1.758772
   12        2.151458
 
  0.2500000E+00  0.5555556E-01  0.0000000E+00  0.4629630E-02
    1      -21.759914
    2      -18.866894
    3      -13.333638
    4       -9.801737
    5       -9.161500
    6       -7.273655
    7       -6.712637
    8       -6.532521
    9        0.973957
   10        1.107775
   11        1.913963
   12        2.308853
 
  0.2916667E+00  0.5555556E-01  0.0000000E+00  0.4629630E-02
    1      -21.626693
    2      -19.210356
    3      -12.805306
    4       -9.644233
    5       -9.030891
    6       -7.668109
    7       -6.947193
    8       -6.893411
    9        1.289319
   10        1.513730
   11        2.097232
   12        2.494862
 
  0.3333333E+00  0.5555556E-01  0.0000000E+00  0.4629630E-02
    1      -21.473232
    2      -19.536803
    3      -12.269448
    4       -9.463271
    5       -8.881972
    6       -8.103319
    7       -7.246902
    8       -7.187978
    9        1.498710
   10        2.067033
   11        2.308475
   12        2.709478
 
  0.3750000E+00  0.5555556E-01  0.0000000E+00  0.4629630E-02
    1      -21.299648
    2      -19.845456
    3      -11.728724
    4       -9.259235
    5       -8.715613
    6       -8.571666
    7       -7.588452
    8       -7.429823
    9        1.735892
   10        2.547512
   11        2.625857
   12        2.952692
 
  0.4166667E+00  0.5555556E-01  0.0000000E+00  0.4629630E-02
    1      -21.106080
    2      -20.135756
    3      -11.185980
    4       -9.065990
    5       -9.032608
    6       -8.532879
    7       -7.914914
    8       -7.668563
    9        2.000791
   10        2.813984
   11        3.180199
   12        3.224489
 
  0.4583333E+00  0.5555556E-01  0.0000000E+00  0.4629630E-02
    1      -20.892691
    2      -20.407276
    3      -10.644398
    4       -9.579856
    5       -8.783991
    6       -8.335062
    7       -8.224032
    8       -7.900800
    9        2.293308
   10        2.960561
   11        3.106923
   12        3.524847
 
  0.5000000E+00  0.5555556E-01  0.0000000E+00  0.2314815E-02
    1      -20.659680
    2      -20.659680
    3      -10.107620
    4      -10.107620
    5       -8.514143
    6       -8.514143
    7       -8.123735
    8       -8.123735
    9        2.613303
   10        2.613303
   11        3.421807
   12        3.421807
 
  0.0000000E+00  0.8333333E-01  0.0000000E+00  0.2314815E-02
    1      -22.062968
    2      -16.786915
    3      -15.828817
    4      -10.161299
    5       -9.808088
    6       -6.350222
    7       -6.037810
    8       -4.879394
    9       -1.148329
   10        0.695593
   11        1.497671
   12        1.886853
 
  0.4166667E-01  0.8333333E-01  0.0000000E+00  0.4629630E-02
    1      -22.052678
    2      -16.962517
    3      -15.638574
    4      -10.149065
    5       -9.797573
    6       -6.390819
    7       -6.056006
    8       -4.948860
    9       -1.064495
   10        0.709565
   11        1.511795
   12        1.901161
 
  0.8333333E-01  0.8333333E-01  0.0000000E+00  0.4629630E-02
    1      -22.021816
    2      -17.309595
    3      -15.247680
    4      -10.112381
    5       -9.766061
    6       -6.505520
    7       -6.115751
    8       -5.140308
    9       -0.830124
   10        0.751483
   11        1.554164
   12        1.944087
 
  0.1250000E+00  0.8333333E-01  0.0000000E+00  0.4629630E-02
    1      -21.970402
    2      -17.691099
    3      -14.793520
    4      -10.051306
    5       -9.713660
    6       -6.681187
    7       -6.224516
    8       -5.417036
    9       -0.482451
   10        0.821351
   11        1.624765
   12        2.015631
 
  0.1666667E+00  0.8333333E-01  0.0000000E+00  0.4629630E-02
    1      -21.898471
    2      -18.073046
    3      -14.310645
    4       -9.965937
    5       -9.640547
    6       -6.907605
    7       -6.383516
    8       -5.744132
    9       -0.057280
   10        0.919171
   11        1.723578
   12        2.115796
 
  0.2083333E+00  0.8333333E-01  0.0000000E+00  0.4629630E-02
    1      -21.806075
    2      -18.445337
    3      -13.809975
    4       -9.856414
    5       -9.546977
    6       -7.178924
    7       -6.586999
    8       -6.096636
    9        0.419178
   10        1.044934
   11        1.850574
   12        2.244580
 
  0.2500000E+00  0.8333333E-01  0.0000000E+00  0.4629630E-02
    1      -21.693279
    2      -18.803921
    3      -13.296662
    4       -9.722926
    5       -9.433286
    6       -7.492634
    7       -6.824240
    8       -6.458421
    9        0.929186
   10        1.198623
   11        2.005708
   12        2.401984
 
  0.2916667E+00  0.8333333E-01  0.0000000E+00  0.4629630E-02
    1      -21.560166
    2      -19.146769
    3      -12.774150
    4       -9.565717
    5       -9.299898
    6       -7.847829
    7       -7.082293
    8       -6.819234
    9        1.380206
   10        1.460513
   11        2.188916
   12        2.588004
 
  0.3333333E+00  0.8333333E-01  0.0000000E+00  0.4629630E-02
    1      -21.406835
    2      -19.472686
    3      -12.245414
    4       -9.385095
    5       -9.147336
    6       -8.243065
    7       -7.349020
    8       -7.172431
    9        1.589641
   10        2.004131
   11        2.400103
   12        2.802635
 
  0.3750000E+00  0.8333333E-01  0.0000000E+00  0.4629630E-02
    1      -21.233406
    2      -19.780883
    3      -11.713449
    4       -9.181445
    5       -8.976227
    6       -8.674930
    7       -7.615159
    8       -7.513561
    9        1.826871
   10        2.552631
   11        2.639109
   12        3.045868
 
  0.4166667E+00  0.8333333E-01  0.0000000E+00  0.4629630E-02
    1      -21.040020
    2      -20.070791
    3      -11.181526
    4       -9.138096
    5       -8.955244
    6       -8.787322
    7       -7.874626
    8       -7.839535
    9        2.091823
   10        2.905618
   11        3.098376
   12        3.317693
 
  0.4583333E+00  0.8333333E-01  0.0000000E+00  0.4629630E-02
    1      -20.826847
    2      -20.341973
    3      -10.653371
    4       -9.626300
    5       -8.707091
    6       -8.581509
    7       -8.148139
    8       -8.123661
    9        2.384404
   10        3.051908
   11        3.198753
   12        3.613088
 
  0.5000000E+00  0.8333333E-01  0.0000000E+00  0.2314815E-02
    1      -20.594085
    2      -20.594085
    3      -10.133295
    4      -10.133295
    5       -8.437737
    6       -8.437737
    7       -8.359854
    8       -8.359854
    9        2.704492
   10        2.704492
   11        3.513613
   12        3.513613
 
  0.0000000E+00  0.1111111E+00  0.0000000E+00  0.2314815E-02
    1      -21.969373
    2      -16.706340
    3      -15.753763
    4      -10.169615
    5      -10.050058
    6       -6.685274
    7       -6.243764
    8       -4.765815
    9       -1.193745
   10        0.822694
   11        1.626336
   12        2.017212
 
  0.4166667E-01  0.1111111E+00  0.0000000E+00  0.4629630E-02
    1      -21.959093
    2      -16.881101
    3      -15.564827
    4      -10.158857
    5      -10.037857
    6       -6.729795
    7       -6.253853
    8       -4.836613
    9       -1.109527
   10        0.836664
   11        1.640451
   12        2.031520
 
  0.8333333E-01  0.1111111E+00  0.0000000E+00  0.4629630E-02
    1      -21.928262
    2      -17.226643
    3      -15.176887
    4      -10.126601
    5      -10.001272
    6       -6.852585
    7       -6.293562
    8       -5.031018
    9       -0.875045
   10        0.878576
   11        1.682791
   12        2.074445
 
  0.1250000E+00  0.1111111E+00  0.0000000E+00  0.4629630E-02
    1      -21.876900
    2      -17.606635
    3      -14.726678
    4      -10.072900
    5       -9.940362
    6       -7.034290
    7       -6.378201
    8       -5.310636
    9       -0.529227
   10        0.948439
   11        1.753347
   12        2.145989
 
  0.1666667E+00  0.1111111E+00  0.0000000E+00  0.4629630E-02
    1      -21.805045
    2      -17.987232
    3      -14.248731
    4       -9.997839
    5       -9.855223
    6       -7.260112
    7       -6.515781
    8       -5.639741
    9       -0.108695
   10        1.046258
   11        1.852096
   12        2.246155
 
  0.2083333E+00  0.1111111E+00  0.0000000E+00  0.4629630E-02
    1      -21.712748
    2      -18.358348
    3      -13.754136
    4       -9.901530
    5       -9.745998
    6       -7.520920
    7       -6.706095
    8       -5.993317
    9        0.360301
   10        1.172030
   11        1.979010
   12        2.374944
 
  0.2500000E+00  0.1111111E+00  0.0000000E+00  0.4629630E-02
    1      -21.600078
    2      -18.715917
    3      -13.248313
    4       -9.784106
    5       -9.612875
    6       -7.811865
    7       -6.942639
    8       -6.355444
    9        0.860277
   10        1.325737
   11        2.134045
   12        2.532355
 
  0.2916667E+00  0.1111111E+00  0.0000000E+00  0.4629630E-02
    1      -21.467118
    2      -19.057890
    3      -12.735081
    4       -9.645710
    5       -9.456099
    6       -8.131495
    7       -7.214313
    8       -6.716105
    9        1.379338
   10        1.507348
   11        2.317144
   12        2.718386
 
  0.3333333E+00  0.1111111E+00  0.0000000E+00  0.4629630E-02
    1      -21.313971
    2      -19.383055
    3      -12.217913
    4       -9.486476
    5       -9.275978
    6       -8.480885
    7       -7.507172
    8       -7.068838
    9        1.716817
   10        1.908844
   11        2.528221
   12        2.933031
 
  0.3750000E+00  0.1111111E+00  0.0000000E+00  0.4629630E-02
    1      -21.140760
    2      -19.690604
    3      -11.700460
    4       -9.306509
    5       -9.072893
    6       -8.862073
    7       -7.806751
    8       -7.409322
    9        1.954082
   10        2.441983
   11        2.767146
   12        3.176283
 
  0.4166667E+00  0.1111111E+00  0.0000000E+00  0.4629630E-02
    1      -20.947632
    2      -19.979954
    3      -11.186851
    4       -9.275887
    5       -9.105869
    6       -8.847320
    7       -8.100756
    8       -7.734559
    9        2.219069
   10        2.972736
   11        3.033676
   12        3.448132
 
  0.4583333E+00  0.1111111E+00  0.0000000E+00  0.4629630E-02
    1      -20.734763
    2      -20.250656
    3      -10.681871
    4       -9.720398
    5       -8.884581
    6       -8.599852
    7       -8.380878
    8       -8.042394
    9        2.511688
   10        3.179318
   11        3.327125
   12        3.492721
 
  0.5000000E+00  0.1111111E+00  0.0000000E+00  0.2314815E-02
    1      -20.502356
    2      -20.502356
    3      -10.191036
    4      -10.191036
    5       -8.642743
    6       -8.642743
    7       -8.331229
    8       -8.331229
    9        2.831822
   10        2.831822
   11        3.641727
   12        3.641740
 
  0.0000000E+00  0.1388889E+00  0.0000000E+00  0.2314815E-02
    1      -21.849186
    2      -16.602793
    3      -15.660068
    4      -10.594219
    5       -9.907447
    6       -7.081557
    7       -6.499436
    8       -4.620029
    9       -1.261570
   10        0.986146
   11        1.791668
   12        2.184826
 
  0.4166667E-01  0.1388889E+00  0.0000000E+00  0.4629630E-02
    1      -21.838920
    2      -16.776674
    3      -15.472704
    4      -10.583052
    5       -9.895290
    6       -7.129392
    7       -6.501347
    8       -4.692782
    9       -1.176673
   10        1.000108
   11        1.805768
   12        2.199133
 
  0.8333333E-01  0.1388889E+00  0.0000000E+00  0.4629630E-02
    1      -21.808129
    2      -17.120365
    3      -15.088736
    4      -10.549537
    5       -9.858839
    6       -7.259412
    7       -6.519829
    8       -4.891451
    9       -0.941753
   10        1.042001
   11        1.848066
   12        2.242055
 
  0.1250000E+00  0.1388889E+00  0.0000000E+00  0.4629630E-02
    1      -21.756836
    2      -17.498420
    3      -14.644133
    4      -10.493624
    5       -9.798152
    6       -7.447634
    7       -6.576487
    8       -5.175132
    9       -0.598243
   10        1.111836
   11        1.918548
   12        2.313595
 
  0.1666667E+00  0.1388889E+00  0.0000000E+00  0.4629630E-02
    1      -21.685079
    2      -17.877255
    3      -14.173387
    4      -10.415214
    5       -9.713328
    6       -7.675954
    7       -6.685001
    8       -5.506976
    9       -0.183869
   10        1.209627
   11        2.017194
   12        2.413757
 
  0.2083333E+00  0.1388889E+00  0.0000000E+00  0.4629630E-02
    1      -21.592912
    2      -18.246824
    3      -13.687882
    4      -10.314135
    5       -9.604508
    6       -7.932993
    7       -6.849975
    8       -5.861947
    9        0.275144
   10        1.335376
   11        2.143971
   12        2.542545
 
  0.2500000E+00  0.1388889E+00  0.0000000E+00  0.4629630E-02
    1      -21.480403
    2      -18.603056
    3      -13.193543
    4      -10.190100
    5       -9.471884
    6       -8.211866
    7       -7.069240
    8       -6.224458
    9        0.761728
   10        1.489072
   11        2.298836
   12        2.699958
 
  0.2916667E+00  0.1388889E+00  0.0000000E+00  0.4629630E-02
    1      -21.347642
    2      -18.943877
    3      -12.694905
    4      -10.042655
    5       -9.315700
    6       -8.508968
    7       -7.335562
    8       -6.584829
    9        1.264475
   10        1.670683
   11        2.481734
   12        2.885996
 
  0.3333333E+00  0.1388889E+00  0.0000000E+00  0.4629630E-02
    1      -21.194734
    2      -19.268051
    3      -12.196422
    4       -9.871102
    5       -9.136262
    6       -8.823532
    7       -7.637887
    8       -6.936859
    9        1.775248
   10        1.880158
   11        2.692586
   12        3.100652
 
  0.3750000E+00  0.1388889E+00  0.0000000E+00  0.4629630E-02
    1      -21.021807
    2      -19.574748
    3      -11.703034
    4       -9.674444
    5       -9.157411
    6       -8.933954
    7       -7.962399
    8       -7.276407
    9        2.117431
   10        2.287813
   11        2.931292
   12        3.343919
 
  0.4166667E+00  0.1388889E+00  0.0000000E+00  0.4629630E-02
    1      -20.829016
    2      -19.863365
    3      -11.220425
    4       -9.514447
    5       -9.451402
    6       -8.709246
    7       -8.293835
    8       -7.600595
    9        2.382421
   10        2.797066
   11        3.197702
   12        3.615787
 
  0.4583333E+00  0.1388889E+00  0.0000000E+00  0.4629630E-02
    1      -20.616542
    2      -20.133440
    3      -10.754933
    4       -9.898856
    5       -9.200717
    6       -8.617531
    7       -8.462724
    8       -7.907347
    9        2.675032
   10        3.298514
   11        3.342619
   12        3.491510
 
  0.5000000E+00  0.1388889E+00  0.0000000E+00  0.2314815E-02
    1      -20.384599
    2      -20.384599
    3      -10.312837
    4      -10.312837
    5       -8.922026
    6       -8.922026
    7       -8.195117
    8       -8.195117
    9        2.995148
   10        2.995148
   11        3.776635
   12        3.777058
 
  0.0000000E+00  0.1666667E+00  0.0000000E+00  0.2314815E-02
    1      -21.702529
    2      -16.476314
    3      -15.550746
    4      -11.061281
    5       -9.733789
    6       -7.522936
    7       -6.798910
    8       -4.442226
    9       -1.358290
   10        1.185945
   11        1.993588
   12        2.389697
 
  0.4166667E-01  0.1666667E+00  0.0000000E+00  0.4629630E-02
    1      -21.692280
    2      -16.649486
    3      -15.365138
    4      -11.049415
    5       -9.721691
    6       -7.573853
    7       -6.792468
    8       -4.517827
    9       -1.272174
   10        1.199895
   11        2.007666
   12        2.404002
 
  0.8333333E-01  0.1666667E+00  0.0000000E+00  0.4629630E-02
    1      -21.661539
    2      -16.991125
    3      -14.986442
    4      -11.013734
    5       -9.685416
    6       -7.710842
    7       -6.788705
    8       -4.722557
    9       -1.036072
   10        1.241752
   11        2.049894
   12        2.446918
 
  0.1250000E+00  0.1666667E+00  0.0000000E+00  0.4629630E-02
    1      -21.610331
    2      -17.366818
    3      -14.549831
    4      -10.953977
    5       -9.625022
    6       -7.906042
    7       -6.814628
    8       -5.011796
    9       -0.695101
   10        1.311532
   11        2.120257
   12        2.518449
 
  0.1666667E+00  0.1666667E+00  0.0000000E+00  0.4629630E-02
    1      -21.538695
    2      -17.743442
    3      -14.089769
    4      -10.869660
    5       -9.540611
    6       -8.138727
    7       -6.888823
    8       -5.347221
    9       -0.288400
   10        1.409257
   11        2.218729
   12        2.618600
 
  0.2083333E+00  0.1666667E+00  0.0000000E+00  0.4629630E-02
    1      -21.446686
    2      -18.111056
    3      -13.618217
    4      -10.760002
    5       -9.432325
    6       -8.395997
    7       -7.020061
    8       -5.703894
    9        0.158009
   10        1.534940
   11        2.345271
   12        2.747378
 
  0.2500000E+00  0.1666667E+00  0.0000000E+00  0.4629630E-02
    1      -21.334378
    2      -18.465592
    3      -13.142098
    4      -10.623808
    5       -9.300357
    6       -8.669785
    7       -7.209918
    8       -6.066748
    9        0.627748
   10        1.688579
   11        2.499828
   12        2.904785
 
  0.2916667E+00  0.1666667E+00  0.0000000E+00  0.4629630E-02
    1      -21.201862
    2      -18.804954
    3      -12.667384
    4      -10.459341
    5       -9.144954
    6       -8.955109
    7       -7.454637
    8       -6.426588
    9        1.110135
   10        1.870145
   11        2.682325
   12        3.090821
 
  0.3333333E+00  0.1666667E+00  0.0000000E+00  0.4629630E-02
    1      -21.049250
    2      -19.127875
    3      -12.200391
    4      -10.264233
    5       -9.249343
    6       -8.966423
    7       -7.746448
    8       -6.777565
    9        1.597724
   10        2.079586
   11        2.892661
   12        3.305482
 
  0.3750000E+00  0.1666667E+00  0.0000000E+00  0.4629630E-02
    1      -20.876678
    2      -19.433497
    3      -11.748115
    4      -10.035667
    5       -9.552054
    6       -8.765145
    7       -8.074580
    8       -7.115778
    9        2.084951
   10        2.316829
   11        3.130683
   12        3.548760
 
  0.4166667E+00  0.1666667E+00  0.0000000E+00  0.4629630E-02
    1      -20.684307
    2      -19.721194
    3      -11.317661
    4       -9.865084
    5       -9.771228
    6       -8.541590
    7       -8.425995
    8       -7.438506
    9        2.567389
   10        2.581781
   11        3.396099
   12        3.820642
 
  0.4583333E+00  0.1666667E+00  0.0000000E+00  0.4629630E-02
    1      -20.472327
    2      -19.990479
    3      -10.914545
    4      -10.192597
    5       -9.470805
    6       -8.785956
    7       -8.296335
    8       -7.743773
    9        2.874335
   10        3.041270
   11        3.541710
   12        3.686991
 
  0.5000000E+00  0.1666667E+00  0.0000000E+00  0.2314815E-02
    1      -20.240963
    2      -20.240963
    3      -10.540489
    4      -10.540489
    5       -9.138974
    6       -9.138974
    7       -8.030097
    8       -8.030097
    9        3.194362
   10        3.194362
   11        3.502710
   12        3.502710
 