 running on    8 total cores
 distrk:  each k-point on    8 cores,    1 groups
 distr:  one band on    2 cores,    4 groups
 using from now: INCAR     
 vasp.5.3.5 31Mar14 (build Mar 02 2015 18:14:16) complex                        
  
 POSCAR found type information on POSCAR  C 
 POSCAR found :  1 types and       4 ions
 LDA part: xc-table for Pade appr. of Perdew
 POSCAR, INCAR and KPOINTS ok, starting setup
 WARNING: small aliasing (wrap around) errors must be expected
 FFT: planning ...
 WAVECAR not read
 entering main loop
       N       E                     dE             d eps       ncg     rms          rms(c)
DAV:   1     0.189269863611E+03    0.18927E+03   -0.10582E+04  5928   0.274E+03
DAV:   2    -0.924012560309E+01   -0.19851E+03   -0.17646E+03 10496   0.260E+02
DAV:   3    -0.382972421041E+02   -0.29057E+02   -0.28597E+02  7268   0.120E+02    0.725E+00
RMM:   4    -0.376704080055E+02    0.62683E+00   -0.93948E+00  5929   0.265E+01    0.419E+00
RMM:   5    -0.369242700778E+02    0.74614E+00   -0.27570E+00  5930   0.114E+01    0.714E-01
RMM:   6    -0.369259910359E+02   -0.17210E-02   -0.82104E-02  6381   0.203E+00    0.512E-01
RMM:   7    -0.369166941462E+02    0.92969E-02   -0.32587E-02  5946   0.157E+00    0.339E-01
RMM:   8    -0.369112188220E+02    0.54753E-02   -0.73931E-03  5929   0.569E-01    0.133E-01
RMM:   9    -0.369109930086E+02    0.22581E-03   -0.20272E-02  5928   0.843E-01    0.159E-01
RMM:  10    -0.369108516208E+02    0.14139E-03   -0.25852E-03  5928   0.366E-01    0.300E-02
RMM:  11    -0.369133373653E+02   -0.24857E-02   -0.71489E-04  5928   0.176E-01    0.455E-02
RMM:  12    -0.369137939133E+02   -0.45655E-03   -0.22828E-04  5935   0.998E-02    0.514E-03
RMM:  13    -0.369140516235E+02   -0.25771E-03   -0.52755E-05  6004   0.405E-02    0.435E-03
RMM:  14    -0.369141343999E+02   -0.82776E-04   -0.11198E-05  5951   0.189E-02    0.205E-03
RMM:  15    -0.369141435287E+02   -0.91288E-05   -0.15855E-06  5995   0.746E-03    0.109E-03
RMM:  16    -0.369141555206E+02   -0.11992E-04   -0.58019E-07  5941   0.468E-03    0.625E-04
RMM:  17    -0.369141602495E+02   -0.47289E-05   -0.38445E-08  6110   0.141E-03    0.743E-04
RMM:  18    -0.369141614889E+02   -0.12394E-05   -0.55186E-08  5928   0.174E-03    0.754E-05
RMM:  19    -0.369141622512E+02   -0.76228E-06   -0.10766E-08  6036   0.503E-04    0.240E-05
RMM:  20    -0.369141623062E+02   -0.55001E-07   -0.76618E-10  4455   0.131E-04    0.255E-05
RMM:  21    -0.369141623249E+02   -0.18709E-07   -0.28456E-10  4423   0.101E-04    0.365E-06
RMM:  22    -0.369141623246E+02    0.30877E-09   -0.63844E-12  3884   0.408E-05    0.181E-06
RMM:  23    -0.369141623254E+02   -0.85060E-09   -0.94698E-12  3509   0.351E-05    0.762E-07
RMM:  24    -0.369141623253E+02    0.58662E-10   -0.53627E-12  3069   0.283E-05
   1 F= -.36914162E+02 E0= -.36914149E+02  d E =-.369142E+02
 BRION: g(F)=  0.261E-12 g(S)=  0.000E+00
 bond charge predicted
       N       E                     dE             d eps       ncg     rms          rms(c)
DAV:   1    -0.369141623248E+02    0.58924E-09    0.56732E-09  4324   0.634E-05    0.997E-07
RMM:   2    -0.369141623251E+02   -0.25898E-09   -0.17702E-12  2401   0.194E-05    0.628E-07
RMM:   3    -0.369141623252E+02   -0.12585E-09   -0.10969E-12  2138   0.190E-05    0.263E-08
 num prob  num prob RMM:   4    -0.369141623251E+02    0.14211E-09    0.39886E-14  1984   0.187E-05    0.302E-08
 num prob  num prob RMM:   5    -0.369141623253E+02   -0.19111E-09    0.20081E-13  1883   0.181E-05    0.398E-08
 num prob  num prob RMM:   6    -0.369141623255E+02   -0.29161E-09   -0.83513E-13  1792   0.176E-05    0.554E-08
 num prob RMM:   7    -0.369141623251E+02    0.44338E-09   -0.72734E-13  1718   0.170E-05    0.502E-08
 num prob RMM:   8    -0.369141623255E+02   -0.41132E-09   -0.38821E-13  1666   0.166E-05    0.566E-08
RMM:   9    -0.369141623255E+02    0.39108E-10   -0.41239E-13  1613   0.164E-05
   2 F= -.36914162E+02 E0= -.36914149E+02  d E =-.123691E-09
 BRION: g(F)=  0.452E-11 g(S)=  0.000E+00 retain N=  1 mean eig= 0.19
 eig:   0.194
 bond charge predicted
       N       E                     dE             d eps       ncg     rms          rms(c)
DAV:   1    -0.369141623246E+02    0.86277E-09    0.56962E-09  4224   0.444E-05    0.653E-07
RMM:   2    -0.369141623254E+02   -0.72362E-09    0.14856E-13  1363   0.125E-05    0.404E-07
RMM:   3    -0.369141623252E+02    0.16007E-09   -0.42374E-14  1248   0.122E-05    0.103E-08
RMM:   4    -0.369141623256E+02   -0.35084E-09   -0.96158E-14  1132   0.123E-05    0.608E-09
RMM:   5    -0.369141623255E+02    0.84242E-10    0.94163E-15  1194   0.122E-05
   3 F= -.36914162E+02 E0= -.36914149E+02  d E =-.648015E-11
 BRION: g(F)=  0.126E-11 g(S)=  0.000E+00 retain N=  1 mean eig= 0.13
 eig:   0.127
 bond charge predicted
       N       E                     dE             d eps       ncg     rms          rms(c)
DAV:   1    -0.369141623246E+02    0.92109E-09    0.57153E-09  4568   0.154E-05    0.218E-07
RMM:   2    -0.369141623254E+02   -0.71827E-09    0.72740E-14   825   0.472E-06    0.134E-07
RMM:   3    -0.369141623255E+02   -0.16598E-09   -0.74961E-14  1061   0.466E-06    0.429E-09
RMM:   4    -0.369141623255E+02    0.73214E-10    0.10115E-14   797   0.466E-06    0.119E-09
RMM:   5    -0.369141623255E+02   -0.23874E-10   -0.80594E-15   636   0.466E-06
   4 F= -.36914162E+02 E0= -.36914149E+02  d E =0.193268E-11
 BRION: g(F)=  0.517E-12 g(S)=  0.000E+00 retain N=  1 mean eig= 0.08
 eig:   0.077
 bond charge predicted
       N       E                     dE             d eps       ncg     rms          rms(c)
DAV:   1    -0.369141623248E+02    0.68542E-09    0.57153E-09  4176   0.578E-06    0.880E-08
RMM:   2    -0.369141623255E+02   -0.73067E-09   -0.10239E-14   620   0.243E-06    0.542E-08
RMM:   3    -0.369141623254E+02    0.11494E-09   -0.34951E-15   561   0.246E-06    0.155E-09
RMM:   4    -0.369141623253E+02    0.99817E-10    0.00000E+00   421   0.246E-06    0.639E-10
RMM:   5    -0.369141623253E+02   -0.64915E-10    0.00000E+00   369   0.246E-06
   5 F= -.36914162E+02 E0= -.36914149E+02  d E =0.128466E-09
 BRION: g(F)=  0.573E-13 g(S)=  0.000E+00 retain N=  1 mean eig= 0.06
 eig:   0.058
 reached required accuracy - stopping structural energy minimisation
