<?xml version="1.0" encoding="ISO-8859-1"?>
<modeling>
 <generator>
  <i name="program" type="string">vasp </i>
  <i name="version" type="string">5.3.5  </i>
  <i name="subversion" type="string">31Mar14 (build Mar 02 2015 18:14:16) complex                          parallel </i>
  <i name="platform" type="string">LinuxIFC </i>
  <i name="date" type="string">2018 08 10 </i>
  <i name="time" type="string">15:23:40 </i>
 </generator>
 <incar>
  <i type="string" name="SYSTEM">  gr</i>
  <i type="string" name="PREC">accurate : accuracy</i>
  <i type="string" name="ALGO"> FAST.</i>
  <i type="int" name="NELM">   100</i>
  <i type="int" name="NELMDL">    -3</i>
  <i type="int" name="NELMIN">     5</i>
  <i type="int" name="IBRION">     1</i>
  <i name="EDIFF">      0.00000000</i>
  <i name="EDIFFG">     -0.00000100</i>
  <i type="int" name="NSW">   400</i>
  <i type="int" name="ISIF">     2</i>
  <i name="ENCUT">   2000.00000000</i>
  <i type="int" name="ISMEAR">     0</i>
  <i name="SIGMA">      0.05000000</i>
  <i type="int" name="NWRITE">     2</i>
  <i type="logical" name="LWAVE"> F  </i>
  <i type="logical" name="LCHARG"> F  </i>
  <i type="int" name="NELM">   100</i>
 </incar>
 <kpoints>
  <generation param="Gamma">
   <v type="int" name="divisions">      24       36        1 </v>
   <v name="usershift">      0.00000000       0.00000000       0.00000000 </v>
   <v name="genvec1">      0.04166667       0.00000000       0.00000000 </v>
   <v name="genvec2">      0.00000000       0.02777778       0.00000000 </v>
   <v name="genvec3">      0.00000000       0.00000000       1.00000000 </v>
   <v name="shift">      0.00000000       0.00000000       0.00000000 </v>
  </generation>
  <varray name="kpointlist" >
   <v>       0.00000000       0.00000000       0.00000000 </v>
   <v>       0.04166667       0.00000000       0.00000000 </v>
   <v>       0.08333333       0.00000000       0.00000000 </v>
   <v>       0.12500000       0.00000000       0.00000000 </v>
   <v>       0.16666667       0.00000000       0.00000000 </v>
   <v>       0.20833333       0.00000000       0.00000000 </v>
   <v>       0.25000000       0.00000000       0.00000000 </v>
   <v>       0.29166667       0.00000000       0.00000000 </v>
   <v>       0.33333333       0.00000000       0.00000000 </v>
   <v>       0.37500000       0.00000000       0.00000000 </v>
   <v>       0.41666667       0.00000000       0.00000000 </v>
   <v>       0.45833333       0.00000000       0.00000000 </v>
   <v>       0.50000000       0.00000000       0.00000000 </v>
   <v>       0.00000000       0.02777778       0.00000000 </v>
   <v>       0.04166667       0.02777778       0.00000000 </v>
   <v>       0.08333333       0.02777778       0.00000000 </v>
   <v>       0.12500000       0.02777778       0.00000000 </v>
   <v>       0.16666667       0.02777778       0.00000000 </v>
   <v>       0.20833333       0.02777778       0.00000000 </v>
   <v>       0.25000000       0.02777778       0.00000000 </v>
   <v>       0.29166667       0.02777778       0.00000000 </v>
   <v>       0.33333333       0.02777778       0.00000000 </v>
   <v>       0.37500000       0.02777778       0.00000000 </v>
   <v>       0.41666667       0.02777778       0.00000000 </v>
   <v>       0.45833333       0.02777778       0.00000000 </v>
   <v>       0.50000000       0.02777778       0.00000000 </v>
   <v>       0.00000000       0.05555556       0.00000000 </v>
   <v>       0.04166667       0.05555556       0.00000000 </v>
   <v>       0.08333333       0.05555556       0.00000000 </v>
   <v>       0.12500000       0.05555556       0.00000000 </v>
   <v>       0.16666667       0.05555556       0.00000000 </v>
   <v>       0.20833333       0.05555556       0.00000000 </v>
   <v>       0.25000000       0.05555556       0.00000000 </v>
   <v>       0.29166667       0.05555556       0.00000000 </v>
   <v>       0.33333333       0.05555556       0.00000000 </v>
   <v>       0.37500000       0.05555556       0.00000000 </v>
   <v>       0.41666667       0.05555556       0.00000000 </v>
   <v>       0.45833333       0.05555556       0.00000000 </v>
   <v>       0.50000000       0.05555556       0.00000000 </v>
   <v>       0.00000000       0.08333333       0.00000000 </v>
   <v>       0.04166667       0.08333333       0.00000000 </v>
   <v>       0.08333333       0.08333333       0.00000000 </v>
   <v>       0.12500000       0.08333333       0.00000000 </v>
   <v>       0.16666667       0.08333333       0.00000000 </v>
   <v>       0.20833333       0.08333333       0.00000000 </v>
   <v>       0.25000000       0.08333333       0.00000000 </v>
   <v>       0.29166667       0.08333333       0.00000000 </v>
   <v>       0.33333333       0.08333333       0.00000000 </v>
   <v>       0.37500000       0.08333333       0.00000000 </v>
   <v>       0.41666667       0.08333333       0.00000000 </v>
   <v>       0.45833333       0.08333333       0.00000000 </v>
   <v>       0.50000000       0.08333333       0.00000000 </v>
   <v>       0.00000000       0.11111111       0.00000000 </v>
   <v>       0.04166667       0.11111111       0.00000000 </v>
   <v>       0.08333333       0.11111111       0.00000000 </v>
   <v>       0.12500000       0.11111111       0.00000000 </v>
   <v>       0.16666667       0.11111111       0.00000000 </v>
   <v>       0.20833333       0.11111111       0.00000000 </v>
   <v>       0.25000000       0.11111111       0.00000000 </v>
   <v>       0.29166667       0.11111111       0.00000000 </v>
   <v>       0.33333333       0.11111111       0.00000000 </v>
   <v>       0.37500000       0.11111111       0.00000000 </v>
   <v>       0.41666667       0.11111111       0.00000000 </v>
   <v>       0.45833333       0.11111111       0.00000000 </v>
   <v>       0.50000000       0.11111111       0.00000000 </v>
   <v>       0.00000000       0.13888889       0.00000000 </v>
   <v>       0.04166667       0.13888889       0.00000000 </v>
   <v>       0.08333333       0.13888889       0.00000000 </v>
   <v>       0.12500000       0.13888889       0.00000000 </v>
   <v>       0.16666667       0.13888889       0.00000000 </v>
   <v>       0.20833333       0.13888889       0.00000000 </v>
   <v>       0.25000000       0.13888889       0.00000000 </v>
   <v>       0.29166667       0.13888889       0.00000000 </v>
   <v>       0.33333333       0.13888889       0.00000000 </v>
   <v>       0.37500000       0.13888889       0.00000000 </v>
   <v>       0.41666667       0.13888889       0.00000000 </v>
   <v>       0.45833333       0.13888889       0.00000000 </v>
   <v>       0.50000000       0.13888889       0.00000000 </v>
   <v>       0.00000000       0.16666667       0.00000000 </v>
   <v>       0.04166667       0.16666667       0.00000000 </v>
   <v>       0.08333333       0.16666667       0.00000000 </v>
   <v>       0.12500000       0.16666667       0.00000000 </v>
   <v>       0.16666667       0.16666667       0.00000000 </v>
   <v>       0.20833333       0.16666667       0.00000000 </v>
   <v>       0.25000000       0.16666667       0.00000000 </v>
   <v>       0.29166667       0.16666667       0.00000000 </v>
   <v>       0.33333333       0.16666667       0.00000000 </v>
   <v>       0.37500000       0.16666667       0.00000000 </v>
   <v>       0.41666667       0.16666667       0.00000000 </v>
   <v>       0.45833333       0.16666667       0.00000000 </v>
   <v>       0.50000000       0.16666667       0.00000000 </v>
   <v>       0.00000000       0.19444444       0.00000000 </v>
   <v>       0.04166667       0.19444444       0.00000000 </v>
   <v>       0.08333333       0.19444444       0.00000000 </v>
   <v>       0.12500000       0.19444444       0.00000000 </v>
   <v>       0.16666667       0.19444444       0.00000000 </v>
   <v>       0.20833333       0.19444444       0.00000000 </v>
   <v>       0.25000000       0.19444444       0.00000000 </v>
   <v>       0.29166667       0.19444444       0.00000000 </v>
   <v>       0.33333333       0.19444444       0.00000000 </v>
   <v>       0.37500000       0.19444444       0.00000000 </v>
   <v>       0.41666667       0.19444444       0.00000000 </v>
   <v>       0.45833333       0.19444444       0.00000000 </v>
   <v>       0.50000000       0.19444444       0.00000000 </v>
   <v>       0.00000000       0.22222222       0.00000000 </v>
   <v>       0.04166667       0.22222222       0.00000000 </v>
   <v>       0.08333333       0.22222222       0.00000000 </v>
   <v>       0.12500000       0.22222222       0.00000000 </v>
   <v>       0.16666667       0.22222222       0.00000000 </v>
   <v>       0.20833333       0.22222222       0.00000000 </v>
   <v>       0.25000000       0.22222222       0.00000000 </v>
   <v>       0.29166667       0.22222222       0.00000000 </v>
   <v>       0.33333333       0.22222222       0.00000000 </v>
   <v>       0.37500000       0.22222222       0.00000000 </v>
   <v>       0.41666667       0.22222222       0.00000000 </v>
   <v>       0.45833333       0.22222222       0.00000000 </v>
   <v>       0.50000000       0.22222222       0.00000000 </v>
   <v>       0.00000000       0.25000000       0.00000000 </v>
   <v>       0.04166667       0.25000000       0.00000000 </v>
   <v>       0.08333333       0.25000000       0.00000000 </v>
   <v>       0.12500000       0.25000000       0.00000000 </v>
   <v>       0.16666667       0.25000000       0.00000000 </v>
   <v>       0.20833333       0.25000000       0.00000000 </v>
   <v>       0.25000000       0.25000000       0.00000000 </v>
   <v>       0.29166667       0.25000000       0.00000000 </v>
   <v>       0.33333333       0.25000000       0.00000000 </v>
   <v>       0.37500000       0.25000000       0.00000000 </v>
   <v>       0.41666667       0.25000000       0.00000000 </v>
   <v>       0.45833333       0.25000000       0.00000000 </v>
   <v>       0.50000000       0.25000000       0.00000000 </v>
   <v>       0.00000000       0.27777778       0.00000000 </v>
   <v>       0.04166667       0.27777778       0.00000000 </v>
   <v>       0.08333333       0.27777778       0.00000000 </v>
   <v>       0.12500000       0.27777778       0.00000000 </v>
   <v>       0.16666667       0.27777778       0.00000000 </v>
   <v>       0.20833333       0.27777778       0.00000000 </v>
   <v>       0.25000000       0.27777778       0.00000000 </v>
   <v>       0.29166667       0.27777778       0.00000000 </v>
   <v>       0.33333333       0.27777778       0.00000000 </v>
   <v>       0.37500000       0.27777778       0.00000000 </v>
   <v>       0.41666667       0.27777778       0.00000000 </v>
   <v>       0.45833333       0.27777778       0.00000000 </v>
   <v>       0.50000000       0.27777778       0.00000000 </v>
   <v>       0.00000000       0.30555556       0.00000000 </v>
   <v>       0.04166667       0.30555556       0.00000000 </v>
   <v>       0.08333333       0.30555556       0.00000000 </v>
   <v>       0.12500000       0.30555556       0.00000000 </v>
   <v>       0.16666667       0.30555556       0.00000000 </v>
   <v>       0.20833333       0.30555556       0.00000000 </v>
   <v>       0.25000000       0.30555556       0.00000000 </v>
   <v>       0.29166667       0.30555556       0.00000000 </v>
   <v>       0.33333333       0.30555556       0.00000000 </v>
   <v>       0.37500000       0.30555556       0.00000000 </v>
   <v>       0.41666667       0.30555556       0.00000000 </v>
   <v>       0.45833333       0.30555556       0.00000000 </v>
   <v>       0.50000000       0.30555556       0.00000000 </v>
   <v>       0.00000000       0.33333333       0.00000000 </v>
   <v>       0.04166667       0.33333333       0.00000000 </v>
   <v>       0.08333333       0.33333333       0.00000000 </v>
   <v>       0.12500000       0.33333333       0.00000000 </v>
   <v>       0.16666667       0.33333333       0.00000000 </v>
   <v>       0.20833333       0.33333333       0.00000000 </v>
   <v>       0.25000000       0.33333333       0.00000000 </v>
   <v>       0.29166667       0.33333333       0.00000000 </v>
   <v>       0.33333333       0.33333333       0.00000000 </v>
   <v>       0.37500000       0.33333333       0.00000000 </v>
   <v>       0.41666667       0.33333333       0.00000000 </v>
   <v>       0.45833333       0.33333333       0.00000000 </v>
   <v>       0.50000000       0.33333333       0.00000000 </v>
   <v>       0.00000000       0.36111111       0.00000000 </v>
   <v>       0.04166667       0.36111111       0.00000000 </v>
   <v>       0.08333333       0.36111111       0.00000000 </v>
   <v>       0.12500000       0.36111111       0.00000000 </v>
   <v>       0.16666667       0.36111111       0.00000000 </v>
   <v>       0.20833333       0.36111111       0.00000000 </v>
   <v>       0.25000000       0.36111111       0.00000000 </v>
   <v>       0.29166667       0.36111111       0.00000000 </v>
   <v>       0.33333333       0.36111111       0.00000000 </v>
   <v>       0.37500000       0.36111111       0.00000000 </v>
   <v>       0.41666667       0.36111111       0.00000000 </v>
   <v>       0.45833333       0.36111111       0.00000000 </v>
   <v>       0.50000000       0.36111111       0.00000000 </v>
   <v>       0.00000000       0.38888889       0.00000000 </v>
   <v>       0.04166667       0.38888889       0.00000000 </v>
   <v>       0.08333333       0.38888889       0.00000000 </v>
   <v>       0.12500000       0.38888889       0.00000000 </v>
   <v>       0.16666667       0.38888889       0.00000000 </v>
   <v>       0.20833333       0.38888889       0.00000000 </v>
   <v>       0.25000000       0.38888889       0.00000000 </v>
   <v>       0.29166667       0.38888889       0.00000000 </v>
   <v>       0.33333333       0.38888889       0.00000000 </v>
   <v>       0.37500000       0.38888889       0.00000000 </v>
   <v>       0.41666667       0.38888889       0.00000000 </v>
   <v>       0.45833333       0.38888889       0.00000000 </v>
   <v>       0.50000000       0.38888889       0.00000000 </v>
   <v>       0.00000000       0.41666667       0.00000000 </v>
   <v>       0.04166667       0.41666667       0.00000000 </v>
   <v>       0.08333333       0.41666667       0.00000000 </v>
   <v>       0.12500000       0.41666667       0.00000000 </v>
   <v>       0.16666667       0.41666667       0.00000000 </v>
   <v>       0.20833333       0.41666667       0.00000000 </v>
   <v>       0.25000000       0.41666667       0.00000000 </v>
   <v>       0.29166667       0.41666667       0.00000000 </v>
   <v>       0.33333333       0.41666667       0.00000000 </v>
   <v>       0.37500000       0.41666667       0.00000000 </v>
   <v>       0.41666667       0.41666667       0.00000000 </v>
   <v>       0.45833333       0.41666667       0.00000000 </v>
   <v>       0.50000000       0.41666667       0.00000000 </v>
   <v>       0.00000000       0.44444444       0.00000000 </v>
   <v>       0.04166667       0.44444444       0.00000000 </v>
   <v>       0.08333333       0.44444444       0.00000000 </v>
   <v>       0.12500000       0.44444444       0.00000000 </v>
   <v>       0.16666667       0.44444444       0.00000000 </v>
   <v>       0.20833333       0.44444444       0.00000000 </v>
   <v>       0.25000000       0.44444444       0.00000000 </v>
   <v>       0.29166667       0.44444444       0.00000000 </v>
   <v>       0.33333333       0.44444444       0.00000000 </v>
   <v>       0.37500000       0.44444444       0.00000000 </v>
   <v>       0.41666667       0.44444444       0.00000000 </v>
   <v>       0.45833333       0.44444444       0.00000000 </v>
   <v>       0.50000000       0.44444444       0.00000000 </v>
   <v>       0.00000000       0.47222222       0.00000000 </v>
   <v>       0.04166667       0.47222222       0.00000000 </v>
   <v>       0.08333333       0.47222222       0.00000000 </v>
   <v>       0.12500000       0.47222222       0.00000000 </v>
   <v>       0.16666667       0.47222222       0.00000000 </v>
   <v>       0.20833333       0.47222222       0.00000000 </v>
   <v>       0.25000000       0.47222222       0.00000000 </v>
   <v>       0.29166667       0.47222222       0.00000000 </v>
   <v>       0.33333333       0.47222222       0.00000000 </v>
   <v>       0.37500000       0.47222222       0.00000000 </v>
   <v>       0.41666667       0.47222222       0.00000000 </v>
   <v>       0.45833333       0.47222222       0.00000000 </v>
   <v>       0.50000000       0.47222222       0.00000000 </v>
   <v>       0.00000000       0.50000000       0.00000000 </v>
   <v>       0.04166667       0.50000000       0.00000000 </v>
   <v>       0.08333333       0.50000000       0.00000000 </v>
   <v>       0.12500000       0.50000000       0.00000000 </v>
   <v>       0.16666667       0.50000000       0.00000000 </v>
   <v>       0.20833333       0.50000000       0.00000000 </v>
   <v>       0.25000000       0.50000000       0.00000000 </v>
   <v>       0.29166667       0.50000000       0.00000000 </v>
   <v>       0.33333333       0.50000000       0.00000000 </v>
   <v>       0.37500000       0.50000000       0.00000000 </v>
   <v>       0.41666667       0.50000000       0.00000000 </v>
   <v>       0.45833333       0.50000000       0.00000000 </v>
   <v>       0.50000000       0.50000000       0.00000000 </v>
  </varray>
  <varray name="weights" >
   <v>       0.00115741 </v>
   <v>       0.00231481 </v>
   <v>       0.00231481 </v>
   <v>       0.00231481 </v>
   <v>       0.00231481 </v>
   <v>       0.00231481 </v>
   <v>       0.00231481 </v>
   <v>       0.00231481 </v>
   <v>       0.00231481 </v>
   <v>       0.00231481 </v>
   <v>       0.00231481 </v>
   <v>       0.00231481 </v>
   <v>       0.00115741 </v>
   <v>       0.00231481 </v>
   <v>       0.00462963 </v>
   <v>       0.00462963 </v>
   <v>       0.00462963 </v>
   <v>       0.00462963 </v>
   <v>       0.00462963 </v>
   <v>       0.00462963 </v>
   <v>       0.00462963 </v>
   <v>       0.00462963 </v>
   <v>       0.00462963 </v>
   <v>       0.00462963 </v>
   <v>       0.00462963 </v>
   <v>       0.00231481 </v>
   <v>       0.00231481 </v>
   <v>       0.00462963 </v>
   <v>       0.00462963 </v>
   <v>       0.00462963 </v>
   <v>       0.00462963 </v>
   <v>       0.00462963 </v>
   <v>       0.00462963 </v>
   <v>       0.00462963 </v>
   <v>       0.00462963 </v>
   <v>       0.00462963 </v>
   <v>       0.00462963 </v>
   <v>       0.00462963 </v>
   <v>       0.00231481 </v>
   <v>       0.00231481 </v>
   <v>       0.00462963 </v>
   <v>       0.00462963 </v>
   <v>       0.00462963 </v>
   <v>       0.00462963 </v>
   <v>       0.00462963 </v>
   <v>       0.00462963 </v>
   <v>       0.00462963 </v>
   <v>       0.00462963 </v>
   <v>       0.00462963 </v>
   <v>       0.00462963 </v>
   <v>       0.00462963 </v>
   <v>       0.00231481 </v>
   <v>       0.00231481 </v>
   <v>       0.00462963 </v>
   <v>       0.00462963 </v>
   <v>       0.00462963 </v>
   <v>       0.00462963 </v>
   <v>       0.00462963 </v>
   <v>       0.00462963 </v>
   <v>       0.00462963 </v>
   <v>       0.00462963 </v>
   <v>       0.00462963 </v>
   <v>       0.00462963 </v>
   <v>       0.00462963 </v>
   <v>       0.00231481 </v>
   <v>       0.00231481 </v>
   <v>       0.00462963 </v>
   <v>       0.00462963 </v>
   <v>       0.00462963 </v>
   <v>       0.00462963 </v>
   <v>       0.00462963 </v>
   <v>       0.00462963 </v>
   <v>       0.00462963 </v>
   <v>       0.00462963 </v>
   <v>       0.00462963 </v>
   <v>       0.00462963 </v>
   <v>       0.00462963 </v>
   <v>       0.00231481 </v>
   <v>       0.00231481 </v>
   <v>       0.00462963 </v>
   <v>       0.00462963 </v>
   <v>       0.00462963 </v>
   <v>       0.00462963 </v>
   <v>       0.00462963 </v>
   <v>       0.00462963 </v>
   <v>       0.00462963 </v>
   <v>       0.00462963 </v>
   <v>       0.00462963 </v>
   <v>       0.00462963 </v>
   <v>       0.00462963 </v>
   <v>       0.00231481 </v>
   <v>       0.00231481 </v>
   <v>       0.00462963 </v>
   <v>       0.00462963 </v>
   <v>       0.00462963 </v>
   <v>       0.00462963 </v>
   <v>       0.00462963 </v>
   <v>       0.00462963 </v>
   <v>       0.00462963 </v>
   <v>       0.00462963 </v>
   <v>       0.00462963 </v>
   <v>       0.00462963 </v>
   <v>       0.00462963 </v>
   <v>       0.00231481 </v>
   <v>       0.00231481 </v>
   <v>       0.00462963 </v>
   <v>       0.00462963 </v>
   <v>       0.00462963 </v>
   <v>       0.00462963 </v>
   <v>       0.00462963 </v>
   <v>       0.00462963 </v>
   <v>       0.00462963 </v>
   <v>       0.00462963 </v>
   <v>       0.00462963 </v>
   <v>       0.00462963 </v>
   <v>       0.00462963 </v>
   <v>       0.00231481 </v>
   <v>       0.00231481 </v>
   <v>       0.00462963 </v>
   <v>       0.00462963 </v>
   <v>       0.00462963 </v>
   <v>       0.00462963 </v>
   <v>       0.00462963 </v>
   <v>       0.00462963 </v>
   <v>       0.00462963 </v>
   <v>       0.00462963 </v>
   <v>       0.00462963 </v>
   <v>       0.00462963 </v>
   <v>       0.00462963 </v>
   <v>       0.00231481 </v>
   <v>       0.00231481 </v>
   <v>       0.00462963 </v>
   <v>       0.00462963 </v>
   <v>       0.00462963 </v>
   <v>       0.00462963 </v>
   <v>       0.00462963 </v>
   <v>       0.00462963 </v>
   <v>       0.00462963 </v>
   <v>       0.00462963 </v>
   <v>       0.00462963 </v>
   <v>       0.00462963 </v>
   <v>       0.00462963 </v>
   <v>       0.00231481 </v>
   <v>       0.00231481 </v>
   <v>       0.00462963 </v>
   <v>       0.00462963 </v>
   <v>       0.00462963 </v>
   <v>       0.00462963 </v>
   <v>       0.00462963 </v>
   <v>       0.00462963 </v>
   <v>       0.00462963 </v>
   <v>       0.00462963 </v>
   <v>       0.00462963 </v>
   <v>       0.00462963 </v>
   <v>       0.00462963 </v>
   <v>       0.00231481 </v>
   <v>       0.00231481 </v>
   <v>       0.00462963 </v>
   <v>       0.00462963 </v>
   <v>       0.00462963 </v>
   <v>       0.00462963 </v>
   <v>       0.00462963 </v>
   <v>       0.00462963 </v>
   <v>       0.00462963 </v>
   <v>       0.00462963 </v>
   <v>       0.00462963 </v>
   <v>       0.00462963 </v>
   <v>       0.00462963 </v>
   <v>       0.00231481 </v>
   <v>       0.00231481 </v>
   <v>       0.00462963 </v>
   <v>       0.00462963 </v>
   <v>       0.00462963 </v>
   <v>       0.00462963 </v>
   <v>       0.00462963 </v>
   <v>       0.00462963 </v>
   <v>       0.00462963 </v>
   <v>       0.00462963 </v>
   <v>       0.00462963 </v>
   <v>       0.00462963 </v>
   <v>       0.00462963 </v>
   <v>       0.00231481 </v>
   <v>       0.00231481 </v>
   <v>       0.00462963 </v>
   <v>       0.00462963 </v>
   <v>       0.00462963 </v>
   <v>       0.00462963 </v>
   <v>       0.00462963 </v>
   <v>       0.00462963 </v>
   <v>       0.00462963 </v>
   <v>       0.00462963 </v>
   <v>       0.00462963 </v>
   <v>       0.00462963 </v>
   <v>       0.00462963 </v>
   <v>       0.00231481 </v>
   <v>       0.00231481 </v>
   <v>       0.00462963 </v>
   <v>       0.00462963 </v>
   <v>       0.00462963 </v>
   <v>       0.00462963 </v>
   <v>       0.00462963 </v>
   <v>       0.00462963 </v>
   <v>       0.00462963 </v>
   <v>       0.00462963 </v>
   <v>       0.00462963 </v>
   <v>       0.00462963 </v>
   <v>       0.00462963 </v>
   <v>       0.00231481 </v>
   <v>       0.00231481 </v>
   <v>       0.00462963 </v>
   <v>       0.00462963 </v>
   <v>       0.00462963 </v>
   <v>       0.00462963 </v>
   <v>       0.00462963 </v>
   <v>       0.00462963 </v>
   <v>       0.00462963 </v>
   <v>       0.00462963 </v>
   <v>       0.00462963 </v>
   <v>       0.00462963 </v>
   <v>       0.00462963 </v>
   <v>       0.00231481 </v>
   <v>       0.00231481 </v>
   <v>       0.00462963 </v>
   <v>       0.00462963 </v>
   <v>       0.00462963 </v>
   <v>       0.00462963 </v>
   <v>       0.00462963 </v>
   <v>       0.00462963 </v>
   <v>       0.00462963 </v>
   <v>       0.00462963 </v>
   <v>       0.00462963 </v>
   <v>       0.00462963 </v>
   <v>       0.00462963 </v>
   <v>       0.00231481 </v>
   <v>       0.00115741 </v>
   <v>       0.00231481 </v>
   <v>       0.00231481 </v>
   <v>       0.00231481 </v>
   <v>       0.00231481 </v>
   <v>       0.00231481 </v>
   <v>       0.00231481 </v>
   <v>       0.00231481 </v>
   <v>       0.00231481 </v>
   <v>       0.00231481 </v>
   <v>       0.00231481 </v>
   <v>       0.00231481 </v>
   <v>       0.00115741 </v>
  </varray>
 </kpoints>
 <parameters>
  <separator name="general" >
   <i type="string" name="SYSTEM">gr</i>
   <i type="logical" name="LCOMPAT"> F  </i>
  </separator>
  <separator name="electronic" >
   <i type="string" name="PREC">accura</i>
   <i name="ENMAX">   2000.00000000</i>
   <i name="ENAUG">    644.87300000</i>
   <i name="EDIFF">      0.00000000</i>
   <i type="int" name="IALGO">    68</i>
   <i type="int" name="IWAVPR">    11</i>
   <i type="int" name="NBANDS">    12</i>
   <i name="NELECT">     16.00000000</i>
   <i type="int" name="TURBO">     0</i>
   <i type="int" name="IRESTART">     0</i>
   <i type="int" name="NREBOOT">     0</i>
   <i type="int" name="NMIN">     0</i>
   <i name="EREF">      0.00000000</i>
   <separator name="electronic smearing" >
    <i type="int" name="ISMEAR">     0</i>
    <i name="SIGMA">      0.05000000</i>
    <i name="KSPACING">      0.50000000</i>
    <i type="logical" name="KGAMMA"> T  </i>
   </separator>
   <separator name="electronic projectors" >
    <i type="logical" name="LREAL"> F  </i>
    <v name="ROPT">      0.00000000</v>
    <i type="int" name="LMAXPAW">  -100</i>
    <i type="int" name="LMAXMIX">     2</i>
    <i type="logical" name="NLSPLINE"> F  </i>
   </separator>
   <separator name="electronic startup" >
    <i type="int" name="ISTART">     0</i>
    <i type="int" name="ICHARG">     2</i>
    <i type="int" name="INIWAV">     1</i>
   </separator>
   <separator name="electronic spin" >
    <i type="int" name="ISPIN">     1</i>
    <i type="logical" name="LNONCOLLINEAR"> F  </i>
    <v name="MAGMOM">      1.00000000      1.00000000      1.00000000      1.00000000</v>
    <i name="NUPDOWN">     -1.00000000</i>
    <i type="logical" name="LSORBIT"> F  </i>
    <v name="SAXIS">      0.00000000      0.00000000      1.00000000</v>
    <i type="logical" name="LSPIRAL"> F  </i>
    <v name="QSPIRAL">      0.00000000      0.00000000      0.00000000</v>
    <i type="logical" name="LZEROZ"> F  </i>
   </separator>
   <separator name="electronic exchange-correlation" >
    <i type="logical" name="LASPH"> F  </i>
    <i type="logical" name="LMETAGGA"> F  </i>
   </separator>
   <separator name="electronic convergence" >
    <i type="int" name="NELM">   100</i>
    <i type="int" name="NELMDL">    -3</i>
    <i type="int" name="NELMIN">     5</i>
    <i name="ENINI">   2000.00000000</i>
    <separator name="electronic convergence detail" >
     <i type="logical" name="LDIAG"> T  </i>
     <i type="logical" name="LSUBROT"> F  </i>
     <i name="WEIMIN">      0.00100000</i>
     <i name="EBREAK">      0.00000000</i>
     <i name="DEPER">      0.30000000</i>
     <i type="int" name="NRMM">     4</i>
     <i name="TIME">      0.40000000</i>
    </separator>
   </separator>
   <separator name="electronic mixer" >
    <i name="AMIX">      0.40000000</i>
    <i name="BMIX">      1.00000000</i>
    <i name="AMIN">      0.10000000</i>
    <i name="AMIX_MAG">      1.60000000</i>
    <i name="BMIX_MAG">      1.00000000</i>
    <separator name="electronic mixer details" >
     <i type="int" name="IMIX">     4</i>
     <i type="int" name="MAXMIX">   -45</i>
     <i name="WC">    100.00000000</i>
     <i type="int" name="INIMIX">     1</i>
     <i type="int" name="MIXPRE">     1</i>
     <i type="int" name="MREMOVE">     5</i>
    </separator>
   </separator>
   <separator name="electronic dipolcorrection" >
    <i type="logical" name="LDIPOL"> F  </i>
    <i type="logical" name="LMONO"> F  </i>
    <i type="int" name="IDIPOL">     0</i>
    <i name="EPSILON">      1.00000000</i>
    <v name="DIPOL">   -100.00000000   -100.00000000   -100.00000000</v>
    <i name="EFIELD">      0.00000000</i>
   </separator>
  </separator>
  <separator name="grids" >
   <i type="int" name="NGX">    64</i>
   <i type="int" name="NGY">    36</i>
   <i type="int" name="NGZ">   294</i>
   <i type="int" name="NGXF">   128</i>
   <i type="int" name="NGYF">    72</i>
   <i type="int" name="NGZF">   588</i>
   <i type="logical" name="ADDGRID"> F  </i>
  </separator>
  <separator name="ionic" >
   <i type="int" name="NSW">   400</i>
   <i type="int" name="IBRION">     1</i>
   <i type="int" name="ISIF">     2</i>
   <i name="PSTRESS">      0.00000000</i>
   <i name="EDIFFG">     -0.00000100</i>
   <i type="int" name="NFREE">     0</i>
   <i name="POTIM">      0.50000000</i>
   <i name="SMASS">     -3.00000000</i>
   <i name="SCALEE">      1.00000000</i>
  </separator>
  <separator name="ionic md" >
   <i name="TEBEG">      0.00010000</i>
   <i name="TEEND">      0.00010000</i>
   <i type="int" name="NBLOCK">     1</i>
   <i type="int" name="KBLOCK">   400</i>
   <i type="int" name="NPACO">   256</i>
   <i name="APACO">     16.00000000</i>
  </separator>
  <separator name="symmetry" >
   <i type="int" name="ISYM">     2</i>
   <i name="SYMPREC">      0.00001000</i>
  </separator>
  <separator name="dos" >
   <i type="logical" name="LORBIT"> F  </i>
   <v name="RWIGS">     -1.00000000</v>
   <i type="int" name="NEDOS">   301</i>
   <i name="EMIN">     10.00000000</i>
   <i name="EMAX">    -10.00000000</i>
   <i name="EFERMI">      0.00000000</i>
  </separator>
  <separator name="writing" >
   <i type="int" name="NWRITE">     2</i>
   <i type="logical" name="LWAVE"> F  </i>
   <i type="logical" name="LCHARG"> F  </i>
   <i type="logical" name="LPARD"> F  </i>
   <i type="logical" name="LVTOT"> F  </i>
   <i type="logical" name="LVHAR"> F  </i>
   <i type="logical" name="LELF"> F  </i>
   <i type="logical" name="LOPTICS"> F  </i>
   <v name="STM">      0.00000000      0.00000000      0.00000000      0.00000000      0.00000000      0.00000000      0.00000000</v>
  </separator>
  <separator name="performance" >
   <i type="int" name="NPAR">     4</i>
   <i type="int" name="NSIM">     4</i>
   <i type="int" name="NBLK">    -1</i>
   <i type="logical" name="LPLANE"> T  </i>
   <i type="logical" name="LSCALAPACK"> F  </i>
   <i type="logical" name="LSCAAWARE"> F  </i>
   <i type="logical" name="LSCALU"> F  </i>
   <i type="logical" name="LASYNC"> F  </i>
   <i type="logical" name="LORBITALREAL"> F  </i>
  </separator>
  <separator name="miscellaneous" >
   <i type="int" name="IDIOT">     3</i>
   <i type="logical" name="LMUSIC"> F  </i>
   <v name="POMASS">     12.01100000</v>
   <v name="DARWINR">      0.00000000</v>
   <v name="DARWINV">      1.00000000</v>
   <i type="logical" name="LCORR"> T  </i>
  </separator>
  <i type="logical" name="GGA_COMPAT"> T  </i>
  <i type="logical" name="LBERRY"> F  </i>
  <i type="int" name="ICORELEVEL">     0</i>
  <i type="logical" name="LDAU"> F  </i>
  <i type="int" name="I_CONSTRAINED_M">     0</i>
  <separator name="electronic exchange-correlation" >
   <i type="string" name="GGA">--</i>
   <i type="int" name="VOSKOWN">     0</i>
   <i type="logical" name="LHFCALC"> F  </i>
   <i type="string" name="PRECFOCK"></i>
   <i type="logical" name="LSYMGRAD"> F  </i>
   <i type="logical" name="LHFONE"> F  </i>
   <i type="logical" name="LRHFCALC"> F  </i>
   <i type="logical" name="LTHOMAS"> F  </i>
   <i type="logical" name="LMODELHF"> F  </i>
   <i name="ENCUT4O">     -1.00000000</i>
   <i type="int" name="EXXOEP">     0</i>
   <i type="int" name="FOURORBIT">     0</i>
   <i name="AEXX">      0.00000000</i>
   <i name="HFALPHA">      0.00000000</i>
   <i name="MCALPHA">      0.00000000</i>
   <i name="ALDAX">      1.00000000</i>
   <i name="AGGAX">      1.00000000</i>
   <i name="ALDAC">      1.00000000</i>
   <i name="AGGAC">      1.00000000</i>
   <i type="int" name="NKREDX">     1</i>
   <i type="int" name="NKREDY">     1</i>
   <i type="int" name="NKREDZ">     1</i>
   <i type="logical" name="SHIFTRED"> F  </i>
   <i type="logical" name="ODDONLY"> F  </i>
   <i type="logical" name="EVENONLY"> F  </i>
   <i type="int" name="LMAXFOCK">     0</i>
   <i type="int" name="NMAXFOCKAE">     0</i>
   <i type="logical" name="LFOCKAEDFT"> F  </i>
   <i name="HFSCREEN">      0.00000000</i>
   <i name="HFSCREENC">      0.00000000</i>
   <i type="int" name="NBANDSGWLOW">     0</i>
  </separator>
  <separator name="vdW DFT" >
   <i type="logical" name="LUSE_VDW"> F  </i>
   <i name="Zab_VDW">     -0.84910000</i>
   <i name="PARAM1">      0.12340000</i>
   <i name="PARAM2">      1.00000000</i>
   <i name="PARAM3">      0.00000000</i>
  </separator>
  <separator name="model GW" >
   <i type="int" name="MODEL_GW">     0</i>
   <i name="MODEL_EPS0">     31.62568521</i>
   <i name="MODEL_ALPHA">      1.00000000</i>
  </separator>
  <separator name="linear response parameters" >
   <i type="logical" name="LEPSILON"> F  </i>
   <i type="logical" name="LRPA"> F  </i>
   <i type="logical" name="LNABLA"> F  </i>
   <i type="logical" name="LVEL"> F  </i>
   <i type="int" name="KINTER">     0</i>
   <i name="CSHIFT">      0.10000000</i>
   <i name="OMEGAMAX">     -1.00000000</i>
   <i name="DEG_THRESHOLD">      0.00200000</i>
  </separator>
  <separator name="orbital magnetization" >
   <i type="logical" name="NUCIND"> F  </i>
   <v name="MAGPOS">      0.00000000      0.00000000      0.00000000</v>
   <i type="logical" name="LNICSALL"> T  </i>
   <i type="logical" name="ORBITALMAG"> F  </i>
   <i type="logical" name="LMAGBLOCH"> F  </i>
   <i type="logical" name="LCHIMAG"> F  </i>
   <i type="logical" name="LGAUGE"> T  </i>
   <i type="int" name="MAGATOM">     0</i>
   <v name="MAGDIPOL">      0.00000000      0.00000000      0.00000000</v>
   <v name="AVECCONST">      0.00000000      0.00000000      0.00000000</v>
  </separator>
  <separator name="response functions" >
   <i type="logical" name="LADDER"> F  </i>
   <i type="logical" name="LFXC"> F  </i>
   <i type="logical" name="LHARTREE"> T  </i>
   <i type="int" name="IBSE">     0</i>
   <i type="logical" name="LTCTE"> F  </i>
   <i type="logical" name="LTETE"> F  </i>
   <i type="logical" name="LTRIPLET"> F  </i>
   <i type="logical" name="LFXCEPS"> F  </i>
   <i type="logical" name="LFXHEG"> F  </i>
   <i type="logical" name="L2ORDER"> F  </i>
   <i type="logical" name="LUSEW"> F  </i>
   <i name="ENCUTGW">     -2.00000000</i>
   <i name="ENCUTGWSOFT">     -2.00000000</i>
   <i name="ENCUTLF">     -1.00000000</i>
   <i type="int" name="LMAXMP2">    -1</i>
   <i name="SCISSOR">      0.00000000</i>
   <i type="int" name="NOMEGA">     0</i>
   <i type="int" name="NOMEGAR">     0</i>
   <i type="int" name="NBANDSGW">    -1</i>
   <i type="int" name="NBANDSO">    -1</i>
   <i type="int" name="NBANDSV">    -1</i>
   <i type="int" name="NELM">   100</i>
   <i type="int" name="DIM">     3</i>
   <i type="int" name="ANTIRES">     0</i>
   <i name="OMEGAMAX">    -30.00000000</i>
   <i name="OMEGAMIN">    -30.00000000</i>
   <i name="OMEGATL">   -200.00000000</i>
   <i type="int" name="OMEGAGRID">     0</i>
   <i name="CSHIFT">     -0.10000000</i>
   <i type="logical" name="SELFENERGY"> F  </i>
   <i type="logical" name="LSPECTRAL"> F  </i>
   <i type="logical" name="ODDONLYGW"> F  </i>
   <i type="logical" name="EVENONLYGW"> F  </i>
   <i type="int" name="NKREDLFX">     1</i>
   <i type="int" name="NKREDLFY">     1</i>
   <i type="int" name="NKREDLFZ">     1</i>
   <i type="int" name="MAXMEM">  1800</i>
   <i type="int" name="TELESCOPE">     0</i>
   <i type="int" name="TAUPAR">     1</i>
  </separator>
  <separator name="External order field" >
   <i name="OFIELD_KAPPA">      0.00000000</i>
   <v name="OFIELD_K">      0.00000000      0.00000000      0.00000000</v>
   <i name="OFIELD_Q6_NEAR">      0.00000000</i>
   <i name="OFIELD_Q6_FAR">      0.00000000</i>
   <i name="OFIELD_A">      0.00000000</i>
  </separator>
 </parameters>
 <atominfo>
  <atoms>       4 </atoms>
  <types>       1 </types>
  <array name="atoms" >
   <dimension dim="1">ion</dimension>
   <field type="string">element</field>
   <field type="int">atomtype</field>
   <set>
    <rc><c>C </c><c>   1</c></rc>
    <rc><c>C </c><c>   1</c></rc>
    <rc><c>C </c><c>   1</c></rc>
    <rc><c>C </c><c>   1</c></rc>
   </set>
  </array>
  <array name="atomtypes" >
   <dimension dim="1">type</dimension>
   <field type="int">atomspertype</field>
   <field type="string">element</field>
   <field>mass</field>
   <field>valence</field>
   <field type="string">pseudopotential</field>
   <set>
    <rc><c>   4</c><c>C </c><c>     12.01100000</c><c>      4.00000000</c><c> PAW_PBE C 08Apr2002                    </c></rc>
   </set>
  </array>
 </atominfo>
 <structure name="initialpos" >
  <crystal>
   <varray name="basis" >
    <v>       4.26551216       0.00000000       0.00000000 </v>
    <v>       0.00000000       2.49234360       0.00000000 </v>
    <v>       0.00000000       0.00000000      19.83214023 </v>
   </varray>
   <i name="volume">    210.83790140 </i>
   <varray name="rec_basis" >
    <v>       0.23443844       0.00000000       0.00000000 </v>
    <v>       0.00000000       0.40122879       0.00000000 </v>
    <v>       0.00000000       0.00000000       0.05042320 </v>
   </varray>
  </crystal>
  <varray name="positions" >
   <v>       0.00026568       0.00000000       0.00000000 </v>
   <v>       0.16640099       0.50000000       0.00000000 </v>
   <v>       0.50026568       0.50000000       0.00000000 </v>
   <v>       0.66640099       0.00000000       0.00000000 </v>
  </varray>
 </structure>
 <calculation>
  <scstep>
   <time name="dav">  291.75  293.34</time>
   <time name="total">  294.33  295.94</time>
   <energy>
    <i name="alphaZ">      6.18334092 </i>
    <i name="ewald">   2530.17412260 </i>
    <i name="hartreedc">  -2957.25023119 </i>
    <i name="XCdc">     54.98296576 </i>
    <i name="pawpsdc">    151.32577238 </i>
    <i name="pawaedc">   -155.92769107 </i>
    <i name="eentropy">     -0.00126048 </i>
    <i name="bandstr">    -28.84068221 </i>
    <i name="atom">    588.62352690 </i>
    <i name="e_fr_energy">    189.26986361 </i>
    <i name="e_wo_entrp">    189.27112409 </i>
    <i name="e_0_energy">    189.27049385 </i>
   </energy>
  </scstep>
  <scstep>
   <time name="dav">  445.45  446.32</time>
   <time name="total">  445.46  446.33</time>
   <energy>
    <i name="e_fr_energy">     -9.24012560 </i>
    <i name="e_wo_entrp">     -9.23970621 </i>
    <i name="e_0_energy">     -9.23991591 </i>
   </energy>
  </scstep>
  <scstep>
   <time name="dav">  335.25  337.27</time>
   <time name="total">  365.43  367.67</time>
   <energy>
    <i name="e_fr_energy">    -38.29724210 </i>
    <i name="e_wo_entrp">    -38.29724138 </i>
    <i name="e_0_energy">    -38.29724174 </i>
   </energy>
  </scstep>
  <scstep>
   <time name="diag">   79.51   79.93</time>
   <time name="diis">  344.02  344.84</time>
   <time name="orth">    3.08    3.08</time>
   <time name="total">  459.36  460.72</time>
   <energy>
    <i name="e_fr_energy">    -37.67040801 </i>
    <i name="e_wo_entrp">    -37.67035655 </i>
    <i name="e_0_energy">    -37.67038228 </i>
   </energy>
  </scstep>
  <scstep>
   <time name="diag">   79.79   80.05</time>
   <time name="diis">  341.19  341.95</time>
   <time name="orth">    3.09    3.10</time>
   <time name="total">  457.04  458.20</time>
   <energy>
    <i name="e_fr_energy">    -36.92427008 </i>
    <i name="e_wo_entrp">    -36.92424050 </i>
    <i name="e_0_energy">    -36.92425529 </i>
   </energy>
  </scstep>
  <scstep>
   <time name="diag">   79.25   79.94</time>
   <time name="diis">  369.12  371.90</time>
   <time name="orth">    3.09    3.10</time>
   <time name="total">  484.15  487.97</time>
   <energy>
    <i name="e_fr_energy">    -36.92599104 </i>
    <i name="e_wo_entrp">    -36.92596210 </i>
    <i name="e_0_energy">    -36.92597657 </i>
   </energy>
  </scstep>
  <scstep>
   <time name="diag">   79.29   79.96</time>
   <time name="diis">  337.26  340.48</time>
   <time name="orth">    3.08    3.09</time>
   <time name="total">  452.19  456.48</time>
   <energy>
    <i name="e_fr_energy">    -36.91669415 </i>
    <i name="e_wo_entrp">    -36.91666735 </i>
    <i name="e_0_energy">    -36.91668075 </i>
   </energy>
  </scstep>
  <scstep>
   <time name="diag">   79.17   79.93</time>
   <time name="diis">  338.49  341.13</time>
   <time name="orth">    3.08    3.08</time>
   <time name="total">  453.22  457.20</time>
   <energy>
    <i name="e_fr_energy">    -36.91121882 </i>
    <i name="e_wo_entrp">    -36.91119156 </i>
    <i name="e_0_energy">    -36.91120519 </i>
   </energy>
  </scstep>
  <scstep>
   <time name="diag">   79.47   80.02</time>
   <time name="diis">  322.70  324.19</time>
   <time name="orth">    3.08    3.08</time>
   <time name="total">  438.09  440.41</time>
   <energy>
    <i name="e_fr_energy">    -36.91099301 </i>
    <i name="e_wo_entrp">    -36.91096481 </i>
    <i name="e_0_energy">    -36.91097891 </i>
   </energy>
  </scstep>
  <scstep>
   <time name="diag">   79.51   79.93</time>
   <time name="diis">  322.25  324.86</time>
   <time name="orth">    3.09    3.10</time>
   <time name="total">  437.56  440.89</time>
   <energy>
    <i name="e_fr_energy">    -36.91085162 </i>
    <i name="e_wo_entrp">    -36.91082399 </i>
    <i name="e_0_energy">    -36.91083781 </i>
   </energy>
  </scstep>
  <scstep>
   <time name="diag">   79.75   79.93</time>
   <time name="diis">  326.17  326.81</time>
   <time name="orth">    3.08    3.08</time>
   <time name="total">  442.01  442.90</time>
   <energy>
    <i name="e_fr_energy">    -36.91333737 </i>
    <i name="e_wo_entrp">    -36.91330999 </i>
    <i name="e_0_energy">    -36.91332368 </i>
   </energy>
  </scstep>
  <scstep>
   <time name="diag">   79.84   79.93</time>
   <time name="diis">  322.46  325.22</time>
   <time name="orth">    3.08    3.08</time>
   <time name="total">  437.99  441.32</time>
   <energy>
    <i name="e_fr_energy">    -36.91379391 </i>
    <i name="e_wo_entrp">    -36.91376630 </i>
    <i name="e_0_energy">    -36.91378011 </i>
   </energy>
  </scstep>
  <scstep>
   <time name="diag">   79.25   79.98</time>
   <time name="diis">  328.25  330.39</time>
   <time name="orth">    3.12    3.12</time>
   <time name="total">  443.24  446.17</time>
   <energy>
    <i name="e_fr_energy">    -36.91405162 </i>
    <i name="e_wo_entrp">    -36.91402397 </i>
    <i name="e_0_energy">    -36.91403780 </i>
   </energy>
  </scstep>
  <scstep>
   <time name="diag">   79.82   79.97</time>
   <time name="diis">  325.89  326.92</time>
   <time name="orth">    3.08    3.08</time>
   <time name="total">  441.26  442.63</time>
   <energy>
    <i name="e_fr_energy">    -36.91413440 </i>
    <i name="e_wo_entrp">    -36.91410682 </i>
    <i name="e_0_energy">    -36.91412061 </i>
   </energy>
  </scstep>
  <scstep>
   <time name="diag">   79.63   79.96</time>
   <time name="diis">  326.34  328.95</time>
   <time name="orth">    3.08    3.08</time>
   <time name="total">  441.65  444.70</time>
   <energy>
    <i name="e_fr_energy">    -36.91414353 </i>
    <i name="e_wo_entrp">    -36.91411592 </i>
    <i name="e_0_energy">    -36.91412973 </i>
   </energy>
  </scstep>
  <scstep>
   <time name="diag">   79.88   80.00</time>
   <time name="diis">  325.21  327.67</time>
   <time name="orth">    3.07    3.10</time>
   <time name="total">  440.84  443.94</time>
   <energy>
    <i name="e_fr_energy">    -36.91415552 </i>
    <i name="e_wo_entrp">    -36.91412789 </i>
    <i name="e_0_energy">    -36.91414171 </i>
   </energy>
  </scstep>
  <scstep>
   <time name="diag">   79.25   79.99</time>
   <time name="diis">  339.32  342.25</time>
   <time name="orth">    3.08    3.10</time>
   <time name="total">  454.29  458.26</time>
   <energy>
    <i name="e_fr_energy">    -36.91416025 </i>
    <i name="e_wo_entrp">    -36.91413264 </i>
    <i name="e_0_energy">    -36.91414645 </i>
   </energy>
  </scstep>
  <scstep>
   <time name="diag">   79.36   79.99</time>
   <time name="diis">  323.51  325.34</time>
   <time name="orth">    3.10    3.10</time>
   <time name="total">  438.91  441.48</time>
   <energy>
    <i name="e_fr_energy">    -36.91416149 </i>
    <i name="e_wo_entrp">    -36.91413388 </i>
    <i name="e_0_energy">    -36.91414768 </i>
   </energy>
  </scstep>
  <scstep>
   <time name="diag">   79.93   80.03</time>
   <time name="diis">  341.43  344.71</time>
   <time name="orth">    3.08    3.11</time>
   <time name="total">  456.84  460.59</time>
   <energy>
    <i name="e_fr_energy">    -36.91416225 </i>
    <i name="e_wo_entrp">    -36.91413464 </i>
    <i name="e_0_energy">    -36.91414844 </i>
   </energy>
  </scstep>
  <scstep>
   <time name="diag">   79.46   80.01</time>
   <time name="diis">  251.58  253.21</time>
   <time name="orth">    3.09    3.11</time>
   <time name="total">  366.70  369.10</time>
   <energy>
    <i name="e_fr_energy">    -36.91416231 </i>
    <i name="e_wo_entrp">    -36.91413469 </i>
    <i name="e_0_energy">    -36.91414850 </i>
   </energy>
  </scstep>
  <scstep>
   <time name="diag">   79.47   80.02</time>
   <time name="diis">  250.39  252.68</time>
   <time name="orth">    3.09    3.10</time>
   <time name="total">  365.58  368.76</time>
   <energy>
    <i name="e_fr_energy">    -36.91416232 </i>
    <i name="e_wo_entrp">    -36.91413471 </i>
    <i name="e_0_energy">    -36.91414852 </i>
   </energy>
  </scstep>
  <scstep>
   <time name="diag">   79.41   79.99</time>
   <time name="diis">  223.52  225.16</time>
   <time name="orth">    3.08    3.10</time>
   <time name="total">  338.64  341.14</time>
   <energy>
    <i name="e_fr_energy">    -36.91416232 </i>
    <i name="e_wo_entrp">    -36.91413471 </i>
    <i name="e_0_energy">    -36.91414852 </i>
   </energy>
  </scstep>
  <scstep>
   <time name="diag">   79.21   80.12</time>
   <time name="diis">  213.82  213.97</time>
   <time name="orth">    3.08    3.10</time>
   <time name="total">  329.20  330.31</time>
   <energy>
    <i name="e_fr_energy">    -36.91416233 </i>
    <i name="e_wo_entrp">    -36.91413471 </i>
    <i name="e_0_energy">    -36.91414852 </i>
   </energy>
  </scstep>
  <scstep>
   <time name="diag">   79.92   80.01</time>
   <time name="diis">  200.79  201.34</time>
   <time name="orth">    3.08    3.08</time>
   <time name="total">  286.30  286.95</time>
   <energy>
    <i name="alphaZ">      6.18334092 </i>
    <i name="ewald">   2530.17412260 </i>
    <i name="hartreedc">  -3024.26027291 </i>
    <i name="XCdc">     57.36693713 </i>
    <i name="pawpsdc">    273.67020611 </i>
    <i name="pawaedc">   -278.80357253 </i>
    <i name="eentropy">     -0.00002761 </i>
    <i name="bandstr">   -189.86842293 </i>
    <i name="atom">    588.62352690 </i>
    <i name="e_fr_energy">    -36.91416233 </i>
    <i name="e_wo_entrp">    -36.91413471 </i>
    <i name="e_0_energy">    -36.91414852 </i>
   </energy>
  </scstep>
  <structure>
   <crystal>
    <varray name="basis" >
     <v>       4.26551216       0.00000000       0.00000000 </v>
     <v>       0.00000000       2.49234360       0.00000000 </v>
     <v>       0.00000000       0.00000000      19.83214023 </v>
    </varray>
    <i name="volume">    210.83790140 </i>
    <varray name="rec_basis" >
     <v>       0.23443844       0.00000000       0.00000000 </v>
     <v>       0.00000000       0.40122879       0.00000000 </v>
     <v>       0.00000000       0.00000000       0.05042320 </v>
    </varray>
   </crystal>
   <varray name="positions" >
    <v>       0.00026568       0.00000000       0.00000000 </v>
    <v>       0.16640099       0.50000000       0.00000000 </v>
    <v>       0.50026568       0.50000000       0.00000000 </v>
    <v>       0.66640099       0.00000000       0.00000000 </v>
   </varray>
  </structure>
  <varray name="forces" >
   <v>       0.00000116       0.00000000       0.00000000 </v>
   <v>      -0.00000116       0.00000000       0.00000000 </v>
   <v>       0.00000116      -0.00000000       0.00000000 </v>
   <v>      -0.00000116       0.00000000       0.00000000 </v>
  </varray>
  <varray name="stress" >
   <v>       0.00300868       0.00000000       0.00000000 </v>
   <v>       0.00000000     -16.96116655       0.00000000 </v>
   <v>       0.00000000       0.00000000      -0.01016321 </v>
  </varray>
  <energy>
   <i name="e_fr_energy">    -36.91416233 </i>
   <i name="e_wo_entrp">    -36.91414852 </i>
   <i name="e_0_energy">     -0.00002761 </i>
  </energy>
  <time name="totalsc">10071.9410132.73</time>
 </calculation>
 <calculation>
  <scstep>
   <time name="dav">  239.82  240.33</time>
   <time name="total">  272.66  273.18</time>
   <energy>
    <i name="alphaZ">      6.18334092 </i>
    <i name="ewald">   2530.17412210 </i>
    <i name="hartreedc">  -3024.26027505 </i>
    <i name="XCdc">     57.36693720 </i>
    <i name="pawpsdc">    273.67020909 </i>
    <i name="pawaedc">   -278.80357552 </i>
    <i name="eentropy">     -0.00002761 </i>
    <i name="bandstr">   -189.86842036 </i>
    <i name="atom">    588.62352690 </i>
    <i name="e_fr_energy">    -36.91416232 </i>
    <i name="e_wo_entrp">    -36.91413471 </i>
    <i name="e_0_energy">    -36.91414852 </i>
   </energy>
  </scstep>
  <scstep>
   <time name="diag">   79.95   79.97</time>
   <time name="diis">  184.40  184.50</time>
   <time name="orth">    3.11    3.11</time>
   <time name="total">  300.22  300.34</time>
   <energy>
    <i name="e_fr_energy">    -36.91416233 </i>
    <i name="e_wo_entrp">    -36.91413471 </i>
    <i name="e_0_energy">    -36.91414852 </i>
   </energy>
  </scstep>
  <scstep>
   <time name="diag">   79.92   80.07</time>
   <time name="diis">  175.37  176.15</time>
   <time name="orth">    3.08    3.10</time>
   <time name="total">  291.25  292.38</time>
   <energy>
    <i name="e_fr_energy">    -36.91416233 </i>
    <i name="e_wo_entrp">    -36.91413471 </i>
    <i name="e_0_energy">    -36.91414852 </i>
   </energy>
  </scstep>
  <scstep>
   <time name="diag">   79.83   79.96</time>
   <time name="diis">  171.19  171.22</time>
   <time name="orth">    3.08    3.08</time>
   <time name="total">  287.13  287.32</time>
   <energy>
    <i name="e_fr_energy">    -36.91416233 </i>
    <i name="e_wo_entrp">    -36.91413471 </i>
    <i name="e_0_energy">    -36.91414852 </i>
   </energy>
  </scstep>
  <scstep>
   <time name="diag">   80.00   80.02</time>
   <time name="diis">  167.86  167.89</time>
   <time name="orth">    3.08    3.08</time>
   <time name="total">  283.92  284.01</time>
   <energy>
    <i name="e_fr_energy">    -36.91416233 </i>
    <i name="e_wo_entrp">    -36.91413471 </i>
    <i name="e_0_energy">    -36.91414852 </i>
   </energy>
  </scstep>
  <scstep>
   <time name="diag">   79.98   79.99</time>
   <time name="diis">  164.93  164.96</time>
   <time name="orth">    3.12    3.12</time>
   <time name="total">  280.91  281.12</time>
   <energy>
    <i name="e_fr_energy">    -36.91416233 </i>
    <i name="e_wo_entrp">    -36.91413471 </i>
    <i name="e_0_energy">    -36.91414852 </i>
   </energy>
  </scstep>
  <scstep>
   <time name="diag">   79.89   79.98</time>
   <time name="diis">  166.74  166.77</time>
   <time name="orth">    3.10    3.10</time>
   <time name="total">  282.57  282.78</time>
   <energy>
    <i name="e_fr_energy">    -36.91416233 </i>
    <i name="e_wo_entrp">    -36.91413471 </i>
    <i name="e_0_energy">    -36.91414852 </i>
   </energy>
  </scstep>
  <scstep>
   <time name="diag">   79.47   79.91</time>
   <time name="diis">  163.83  164.98</time>
   <time name="orth">    3.08    3.08</time>
   <time name="total">  279.27  281.19</time>
   <energy>
    <i name="e_fr_energy">    -36.91416233 </i>
    <i name="e_wo_entrp">    -36.91413471 </i>
    <i name="e_0_energy">    -36.91414852 </i>
   </energy>
  </scstep>
  <scstep>
   <time name="diag">   79.43   80.00</time>
   <time name="diis">  161.89  162.89</time>
   <time name="orth">    3.09    3.11</time>
   <time name="total">  246.88  248.52</time>
   <energy>
    <i name="alphaZ">      6.18334092 </i>
    <i name="ewald">   2530.17412210 </i>
    <i name="hartreedc">  -3024.26027511 </i>
    <i name="XCdc">     57.36693724 </i>
    <i name="pawpsdc">    273.67020758 </i>
    <i name="pawaedc">   -278.80357406 </i>
    <i name="eentropy">     -0.00002761 </i>
    <i name="bandstr">   -189.86842028 </i>
    <i name="atom">    588.62352690 </i>
    <i name="e_fr_energy">    -36.91416233 </i>
    <i name="e_wo_entrp">    -36.91413471 </i>
    <i name="e_0_energy">    -36.91414852 </i>
   </energy>
  </scstep>
  <structure>
   <crystal>
    <varray name="basis" >
     <v>       4.26551216       0.00000000       0.00000000 </v>
     <v>       0.00000000       2.49234360       0.00000000 </v>
     <v>       0.00000000       0.00000000      19.83214023 </v>
    </varray>
    <i name="volume">    210.83790140 </i>
    <varray name="rec_basis" >
     <v>       0.23443844       0.00000000       0.00000000 </v>
     <v>       0.00000000       0.40122879       0.00000000 </v>
     <v>       0.00000000       0.00000000       0.05042320 </v>
    </varray>
   </crystal>
   <varray name="positions" >
    <v>       0.00026569       0.00000000       0.00000000 </v>
    <v>       0.16640098       0.50000000       0.00000000 </v>
    <v>       0.50026569       0.50000000       0.00000000 </v>
    <v>       0.66640098       0.00000000       0.00000000 </v>
   </varray>
  </structure>
  <varray name="forces" >
   <v>      -0.00000484       0.00000000       0.00000000 </v>
   <v>       0.00000484       0.00000000      -0.00000000 </v>
   <v>      -0.00000484      -0.00000000       0.00000000 </v>
   <v>       0.00000484       0.00000000      -0.00000000 </v>
  </varray>
  <varray name="stress" >
   <v>       0.00300832       0.00000000       0.00000000 </v>
   <v>       0.00000000     -16.96114112       0.00000000 </v>
   <v>       0.00000000       0.00000000      -0.01015249 </v>
  </varray>
  <energy>
   <i name="e_fr_energy">    -36.91416233 </i>
   <i name="e_wo_entrp">    -36.91414852 </i>
   <i name="e_0_energy">     -0.00002761 </i>
  </energy>
  <time name="totalsc"> 2627.88 2634.61</time>
 </calculation>
 <calculation>
  <scstep>
   <time name="dav">  234.08  235.81</time>
   <time name="total">  266.67  268.86</time>
   <energy>
    <i name="alphaZ">      6.18334092 </i>
    <i name="ewald">   2530.17412250 </i>
    <i name="hartreedc">  -3024.26027528 </i>
    <i name="XCdc">     57.36693725 </i>
    <i name="pawpsdc">    273.67020759 </i>
    <i name="pawaedc">   -278.80357407 </i>
    <i name="eentropy">     -0.00002761 </i>
    <i name="bandstr">   -189.86842053 </i>
    <i name="atom">    588.62352690 </i>
    <i name="e_fr_energy">    -36.91416232 </i>
    <i name="e_wo_entrp">    -36.91413471 </i>
    <i name="e_0_energy">    -36.91414852 </i>
   </energy>
  </scstep>
  <scstep>
   <time name="diag">   79.37   80.08</time>
   <time name="diis">  147.95  149.11</time>
   <time name="orth">    3.08    3.11</time>
   <time name="total">  263.23  265.45</time>
   <energy>
    <i name="e_fr_energy">    -36.91416233 </i>
    <i name="e_wo_entrp">    -36.91413471 </i>
    <i name="e_0_energy">    -36.91414852 </i>
   </energy>
  </scstep>
  <scstep>
   <time name="diag">   79.31   80.01</time>
   <time name="diis">  142.51  143.81</time>
   <time name="orth">    3.11    3.13</time>
   <time name="total">  257.66  259.93</time>
   <energy>
    <i name="e_fr_energy">    -36.91416233 </i>
    <i name="e_wo_entrp">    -36.91413471 </i>
    <i name="e_0_energy">    -36.91414852 </i>
   </energy>
  </scstep>
  <scstep>
   <time name="diag">   79.89   80.10</time>
   <time name="diis">  138.18  138.33</time>
   <time name="orth">    3.09    3.11</time>
   <time name="total">  254.25  254.68</time>
   <energy>
    <i name="e_fr_energy">    -36.91416233 </i>
    <i name="e_wo_entrp">    -36.91413471 </i>
    <i name="e_0_energy">    -36.91414852 </i>
   </energy>
  </scstep>
  <scstep>
   <time name="diag">   79.87   80.04</time>
   <time name="diis">  141.19  141.55</time>
   <time name="orth">    3.08    3.11</time>
   <time name="total">  226.66  227.23</time>
   <energy>
    <i name="alphaZ">      6.18334092 </i>
    <i name="ewald">   2530.17412250 </i>
    <i name="hartreedc">  -3024.26027585 </i>
    <i name="XCdc">     57.36693726 </i>
    <i name="pawpsdc">    273.67020986 </i>
    <i name="pawaedc">   -278.80357635 </i>
    <i name="eentropy">     -0.00002761 </i>
    <i name="bandstr">   -189.86841996 </i>
    <i name="atom">    588.62352690 </i>
    <i name="e_fr_energy">    -36.91416233 </i>
    <i name="e_wo_entrp">    -36.91413471 </i>
    <i name="e_0_energy">    -36.91414852 </i>
   </energy>
  </scstep>
  <structure>
   <crystal>
    <varray name="basis" >
     <v>       4.26551216       0.00000000       0.00000000 </v>
     <v>       0.00000000       2.49234360       0.00000000 </v>
     <v>       0.00000000       0.00000000      19.83214023 </v>
    </varray>
    <i name="volume">    210.83790140 </i>
    <varray name="rec_basis" >
     <v>       0.23443844       0.00000000       0.00000000 </v>
     <v>       0.00000000       0.40122879       0.00000000 </v>
     <v>       0.00000000       0.00000000       0.05042320 </v>
    </varray>
   </crystal>
   <varray name="positions" >
    <v>       0.00026568       0.00000000       0.00000000 </v>
    <v>       0.16640099       0.50000000      -0.00000000 </v>
    <v>       0.50026568       0.50000000       0.00000000 </v>
    <v>       0.66640099       0.00000000      -0.00000000 </v>
   </varray>
  </structure>
  <varray name="forces" >
   <v>       0.00000256      -0.00000000       0.00000000 </v>
   <v>      -0.00000256       0.00000000      -0.00000000 </v>
   <v>       0.00000256       0.00000000       0.00000000 </v>
   <v>      -0.00000256       0.00000000      -0.00000000 </v>
  </varray>
  <varray name="stress" >
   <v>       0.00302883       0.00000000       0.00000000 </v>
   <v>       0.00000000     -16.96116484       0.00000000 </v>
   <v>       0.00000000       0.00000000      -0.01014643 </v>
  </varray>
  <energy>
   <i name="e_fr_energy">    -36.91416233 </i>
   <i name="e_wo_entrp">    -36.91414852 </i>
   <i name="e_0_energy">     -0.00002761 </i>
  </energy>
  <time name="totalsc"> 1372.70 1381.26</time>
 </calculation>
 <calculation>
  <scstep>
   <time name="dav">  244.88  246.90</time>
   <time name="total">  277.78  280.13</time>
   <energy>
    <i name="alphaZ">      6.18334092 </i>
    <i name="ewald">   2530.17412237 </i>
    <i name="hartreedc">  -3024.26027582 </i>
    <i name="XCdc">     57.36693726 </i>
    <i name="pawpsdc">    273.67020985 </i>
    <i name="pawaedc">   -278.80357634 </i>
    <i name="eentropy">     -0.00002761 </i>
    <i name="bandstr">   -189.86841985 </i>
    <i name="atom">    588.62352690 </i>
    <i name="e_fr_energy">    -36.91416232 </i>
    <i name="e_wo_entrp">    -36.91413471 </i>
    <i name="e_0_energy">    -36.91414852 </i>
   </energy>
  </scstep>
  <scstep>
   <time name="diag">   79.35   80.08</time>
   <time name="diis">  123.52  124.57</time>
   <time name="orth">    3.08    3.09</time>
   <time name="total">  238.84  240.97</time>
   <energy>
    <i name="e_fr_energy">    -36.91416233 </i>
    <i name="e_wo_entrp">    -36.91413471 </i>
    <i name="e_0_energy">    -36.91414852 </i>
   </energy>
  </scstep>
  <scstep>
   <time name="diag">   79.52   80.01</time>
   <time name="diis">  134.91  136.18</time>
   <time name="orth">    3.09    3.11</time>
   <time name="total">  250.34  252.49</time>
   <energy>
    <i name="e_fr_energy">    -36.91416233 </i>
    <i name="e_wo_entrp">    -36.91413471 </i>
    <i name="e_0_energy">    -36.91414852 </i>
   </energy>
  </scstep>
  <scstep>
   <time name="diag">   79.95   79.97</time>
   <time name="diis">  123.56  123.62</time>
   <time name="orth">    3.10    3.10</time>
   <time name="total">  239.82  239.92</time>
   <energy>
    <i name="e_fr_energy">    -36.91416233 </i>
    <i name="e_wo_entrp">    -36.91413471 </i>
    <i name="e_0_energy">    -36.91414852 </i>
   </energy>
  </scstep>
  <scstep>
   <time name="diag">   80.01   80.02</time>
   <time name="diis">  117.11  117.12</time>
   <time name="orth">    3.09    3.09</time>
   <time name="total">  202.67  202.77</time>
   <energy>
    <i name="alphaZ">      6.18334092 </i>
    <i name="ewald">   2530.17412237 </i>
    <i name="hartreedc">  -3024.26027542 </i>
    <i name="XCdc">     57.36693725 </i>
    <i name="pawpsdc">    273.67020895 </i>
    <i name="pawaedc">   -278.80357544 </i>
    <i name="eentropy">     -0.00002761 </i>
    <i name="bandstr">   -189.86842024 </i>
    <i name="atom">    588.62352690 </i>
    <i name="e_fr_energy">    -36.91416233 </i>
    <i name="e_wo_entrp">    -36.91413471 </i>
    <i name="e_0_energy">    -36.91414852 </i>
   </energy>
  </scstep>
  <structure>
   <crystal>
    <varray name="basis" >
     <v>       4.26551216       0.00000000       0.00000000 </v>
     <v>       0.00000000       2.49234360       0.00000000 </v>
     <v>       0.00000000       0.00000000      19.83214023 </v>
    </varray>
    <i name="volume">    210.83790140 </i>
    <varray name="rec_basis" >
     <v>       0.23443844       0.00000000       0.00000000 </v>
     <v>       0.00000000       0.40122879       0.00000000 </v>
     <v>       0.00000000       0.00000000       0.05042320 </v>
    </varray>
   </crystal>
   <varray name="positions" >
    <v>       0.00026568      -0.00000000       0.00000000 </v>
    <v>       0.16640098       0.50000000      -0.00000000 </v>
    <v>       0.50026568       0.50000000       0.00000000 </v>
    <v>       0.66640098       0.00000000      -0.00000000 </v>
   </varray>
  </structure>
  <varray name="forces" >
   <v>      -0.00000164       0.00000000       0.00000000 </v>
   <v>       0.00000164       0.00000000      -0.00000000 </v>
   <v>      -0.00000164      -0.00000000       0.00000000 </v>
   <v>       0.00000164       0.00000000      -0.00000000 </v>
  </varray>
  <varray name="stress" >
   <v>       0.00301564       0.00000000       0.00000000 </v>
   <v>       0.00000000     -16.96114826       0.00000000 </v>
   <v>       0.00000000       0.00000000      -0.01015014 </v>
  </varray>
  <energy>
   <i name="e_fr_energy">    -36.91416233 </i>
   <i name="e_wo_entrp">    -36.91414852 </i>
   <i name="e_0_energy">     -0.00002761 </i>
  </energy>
  <time name="totalsc"> 1313.00 1319.91</time>
 </calculation>
 <calculation>
  <scstep>
   <time name="dav">  234.04  234.08</time>
   <time name="total">  266.61  266.66</time>
   <energy>
    <i name="alphaZ">      6.18334092 </i>
    <i name="ewald">   2530.17412242 </i>
    <i name="hartreedc">  -3024.26027542 </i>
    <i name="XCdc">     57.36693725 </i>
    <i name="pawpsdc">    273.67020895 </i>
    <i name="pawaedc">   -278.80357543 </i>
    <i name="eentropy">     -0.00002761 </i>
    <i name="bandstr">   -189.86842030 </i>
    <i name="atom">    588.62352690 </i>
    <i name="e_fr_energy">    -36.91416232 </i>
    <i name="e_wo_entrp">    -36.91413471 </i>
    <i name="e_0_energy">    -36.91414852 </i>
   </energy>
  </scstep>
  <scstep>
   <time name="diag">   79.95   79.96</time>
   <time name="diis">  115.85  115.91</time>
   <time name="orth">    3.10    3.10</time>
   <time name="total">  232.13  232.23</time>
   <energy>
    <i name="e_fr_energy">    -36.91416233 </i>
    <i name="e_wo_entrp">    -36.91413471 </i>
    <i name="e_0_energy">    -36.91414852 </i>
   </energy>
  </scstep>
  <scstep>
   <time name="diag">   80.00   80.02</time>
   <time name="diis">  113.69  113.71</time>
   <time name="orth">    3.10    3.10</time>
   <time name="total">  229.64  229.71</time>
   <energy>
    <i name="e_fr_energy">    -36.91416233 </i>
    <i name="e_wo_entrp">    -36.91413471 </i>
    <i name="e_0_energy">    -36.91414852 </i>
   </energy>
  </scstep>
  <scstep>
   <time name="diag">   79.96   79.97</time>
   <time name="diis">  109.24  109.25</time>
   <time name="orth">    3.11    3.11</time>
   <time name="total">  224.53  224.56</time>
   <energy>
    <i name="e_fr_energy">    -36.91416233 </i>
    <i name="e_wo_entrp">    -36.91413471 </i>
    <i name="e_0_energy">    -36.91414852 </i>
   </energy>
  </scstep>
  <scstep>
   <time name="diag">   79.99   80.00</time>
   <time name="diis">  106.66  107.09</time>
   <time name="orth">    3.09    3.09</time>
   <time name="total">  192.25  192.70</time>
   <energy>
    <i name="alphaZ">      6.18334092 </i>
    <i name="ewald">   2530.17412242 </i>
    <i name="hartreedc">  -3024.26027553 </i>
    <i name="XCdc">     57.36693725 </i>
    <i name="pawpsdc">    273.67020907 </i>
    <i name="pawaedc">   -278.80357556 </i>
    <i name="eentropy">     -0.00002761 </i>
    <i name="bandstr">   -189.86842019 </i>
    <i name="atom">    588.62352690 </i>
    <i name="e_fr_energy">    -36.91416233 </i>
    <i name="e_wo_entrp">    -36.91413471 </i>
    <i name="e_0_energy">    -36.91414852 </i>
   </energy>
  </scstep>
  <structure>
   <crystal>
    <varray name="basis" >
     <v>       4.26551216       0.00000000       0.00000000 </v>
     <v>       0.00000000       2.49234360       0.00000000 </v>
     <v>       0.00000000       0.00000000      19.83214023 </v>
    </varray>
    <i name="volume">    210.83790140 </i>
    <varray name="rec_basis" >
     <v>       0.23443844       0.00000000       0.00000000 </v>
     <v>       0.00000000       0.40122879       0.00000000 </v>
     <v>       0.00000000       0.00000000       0.05042320 </v>
    </varray>
   </crystal>
   <varray name="positions" >
    <v>       0.00026568      -0.00000000       0.00000000 </v>
    <v>       0.16640099       0.50000000      -0.00000000 </v>
    <v>       0.50026568       0.50000000       0.00000000 </v>
    <v>       0.66640099       0.00000000      -0.00000000 </v>
   </varray>
  </structure>
  <varray name="forces" >
   <v>       0.00000054       0.00000000       0.00000000 </v>
   <v>      -0.00000054      -0.00000000      -0.00000000 </v>
   <v>       0.00000054      -0.00000000       0.00000000 </v>
   <v>      -0.00000054       0.00000000      -0.00000000 </v>
  </varray>
  <varray name="stress" >
   <v>       0.00302516       0.00000000       0.00000000 </v>
   <v>       0.00000000     -16.96115856       0.00000000 </v>
   <v>       0.00000000       0.00000000      -0.01014861 </v>
  </varray>
  <energy>
   <i name="e_fr_energy">    -36.91416233 </i>
   <i name="e_wo_entrp">    -36.91414852 </i>
   <i name="e_0_energy">     -0.00002761 </i>
  </energy>
  <time name="totalsc"> 1240.87 1242.12</time>
  <eigenvalues>
   <array>
    <dimension dim="1">band</dimension>
    <dimension dim="2">kpoint</dimension>
    <dimension dim="3">spin</dimension>
    <field>eigene</field>
    <field>occ</field>
    <set>
     <set comment="spin 1">
      <set comment="kpoint 1">
       <r>  -22.1835    1.0000 </r>
       <r>  -16.8906    1.0000 </r>
       <r>  -15.9277    1.0000 </r>
       <r>  -10.3047    1.0000 </r>
       <r>   -9.2944    1.0000 </r>
       <r>   -5.8764    1.0000 </r>
       <r>   -5.7633    1.0000 </r>
       <r>   -5.0257    1.0000 </r>
       <r>   -1.0996    0.0000 </r>
       <r>    0.5322    0.0000 </r>
       <r>    1.3322    0.0000 </r>
       <r>    1.7193    0.0000 </r>
      </set>
      <set comment="kpoint 2">
       <r>  -22.1731    1.0000 </r>
       <r>  -17.0674    1.0000 </r>
       <r>  -15.7357    1.0000 </r>
       <r>  -10.2925    1.0000 </r>
       <r>   -9.2841    1.0000 </r>
       <r>   -5.8995    1.0000 </r>
       <r>   -5.8050    1.0000 </r>
       <r>   -5.0936    1.0000 </r>
       <r>   -1.0161    0.0000 </r>
       <r>    0.5462    0.0000 </r>
       <r>    1.3463    0.0000 </r>
       <r>    1.7336    0.0000 </r>
      </set>
      <set comment="kpoint 3">
       <r>  -22.1422    1.0000 </r>
       <r>  -17.4166    1.0000 </r>
       <r>  -15.3411    1.0000 </r>
       <r>  -10.2556    1.0000 </r>
       <r>   -9.2533    1.0000 </r>
       <r>   -5.9673    1.0000 </r>
       <r>   -5.9285    1.0000 </r>
       <r>   -5.2817    1.0000 </r>
       <r>   -0.7817    0.0000 </r>
       <r>    0.5881    0.0000 </r>
       <r>    1.3887    0.0000 </r>
       <r>    1.7765    0.0000 </r>
      </set>
      <set comment="kpoint 4">
       <r>  -22.0908    1.0000 </r>
       <r>  -17.8000    1.0000 </r>
       <r>  -14.8822    1.0000 </r>
       <r>  -10.1944    1.0000 </r>
       <r>   -9.2022    1.0000 </r>
       <r>   -6.1291    1.0000 </r>
       <r>   -6.0763    1.0000 </r>
       <r>   -5.5550    1.0000 </r>
       <r>   -0.4317    0.0000 </r>
       <r>    0.6580    0.0000 </r>
       <r>    1.4593    0.0000 </r>
       <r>    1.8480    0.0000 </r>
      </set>
      <set comment="kpoint 5">
       <r>  -22.0187    1.0000 </r>
       <r>  -18.1837    1.0000 </r>
       <r>  -14.3936    1.0000 </r>
       <r>  -10.1087    1.0000 </r>
       <r>   -9.1309    1.0000 </r>
       <r>   -6.4000    1.0000 </r>
       <r>   -6.2209    1.0000 </r>
       <r>   -5.8796    1.0000 </r>
       <r>   -0.0008    0.0000 </r>
       <r>    0.7557    0.0000 </r>
       <r>    1.5582    0.0000 </r>
       <r>    1.9482    0.0000 </r>
      </set>
      <set comment="kpoint 6">
       <r>  -21.9262    1.0000 </r>
       <r>  -18.5575    1.0000 </r>
       <r>  -13.8861    1.0000 </r>
       <r>   -9.9988    1.0000 </r>
       <r>   -9.0399    1.0000 </r>
       <r>   -6.7326    1.0000 </r>
       <r>   -6.3948    1.0000 </r>
       <r>   -6.2308    1.0000 </r>
       <r>    0.4847    0.0000 </r>
       <r>    0.8814    0.0000 </r>
       <r>    1.6853    0.0000 </r>
       <r>    2.0770    0.0000 </r>
      </set>
      <set comment="kpoint 7">
       <r>  -21.8133    1.0000 </r>
       <r>  -18.9173    1.0000 </r>
       <r>  -13.3645    1.0000 </r>
       <r>   -9.8649    1.0000 </r>
       <r>   -8.9297    1.0000 </r>
       <r>   -7.1182    1.0000 </r>
       <r>   -6.5921    1.0000 </r>
       <r>   -6.5910    1.0000 </r>
       <r>    1.0070    0.0000 </r>
       <r>    1.0351    0.0000 </r>
       <r>    1.8405    0.0000 </r>
       <r>    2.2343    0.0000 </r>
      </set>
      <set comment="kpoint 8">
       <r>  -21.6800    1.0000 </r>
       <r>  -19.2613    1.0000 </r>
       <r>  -12.8319    1.0000 </r>
       <r>   -9.7072    1.0000 </r>
       <r>   -8.8010    1.0000 </r>
       <r>   -7.5478    1.0000 </r>
       <r>   -6.9530    1.0000 </r>
       <r>   -6.8031    1.0000 </r>
       <r>    1.2166    0.0000 </r>
       <r>    1.5533    0.0000 </r>
       <r>    2.0238    0.0000 </r>
       <r>    2.4203    0.0000 </r>
      </set>
      <set comment="kpoint 9">
       <r>  -21.5264    1.0000 </r>
       <r>  -19.5881    1.0000 </r>
       <r>  -12.2908    1.0000 </r>
       <r>   -9.5259    1.0000 </r>
       <r>   -8.6544    1.0000 </r>
       <r>   -8.0131    1.0000 </r>
       <r>   -7.3067    1.0000 </r>
       <r>   -7.0250    1.0000 </r>
       <r>    1.4259    0.0000 </r>
       <r>    2.1140    0.0000 </r>
       <r>    2.2351    0.0000 </r>
       <r>    2.6349    0.0000 </r>
      </set>
      <set comment="kpoint 10">
       <r>  -21.3527    1.0000 </r>
       <r>  -19.8972    1.0000 </r>
       <r>  -11.7438    1.0000 </r>
       <r>   -9.3216    1.0000 </r>
       <r>   -8.5066    1.0000 </r>
       <r>   -8.4911    1.0000 </r>
       <r>   -7.6486    1.0000 </r>
       <r>   -7.2513    1.0000 </r>
       <r>    1.6630    0.0000 </r>
       <r>    2.4742    0.0000 </r>
       <r>    2.6806    0.0000 </r>
       <r>    2.8781    0.0000 </r>
      </set>
      <set comment="kpoint 11">
       <r>  -21.1590    1.0000 </r>
       <r>  -20.1878    1.0000 </r>
       <r>  -11.1935    1.0000 </r>
       <r>   -9.0947    1.0000 </r>
       <r>   -9.0218    1.0000 </r>
       <r>   -8.3123    1.0000 </r>
       <r>   -7.9754    1.0000 </r>
       <r>   -7.4774    1.0000 </r>
       <r>    1.9279    0.0000 </r>
       <r>    2.7406    0.0000 </r>
       <r>    3.1499    0.0000 </r>
       <r>    3.2396    0.0000 </r>
      </set>
      <set comment="kpoint 12">
       <r>  -20.9454    1.0000 </r>
       <r>  -20.4596    1.0000 </r>
       <r>  -10.6426    1.0000 </r>
       <r>   -9.5527    1.0000 </r>
       <r>   -8.8457    1.0000 </r>
       <r>   -8.2850    1.0000 </r>
       <r>   -8.1195    1.0000 </r>
       <r>   -7.6996    1.0000 </r>
       <r>    2.2203    0.0000 </r>
       <r>    2.8872    0.0000 </r>
       <r>    3.0334    0.0000 </r>
       <r>    3.4503    0.0000 </r>
      </set>
      <set comment="kpoint 13">
       <r>  -20.7122    1.0000 </r>
       <r>  -20.7122    1.0000 </r>
       <r>  -10.0944    1.0000 </r>
       <r>  -10.0944    1.0000 </r>
       <r>   -8.5755    1.0000 </r>
       <r>   -8.5755    1.0000 </r>
       <r>   -7.9145    1.0000 </r>
       <r>   -7.9145    1.0000 </r>
       <r>    2.5401    0.0000 </r>
       <r>    2.5401    0.0000 </r>
       <r>    3.3483    0.0000 </r>
       <r>    3.3483    0.0000 </r>
      </set>
      <set comment="kpoint 14">
       <r>  -22.1701    1.0000 </r>
       <r>  -16.8790    1.0000 </r>
       <r>  -15.9166    1.0000 </r>
       <r>  -10.2888    1.0000 </r>
       <r>   -9.3546    1.0000 </r>
       <r>   -5.9318    1.0000 </r>
       <r>   -5.7943    1.0000 </r>
       <r>   -5.0094    1.0000 </r>
       <r>   -1.1045    0.0000 </r>
       <r>    0.5504    0.0000 </r>
       <r>    1.3506    0.0000 </r>
       <r>    1.7379    0.0000 </r>
      </set>
      <set comment="kpoint 15">
       <r>  -22.1598    1.0000 </r>
       <r>  -17.0558    1.0000 </r>
       <r>  -15.7248    1.0000 </r>
       <r>  -10.2765    1.0000 </r>
       <r>   -9.3443    1.0000 </r>
       <r>   -5.9599    1.0000 </r>
       <r>   -5.8303    1.0000 </r>
       <r>   -5.0775    1.0000 </r>
       <r>   -1.0210    0.0000 </r>
       <r>    0.5644    0.0000 </r>
       <r>    1.3647    0.0000 </r>
       <r>    1.7522    0.0000 </r>
      </set>
      <set comment="kpoint 16">
       <r>  -22.1289    1.0000 </r>
       <r>  -17.4047    1.0000 </r>
       <r>  -15.3306    1.0000 </r>
       <r>  -10.2397    1.0000 </r>
       <r>   -9.3134    1.0000 </r>
       <r>   -6.0484    1.0000 </r>
       <r>   -5.9312    1.0000 </r>
       <r>   -5.2659    1.0000 </r>
       <r>   -0.7866    0.0000 </r>
       <r>    0.6063    0.0000 </r>
       <r>    1.4071    0.0000 </r>
       <r>    1.7951    0.0000 </r>
      </set>
      <set comment="kpoint 17">
       <r>  -22.0774    1.0000 </r>
       <r>  -17.7879    1.0000 </r>
       <r>  -14.8722    1.0000 </r>
       <r>  -10.1785    1.0000 </r>
       <r>   -9.2621    1.0000 </r>
       <r>   -6.2129    1.0000 </r>
       <r>   -6.0734    1.0000 </r>
       <r>   -5.5396    1.0000 </r>
       <r>   -0.4368    0.0000 </r>
       <r>    0.6761    0.0000 </r>
       <r>    1.4777    0.0000 </r>
       <r>    1.8667    0.0000 </r>
      </set>
      <set comment="kpoint 18">
       <r>  -22.0054    1.0000 </r>
       <r>  -18.1714    1.0000 </r>
       <r>  -14.3843    1.0000 </r>
       <r>  -10.0928    1.0000 </r>
       <r>   -9.1907    1.0000 </r>
       <r>   -6.4613    1.0000 </r>
       <r>   -6.2370    1.0000 </r>
       <r>   -5.8645    1.0000 </r>
       <r>   -0.0065    0.0000 </r>
       <r>    0.7739    0.0000 </r>
       <r>    1.5766    0.0000 </r>
       <r>    1.9668    0.0000 </r>
      </set>
      <set comment="kpoint 19">
       <r>  -21.9129    1.0000 </r>
       <r>  -18.5450    1.0000 </r>
       <r>  -13.8774    1.0000 </r>
       <r>   -9.9830    1.0000 </r>
       <r>   -9.0995    1.0000 </r>
       <r>   -6.7798    1.0000 </r>
       <r>   -6.4215    1.0000 </r>
       <r>   -6.2158    1.0000 </r>
       <r>    0.4780    0.0000 </r>
       <r>    0.8996    0.0000 </r>
       <r>    1.7037    0.0000 </r>
       <r>    2.0956    0.0000 </r>
      </set>
      <set comment="kpoint 20">
       <r>  -21.7999    1.0000 </r>
       <r>  -18.9047    1.0000 </r>
       <r>  -13.3567    1.0000 </r>
       <r>   -9.8491    1.0000 </r>
       <r>   -8.9890    1.0000 </r>
       <r>   -7.1547    1.0000 </r>
       <r>   -6.6250    1.0000 </r>
       <r>   -6.5772    1.0000 </r>
       <r>    0.9990    0.0000 </r>
       <r>    1.0532    0.0000 </r>
       <r>    1.8589    0.0000 </r>
       <r>    2.2530    0.0000 </r>
      </set>
      <set comment="kpoint 21">
       <r>  -21.6666    1.0000 </r>
       <r>  -19.2485    1.0000 </r>
       <r>  -12.8251    1.0000 </r>
       <r>   -9.6914    1.0000 </r>
       <r>   -8.8597    1.0000 </r>
       <r>   -7.5757    1.0000 </r>
       <r>   -6.9381    1.0000 </r>
       <r>   -6.8425    1.0000 </r>
       <r>    1.2348    0.0000 </r>
       <r>    1.5437    0.0000 </r>
       <r>    2.0422    0.0000 </r>
       <r>    2.4390    0.0000 </r>
      </set>
      <set comment="kpoint 22">
       <r>  -21.5131    1.0000 </r>
       <r>  -19.5753    1.0000 </r>
       <r>  -12.2853    1.0000 </r>
       <r>   -9.5103    1.0000 </r>
       <r>   -8.7127    1.0000 </r>
       <r>   -8.0339    1.0000 </r>
       <r>   -7.2918    1.0000 </r>
       <r>   -7.0686    1.0000 </r>
       <r>    1.4441    0.0000 </r>
       <r>    2.1026    0.0000 </r>
       <r>    2.2535    0.0000 </r>
       <r>    2.6536    0.0000 </r>
      </set>
      <set comment="kpoint 23">
       <r>  -21.3394    1.0000 </r>
       <r>  -19.8842    1.0000 </r>
       <r>  -11.7398    1.0000 </r>
       <r>   -9.3060    1.0000 </r>
       <r>   -8.5487    1.0000 </r>
       <r>   -8.5216    1.0000 </r>
       <r>   -7.6336    1.0000 </r>
       <r>   -7.2984    1.0000 </r>
       <r>    1.6812    0.0000 </r>
       <r>    2.4925    0.0000 </r>
       <r>    2.6672    0.0000 </r>
       <r>    2.8968    0.0000 </r>
      </set>
      <set comment="kpoint 24">
       <r>  -21.1457    1.0000 </r>
       <r>  -20.1748    1.0000 </r>
       <r>  -11.1913    1.0000 </r>
       <r>   -9.0791    1.0000 </r>
       <r>   -9.0318    1.0000 </r>
       <r>   -8.3689    1.0000 </r>
       <r>   -7.9603    1.0000 </r>
       <r>   -7.5274    1.0000 </r>
       <r>    1.9461    0.0000 </r>
       <r>    2.7590    0.0000 </r>
       <r>    3.1685    0.0000 </r>
       <r>    3.2253    0.0000 </r>
      </set>
      <set comment="kpoint 25">
       <r>  -20.9322    1.0000 </r>
       <r>  -20.4465    1.0000 </r>
       <r>  -10.6426    1.0000 </r>
       <r>   -9.5588    1.0000 </r>
       <r>   -8.8302    1.0000 </r>
       <r>   -8.2697    1.0000 </r>
       <r>   -8.1750    1.0000 </r>
       <r>   -7.7518    1.0000 </r>
       <r>    2.2386    0.0000 </r>
       <r>    2.9055    0.0000 </r>
       <r>    3.0518    0.0000 </r>
       <r>    3.4689    0.0000 </r>
      </set>
      <set comment="kpoint 26">
       <r>  -20.6991    1.0000 </r>
       <r>  -20.6991    1.0000 </r>
       <r>  -10.0972    1.0000 </r>
       <r>  -10.0972    1.0000 </r>
       <r>   -8.5601    1.0000 </r>
       <r>   -8.5601    1.0000 </r>
       <r>   -7.9685    1.0000 </r>
       <r>   -7.9685    1.0000 </r>
       <r>    2.5585    0.0000 </r>
       <r>    2.5585    0.0000 </r>
       <r>    3.3667    0.0000 </r>
       <r>    3.3667    0.0000 </r>
      </set>
      <set comment="kpoint 27">
       <r>  -22.1299    1.0000 </r>
       <r>  -16.8445    1.0000 </r>
       <r>  -15.8834    1.0000 </r>
       <r>  -10.2409    1.0000 </r>
       <r>   -9.5302    1.0000 </r>
       <r>   -6.0937    1.0000 </r>
       <r>   -5.8867    1.0000 </r>
       <r>   -4.9606    1.0000 </r>
       <r>   -1.1199    0.0000 </r>
       <r>    0.6048    0.0000 </r>
[...]
       <r>   -9.1241    1.0000 </r>
       <r>   -5.6243    1.0000 </r>
       <r>   -5.6243    1.0000 </r>
       <r>   -0.4848    0.0000 </r>
       <r>   -0.4848    0.0000 </r>
       <r>    4.8293    0.0000 </r>
       <r>    4.8293    0.0000 </r>
      </set>
      <set comment="kpoint 209">
       <r>  -18.8404    1.0000 </r>
       <r>  -17.0924    1.0000 </r>
       <r>  -13.9721    1.0000 </r>
       <r>  -12.3763    1.0000 </r>
       <r>  -12.3744    1.0000 </r>
       <r>  -10.8719    1.0000 </r>
       <r>   -6.4531    1.0000 </r>
       <r>   -4.5996    1.0000 </r>
       <r>   -0.9897    0.0000 </r>
       <r>    1.1312    0.0000 </r>
       <r>    5.1589    0.0000 </r>
       <r>    5.9478    0.0000 </r>
      </set>
      <set comment="kpoint 210">
       <r>  -18.8306    1.0000 </r>
       <r>  -17.0848    1.0000 </r>
       <r>  -14.0610    1.0000 </r>
       <r>  -12.4571    1.0000 </r>
       <r>  -12.2793    1.0000 </r>
       <r>  -10.7912    1.0000 </r>
       <r>   -6.4442    1.0000 </r>
       <r>   -4.6021    1.0000 </r>
       <r>   -1.0000    0.0000 </r>
       <r>    1.1054    0.0000 </r>
       <r>    5.1726    0.0000 </r>
       <r>    5.9639    0.0000 </r>
      </set>
      <set comment="kpoint 211">
       <r>  -18.8014    1.0000 </r>
       <r>  -17.0622    1.0000 </r>
       <r>  -14.2803    1.0000 </r>
       <r>  -12.6649    1.0000 </r>
       <r>  -12.0360    1.0000 </r>
       <r>  -10.5900    1.0000 </r>
       <r>   -6.4179    1.0000 </r>
       <r>   -4.6103    1.0000 </r>
       <r>   -1.0291    0.0000 </r>
       <r>    1.0300    0.0000 </r>
       <r>    5.2135    0.0000 </r>
       <r>    6.0119    0.0000 </r>
      </set>
      <set comment="kpoint 212">
       <r>  -18.7529    1.0000 </r>
       <r>  -17.0260    1.0000 </r>
       <r>  -14.5583    1.0000 </r>
       <r>  -12.9358    1.0000 </r>
       <r>  -11.7179    1.0000 </r>
       <r>  -10.3324    1.0000 </r>
       <r>   -6.3742    1.0000 </r>
       <r>   -4.6256    1.0000 </r>
       <r>   -1.0716    0.0000 </r>
       <r>    0.9104    0.0000 </r>
       <r>    5.2813    0.0000 </r>
       <r>    6.0907    0.0000 </r>
      </set>
      <set comment="kpoint 213">
       <r>  -18.6851    1.0000 </r>
       <r>  -16.9787    1.0000 </r>
       <r>  -14.8527    1.0000 </r>
       <r>  -13.2328    1.0000 </r>
       <r>  -11.3673    1.0000 </r>
       <r>  -10.0588    1.0000 </r>
       <r>   -6.3139    1.0000 </r>
       <r>   -4.6504    1.0000 </r>
       <r>   -1.1199    0.0000 </r>
       <r>    0.7544    0.0000 </r>
       <r>    5.3751    0.0000 </r>
       <r>    6.1989    0.0000 </r>
      </set>
      <set comment="kpoint 214">
       <r>  -18.5984    1.0000 </r>
       <r>  -16.9256    1.0000 </r>
       <r>  -15.1398    1.0000 </r>
       <r>  -13.5376    1.0000 </r>
       <r>  -11.0059    1.0000 </r>
       <r>   -9.7920    1.0000 </r>
       <r>   -6.2375    1.0000 </r>
       <r>   -4.6874    1.0000 </r>
       <r>   -1.1648    0.0000 </r>
       <r>    0.5708    0.0000 </r>
       <r>    5.4906    0.0000 </r>
       <r>    6.1787    0.0000 </r>
      </set>
      <set comment="kpoint 215">
       <r>  -18.4930    1.0000 </r>
       <r>  -16.8767    1.0000 </r>
       <r>  -15.4003    1.0000 </r>
       <r>  -13.8408    1.0000 </r>
       <r>  -10.6474    1.0000 </r>
       <r>   -9.5474    1.0000 </r>
       <r>   -6.1462    1.0000 </r>
       <r>   -4.7394    1.0000 </r>
       <r>   -1.1968    0.0000 </r>
       <r>    0.3687    0.0000 </r>
       <r>    5.5720    0.0000 </r>
       <r>    5.8031    0.0000 </r>
      </set>
      <set comment="kpoint 216">
       <r>  -18.3694    1.0000 </r>
       <r>  -16.8508    1.0000 </r>
       <r>  -15.6105    1.0000 </r>
       <r>  -14.1366    1.0000 </r>
       <r>  -10.3023    1.0000 </r>
       <r>   -9.3371    1.0000 </r>
       <r>   -6.0412    1.0000 </r>
       <r>   -4.8085    1.0000 </r>
       <r>   -1.2078    0.0000 </r>
       <r>    0.1564    0.0000 </r>
       <r>    5.3082    0.0000 </r>
       <r>    5.8647    0.0000 </r>
      </set>
      <set comment="kpoint 217">
       <r>  -18.2284    1.0000 </r>
       <r>  -16.8764    1.0000 </r>
       <r>  -15.7390    1.0000 </r>
       <r>  -14.4211    1.0000 </r>
       <r>   -9.9801    1.0000 </r>
       <r>   -9.1716    1.0000 </r>
       <r>   -5.9242    1.0000 </r>
       <r>   -4.8954    1.0000 </r>
       <r>   -1.1916    0.0000 </r>
       <r>   -0.0584    0.0000 </r>
       <r>    5.0139    0.0000 </r>
       <r>    5.8388    0.0000 </r>
      </set>
      <set comment="kpoint 218">
       <r>  -18.0707    1.0000 </r>
       <r>  -16.9737    1.0000 </r>
       <r>  -15.7636    1.0000 </r>
       <r>  -14.6913    1.0000 </r>
       <r>   -9.6899    1.0000 </r>
       <r>   -9.0598    1.0000 </r>
       <r>   -5.7973    1.0000 </r>
       <r>   -4.9993    1.0000 </r>
       <r>   -1.1445    0.0000 </r>
       <r>   -0.2688    0.0000 </r>
       <r>    4.7968    0.0000 </r>
       <r>    5.4403    0.0000 </r>
      </set>
      <set comment="kpoint 219">
       <r>  -17.8978    1.0000 </r>
       <r>  -17.1308    1.0000 </r>
       <r>  -15.6954    1.0000 </r>
       <r>  -14.9443    1.0000 </r>
       <r>   -9.4410    1.0000 </r>
       <r>   -9.0085    1.0000 </r>
       <r>   -5.6629    1.0000 </r>
       <r>   -5.1178    1.0000 </r>
       <r>   -1.0655    0.0000 </r>
       <r>   -0.4688    0.0000 </r>
       <r>    4.6700    0.0000 </r>
       <r>    5.1121    0.0000 </r>
      </set>
      <set comment="kpoint 220">
       <r>  -17.7120    1.0000 </r>
       <r>  -17.3191    1.0000 </r>
       <r>  -15.5622    1.0000 </r>
       <r>  -15.1771    1.0000 </r>
       <r>   -9.2421    1.0000 </r>
       <r>   -9.0219    1.0000 </r>
       <r>   -5.5241    1.0000 </r>
       <r>   -5.2475    1.0000 </r>
       <r>   -0.9553    0.0000 </r>
       <r>   -0.6531    0.0000 </r>
       <r>    4.6388    0.0000 </r>
       <r>    4.8641    0.0000 </r>
      </set>
      <set comment="kpoint 221">
       <r>  -17.5169    1.0000 </r>
       <r>  -17.5169    1.0000 </r>
       <r>  -15.3853    1.0000 </r>
       <r>  -15.3853    1.0000 </r>
       <r>   -9.1006    1.0000 </r>
       <r>   -9.1006    1.0000 </r>
       <r>   -5.3843    1.0000 </r>
       <r>   -5.3843    1.0000 </r>
       <r>   -0.8167    0.0000 </r>
       <r>   -0.8167    0.0000 </r>
       <r>    4.7044    0.0000 </r>
       <r>    4.7044    0.0000 </r>
      </set>
      <set comment="kpoint 222">
       <r>  -18.4272    1.0000 </r>
       <r>  -17.5495    1.0000 </r>
       <r>  -13.6022    1.0000 </r>
       <r>  -12.8026    1.0000 </r>
       <r>  -12.0337    1.0000 </r>
       <r>  -11.2769    1.0000 </r>
       <r>   -6.0024    1.0000 </r>
       <r>   -5.0706    1.0000 </r>
       <r>   -0.4922    0.0000 </r>
       <r>    0.5703    0.0000 </r>
       <r>    5.7461    0.0000 </r>
       <r>    6.5004    0.0000 </r>
      </set>
      <set comment="kpoint 223">
       <r>  -18.4176    1.0000 </r>
       <r>  -17.5407    1.0000 </r>
       <r>  -13.6914    1.0000 </r>
       <r>  -12.8880    1.0000 </r>
       <r>  -11.9393    1.0000 </r>
       <r>  -11.1909    1.0000 </r>
       <r>   -5.9949    1.0000 </r>
       <r>   -5.0680    1.0000 </r>
       <r>   -0.5089    0.0000 </r>
       <r>    0.5465    0.0000 </r>
       <r>    5.7598    0.0000 </r>
       <r>    6.5174    0.0000 </r>
      </set>
      <set comment="kpoint 224">
       <r>  -18.3890    1.0000 </r>
       <r>  -17.5147    1.0000 </r>
       <r>  -13.9119    1.0000 </r>
       <r>  -13.1016    1.0000 </r>
       <r>  -11.7031    1.0000 </r>
       <r>  -10.9762    1.0000 </r>
       <r>   -5.9724    1.0000 </r>
       <r>   -5.0608    1.0000 </r>
       <r>   -0.5572    0.0000 </r>
       <r>    0.4773    0.0000 </r>
       <r>    5.8004    0.0000 </r>
       <r>    6.5678    0.0000 </r>
      </set>
      <set comment="kpoint 225">
       <r>  -18.3414    1.0000 </r>
       <r>  -17.4718    1.0000 </r>
       <r>  -14.1939    1.0000 </r>
       <r>  -13.3780    1.0000 </r>
       <r>  -11.3962    1.0000 </r>
       <r>  -10.7000    1.0000 </r>
       <r>   -5.9356    1.0000 </r>
       <r>   -5.0501    1.0000 </r>
       <r>   -0.6318    0.0000 </r>
       <r>    0.3677    0.0000 </r>
       <r>    5.8677    0.0000 </r>
       <r>    6.6502    0.0000 </r>
      </set>
      <set comment="kpoint 226">
       <r>  -18.2752    1.0000 </r>
       <r>  -17.4131    1.0000 </r>
       <r>  -14.4970    1.0000 </r>
       <r>  -13.6794    1.0000 </r>
       <r>  -11.0606    1.0000 </r>
       <r>  -10.4031    1.0000 </r>
       <r>   -5.8851    1.0000 </r>
       <r>   -5.0376    1.0000 </r>
       <r>   -0.7248    0.0000 </r>
       <r>    0.2256    0.0000 </r>
       <r>    5.9598    0.0000 </r>
       <r>    6.7629    0.0000 </r>
      </set>
      <set comment="kpoint 227">
       <r>  -18.1906    1.0000 </r>
       <r>  -17.3403    1.0000 </r>
       <r>  -14.8012    1.0000 </r>
       <r>  -13.9871    1.0000 </r>
       <r>  -10.7183    1.0000 </r>
       <r>  -10.1082    1.0000 </r>
       <r>   -5.8221    1.0000 </r>
       <r>   -5.0260    1.0000 </r>
       <r>   -0.8266    0.0000 </r>
       <r>    0.0600    0.0000 </r>
       <r>    6.0630    0.0000 </r>
       <r>    6.4530    0.0000 </r>
      </set>
      <set comment="kpoint 228">
       <r>  -18.0882    1.0000 </r>
       <r>  -17.2563    1.0000 </r>
       <r>  -15.0943    1.0000 </r>
       <r>  -14.2915    1.0000 </r>
       <r>  -10.3833    1.0000 </r>
       <r>   -9.8301    1.0000 </r>
       <r>   -5.7481    1.0000 </r>
       <r>   -5.0184    1.0000 </r>
       <r>   -0.9271    0.0000 </r>
       <r>   -0.1199    0.0000 </r>
       <r>    5.9055    0.0000 </r>
       <r>    6.2825    0.0000 </r>
      </set>
      <set comment="kpoint 229">
       <r>  -17.9689    1.0000 </r>
       <r>  -17.1667    1.0000 </r>
       <r>  -15.3659    1.0000 </r>
       <r>  -14.5866    1.0000 </r>
       <r>  -10.0665    1.0000 </r>
       <r>   -9.5809    1.0000 </r>
       <r>   -5.6651    1.0000 </r>
       <r>   -5.0182    1.0000 </r>
       <r>   -1.0161    0.0000 </r>
       <r>   -0.3050    0.0000 </r>
       <r>    5.5063    0.0000 </r>
       <r>    6.0004    0.0000 </r>
      </set>
      <set comment="kpoint 230">
       <r>  -17.8340    1.0000 </r>
       <r>  -17.0822    1.0000 </r>
       <r>  -15.6024    1.0000 </r>
       <r>  -14.8681    1.0000 </r>
       <r>   -9.7779    1.0000 </r>
       <r>   -9.3708    1.0000 </r>
       <r>   -5.5757    1.0000 </r>
       <r>   -5.0290    1.0000 </r>
       <r>   -1.0845    0.0000 </r>
       <r>   -0.4869    0.0000 </r>
       <r>    5.1599    0.0000 </r>
       <r>    5.5741    0.0000 </r>
      </set>
      <set comment="kpoint 231">
       <r>  -17.6854    1.0000 </r>
       <r>  -17.0226    1.0000 </r>
       <r>  -15.7821    1.0000 </r>
       <r>  -15.1318    1.0000 </r>
       <r>   -9.5271    1.0000 </r>
       <r>   -9.2095    1.0000 </r>
       <r>   -5.4828    1.0000 </r>
       <r>   -5.0535    1.0000 </r>
       <r>   -1.1249    0.0000 </r>
       <r>   -0.6578    0.0000 </r>
       <r>    4.8906    0.0000 </r>
       <r>    5.2142    0.0000 </r>
      </set>
      <set comment="kpoint 232">
       <r>  -17.5268    1.0000 </r>
       <r>  -17.0170    1.0000 </r>
       <r>  -15.8747    1.0000 </r>
       <r>  -15.3730    1.0000 </r>
       <r>   -9.3230    1.0000 </r>
       <r>   -9.1049    1.0000 </r>
       <r>   -5.3898    1.0000 </r>
       <r>   -5.0936    1.0000 </r>
       <r>   -1.1320    0.0000 </r>
       <r>   -0.8107    0.0000 </r>
       <r>    4.7084    0.0000 </r>
       <r>    4.9309    0.0000 </r>
      </set>
      <set comment="kpoint 233">
       <r>  -17.3643    1.0000 </r>
       <r>  -17.0841    1.0000 </r>
       <r>  -15.8608    1.0000 </r>
       <r>  -15.5846    1.0000 </r>
       <r>   -9.1738    1.0000 </r>
       <r>   -9.0627    1.0000 </r>
       <r>   -5.3006    1.0000 </r>
       <r>   -5.1493    1.0000 </r>
       <r>   -1.1030    0.0000 </r>
       <r>   -0.9392    0.0000 </r>
       <r>    4.6199    0.0000 </r>
       <r>    4.7334    0.0000 </r>
      </set>
      <set comment="kpoint 234">
       <r>  -17.2096    1.0000 </r>
       <r>  -17.2096    1.0000 </r>
       <r>  -15.7544    1.0000 </r>
       <r>  -15.7544    1.0000 </r>
       <r>   -9.0858    1.0000 </r>
       <r>   -9.0858    1.0000 </r>
       <r>   -5.2193    1.0000 </r>
       <r>   -5.2193    1.0000 </r>
       <r>   -1.0380    0.0000 </r>
       <r>   -1.0380    0.0000 </r>
       <r>    4.6284    0.0000 </r>
       <r>    4.6284    0.0000 </r>
      </set>
      <set comment="kpoint 235">
       <r>  -17.9959    1.0000 </r>
       <r>  -17.9959    1.0000 </r>
       <r>  -13.2121    1.0000 </r>
       <r>  -13.2121    1.0000 </r>
       <r>  -11.6655    1.0000 </r>
       <r>  -11.6655    1.0000 </r>
       <r>   -5.5400    1.0000 </r>
       <r>   -5.5400    1.0000 </r>
       <r>    0.0284    0.0000 </r>
       <r>    0.0284    0.0000 </r>
       <r>    6.3638    0.0000 </r>
       <r>    6.3638    0.0000 </r>
      </set>
      <set comment="kpoint 236">
       <r>  -17.9866    1.0000 </r>
       <r>  -17.9866    1.0000 </r>
       <r>  -13.2999    1.0000 </r>
       <r>  -13.2999    1.0000 </r>
       <r>  -11.5749    1.0000 </r>
       <r>  -11.5749    1.0000 </r>
       <r>   -5.5344    1.0000 </r>
       <r>   -5.5344    1.0000 </r>
       <r>    0.0075    0.0000 </r>
       <r>    0.0075    0.0000 </r>
       <r>    6.3773    0.0000 </r>
       <r>    6.3773    0.0000 </r>
      </set>
      <set comment="kpoint 237">
       <r>  -17.9589    1.0000 </r>
       <r>  -17.9589    1.0000 </r>
       <r>  -13.5179    1.0000 </r>
       <r>  -13.5179    1.0000 </r>
       <r>  -11.3484    1.0000 </r>
       <r>  -11.3484    1.0000 </r>
       <r>   -5.5179    1.0000 </r>
       <r>   -5.5179    1.0000 </r>
       <r>   -0.0532    0.0000 </r>
       <r>   -0.0532    0.0000 </r>
       <r>    6.4177    0.0000 </r>
       <r>    6.4177    0.0000 </r>
      </set>
      <set comment="kpoint 238">
       <r>  -17.9130    1.0000 </r>
       <r>  -17.9130    1.0000 </r>
       <r>  -13.7985    1.0000 </r>
       <r>  -13.7985    1.0000 </r>
       <r>  -11.0557    1.0000 </r>
       <r>  -11.0557    1.0000 </r>
       <r>   -5.4913    1.0000 </r>
       <r>   -5.4913    1.0000 </r>
       <r>   -0.1486    0.0000 </r>
       <r>   -0.1486    0.0000 </r>
       <r>    6.4842    0.0000 </r>
       <r>    6.4842    0.0000 </r>
      </set>
      <set comment="kpoint 239">
       <r>  -17.8493    1.0000 </r>
       <r>  -17.8493    1.0000 </r>
       <r>  -14.1024    1.0000 </r>
       <r>  -14.1024    1.0000 </r>
       <r>  -10.7381    1.0000 </r>
       <r>  -10.7381    1.0000 </r>
       <r>   -5.4556    1.0000 </r>
       <r>   -5.4556    1.0000 </r>
       <r>   -0.2709    0.0000 </r>
       <r>   -0.2709    0.0000 </r>
       <r>    6.5727    0.0000 </r>
       <r>    6.5727    0.0000 </r>
      </set>
      <set comment="kpoint 240">
       <r>  -17.7685    1.0000 </r>
       <r>  -17.7685    1.0000 </r>
       <r>  -14.4108    1.0000 </r>
       <r>  -14.4108    1.0000 </r>
       <r>  -10.4180    1.0000 </r>
       <r>  -10.4180    1.0000 </r>
       <r>   -5.4128    1.0000 </r>
       <r>   -5.4128    1.0000 </r>
       <r>   -0.4108    0.0000 </r>
       <r>   -0.4108    0.0000 </r>
       <r>    6.6045    0.0000 </r>
       <r>    6.6045    0.0000 </r>
      </set>
      <set comment="kpoint 241">
       <r>  -17.6718    1.0000 </r>
       <r>  -17.6718    1.0000 </r>
       <r>  -14.7133    1.0000 </r>
       <r>  -14.7133    1.0000 </r>
       <r>  -10.1098    1.0000 </r>
       <r>  -10.1098    1.0000 </r>
       <r>   -5.3650    1.0000 </r>
       <r>   -5.3650    1.0000 </r>
       <r>   -0.5585    0.0000 </r>
       <r>   -0.5585    0.0000 </r>
       <r>    6.1837    0.0000 </r>
       <r>    6.1837    0.0000 </r>
      </set>
      <set comment="kpoint 242">
       <r>  -17.5611    1.0000 </r>
       <r>  -17.5611    1.0000 </r>
       <r>  -15.0032    1.0000 </r>
       <r>  -15.0032    1.0000 </r>
       <r>   -9.8250    1.0000 </r>
       <r>   -9.8250    1.0000 </r>
       <r>   -5.3153    1.0000 </r>
       <r>   -5.3153    1.0000 </r>
       <r>   -0.7043    0.0000 </r>
       <r>   -0.7043    0.0000 </r>
       <r>    5.7363    0.0000 </r>
       <r>    5.7363    0.0000 </r>
      </set>
      <set comment="kpoint 243">
       <r>  -17.4397    1.0000 </r>
       <r>  -17.4397    1.0000 </r>
       <r>  -15.2741    1.0000 </r>
       <r>  -15.2741    1.0000 </r>
       <r>   -9.5739    1.0000 </r>
       <r>   -9.5739    1.0000 </r>
       <r>   -5.2670    1.0000 </r>
       <r>   -5.2670    1.0000 </r>
       <r>   -0.8390    0.0000 </r>
       <r>   -0.8390    0.0000 </r>
       <r>    5.3471    0.0000 </r>
       <r>    5.3471    0.0000 </r>
      </set>
      <set comment="kpoint 244">
       <r>  -17.3134    1.0000 </r>
       <r>  -17.3134    1.0000 </r>
       <r>  -15.5181    1.0000 </r>
       <r>  -15.5181    1.0000 </r>
       <r>   -9.3661    1.0000 </r>
       <r>   -9.3661    1.0000 </r>
       <r>   -5.2238    1.0000 </r>
       <r>   -5.2238    1.0000 </r>
       <r>   -0.9541    0.0000 </r>
       <r>   -0.9541    0.0000 </r>
       <r>    5.0302    0.0000 </r>
       <r>    5.0302    0.0000 </r>
      </set>
      <set comment="kpoint 245">
       <r>  -17.1934    1.0000 </r>
       <r>  -17.1934    1.0000 </r>
       <r>  -15.7230    1.0000 </r>
       <r>  -15.7230    1.0000 </r>
       <r>   -9.2103    1.0000 </r>
       <r>   -9.2103    1.0000 </r>
       <r>   -5.1895    1.0000 </r>
       <r>   -5.1895    1.0000 </r>
       <r>   -1.0422    0.0000 </r>
       <r>   -1.0422    0.0000 </r>
       <r>    4.7957    0.0000 </r>
       <r>    4.7957    0.0000 </r>
      </set>
      <set comment="kpoint 246">
       <r>  -17.1004    1.0000 </r>
       <r>  -17.1004    1.0000 </r>
       <r>  -15.8672    1.0000 </r>
       <r>  -15.8672    1.0000 </r>
       <r>   -9.1136    1.0000 </r>
       <r>   -9.1136    1.0000 </r>
       <r>   -5.1674    1.0000 </r>
       <r>   -5.1674    1.0000 </r>
       <r>   -1.0976    0.0000 </r>
       <r>   -1.0976    0.0000 </r>
       <r>    4.6516    0.0000 </r>
       <r>    4.6516    0.0000 </r>
      </set>
      <set comment="kpoint 247">
       <r>  -17.0638    1.0000 </r>
       <r>  -17.0638    1.0000 </r>
       <r>  -15.9209    1.0000 </r>
       <r>  -15.9209    1.0000 </r>
       <r>   -9.0808    1.0000 </r>
       <r>   -9.0808    1.0000 </r>
       <r>   -5.1598    1.0000 </r>
       <r>   -5.1598    1.0000 </r>
       <r>   -1.1165    0.0000 </r>
       <r>   -1.1165    0.0000 </r>
       <r>    4.6030    0.0000 </r>
       <r>    4.6030    0.0000 </r>
      </set>
     </set>
    </set>
   </array>
  </eigenvalues>
  <separator name="orbital magnetization" >
   <v name="MAGDIPOLOUT">      0.00000000      0.00000000      0.00000000</v>
  </separator>
 </calculation>
 <structure name="finalpos" >
  <crystal>
   <varray name="basis" >
    <v>       4.26551216       0.00000000       0.00000000 </v>
    <v>       0.00000000       2.49234360       0.00000000 </v>
    <v>       0.00000000       0.00000000      19.83214023 </v>
   </varray>
   <i name="volume">    210.83790140 </i>
   <varray name="rec_basis" >
    <v>       0.23443844       0.00000000       0.00000000 </v>
    <v>       0.00000000       0.40122879       0.00000000 </v>
    <v>       0.00000000       0.00000000       0.05042320 </v>
   </varray>
  </crystal>
  <varray name="positions" >
   <v>       0.00026568      -0.00000000       0.00000000 </v>
   <v>       0.16640099       0.50000000      -0.00000000 </v>
   <v>       0.50026568       0.50000000       0.00000000 </v>
   <v>       0.66640099       0.00000000      -0.00000000 </v>
  </varray>
 </structure>
</modeling>
