gr                                      
           1
     4.265512    0.000000    0.000000
     0.000000    2.492344    0.000000
     0.000000    0.000000   19.832140
   C 
   4
Direct configuration=     1
   0.00026568  0.00000000  0.00000000
   0.16640099  0.50000000  0.00000000
   0.50026568  0.50000000  0.00000000
   0.66640099  0.00000000  0.00000000
Direct configuration=     2
   0.00026569  0.00000000  0.00000000
   0.16640098  0.50000000  0.00000000
   0.50026569  0.50000000  0.00000000
   0.66640098  0.00000000  0.00000000
Direct configuration=     3
   0.00026568  0.00000000  0.00000000
   0.16640099  0.50000000 -0.00000000
   0.50026568  0.50000000  0.00000000
   0.66640099  0.00000000 -0.00000000
Direct configuration=     4
   0.00026568 -0.00000000  0.00000000
   0.16640098  0.50000000 -0.00000000
   0.50026568  0.50000000  0.00000000
   0.66640098  0.00000000 -0.00000000
Direct configuration=     5
   0.00026568 -0.00000000  0.00000000
   0.16640099  0.50000000 -0.00000000
   0.50026568  0.50000000  0.00000000
   0.66640099  0.00000000 -0.00000000
