    4    4  400    1
  0.5270948E+02  0.4262133E-09  0.2504064E-09  0.1975497E-08  0.5000000E-15
  1.000000000000000E-004
  CAR 
 gr                                      
     16    247     12
 
  0.0000000E+00  0.0000000E+00  0.0000000E+00  0.1157407E-02
    1      -22.150743
    2      -16.830897
    3      -15.906871
    4      -10.279470
    5       -9.354166
    6       -5.915657
    7       -5.754698
    8       -4.987016
    9       -1.112186
   10        0.536190
   11        1.335546
   12        1.724609
 
  0.4166667E-01  0.0000000E+00  0.0000000E+00  0.2314815E-02
    1      -22.140418
    2      -17.013590
    3      -15.709059
    4      -10.267184
    5       -9.343843
    6       -5.938921
    7       -5.795925
    8       -5.055646
    9       -1.028261
   10        0.550187
   11        1.349700
   12        1.738939
 
  0.8333333E-01  0.0000000E+00  0.0000000E+00  0.2314815E-02
    1      -22.109447
    2      -17.368298
    3      -15.309079
    4      -10.230345
    5       -9.312923
    6       -6.007389
    7       -5.918032
    8       -5.245311
    9       -0.792886
   10        0.592179
   11        1.392160
   12        1.781930
 
  0.1250000E+00  0.0000000E+00  0.0000000E+00  0.2314815E-02
    1      -22.057849
    2      -17.754851
    3      -14.847375
    4      -10.169010
    5       -9.261559
    6       -6.117332
    7       -6.116542
    8       -5.520486
    9       -0.442114
   10        0.662162
   11        1.462913
   12        1.853583
 
  0.1666667E+00  0.0000000E+00  0.0000000E+00  0.2314815E-02
    1      -21.985659
    2      -18.140494
    3      -14.357167
    4      -10.083275
    5       -9.190009
    6       -6.384716
    7       -6.263216
    8       -5.846812
    9       -0.011187
   10        0.760132
   11        1.561940
   12        1.953897
 
  0.2083333E+00  0.0000000E+00  0.0000000E+00  0.2314815E-02
    1      -21.892927
    2      -18.515718
    3      -13.848633
    4       -9.973283
    5       -9.098647
    6       -6.714410
    7       -6.438474
    8       -6.199329
    9        0.473672
   10        0.886079
   11        1.689209
   12        2.082870
 
  0.2500000E+00  0.0000000E+00  0.0000000E+00  0.2314815E-02
    1      -21.779715
    2      -18.876741
    3      -13.326439
    4       -9.839220
    5       -8.987975
    6       -7.096887
    7       -6.636224
    8       -6.561710
    9        0.994489
   10        1.039983
   11        1.844673
   12        2.240502
 
  0.2916667E+00  0.0000000E+00  0.0000000E+00  0.2314815E-02
    1      -21.646105
    2      -19.221671
    3      -12.793601
    4       -9.681331
    5       -8.858637
    6       -7.523475
    7       -6.923501
    8       -6.849812
    9        1.221813
   10        1.538709
   11        2.028265
   12        2.426787
 
  0.3333333E+00  0.0000000E+00  0.0000000E+00  0.2314815E-02
    1      -21.492192
    2      -19.549398
    3      -12.252627
    4       -9.499922
    5       -8.711445
    6       -7.986003
    7       -7.277895
    8       -7.073155
    9        1.431527
   10        2.096847
   11        2.239878
   12        2.641718
 
  0.3750000E+00  0.0000000E+00  0.0000000E+00  0.2314815E-02
    1      -21.318092
    2      -19.859185
    3      -11.705960
    4       -9.295380
    5       -8.547403
    6       -8.477036
    7       -7.620328
    8       -7.300894
    9        1.669067
   10        2.479329
   11        2.660521
   12        2.885283
 
  0.4166667E+00  0.0000000E+00  0.0000000E+00  0.2314815E-02
    1      -21.123939
    2      -20.150497
    3      -11.156190
    4       -9.068185
    5       -8.989975
    6       -8.367744
    7       -7.947635
    8       -7.528424
    9        1.934351
   10        2.746254
   11        3.157456
   12        3.217770
 
  0.4583333E+00  0.0000000E+00  0.0000000E+00  0.2314815E-02
    1      -20.909893
    2      -20.422926
    3      -10.606191
    4       -9.519042
    5       -8.818940
    6       -8.257551
    7       -8.173978
    8       -7.751855
    9        2.227264
   10        2.895109
   11        3.039697
   12        3.458216
 
  0.5000000E+00  0.0000000E+00  0.0000000E+00  0.1157407E-02
    1      -20.676147
    2      -20.676147
    3      -10.059225
    4      -10.059225
    5       -8.548405
    6       -8.548405
    7       -7.967938
    8       -7.967938
    9        2.547623
   10        2.547623
   11        3.355568
   12        3.355568
 
  0.0000000E+00  0.2777778E-01  0.0000000E+00  0.2314815E-02
    1      -22.137473
    2      -16.819472
    3      -15.895995
    4      -10.263679
    5       -9.413697
    6       -5.970457
    7       -5.786144
    8       -4.970917
    9       -1.117477
   10        0.554159
   11        1.353765
   12        1.743053
 
  0.4166667E-01  0.2777778E-01  0.0000000E+00  0.4629630E-02
    1      -22.127148
    2      -17.002028
    3      -15.698376
    4      -10.251397
    5       -9.403348
    6       -5.997648
    7       -5.822733
    8       -5.039711
    9       -1.033514
   10        0.568158
   11        1.367919
   12        1.757384
 
  0.8333333E-01  0.2777778E-01  0.0000000E+00  0.4629630E-02
    1      -22.096181
    2      -17.356510
    3      -15.298796
    4      -10.214571
    5       -9.372353
    6       -6.080947
    7       -5.928009
    8       -5.229746
    9       -0.798150
   10        0.610152
   11        1.410375
   12        1.800376
 
  0.1250000E+00  0.2777778E-01  0.0000000E+00  0.4629630E-02
    1      -22.044591
    2      -17.742850
    3      -14.837601
    4      -10.153258
    5       -9.320857
    6       -6.230124
    7       -6.084330
    8       -5.505292
    9       -0.447642
   10        0.680141
   11        1.481124
   12        1.872029
 
  0.1666667E+00  0.2777778E-01  0.0000000E+00  0.4629630E-02
    1      -21.972411
    2      -18.128305
    3      -14.348011
    4      -10.067555
    5       -9.249112
    6       -6.461572
    7       -6.263452
    8       -5.831884
    9       -0.017341
   10        0.778119
   11        1.580144
   12        1.972345
 
  0.2083333E+00  0.2777778E-01  0.0000000E+00  0.4629630E-02
    1      -21.879693
    2      -18.503366
    3      -13.840221
    4       -9.957602
    5       -9.157479
    6       -6.770004
    7       -6.456331
    8       -6.184548
    9        0.466517
   10        0.904076
   11        1.707404
   12        2.101320
 
  0.2500000E+00  0.2777778E-01  0.0000000E+00  0.4629630E-02
    1      -21.766499
    2      -18.864248
    3      -13.318922
    4       -9.823588
    5       -9.046443
    6       -7.138609
    7       -6.664449
    8       -6.546983
    9        0.985988
   10        1.057991
   11        1.862858
   12        2.258955
 
  0.2916667E+00  0.2777778E-01  0.0000000E+00  0.4629630E-02
    1      -21.632911
    2      -19.209058
    3      -12.787163
    4       -9.665756
    5       -8.916628
    6       -7.554893
    7       -6.908761
    8       -6.885151
    9        1.239835
   10        1.528563
   11        2.046440
   12        2.445243
 
  0.3333333E+00  0.2777778E-01  0.0000000E+00  0.4629630E-02
    1      -21.479024
    2      -19.536680
    3      -12.247494
    4       -9.484413
    5       -8.768818
    6       -8.009299
    7       -7.263100
    8       -7.113808
    9        1.449564
   10        2.084826
   11        2.258043
   12        2.660180
 
  0.3750000E+00  0.2777778E-01  0.0000000E+00  0.4629630E-02
    1      -21.304954
    2      -19.846377
    3      -11.702411
    4       -9.279945
    5       -8.603982
    6       -8.493789
    7       -7.605453
    8       -7.345671
    9        1.687121
   10        2.497490
   11        2.646561
   12        2.903751
 
  0.4166667E+00  0.2777778E-01  0.0000000E+00  0.4629630E-02
    1      -21.110837
    2      -20.137612
    3      -11.154566
    4       -9.052833
    5       -9.001417
    6       -8.423312
    7       -7.932666
    8       -7.576454
    9        1.952426
   10        2.764423
   11        3.175935
   12        3.202648
 
  0.4583333E+00  0.2777778E-01  0.0000000E+00  0.4629630E-02
    1      -20.896834
    2      -20.409974
    3      -10.606917
    4       -9.526164
    5       -8.803678
    6       -8.242483
    7       -8.228261
    8       -7.802466
    9        2.245366
   10        2.913345
   11        3.057900
   12        3.476712
 
  0.5000000E+00  0.2777778E-01  0.0000000E+00  0.2314815E-02
    1      -20.663138
    2      -20.663138
    3      -10.062825
    4      -10.062825
    5       -8.533239
    6       -8.533239
    7       -8.020598
    8       -8.020598
    9        2.565772
   10        2.565772
   11        3.373782
   12        3.373782
 
  0.0000000E+00  0.5555556E-01  0.0000000E+00  0.2314815E-02
    1      -22.097671
    2      -16.785199
    3      -15.863552
    4      -10.216338
    5       -9.587445
    6       -6.130561
    7       -5.879567
    8       -4.922639
    9       -1.134156
   10        0.608074
   11        1.408417
   12        1.798388
 
  0.4166667E-01  0.5555556E-01  0.0000000E+00  0.4629630E-02
    1      -22.087351
    2      -16.967363
    3      -15.666502
    4      -10.204070
    5       -9.577017
    6       -6.164632
    7       -5.907207
    8       -4.991941
    9       -1.050071
   10        0.622075
   11        1.422568
   12        1.812719
 
  0.8333333E-01  0.5555556E-01  0.0000000E+00  0.4629630E-02
    1      -22.056396
    2      -17.321175
    3      -15.268128
    4      -10.167284
    5       -9.545775
    6       -6.265256
    7       -5.989312
    8       -5.183116
    9       -0.814725
   10        0.664076
   11        1.465015
   12        1.855712
 
  0.1250000E+00  0.5555556E-01  0.0000000E+00  0.4629630E-02
    1      -22.004828
    2      -17.706876
    3      -14.808490
    4      -10.106037
    5       -9.493853
    6       -6.429037
    7       -6.122344
    8       -5.459800
    9       -0.465014
   10        0.734078
   11        1.535747
   12        1.927368
 
  0.1666667E+00  0.5555556E-01  0.0000000E+00  0.4629630E-02
    1      -21.932681
    2      -18.091766
    3      -14.320800
    4      -10.020428
    5       -9.421472
    6       -6.653030
    7       -6.298602
    8       -5.787202
    9       -0.036620
   10        0.832075
   11        1.634745
   12        2.027688
 
  0.2083333E+00  0.5555556E-01  0.0000000E+00  0.4629630E-02
    1      -21.840004
    2      -18.466337
    3      -13.815307
    4       -9.910596
    5       -9.328957
    6       -6.935065
    7       -6.507068
    8       -6.140312
    9        0.444190
   10        0.958057
   11        1.761977
   12        2.156669
 
  0.2500000E+00  0.5555556E-01  0.0000000E+00  0.4629630E-02
    1      -21.726863
    2      -18.826794
    3      -13.296784
    4       -9.776729
    5       -9.216737
    6       -7.271993
    7       -6.736413
    8       -6.502903
    9        0.959560
   10        1.112003
   11        1.917400
   12        2.314311
 
  0.2916667E+00  0.5555556E-01  0.0000000E+00  0.4629630E-02
    1      -21.593340
    2      -19.171239
    3      -12.768388
    4       -9.619072
    5       -9.085363
    6       -7.658373
    7       -6.977449
    8       -6.864638
    9        1.293880
   10        1.497119
   11        2.100947
   12        2.500609
 
  0.3333333E+00  0.5555556E-01  0.0000000E+00  0.4629630E-02
    1      -21.439531
    2      -19.498546
    3      -12.232807
    4       -9.437931
    5       -8.935527
    6       -8.086977
    7       -7.223457
    8       -7.218805
    9        1.503648
   10        2.047650
   11        2.312520
   12        2.715558
 
  0.3750000E+00  0.5555556E-01  0.0000000E+00  0.4629630E-02
    1      -21.265554
    2      -19.807971
    3      -11.692711
    4       -9.233691
    5       -8.768076
    6       -8.550050
    7       -7.560911
    8       -7.469444
    9        1.741247
   10        2.551951
   11        2.603365
   12        2.959146
 
  0.4166667E+00  0.5555556E-01  0.0000000E+00  0.4629630E-02
    1      -21.071545
    2      -20.098972
    3      -11.150976
    4       -9.040203
    5       -9.006831
    6       -8.584046
    7       -7.887836
    8       -7.711492
    9        2.006603
   10        2.818906
   11        3.155115
   12        3.231356
 
  0.4583333E+00  0.5555556E-01  0.0000000E+00  0.4629630E-02
    1      -20.857669
    2      -20.371132
    3      -10.610838
    4       -9.550792
    5       -8.757950
    6       -8.384695
    7       -8.197350
    8       -7.946405
    9        2.299612
   10        2.967897
   11        3.112491
   12        3.532213
 
  0.5000000E+00  0.5555556E-01  0.0000000E+00  0.2314815E-02
    1      -20.624122
    2      -20.624122
    3      -10.076007
    4      -10.076007
    5       -8.487803
    6       -8.487803
    7       -8.171539
    8       -8.171539
    9        2.620124
   10        2.620124
   11        3.428409
   12        3.428409
 
  0.0000000E+00  0.8333333E-01  0.0000000E+00  0.2314815E-02
    1      -22.031375
    2      -16.728092
    3      -15.810132
    4      -10.137547
    5       -9.862201
    6       -6.384354
    7       -6.032307
    8       -4.842242
    9       -1.164628
   10        0.697954
   11        1.499480
   12        1.890616
 
  0.4166667E-01  0.8333333E-01  0.0000000E+00  0.4629630E-02
    1      -22.021062
    2      -16.909654
    3      -15.613997
    4      -10.125301
    5       -9.851617
    6       -6.424201
    7       -6.050905
    8       -4.912443
    9       -1.080305
   10        0.711956
   11        1.513625
   12        1.904948
 
  0.8333333E-01  0.8333333E-01  0.0000000E+00  0.4629630E-02
    1      -21.990129
    2      -17.262380
    3      -15.217661
    4      -10.088584
    5       -9.819901
    6       -6.537194
    7       -6.111367
    8       -5.105627
    9       -0.844938
   10        0.753962
   11        1.556054
   12        1.947942
 
  0.1250000E+00  0.8333333E-01  0.0000000E+00  0.4629630E-02
    1      -21.938598
    2      -17.647018
    3      -14.760721
    4      -10.027452
    5       -9.767152
    6       -6.710576
    7       -6.220917
    8       -5.384290
    9       -0.496564
   10        0.823975
   11        1.626757
   12        2.019601
 
  0.1666667E+00  0.8333333E-01  0.0000000E+00  0.4629630E-02
    1      -21.866504
    2      -18.030960
    3      -14.276367
    4       -9.942003
    5       -9.693541
    6       -6.933750
    7       -6.381336
    8       -5.713084
    9       -0.071431
   10        0.921991
   11        1.725714
   12        2.119924
 
  0.2083333E+00  0.8333333E-01  0.0000000E+00  0.4629630E-02
    1      -21.773898
    2      -18.404704
    3      -13.774945
    4       -9.832377
    5       -9.599308
    6       -7.200298
    7       -6.587637
    8       -6.066945
    9        0.404152
   10        1.048000
   11        1.852894
   12        2.248913
 
  0.2500000E+00  0.8333333E-01  0.0000000E+00  0.4629630E-02
    1      -21.660846
    2      -18.764447
    3      -13.261391
    4       -9.698764
    5       -9.484769
    6       -7.507434
    7       -6.829541
    8       -6.429788
    9        0.912494
   10        1.201980
   11        2.008255
   12        2.406564
 
  0.2916667E+00  0.8333333E-01  0.0000000E+00  0.4629630E-02
    1      -21.527431
    2      -19.108275
    3      -12.739077
    4       -9.541407
    5       -9.350323
    6       -7.854603
    7       -7.093878
    8       -6.791430
    9        1.383899
   10        1.441456
   11        2.191736
   12        2.592875
 
  0.3333333E+00  0.8333333E-01  0.0000000E+00  0.4629630E-02
    1      -21.373752
    2      -19.435051
    3      -12.210973
    4       -9.360612
    5       -9.196452
    6       -8.241317
    7       -7.367637
    8       -7.145286
    9        1.593713
   10        1.982120
   11        2.403245
   12        2.807839
 
  0.3750000E+00  0.8333333E-01  0.0000000E+00  0.4629630E-02
    1      -21.199929
    2      -19.744019
    3      -11.680117
    4       -9.156764
    5       -9.023731
    6       -8.665210
    7       -7.640547
    8       -7.486954
    9        1.831363
   10        2.527247
   11        2.642636
   12        3.051448
 
  0.4166667E+00  0.8333333E-01  0.0000000E+00  0.4629630E-02
    1      -21.006103
    2      -20.034627
    3      -11.149862
    4       -9.121591
    5       -8.930339
    6       -8.832837
    7       -7.905899
    8       -7.813375
    9        2.096775
   10        2.909619
   11        3.069691
   12        3.323689
 
  0.4583333E+00  0.8333333E-01  0.0000000E+00  0.4629630E-02
    1      -20.792442
    2      -20.306448
    3      -10.624049
    4       -9.604359
    5       -8.681932
    6       -8.624557
    7       -8.159761
    8       -8.122361
    9        2.389855
   10        3.058437
   11        3.203401
   12        3.588192
 
  0.5000000E+00  0.8333333E-01  0.0000000E+00  0.2314815E-02
    1      -20.559145
    2      -20.559145
    3      -10.107149
    4      -10.107149
    5       -8.412289
    6       -8.412289
    7       -8.399820
    8       -8.399820
    9        2.710473
   10        2.710473
   11        3.519381
   12        3.519381
 
  0.0000000E+00  0.1111111E+00  0.0000000E+00  0.2314815E-02
    1      -21.938647
    2      -16.648170
    3      -15.736854
    4      -10.219480
    5      -10.027472
    6       -6.715905
    7       -6.240187
    8       -4.729825
    9       -1.212831
   10        0.823822
   11        1.626916
   12        2.019744
 
  0.4166667E-01  0.1111111E+00  0.0000000E+00  0.4629630E-02
    1      -21.928344
    2      -16.829009
    3      -15.541927
    4      -10.208630
    5      -10.015260
    6       -6.760256
    7       -6.250062
    8       -4.801412
    9       -1.128086
   10        0.837822
   11        1.641051
   12        2.034075
 
  0.8333333E-01  0.1111111E+00  0.0000000E+00  0.4629630E-02
    1      -21.897442
    2      -17.180285
    3      -15.148524
    4      -10.176095
    5       -9.978642
    6       -6.882837
    7       -6.288882
    8       -4.997652
    9       -0.892553
   10        0.879825
   11        1.683452
   12        2.077069
 
  0.1250000E+00  0.1111111E+00  0.0000000E+00  0.4629630E-02
    1      -21.845964
    2      -17.563437
    3      -14.695621
    4      -10.121917
    5       -9.917677
    6       -7.064382
    7       -6.372012
    8       -5.279277
    9       -0.546037
   10        0.949835
   11        1.754107
   12        2.148728
 
  0.1666667E+00  0.1111111E+00  0.0000000E+00  0.4629630E-02
    1      -21.773945
    2      -17.946036
    3      -14.216360
    4      -10.046161
    5       -9.832462
    6       -7.289713
    7       -6.508051
    8       -5.610106
    9       -0.125614
   10        1.047854
   11        1.852995
   12        2.249054
 
  0.2083333E+00  0.1111111E+00  0.0000000E+00  0.4629630E-02
    1      -21.681438
    2      -18.318602
    3      -13.721260
    4       -9.948912
    5       -9.723139
    6       -7.549200
    7       -6.697508
    8       -5.965035
    9        0.342383
   10        1.173875
   11        1.980089
   12        2.378047
 
  0.2500000E+00  0.1111111E+00  0.0000000E+00  0.4629630E-02
    1      -21.568512
    2      -18.677326
    3      -13.215545
    4       -9.830260
    5       -9.589896
    6       -7.837499
    7       -6.934572
    8       -6.328202
    9        0.840537
   10        1.327878
   11        2.135344
   12        2.535706
 
  0.2916667E+00  0.1111111E+00  0.0000000E+00  0.4629630E-02
    1      -21.435250
    2      -19.020275
    3      -12.702994
    4       -9.690286
    5       -9.432978
    6       -8.152729
    7       -7.208721
    8       -6.689665
    9        1.357055
   10        1.509829
   11        2.318705
   12        2.722029
 
  0.3333333E+00  0.1111111E+00  0.0000000E+00  0.4629630E-02
    1      -21.281755
    2      -19.346296
    3      -12.187124
    4       -9.529036
    5       -9.252692
    6       -8.495788
    7       -7.506278
    8       -7.043031
    9        1.719679
   10        1.883407
   11        2.530091
   12        2.937008
 
  0.3750000E+00  0.1111111E+00  0.0000000E+00  0.4629630E-02
    1      -21.108150
    2      -19.654612
    3      -11.671701
    4       -9.346497
    5       -9.049420
    6       -8.869073
    7       -7.812462
    8       -7.384027
    9        1.957368
   10        2.412913
   11        2.769381
   12        3.180638
 
  0.4166667E+00  0.1111111E+00  0.0000000E+00  0.4629630E-02
    1      -20.914581
    2      -19.944660
    3      -11.161020
    4       -9.274358
    5       -9.142568
    6       -8.823635
    7       -8.114039
    8       -7.709689
    9        2.222819
   10        2.939793
   11        3.036360
   12        3.452906
 
  0.4583333E+00  0.1111111E+00  0.0000000E+00  0.4629630E-02
    1      -20.701225
    2      -20.216000
    3      -10.660086
    4       -9.710821
    5       -8.917078
    6       -8.575926
    7       -8.401576
    8       -8.017884
    9        2.515942
   10        3.184683
   11        3.330446
   12        3.457014
 
  0.5000000E+00  0.1111111E+00  0.0000000E+00  0.2314815E-02
    1      -20.468284
    2      -20.468284
    3      -10.174633
    4      -10.174633
    5       -8.669931
    6       -8.669931
    7       -8.307031
    8       -8.307031
    9        2.836617
   10        2.836617
   11        3.646353
   12        3.646381
 
  0.0000000E+00  0.1388889E+00  0.0000000E+00  0.2314815E-02
    1      -21.819577
    2      -16.545464
    3      -15.645621
    4      -10.638736
    5       -9.886355
    6       -7.108153
    7       -6.497856
    8       -4.585531
    9       -1.284067
   10        0.985694
   11        1.790670
   12        2.185775
 
  0.4166667E-01  0.1388889E+00  0.0000000E+00  0.4629630E-02
    1      -21.809287
    2      -16.725605
    3      -15.452120
    4      -10.627438
    5       -9.874188
    6       -7.156271
    7       -6.499073
    8       -4.659154
    9       -1.198579
   10        0.999687
   11        1.804790
   12        2.200106
 
  0.8333333E-01  0.1388889E+00  0.0000000E+00  0.4629630E-02
    1      -21.778426
    2      -17.075145
    3      -15.062682
    4      -10.593523
    5       -9.837706
    6       -7.287109
    7       -6.515557
    8       -4.859806
    9       -0.962510
   10        1.041671
   11        1.847145
   12        2.243097
 
  0.1250000E+00  0.1388889E+00  0.0000000E+00  0.4629630E-02
    1      -21.727016
    2      -17.456390
    3      -14.615549
    4      -10.536920
    5       -9.776968
    6       -7.476428
    7       -6.569313
    8       -5.145593
    9       -0.618282
   10        1.111656
   11        1.917722
   12        2.314752
 
  0.1666667E+00  0.1388889E+00  0.0000000E+00  0.4629630E-02
    1      -21.655096
    2      -17.837227
    3      -14.143786
    4      -10.457491
    5       -9.692071
    6       -7.705746
    7       -6.674614
    8       -5.479192
    9       -0.204089
   10        1.209651
   11        2.016501
   12        2.415074
 
  0.2083333E+00  0.1388889E+00  0.0000000E+00  0.4629630E-02
    1      -21.562718
    2      -18.208240
    3      -13.658221
    4      -10.355002
    5       -9.583159
    6       -7.963353
    7       -6.836632
    8       -5.835506
    9        0.253792
   10        1.335655
   11        2.143449
   12        2.544067
 
  0.2500000E+00  0.1388889E+00  0.0000000E+00  0.4629630E-02
    1      -21.449953
    2      -18.565618
    3      -13.164623
    4      -10.229077
    5       -9.450423
    6       -8.242064
    7       -7.053717
    8       -6.199025
    9        0.738394
   10        1.489651
   11        2.298522
   12        2.701730
 
  0.2916667E+00  0.1388889E+00  0.0000000E+00  0.4629630E-02
    1      -21.316890
    2      -18.907406
    3      -12.667554
    4      -10.079130
    5       -9.294106
    6       -8.537949
    7       -7.319131
    8       -6.560161
    9        1.238430
   10        1.671607
   11        2.481663
   12        2.888060
 
  0.3333333E+00  0.1388889E+00  0.0000000E+00  0.4629630E-02
    1      -21.163633
    2      -19.232428
    3      -12.171608
    4       -9.904287
    5       -9.114515
    6       -8.849862
    7       -7.622309
    8       -6.912785
    9        1.745885
   10        1.881469
   11        2.692796
   12        3.103052
 
  0.3750000E+00  0.1388889E+00  0.0000000E+00  0.4629630E-02
    1      -20.990313
    2      -19.539887
    3      -11.681941
    4       -9.703326
    5       -9.179281
    6       -8.912032
    7       -7.949861
    8       -7.252808
    9        2.119169
   10        2.254642
   11        2.931822
   12        3.346697
 
  0.4166667E+00  0.1388889E+00  0.0000000E+00  0.4629630E-02
    1      -20.797082
    2      -19.829197
    3      -11.204479
    4       -9.529892
    5       -9.474743
    6       -8.687128
    7       -8.286684
    8       -7.577387
    9        2.384628
   10        2.759728
   11        3.198607
   12        3.618987
 
  0.4583333E+00  0.1388889E+00  0.0000000E+00  0.4629630E-02
    1      -20.584123
    2      -20.099906
    3      -10.745693
    4       -9.906285
    5       -9.217169
    6       -8.617724
    7       -8.440384
    8       -7.884470
    9        2.677748
   10        3.256854
   11        3.346469
   12        3.492932
 
  0.5000000E+00  0.1388889E+00  0.0000000E+00  0.2314815E-02
    1      -20.351647
    2      -20.351647
    3      -10.311647
    4      -10.311647
    5       -8.930490
    6       -8.930490
    7       -8.172526
    8       -8.172526
    9        2.998412
   10        2.998412
   11        3.740396
   12        3.740867
 
  0.0000000E+00  0.1666667E+00  0.0000000E+00  0.2314815E-02
    1      -21.674286
    2      -16.420014
    3      -15.539643
    4      -11.099299
    5       -9.714518
    6       -7.545148
    7       -6.799169
    8       -4.409547
    9       -1.384643
   10        1.183569
   11        1.990661
   12        2.388714
 
  0.4166667E-01  0.1666667E+00  0.0000000E+00  0.4629630E-02
    1      -21.664013
    2      -16.599725
    3      -15.347680
    4      -11.087237
    5       -9.702410
    6       -7.596675
    7       -6.791693
    8       -4.486144
    9       -1.297826
   10        1.197550
   11        2.004757
   12        2.403042
 
  0.8333333E-01  0.1666667E+00  0.0000000E+00  0.4629630E-02
    1      -21.633202
    2      -16.947364
    3      -14.963552
    4      -11.050955
    5       -9.666106
    6       -7.735185
    7       -6.785188
    8       -4.693073
    9       -1.060404
   10        1.239500
   11        2.047039
   12        2.446027
 
  0.1250000E+00  0.1666667E+00  0.0000000E+00  0.4629630E-02
    1      -21.581877
    2      -17.326272
    3      -14.524728
    4      -10.990147
    5       -9.605665
    6       -7.932261
    7       -6.807353
    8       -4.984549
    9       -0.718656
   10        1.309432
   11        2.117491
   12        2.517673
 
  0.1666667E+00  0.1666667E+00  0.0000000E+00  0.4629630E-02
    1      -21.510077
    2      -17.704888
    3      -14.064194
    4      -10.904249
    5       -9.521187
    6       -8.166780
    7       -6.877376
    8       -5.321761
    9       -0.312193
   10        1.407364
   11        2.216086
   12        2.617985
 
  0.2083333E+00  0.1666667E+00  0.0000000E+00  0.4629630E-02
    1      -21.417858
    2      -18.073928
    3      -13.593395
    4      -10.792353
    5       -9.412816
    6       -8.425609
    7       -7.004505
    8       -5.679752
    9        0.132967
   10        1.533307
   11        2.342783
   12        2.746968
 
  0.2500000E+00  0.1666667E+00  0.0000000E+00  0.4629630E-02
    1      -21.305294
    2      -18.429591
    3      -13.119182
    4      -10.653083
    5       -9.280746
    6       -8.700524
    7       -7.190706
    8       -6.043566
    9        0.600590
   10        1.687252
   11        2.497523
   12        2.904625
 
  0.2916667E+00  0.1666667E+00  0.0000000E+00  0.4629630E-02
    1      -21.172477
    2      -18.769904
    3      -12.647663
    4      -10.484462
    5       -9.125222
    6       -8.986388
    7       -7.432570
    8       -6.404114
    9        1.080151
   10        1.869169
   11        2.680226
   12        3.090955
 
  0.3333333E+00  0.1666667E+00  0.0000000E+00  0.4629630E-02
    1      -21.019518
    2      -19.093660
    3      -12.185383
    4      -10.283859
    5       -9.280380
    6       -8.946552
    7       -7.722654
    8       -6.755629
    9        1.564346
   10        2.079003
   11        2.890778
   12        3.305954
 
  0.3750000E+00  0.1666667E+00  0.0000000E+00  0.4629630E-02
    1      -20.846553
    2      -19.400033
    3      -11.739496
    4      -10.048292
    5       -9.581791
    6       -8.745117
    7       -8.050530
    8       -7.094266
    9        2.047741
   10        2.316679
   11        3.128993
   12        3.549611
 
  0.4166667E+00  0.1666667E+00  0.0000000E+00  0.4629630E-02
    1      -20.653744
    2      -19.688414
    3      -11.316930
    4       -9.892097
    5       -9.775544
    6       -8.521385
    7       -8.403537
    8       -7.417340
    9        2.526021
   10        2.582106
   11        3.394451
   12        3.821916
 
  0.4583333E+00  0.1666667E+00  0.0000000E+00  0.4629630E-02
    1      -20.441281
    2      -19.958327
    3      -10.922424
    4      -10.215077
    5       -9.466312
    6       -8.767298
    7       -8.275933
    8       -7.722898
    9        2.875174
   10        2.995494
   11        3.543699
   12        3.683072
 
  0.5000000E+00  0.1666667E+00  0.0000000E+00  0.2314815E-02
    1      -20.209388
    2      -20.209388
    3      -10.556460
    4      -10.556460
    5       -9.126452
    6       -9.126452
    7       -8.009473
    8       -8.009473
    9        3.195756
   10        3.195756
   11        3.452142
   12        3.452142
 