       N       E                     dE             d eps       ncg     rms          rms(c)
DAV:   1     0.188137014428E+03    0.18814E+03   -0.10560E+04  5928   0.274E+03
DAV:   2    -0.949361715082E+01   -0.19763E+03   -0.17563E+03 10444   0.260E+02
DAV:   3    -0.382507588035E+02   -0.28757E+02   -0.28237E+02  7312   0.119E+02    0.720E+00
RMM:   4    -0.376437151878E+02    0.60704E+00   -0.92901E+00  5928   0.265E+01    0.417E+00
RMM:   5    -0.369109864159E+02    0.73273E+00   -0.27177E+00  5930   0.113E+01    0.709E-01
RMM:   6    -0.369128270736E+02   -0.18407E-02   -0.82617E-02  6371   0.202E+00    0.509E-01
RMM:   7    -0.369036228551E+02    0.92042E-02   -0.32132E-02  5948   0.156E+00    0.333E-01
RMM:   8    -0.368983000234E+02    0.53228E-02   -0.73466E-03  5929   0.567E-01    0.130E-01
RMM:   9    -0.368981413579E+02    0.15867E-03   -0.19467E-02  5928   0.825E-01    0.156E-01
RMM:  10    -0.368980411475E+02    0.10021E-03   -0.25256E-03  5928   0.362E-01    0.298E-02
RMM:  11    -0.369004484058E+02   -0.24073E-02   -0.66272E-04  5931   0.170E-01    0.443E-02
RMM:  12    -0.369009274771E+02   -0.47907E-03   -0.22944E-04  5940   0.999E-02    0.446E-03
RMM:  13    -0.369011728366E+02   -0.24536E-03   -0.47731E-05  6015   0.378E-02    0.411E-03
RMM:  14    -0.369012550679E+02   -0.82231E-04   -0.10859E-05  5955   0.179E-02    0.170E-03
RMM:  15    -0.369012642398E+02   -0.91719E-05   -0.15169E-06  5989   0.725E-03    0.136E-03
RMM:  16    -0.369012765869E+02   -0.12347E-04   -0.80170E-07  5928   0.567E-03    0.789E-04
RMM:  17    -0.369012816968E+02   -0.51099E-05   -0.50015E-08  6113   0.149E-03    0.745E-04
RMM:  18    -0.369012828266E+02   -0.11298E-05   -0.57988E-08  5928   0.180E-03    0.826E-05
RMM:  19    -0.369012835923E+02   -0.76576E-06   -0.10427E-08  5959   0.480E-04    0.207E-05
RMM:  20    -0.369012836456E+02   -0.53261E-07   -0.73489E-10  4464   0.128E-04    0.224E-05
RMM:  21    -0.369012836627E+02   -0.17131E-07   -0.24515E-10  4381   0.930E-05    0.444E-06
RMM:  22    -0.369012836628E+02   -0.68894E-10   -0.80557E-12  3884   0.415E-05
   1 F= -.36901284E+02 E0= -.36901281E+02  d E =-.369013E+02
       N       E                     dE             d eps       ncg     rms          rms(c)
DAV:   1    -0.369012827391E+02    0.92362E-06   -0.79296E-05  6524   0.839E-02    0.173E-03
RMM:   2    -0.369012827960E+02   -0.56906E-07   -0.13193E-06  5953   0.101E-02    0.126E-03
RMM:   3    -0.369012827690E+02    0.27030E-07   -0.21766E-07  5983   0.377E-03    0.325E-04
RMM:   4    -0.369012827635E+02    0.55109E-08   -0.13593E-08  6037   0.918E-04    0.916E-05
RMM:   5    -0.369012827651E+02   -0.16448E-08   -0.10482E-09  5348   0.235E-04    0.410E-05
RMM:   6    -0.369012827649E+02    0.24568E-09   -0.13400E-10  3854   0.982E-05    0.483E-06
RMM:   7    -0.369012827647E+02    0.21907E-09   -0.17646E-11  3773   0.540E-05    0.274E-06
RMM:   8    -0.369012827650E+02   -0.34879E-09   -0.16266E-11  3374   0.397E-05    0.115E-06
RMM:   9    -0.369012827648E+02    0.19418E-09   -0.71480E-12  3040   0.304E-05    0.569E-07
RMM:  10    -0.369012827646E+02    0.19440E-09   -0.58614E-12  2801   0.265E-05    0.140E-06
RMM:  11    -0.369012827645E+02    0.96975E-10   -0.30196E-12  2521   0.239E-05
   2 F= -.36901283E+02 E0= -.36901280E+02  d E =0.898276E-06
       N       E                     dE             d eps       ncg     rms          rms(c)
DAV:   1    -0.369012837279E+02   -0.96327E-06   -0.51131E-05  6740   0.674E-02    0.140E-03
RMM:   2    -0.369012837574E+02   -0.29498E-07   -0.81580E-07  5943   0.808E-03    0.101E-03
RMM:   3    -0.369012837257E+02    0.31663E-07   -0.13602E-07  5977   0.298E-03    0.246E-04
RMM:   4    -0.369012837244E+02    0.12773E-08   -0.80366E-09  6061   0.709E-04    0.735E-05
RMM:   5    -0.369012837234E+02    0.10216E-08   -0.60592E-10  4746   0.182E-04    0.325E-05
RMM:   6    -0.369012837238E+02   -0.33356E-09   -0.81620E-11  3771   0.825E-05    0.413E-06
RMM:   7    -0.369012837234E+02    0.39643E-09   -0.16878E-11  3724   0.534E-05    0.270E-06
RMM:   8    -0.369012837234E+02   -0.74124E-10   -0.14926E-11  3253   0.390E-05
   3 F= -.36901284E+02 E0= -.36901281E+02  d E =-.958910E-06
       N       E                     dE             d eps       ncg     rms          rms(c)
DAV:   1    -0.369012837228E+02    0.52728E-09    0.61098E-09  4704   0.469E-05    0.625E-07
RMM:   2    -0.369012837237E+02   -0.87641E-09    0.48048E-14  1937   0.175E-05    0.393E-07
RMM:   3    -0.369012837234E+02    0.28251E-09   -0.85000E-13  1818   0.172E-05    0.651E-08
RMM:   4    -0.369012837238E+02   -0.37448E-09   -0.12442E-12  1734   0.167E-05    0.440E-08
RMM:   5    -0.369012837235E+02    0.26671E-09   -0.11578E-12  1729   0.163E-05    0.241E-08
RMM:   6    -0.369012837237E+02   -0.21612E-09   -0.71815E-13  1658   0.160E-05    0.183E-08
RMM:   7    -0.369012837238E+02   -0.21146E-10    0.19778E-13  1616   0.157E-05
   4 F= -.36901284E+02 E0= -.36901281E+02  d E =-.337536E-09
       N       E                     dE             d eps       ncg     rms          rms(c)
DAV:   1    -0.369012837229E+02    0.81332E-09    0.61291E-09  4536   0.223E-05    0.317E-07
RMM:   2    -0.369012837235E+02   -0.54979E-09    0.11612E-13  1271   0.769E-06    0.197E-07
RMM:   3    -0.369012837235E+02   -0.55479E-10    0.14844E-13  1316   0.753E-06    0.138E-08
RMM:   4    -0.369012837237E+02   -0.18338E-09   -0.32895E-15  1302   0.752E-06    0.598E-09
RMM:   5    -0.369012837239E+02   -0.16223E-09   -0.11583E-13  1297   0.752E-06    0.408E-09
RMM:   6    -0.369012837234E+02    0.49579E-09   -0.16448E-13  1257   0.749E-06    0.186E-09
RMM:   7    -0.369012837238E+02   -0.42508E-09   -0.22163E-14  1032   0.746E-06    0.143E-09
RMM:   8    -0.369012837238E+02    0.38654E-10    0.36473E-14  1021   0.748E-06
   5 F= -.36901284E+02 E0= -.36901281E+02  d E =-.704858E-11
