<?xml version="1.0" encoding="ISO-8859-1"?>
<modeling>
 <generator>
  <i name="program" type="string">vasp </i>
  <i name="version" type="string">5.3.5  </i>
  <i name="subversion" type="string">31Mar14 (build Mar 02 2015 18:14:16) complex                          parallel </i>
  <i name="platform" type="string">LinuxIFC </i>
  <i name="date" type="string">2018 08 09 </i>
  <i name="time" type="string">20:03:22 </i>
 </generator>
 <incar>
  <i type="string" name="SYSTEM">  gr</i>
  <i type="string" name="PREC">accurate : accuracy</i>
  <i type="string" name="ALGO"> FAST.</i>
  <i type="int" name="NELM">   100</i>
  <i type="int" name="NELMDL">    -3</i>
  <i type="int" name="NELMIN">     5</i>
  <i type="int" name="IBRION">     1</i>
  <i name="EDIFF">      0.00000000</i>
  <i name="EDIFFG">     -0.00000100</i>
  <i type="int" name="NSW">   400</i>
  <i type="int" name="ISIF">     2</i>
  <i name="ENCUT">   2000.00000000</i>
  <i type="int" name="ISMEAR">     0</i>
  <i name="SIGMA">      0.05000000</i>
  <i type="int" name="NWRITE">     2</i>
  <i type="logical" name="LWAVE"> F  </i>
  <i type="logical" name="LCHARG"> F  </i>
  <i type="int" name="NELM">   100</i>
 </incar>
 <kpoints>
  <generation param="Gamma">
   <v type="int" name="divisions">      24       36        1 </v>
   <v name="usershift">      0.00000000       0.00000000       0.00000000 </v>
   <v name="genvec1">      0.04166667       0.00000000       0.00000000 </v>
   <v name="genvec2">      0.00000000       0.02777778       0.00000000 </v>
   <v name="genvec3">      0.00000000       0.00000000       1.00000000 </v>
   <v name="shift">      0.00000000       0.00000000       0.00000000 </v>
  </generation>
  <varray name="kpointlist" >
   <v>       0.00000000       0.00000000       0.00000000 </v>
   <v>       0.04166667       0.00000000       0.00000000 </v>
   <v>       0.08333333       0.00000000       0.00000000 </v>
   <v>       0.12500000       0.00000000       0.00000000 </v>
   <v>       0.16666667       0.00000000       0.00000000 </v>
   <v>       0.20833333       0.00000000       0.00000000 </v>
   <v>       0.25000000       0.00000000       0.00000000 </v>
   <v>       0.29166667       0.00000000       0.00000000 </v>
   <v>       0.33333333       0.00000000       0.00000000 </v>
   <v>       0.37500000       0.00000000       0.00000000 </v>
   <v>       0.41666667       0.00000000       0.00000000 </v>
   <v>       0.45833333       0.00000000       0.00000000 </v>
   <v>       0.50000000       0.00000000       0.00000000 </v>
   <v>       0.00000000       0.02777778       0.00000000 </v>
   <v>       0.04166667       0.02777778       0.00000000 </v>
   <v>       0.08333333       0.02777778       0.00000000 </v>
   <v>       0.12500000       0.02777778       0.00000000 </v>
   <v>       0.16666667       0.02777778       0.00000000 </v>
   <v>       0.20833333       0.02777778       0.00000000 </v>
   <v>       0.25000000       0.02777778       0.00000000 </v>
   <v>       0.29166667       0.02777778       0.00000000 </v>
   <v>       0.33333333       0.02777778       0.00000000 </v>
   <v>       0.37500000       0.02777778       0.00000000 </v>
   <v>       0.41666667       0.02777778       0.00000000 </v>
   <v>       0.45833333       0.02777778       0.00000000 </v>
   <v>       0.50000000       0.02777778       0.00000000 </v>
   <v>       0.00000000       0.05555556       0.00000000 </v>
   <v>       0.04166667       0.05555556       0.00000000 </v>
   <v>       0.08333333       0.05555556       0.00000000 </v>
   <v>       0.12500000       0.05555556       0.00000000 </v>
   <v>       0.16666667       0.05555556       0.00000000 </v>
   <v>       0.20833333       0.05555556       0.00000000 </v>
   <v>       0.25000000       0.05555556       0.00000000 </v>
   <v>       0.29166667       0.05555556       0.00000000 </v>
   <v>       0.33333333       0.05555556       0.00000000 </v>
   <v>       0.37500000       0.05555556       0.00000000 </v>
   <v>       0.41666667       0.05555556       0.00000000 </v>
   <v>       0.45833333       0.05555556       0.00000000 </v>
   <v>       0.50000000       0.05555556       0.00000000 </v>
   <v>       0.00000000       0.08333333       0.00000000 </v>
   <v>       0.04166667       0.08333333       0.00000000 </v>
   <v>       0.08333333       0.08333333       0.00000000 </v>
   <v>       0.12500000       0.08333333       0.00000000 </v>
   <v>       0.16666667       0.08333333       0.00000000 </v>
   <v>       0.20833333       0.08333333       0.00000000 </v>
   <v>       0.25000000       0.08333333       0.00000000 </v>
   <v>       0.29166667       0.08333333       0.00000000 </v>
   <v>       0.33333333       0.08333333       0.00000000 </v>
   <v>       0.37500000       0.08333333       0.00000000 </v>
   <v>       0.41666667       0.08333333       0.00000000 </v>
   <v>       0.45833333       0.08333333       0.00000000 </v>
   <v>       0.50000000       0.08333333       0.00000000 </v>
   <v>       0.00000000       0.11111111       0.00000000 </v>
   <v>       0.04166667       0.11111111       0.00000000 </v>
   <v>       0.08333333       0.11111111       0.00000000 </v>
   <v>       0.12500000       0.11111111       0.00000000 </v>
   <v>       0.16666667       0.11111111       0.00000000 </v>
   <v>       0.20833333       0.11111111       0.00000000 </v>
   <v>       0.25000000       0.11111111       0.00000000 </v>
   <v>       0.29166667       0.11111111       0.00000000 </v>
   <v>       0.33333333       0.11111111       0.00000000 </v>
   <v>       0.37500000       0.11111111       0.00000000 </v>
   <v>       0.41666667       0.11111111       0.00000000 </v>
   <v>       0.45833333       0.11111111       0.00000000 </v>
   <v>       0.50000000       0.11111111       0.00000000 </v>
   <v>       0.00000000       0.13888889       0.00000000 </v>
   <v>       0.04166667       0.13888889       0.00000000 </v>
   <v>       0.08333333       0.13888889       0.00000000 </v>
   <v>       0.12500000       0.13888889       0.00000000 </v>
   <v>       0.16666667       0.13888889       0.00000000 </v>
   <v>       0.20833333       0.13888889       0.00000000 </v>
   <v>       0.25000000       0.13888889       0.00000000 </v>
   <v>       0.29166667       0.13888889       0.00000000 </v>
   <v>       0.33333333       0.13888889       0.00000000 </v>
   <v>       0.37500000       0.13888889       0.00000000 </v>
   <v>       0.41666667       0.13888889       0.00000000 </v>
   <v>       0.45833333       0.13888889       0.00000000 </v>
   <v>       0.50000000       0.13888889       0.00000000 </v>
   <v>       0.00000000       0.16666667       0.00000000 </v>
   <v>       0.04166667       0.16666667       0.00000000 </v>
   <v>       0.08333333       0.16666667       0.00000000 </v>
   <v>       0.12500000       0.16666667       0.00000000 </v>
   <v>       0.16666667       0.16666667       0.00000000 </v>
   <v>       0.20833333       0.16666667       0.00000000 </v>
   <v>       0.25000000       0.16666667       0.00000000 </v>
   <v>       0.29166667       0.16666667       0.00000000 </v>
   <v>       0.33333333       0.16666667       0.00000000 </v>
   <v>       0.37500000       0.16666667       0.00000000 </v>
   <v>       0.41666667       0.16666667       0.00000000 </v>
   <v>       0.45833333       0.16666667       0.00000000 </v>
   <v>       0.50000000       0.16666667       0.00000000 </v>
   <v>       0.00000000       0.19444444       0.00000000 </v>
   <v>       0.04166667       0.19444444       0.00000000 </v>
   <v>       0.08333333       0.19444444       0.00000000 </v>
   <v>       0.12500000       0.19444444       0.00000000 </v>
   <v>       0.16666667       0.19444444       0.00000000 </v>
   <v>       0.20833333       0.19444444       0.00000000 </v>
   <v>       0.25000000       0.19444444       0.00000000 </v>
   <v>       0.29166667       0.19444444       0.00000000 </v>
   <v>       0.33333333       0.19444444       0.00000000 </v>
   <v>       0.37500000       0.19444444       0.00000000 </v>
   <v>       0.41666667       0.19444444       0.00000000 </v>
   <v>       0.45833333       0.19444444       0.00000000 </v>
   <v>       0.50000000       0.19444444       0.00000000 </v>
   <v>       0.00000000       0.22222222       0.00000000 </v>
   <v>       0.04166667       0.22222222       0.00000000 </v>
   <v>       0.08333333       0.22222222       0.00000000 </v>
   <v>       0.12500000       0.22222222       0.00000000 </v>
   <v>       0.16666667       0.22222222       0.00000000 </v>
   <v>       0.20833333       0.22222222       0.00000000 </v>
   <v>       0.25000000       0.22222222       0.00000000 </v>
   <v>       0.29166667       0.22222222       0.00000000 </v>
   <v>       0.33333333       0.22222222       0.00000000 </v>
   <v>       0.37500000       0.22222222       0.00000000 </v>
   <v>       0.41666667       0.22222222       0.00000000 </v>
   <v>       0.45833333       0.22222222       0.00000000 </v>
   <v>       0.50000000       0.22222222       0.00000000 </v>
   <v>       0.00000000       0.25000000       0.00000000 </v>
   <v>       0.04166667       0.25000000       0.00000000 </v>
   <v>       0.08333333       0.25000000       0.00000000 </v>
   <v>       0.12500000       0.25000000       0.00000000 </v>
   <v>       0.16666667       0.25000000       0.00000000 </v>
   <v>       0.20833333       0.25000000       0.00000000 </v>
   <v>       0.25000000       0.25000000       0.00000000 </v>
   <v>       0.29166667       0.25000000       0.00000000 </v>
   <v>       0.33333333       0.25000000       0.00000000 </v>
   <v>       0.37500000       0.25000000       0.00000000 </v>
   <v>       0.41666667       0.25000000       0.00000000 </v>
   <v>       0.45833333       0.25000000       0.00000000 </v>
   <v>       0.50000000       0.25000000       0.00000000 </v>
   <v>       0.00000000       0.27777778       0.00000000 </v>
   <v>       0.04166667       0.27777778       0.00000000 </v>
   <v>       0.08333333       0.27777778       0.00000000 </v>
   <v>       0.12500000       0.27777778       0.00000000 </v>
   <v>       0.16666667       0.27777778       0.00000000 </v>
   <v>       0.20833333       0.27777778       0.00000000 </v>
   <v>       0.25000000       0.27777778       0.00000000 </v>
   <v>       0.29166667       0.27777778       0.00000000 </v>
   <v>       0.33333333       0.27777778       0.00000000 </v>
   <v>       0.37500000       0.27777778       0.00000000 </v>
   <v>       0.41666667       0.27777778       0.00000000 </v>
   <v>       0.45833333       0.27777778       0.00000000 </v>
   <v>       0.50000000       0.27777778       0.00000000 </v>
   <v>       0.00000000       0.30555556       0.00000000 </v>
   <v>       0.04166667       0.30555556       0.00000000 </v>
   <v>       0.08333333       0.30555556       0.00000000 </v>
   <v>       0.12500000       0.30555556       0.00000000 </v>
   <v>       0.16666667       0.30555556       0.00000000 </v>
   <v>       0.20833333       0.30555556       0.00000000 </v>
   <v>       0.25000000       0.30555556       0.00000000 </v>
   <v>       0.29166667       0.30555556       0.00000000 </v>
   <v>       0.33333333       0.30555556       0.00000000 </v>
   <v>       0.37500000       0.30555556       0.00000000 </v>
   <v>       0.41666667       0.30555556       0.00000000 </v>
   <v>       0.45833333       0.30555556       0.00000000 </v>
   <v>       0.50000000       0.30555556       0.00000000 </v>
   <v>       0.00000000       0.33333333       0.00000000 </v>
   <v>       0.04166667       0.33333333       0.00000000 </v>
   <v>       0.08333333       0.33333333       0.00000000 </v>
   <v>       0.12500000       0.33333333       0.00000000 </v>
   <v>       0.16666667       0.33333333       0.00000000 </v>
   <v>       0.20833333       0.33333333       0.00000000 </v>
   <v>       0.25000000       0.33333333       0.00000000 </v>
   <v>       0.29166667       0.33333333       0.00000000 </v>
   <v>       0.33333333       0.33333333       0.00000000 </v>
   <v>       0.37500000       0.33333333       0.00000000 </v>
   <v>       0.41666667       0.33333333       0.00000000 </v>
   <v>       0.45833333       0.33333333       0.00000000 </v>
   <v>       0.50000000       0.33333333       0.00000000 </v>
   <v>       0.00000000       0.36111111       0.00000000 </v>
   <v>       0.04166667       0.36111111       0.00000000 </v>
   <v>       0.08333333       0.36111111       0.00000000 </v>
   <v>       0.12500000       0.36111111       0.00000000 </v>
   <v>       0.16666667       0.36111111       0.00000000 </v>
   <v>       0.20833333       0.36111111       0.00000000 </v>
   <v>       0.25000000       0.36111111       0.00000000 </v>
   <v>       0.29166667       0.36111111       0.00000000 </v>
   <v>       0.33333333       0.36111111       0.00000000 </v>
   <v>       0.37500000       0.36111111       0.00000000 </v>
   <v>       0.41666667       0.36111111       0.00000000 </v>
   <v>       0.45833333       0.36111111       0.00000000 </v>
   <v>       0.50000000       0.36111111       0.00000000 </v>
   <v>       0.00000000       0.38888889       0.00000000 </v>
   <v>       0.04166667       0.38888889       0.00000000 </v>
   <v>       0.08333333       0.38888889       0.00000000 </v>
   <v>       0.12500000       0.38888889       0.00000000 </v>
   <v>       0.16666667       0.38888889       0.00000000 </v>
   <v>       0.20833333       0.38888889       0.00000000 </v>
   <v>       0.25000000       0.38888889       0.00000000 </v>
   <v>       0.29166667       0.38888889       0.00000000 </v>
   <v>       0.33333333       0.38888889       0.00000000 </v>
   <v>       0.37500000       0.38888889       0.00000000 </v>
   <v>       0.41666667       0.38888889       0.00000000 </v>
   <v>       0.45833333       0.38888889       0.00000000 </v>
   <v>       0.50000000       0.38888889       0.00000000 </v>
   <v>       0.00000000       0.41666667       0.00000000 </v>
   <v>       0.04166667       0.41666667       0.00000000 </v>
   <v>       0.08333333       0.41666667       0.00000000 </v>
   <v>       0.12500000       0.41666667       0.00000000 </v>
   <v>       0.16666667       0.41666667       0.00000000 </v>
   <v>       0.20833333       0.41666667       0.00000000 </v>
   <v>       0.25000000       0.41666667       0.00000000 </v>
   <v>       0.29166667       0.41666667       0.00000000 </v>
   <v>       0.33333333       0.41666667       0.00000000 </v>
   <v>       0.37500000       0.41666667       0.00000000 </v>
   <v>       0.41666667       0.41666667       0.00000000 </v>
   <v>       0.45833333       0.41666667       0.00000000 </v>
   <v>       0.50000000       0.41666667       0.00000000 </v>
   <v>       0.00000000       0.44444444       0.00000000 </v>
   <v>       0.04166667       0.44444444       0.00000000 </v>
   <v>       0.08333333       0.44444444       0.00000000 </v>
   <v>       0.12500000       0.44444444       0.00000000 </v>
   <v>       0.16666667       0.44444444       0.00000000 </v>
   <v>       0.20833333       0.44444444       0.00000000 </v>
   <v>       0.25000000       0.44444444       0.00000000 </v>
   <v>       0.29166667       0.44444444       0.00000000 </v>
   <v>       0.33333333       0.44444444       0.00000000 </v>
   <v>       0.37500000       0.44444444       0.00000000 </v>
   <v>       0.41666667       0.44444444       0.00000000 </v>
   <v>       0.45833333       0.44444444       0.00000000 </v>
   <v>       0.50000000       0.44444444       0.00000000 </v>
   <v>       0.00000000       0.47222222       0.00000000 </v>
   <v>       0.04166667       0.47222222       0.00000000 </v>
   <v>       0.08333333       0.47222222       0.00000000 </v>
   <v>       0.12500000       0.47222222       0.00000000 </v>
   <v>       0.16666667       0.47222222       0.00000000 </v>
   <v>       0.20833333       0.47222222       0.00000000 </v>
   <v>       0.25000000       0.47222222       0.00000000 </v>
   <v>       0.29166667       0.47222222       0.00000000 </v>
   <v>       0.33333333       0.47222222       0.00000000 </v>
   <v>       0.37500000       0.47222222       0.00000000 </v>
   <v>       0.41666667       0.47222222       0.00000000 </v>
   <v>       0.45833333       0.47222222       0.00000000 </v>
   <v>       0.50000000       0.47222222       0.00000000 </v>
   <v>       0.00000000       0.50000000       0.00000000 </v>
   <v>       0.04166667       0.50000000       0.00000000 </v>
   <v>       0.08333333       0.50000000       0.00000000 </v>
   <v>       0.12500000       0.50000000       0.00000000 </v>
   <v>       0.16666667       0.50000000       0.00000000 </v>
   <v>       0.20833333       0.50000000       0.00000000 </v>
   <v>       0.25000000       0.50000000       0.00000000 </v>
   <v>       0.29166667       0.50000000       0.00000000 </v>
   <v>       0.33333333       0.50000000       0.00000000 </v>
   <v>       0.37500000       0.50000000       0.00000000 </v>
   <v>       0.41666667       0.50000000       0.00000000 </v>
   <v>       0.45833333       0.50000000       0.00000000 </v>
   <v>       0.50000000       0.50000000       0.00000000 </v>
  </varray>
  <varray name="weights" >
   <v>       0.00115741 </v>
   <v>       0.00231481 </v>
   <v>       0.00231481 </v>
   <v>       0.00231481 </v>
   <v>       0.00231481 </v>
   <v>       0.00231481 </v>
   <v>       0.00231481 </v>
   <v>       0.00231481 </v>
   <v>       0.00231481 </v>
   <v>       0.00231481 </v>
   <v>       0.00231481 </v>
   <v>       0.00231481 </v>
   <v>       0.00115741 </v>
   <v>       0.00231481 </v>
   <v>       0.00462963 </v>
   <v>       0.00462963 </v>
   <v>       0.00462963 </v>
   <v>       0.00462963 </v>
   <v>       0.00462963 </v>
   <v>       0.00462963 </v>
   <v>       0.00462963 </v>
   <v>       0.00462963 </v>
   <v>       0.00462963 </v>
   <v>       0.00462963 </v>
   <v>       0.00462963 </v>
   <v>       0.00231481 </v>
   <v>       0.00231481 </v>
   <v>       0.00462963 </v>
   <v>       0.00462963 </v>
   <v>       0.00462963 </v>
   <v>       0.00462963 </v>
   <v>       0.00462963 </v>
   <v>       0.00462963 </v>
   <v>       0.00462963 </v>
   <v>       0.00462963 </v>
   <v>       0.00462963 </v>
   <v>       0.00462963 </v>
   <v>       0.00462963 </v>
   <v>       0.00231481 </v>
   <v>       0.00231481 </v>
   <v>       0.00462963 </v>
   <v>       0.00462963 </v>
   <v>       0.00462963 </v>
   <v>       0.00462963 </v>
   <v>       0.00462963 </v>
   <v>       0.00462963 </v>
   <v>       0.00462963 </v>
   <v>       0.00462963 </v>
   <v>       0.00462963 </v>
   <v>       0.00462963 </v>
   <v>       0.00462963 </v>
   <v>       0.00231481 </v>
   <v>       0.00231481 </v>
   <v>       0.00462963 </v>
   <v>       0.00462963 </v>
   <v>       0.00462963 </v>
   <v>       0.00462963 </v>
   <v>       0.00462963 </v>
   <v>       0.00462963 </v>
   <v>       0.00462963 </v>
   <v>       0.00462963 </v>
   <v>       0.00462963 </v>
   <v>       0.00462963 </v>
   <v>       0.00462963 </v>
   <v>       0.00231481 </v>
   <v>       0.00231481 </v>
   <v>       0.00462963 </v>
   <v>       0.00462963 </v>
   <v>       0.00462963 </v>
   <v>       0.00462963 </v>
   <v>       0.00462963 </v>
   <v>       0.00462963 </v>
   <v>       0.00462963 </v>
   <v>       0.00462963 </v>
   <v>       0.00462963 </v>
   <v>       0.00462963 </v>
   <v>       0.00462963 </v>
   <v>       0.00231481 </v>
   <v>       0.00231481 </v>
   <v>       0.00462963 </v>
   <v>       0.00462963 </v>
   <v>       0.00462963 </v>
   <v>       0.00462963 </v>
   <v>       0.00462963 </v>
   <v>       0.00462963 </v>
   <v>       0.00462963 </v>
   <v>       0.00462963 </v>
   <v>       0.00462963 </v>
   <v>       0.00462963 </v>
   <v>       0.00462963 </v>
   <v>       0.00231481 </v>
   <v>       0.00231481 </v>
   <v>       0.00462963 </v>
   <v>       0.00462963 </v>
   <v>       0.00462963 </v>
   <v>       0.00462963 </v>
   <v>       0.00462963 </v>
   <v>       0.00462963 </v>
   <v>       0.00462963 </v>
   <v>       0.00462963 </v>
   <v>       0.00462963 </v>
   <v>       0.00462963 </v>
   <v>       0.00462963 </v>
   <v>       0.00231481 </v>
   <v>       0.00231481 </v>
   <v>       0.00462963 </v>
   <v>       0.00462963 </v>
   <v>       0.00462963 </v>
   <v>       0.00462963 </v>
   <v>       0.00462963 </v>
   <v>       0.00462963 </v>
   <v>       0.00462963 </v>
   <v>       0.00462963 </v>
   <v>       0.00462963 </v>
   <v>       0.00462963 </v>
   <v>       0.00462963 </v>
   <v>       0.00231481 </v>
   <v>       0.00231481 </v>
   <v>       0.00462963 </v>
   <v>       0.00462963 </v>
   <v>       0.00462963 </v>
   <v>       0.00462963 </v>
   <v>       0.00462963 </v>
   <v>       0.00462963 </v>
   <v>       0.00462963 </v>
   <v>       0.00462963 </v>
   <v>       0.00462963 </v>
   <v>       0.00462963 </v>
   <v>       0.00462963 </v>
   <v>       0.00231481 </v>
   <v>       0.00231481 </v>
   <v>       0.00462963 </v>
   <v>       0.00462963 </v>
   <v>       0.00462963 </v>
   <v>       0.00462963 </v>
   <v>       0.00462963 </v>
   <v>       0.00462963 </v>
   <v>       0.00462963 </v>
   <v>       0.00462963 </v>
   <v>       0.00462963 </v>
   <v>       0.00462963 </v>
   <v>       0.00462963 </v>
   <v>       0.00231481 </v>
   <v>       0.00231481 </v>
   <v>       0.00462963 </v>
   <v>       0.00462963 </v>
   <v>       0.00462963 </v>
   <v>       0.00462963 </v>
   <v>       0.00462963 </v>
   <v>       0.00462963 </v>
   <v>       0.00462963 </v>
   <v>       0.00462963 </v>
   <v>       0.00462963 </v>
   <v>       0.00462963 </v>
   <v>       0.00462963 </v>
   <v>       0.00231481 </v>
   <v>       0.00231481 </v>
   <v>       0.00462963 </v>
   <v>       0.00462963 </v>
   <v>       0.00462963 </v>
   <v>       0.00462963 </v>
   <v>       0.00462963 </v>
   <v>       0.00462963 </v>
   <v>       0.00462963 </v>
   <v>       0.00462963 </v>
   <v>       0.00462963 </v>
   <v>       0.00462963 </v>
   <v>       0.00462963 </v>
   <v>       0.00231481 </v>
   <v>       0.00231481 </v>
   <v>       0.00462963 </v>
   <v>       0.00462963 </v>
   <v>       0.00462963 </v>
   <v>       0.00462963 </v>
   <v>       0.00462963 </v>
   <v>       0.00462963 </v>
   <v>       0.00462963 </v>
   <v>       0.00462963 </v>
   <v>       0.00462963 </v>
   <v>       0.00462963 </v>
   <v>       0.00462963 </v>
   <v>       0.00231481 </v>
   <v>       0.00231481 </v>
   <v>       0.00462963 </v>
   <v>       0.00462963 </v>
   <v>       0.00462963 </v>
   <v>       0.00462963 </v>
   <v>       0.00462963 </v>
   <v>       0.00462963 </v>
   <v>       0.00462963 </v>
   <v>       0.00462963 </v>
   <v>       0.00462963 </v>
   <v>       0.00462963 </v>
   <v>       0.00462963 </v>
   <v>       0.00231481 </v>
   <v>       0.00231481 </v>
   <v>       0.00462963 </v>
   <v>       0.00462963 </v>
   <v>       0.00462963 </v>
   <v>       0.00462963 </v>
   <v>       0.00462963 </v>
   <v>       0.00462963 </v>
   <v>       0.00462963 </v>
   <v>       0.00462963 </v>
   <v>       0.00462963 </v>
   <v>       0.00462963 </v>
   <v>       0.00462963 </v>
   <v>       0.00231481 </v>
   <v>       0.00231481 </v>
   <v>       0.00462963 </v>
   <v>       0.00462963 </v>
   <v>       0.00462963 </v>
   <v>       0.00462963 </v>
   <v>       0.00462963 </v>
   <v>       0.00462963 </v>
   <v>       0.00462963 </v>
   <v>       0.00462963 </v>
   <v>       0.00462963 </v>
   <v>       0.00462963 </v>
   <v>       0.00462963 </v>
   <v>       0.00231481 </v>
   <v>       0.00231481 </v>
   <v>       0.00462963 </v>
   <v>       0.00462963 </v>
   <v>       0.00462963 </v>
   <v>       0.00462963 </v>
   <v>       0.00462963 </v>
   <v>       0.00462963 </v>
   <v>       0.00462963 </v>
   <v>       0.00462963 </v>
   <v>       0.00462963 </v>
   <v>       0.00462963 </v>
   <v>       0.00462963 </v>
   <v>       0.00231481 </v>
   <v>       0.00115741 </v>
   <v>       0.00231481 </v>
   <v>       0.00231481 </v>
   <v>       0.00231481 </v>
   <v>       0.00231481 </v>
   <v>       0.00231481 </v>
   <v>       0.00231481 </v>
   <v>       0.00231481 </v>
   <v>       0.00231481 </v>
   <v>       0.00231481 </v>
   <v>       0.00231481 </v>
   <v>       0.00231481 </v>
   <v>       0.00115741 </v>
  </varray>
 </kpoints>
 <parameters>
  <separator name="general" >
   <i type="string" name="SYSTEM">gr</i>
   <i type="logical" name="LCOMPAT"> F  </i>
  </separator>
  <separator name="electronic" >
   <i type="string" name="PREC">accura</i>
   <i name="ENMAX">   2000.00000000</i>
   <i name="ENAUG">    644.87300000</i>
   <i name="EDIFF">      0.00000000</i>
   <i type="int" name="IALGO">    68</i>
   <i type="int" name="IWAVPR">    11</i>
   <i type="int" name="NBANDS">    12</i>
   <i name="NELECT">     16.00000000</i>
   <i type="int" name="TURBO">     0</i>
   <i type="int" name="IRESTART">     0</i>
   <i type="int" name="NREBOOT">     0</i>
   <i type="int" name="NMIN">     0</i>
   <i name="EREF">      0.00000000</i>
   <separator name="electronic smearing" >
    <i type="int" name="ISMEAR">     0</i>
    <i name="SIGMA">      0.05000000</i>
    <i name="KSPACING">      0.50000000</i>
    <i type="logical" name="KGAMMA"> T  </i>
   </separator>
   <separator name="electronic projectors" >
    <i type="logical" name="LREAL"> F  </i>
    <v name="ROPT">      0.00000000</v>
    <i type="int" name="LMAXPAW">  -100</i>
    <i type="int" name="LMAXMIX">     2</i>
    <i type="logical" name="NLSPLINE"> F  </i>
   </separator>
   <separator name="electronic startup" >
    <i type="int" name="ISTART">     0</i>
    <i type="int" name="ICHARG">     2</i>
    <i type="int" name="INIWAV">     1</i>
   </separator>
   <separator name="electronic spin" >
    <i type="int" name="ISPIN">     1</i>
    <i type="logical" name="LNONCOLLINEAR"> F  </i>
    <v name="MAGMOM">      1.00000000      1.00000000      1.00000000      1.00000000</v>
    <i name="NUPDOWN">     -1.00000000</i>
    <i type="logical" name="LSORBIT"> F  </i>
    <v name="SAXIS">      0.00000000      0.00000000      1.00000000</v>
    <i type="logical" name="LSPIRAL"> F  </i>
    <v name="QSPIRAL">      0.00000000      0.00000000      0.00000000</v>
    <i type="logical" name="LZEROZ"> F  </i>
   </separator>
   <separator name="electronic exchange-correlation" >
    <i type="logical" name="LASPH"> F  </i>
    <i type="logical" name="LMETAGGA"> F  </i>
   </separator>
   <separator name="electronic convergence" >
    <i type="int" name="NELM">   100</i>
    <i type="int" name="NELMDL">    -3</i>
    <i type="int" name="NELMIN">     5</i>
    <i name="ENINI">   2000.00000000</i>
    <separator name="electronic convergence detail" >
     <i type="logical" name="LDIAG"> T  </i>
     <i type="logical" name="LSUBROT"> F  </i>
     <i name="WEIMIN">      0.00100000</i>
     <i name="EBREAK">      0.00000000</i>
     <i name="DEPER">      0.30000000</i>
     <i type="int" name="NRMM">     4</i>
     <i name="TIME">      0.40000000</i>
    </separator>
   </separator>
   <separator name="electronic mixer" >
    <i name="AMIX">      0.40000000</i>
    <i name="BMIX">      1.00000000</i>
    <i name="AMIN">      0.10000000</i>
    <i name="AMIX_MAG">      1.60000000</i>
    <i name="BMIX_MAG">      1.00000000</i>
    <separator name="electronic mixer details" >
     <i type="int" name="IMIX">     4</i>
     <i type="int" name="MAXMIX">   -45</i>
     <i name="WC">    100.00000000</i>
     <i type="int" name="INIMIX">     1</i>
     <i type="int" name="MIXPRE">     1</i>
     <i type="int" name="MREMOVE">     5</i>
    </separator>
   </separator>
   <separator name="electronic dipolcorrection" >
    <i type="logical" name="LDIPOL"> F  </i>
    <i type="logical" name="LMONO"> F  </i>
    <i type="int" name="IDIPOL">     0</i>
    <i name="EPSILON">      1.00000000</i>
    <v name="DIPOL">   -100.00000000   -100.00000000   -100.00000000</v>
    <i name="EFIELD">      0.00000000</i>
   </separator>
  </separator>
  <separator name="grids" >
   <i type="int" name="NGX">    64</i>
   <i type="int" name="NGY">    40</i>
   <i type="int" name="NGZ">   288</i>
   <i type="int" name="NGXF">   128</i>
   <i type="int" name="NGYF">    80</i>
   <i type="int" name="NGZF">   576</i>
   <i type="logical" name="ADDGRID"> F  </i>
  </separator>
  <separator name="ionic" >
   <i type="int" name="NSW">   400</i>
   <i type="int" name="IBRION">     1</i>
   <i type="int" name="ISIF">     2</i>
   <i name="PSTRESS">      0.00000000</i>
   <i name="EDIFFG">     -0.00000100</i>
   <i type="int" name="NFREE">     0</i>
   <i name="POTIM">      0.50000000</i>
   <i name="SMASS">     -3.00000000</i>
   <i name="SCALEE">      1.00000000</i>
  </separator>
  <separator name="ionic md" >
   <i name="TEBEG">      0.00010000</i>
   <i name="TEEND">      0.00010000</i>
   <i type="int" name="NBLOCK">     1</i>
   <i type="int" name="KBLOCK">   400</i>
   <i type="int" name="NPACO">   256</i>
   <i name="APACO">     16.00000000</i>
  </separator>
  <separator name="symmetry" >
   <i type="int" name="ISYM">     2</i>
   <i name="SYMPREC">      0.00001000</i>
  </separator>
  <separator name="dos" >
   <i type="logical" name="LORBIT"> F  </i>
   <v name="RWIGS">     -1.00000000</v>
   <i type="int" name="NEDOS">   301</i>
   <i name="EMIN">     10.00000000</i>
   <i name="EMAX">    -10.00000000</i>
   <i name="EFERMI">      0.00000000</i>
  </separator>
  <separator name="writing" >
   <i type="int" name="NWRITE">     2</i>
   <i type="logical" name="LWAVE"> F  </i>
   <i type="logical" name="LCHARG"> F  </i>
   <i type="logical" name="LPARD"> F  </i>
   <i type="logical" name="LVTOT"> F  </i>
   <i type="logical" name="LVHAR"> F  </i>
   <i type="logical" name="LELF"> F  </i>
   <i type="logical" name="LOPTICS"> F  </i>
   <v name="STM">      0.00000000      0.00000000      0.00000000      0.00000000      0.00000000      0.00000000      0.00000000</v>
  </separator>
  <separator name="performance" >
   <i type="int" name="NPAR">     4</i>
   <i type="int" name="NSIM">     4</i>
   <i type="int" name="NBLK">    -1</i>
   <i type="logical" name="LPLANE"> T  </i>
   <i type="logical" name="LSCALAPACK"> F  </i>
   <i type="logical" name="LSCAAWARE"> F  </i>
   <i type="logical" name="LSCALU"> F  </i>
   <i type="logical" name="LASYNC"> F  </i>
   <i type="logical" name="LORBITALREAL"> F  </i>
  </separator>
  <separator name="miscellaneous" >
   <i type="int" name="IDIOT">     3</i>
   <i type="logical" name="LMUSIC"> F  </i>
   <v name="POMASS">     12.01100000</v>
   <v name="DARWINR">      0.00000000</v>
   <v name="DARWINV">      1.00000000</v>
   <i type="logical" name="LCORR"> T  </i>
  </separator>
  <i type="logical" name="GGA_COMPAT"> T  </i>
  <i type="logical" name="LBERRY"> F  </i>
  <i type="int" name="ICORELEVEL">     0</i>
  <i type="logical" name="LDAU"> F  </i>
  <i type="int" name="I_CONSTRAINED_M">     0</i>
  <separator name="electronic exchange-correlation" >
   <i type="string" name="GGA">--</i>
   <i type="int" name="VOSKOWN">     0</i>
   <i type="logical" name="LHFCALC"> F  </i>
   <i type="string" name="PRECFOCK"></i>
   <i type="logical" name="LSYMGRAD"> F  </i>
   <i type="logical" name="LHFONE"> F  </i>
   <i type="logical" name="LRHFCALC"> F  </i>
   <i type="logical" name="LTHOMAS"> F  </i>
   <i type="logical" name="LMODELHF"> F  </i>
   <i name="ENCUT4O">     -1.00000000</i>
   <i type="int" name="EXXOEP">     0</i>
   <i type="int" name="FOURORBIT">     0</i>
   <i name="AEXX">      0.00000000</i>
   <i name="HFALPHA">      0.00000000</i>
   <i name="MCALPHA">      0.00000000</i>
   <i name="ALDAX">      1.00000000</i>
   <i name="AGGAX">      1.00000000</i>
   <i name="ALDAC">      1.00000000</i>
   <i name="AGGAC">      1.00000000</i>
   <i type="int" name="NKREDX">     1</i>
   <i type="int" name="NKREDY">     1</i>
   <i type="int" name="NKREDZ">     1</i>
   <i type="logical" name="SHIFTRED"> F  </i>
   <i type="logical" name="ODDONLY"> F  </i>
   <i type="logical" name="EVENONLY"> F  </i>
   <i type="int" name="LMAXFOCK">     0</i>
   <i type="int" name="NMAXFOCKAE">     0</i>
   <i type="logical" name="LFOCKAEDFT"> F  </i>
   <i name="HFSCREEN">      0.00000000</i>
   <i name="HFSCREENC">      0.00000000</i>
   <i type="int" name="NBANDSGWLOW">     0</i>
  </separator>
  <separator name="vdW DFT" >
   <i type="logical" name="LUSE_VDW"> F  </i>
   <i name="Zab_VDW">     -0.84910000</i>
   <i name="PARAM1">      0.12340000</i>
   <i name="PARAM2">      1.00000000</i>
   <i name="PARAM3">      0.00000000</i>
  </separator>
  <separator name="model GW" >
   <i type="int" name="MODEL_GW">     0</i>
   <i name="MODEL_EPS0">     31.62568521</i>
   <i name="MODEL_ALPHA">      1.00000000</i>
  </separator>
  <separator name="linear response parameters" >
   <i type="logical" name="LEPSILON"> F  </i>
   <i type="logical" name="LRPA"> F  </i>
   <i type="logical" name="LNABLA"> F  </i>
   <i type="logical" name="LVEL"> F  </i>
   <i type="int" name="KINTER">     0</i>
   <i name="CSHIFT">      0.10000000</i>
   <i name="OMEGAMAX">     -1.00000000</i>
   <i name="DEG_THRESHOLD">      0.00200000</i>
  </separator>
  <separator name="orbital magnetization" >
   <i type="logical" name="NUCIND"> F  </i>
   <v name="MAGPOS">      0.00000000      0.00000000      0.00000000</v>
   <i type="logical" name="LNICSALL"> T  </i>
   <i type="logical" name="ORBITALMAG"> F  </i>
   <i type="logical" name="LMAGBLOCH"> F  </i>
   <i type="logical" name="LCHIMAG"> F  </i>
   <i type="logical" name="LGAUGE"> T  </i>
   <i type="int" name="MAGATOM">     0</i>
   <v name="MAGDIPOL">      0.00000000      0.00000000      0.00000000</v>
   <v name="AVECCONST">      0.00000000      0.00000000      0.00000000</v>
  </separator>
  <separator name="response functions" >
   <i type="logical" name="LADDER"> F  </i>
   <i type="logical" name="LFXC"> F  </i>
   <i type="logical" name="LHARTREE"> T  </i>
   <i type="int" name="IBSE">     0</i>
   <i type="logical" name="LTCTE"> F  </i>
   <i type="logical" name="LTETE"> F  </i>
   <i type="logical" name="LTRIPLET"> F  </i>
   <i type="logical" name="LFXCEPS"> F  </i>
   <i type="logical" name="LFXHEG"> F  </i>
   <i type="logical" name="L2ORDER"> F  </i>
   <i type="logical" name="LUSEW"> F  </i>
   <i name="ENCUTGW">     -2.00000000</i>
   <i name="ENCUTGWSOFT">     -2.00000000</i>
   <i name="ENCUTLF">     -1.00000000</i>
   <i type="int" name="LMAXMP2">    -1</i>
   <i name="SCISSOR">      0.00000000</i>
   <i type="int" name="NOMEGA">     0</i>
   <i type="int" name="NOMEGAR">     0</i>
   <i type="int" name="NBANDSGW">    -1</i>
   <i type="int" name="NBANDSO">    -1</i>
   <i type="int" name="NBANDSV">    -1</i>
   <i type="int" name="NELM">   100</i>
   <i type="int" name="DIM">     3</i>
   <i type="int" name="ANTIRES">     0</i>
   <i name="OMEGAMAX">    -30.00000000</i>
   <i name="OMEGAMIN">    -30.00000000</i>
   <i name="OMEGATL">   -200.00000000</i>
   <i type="int" name="OMEGAGRID">     0</i>
   <i name="CSHIFT">     -0.10000000</i>
   <i type="logical" name="SELFENERGY"> F  </i>
   <i type="logical" name="LSPECTRAL"> F  </i>
   <i type="logical" name="ODDONLYGW"> F  </i>
   <i type="logical" name="EVENONLYGW"> F  </i>
   <i type="int" name="NKREDLFX">     1</i>
   <i type="int" name="NKREDLFY">     1</i>
   <i type="int" name="NKREDLFZ">     1</i>
   <i type="int" name="MAXMEM">  1800</i>
   <i type="int" name="TELESCOPE">     0</i>
   <i type="int" name="TAUPAR">     1</i>
  </separator>
  <separator name="External order field" >
   <i name="OFIELD_KAPPA">      0.00000000</i>
   <v name="OFIELD_K">      0.00000000      0.00000000      0.00000000</v>
   <i name="OFIELD_Q6_NEAR">      0.00000000</i>
   <i name="OFIELD_Q6_FAR">      0.00000000</i>
   <i name="OFIELD_A">      0.00000000</i>
  </separator>
 </parameters>
 <atominfo>
  <atoms>       4 </atoms>
  <types>       1 </types>
  <array name="atoms" >
   <dimension dim="1">ion</dimension>
   <field type="string">element</field>
   <field type="int">atomtype</field>
   <set>
    <rc><c>C </c><c>   1</c></rc>
    <rc><c>C </c><c>   1</c></rc>
    <rc><c>C </c><c>   1</c></rc>
    <rc><c>C </c><c>   1</c></rc>
   </set>
  </array>
  <array name="atomtypes" >
   <dimension dim="1">type</dimension>
   <field type="int">atomspertype</field>
   <field type="string">element</field>
   <field>mass</field>
   <field>valence</field>
   <field type="string">pseudopotential</field>
   <set>
    <rc><c>   4</c><c>C </c><c>     12.01100000</c><c>      4.00000000</c><c> PAW_PBE C 08Apr2002                    </c></rc>
   </set>
  </array>
 </atominfo>
 <structure name="initialpos" >
  <crystal>
   <varray name="basis" >
    <v>       4.26213277       0.00000000       0.00000000 </v>
    <v>       0.00000000       2.50406386       0.00000000 </v>
    <v>       0.00000000       0.00000000      19.75496706 </v>
   </varray>
   <i name="volume">    210.83790140 </i>
   <varray name="rec_basis" >
    <v>       0.23462432       0.00000000       0.00000000 </v>
    <v>       0.00000000       0.39935084       0.00000000 </v>
    <v>       0.00000000       0.00000000       0.05062018 </v>
   </varray>
  </crystal>
  <varray name="positions" >
   <v>       0.00039382       0.00000000       0.00000000 </v>
   <v>       0.16627284       0.50000000       0.00000000 </v>
   <v>       0.50039382       0.50000000       0.00000000 </v>
   <v>       0.66627284       0.00000000       0.00000000 </v>
  </varray>
 </structure>
 <calculation>
  <scstep>
   <time name="dav">  327.48  328.67</time>
   <time name="total">  330.31  331.54</time>
   <energy>
    <i name="alphaZ">      6.18334092 </i>
    <i name="ewald">   2504.28900898 </i>
    <i name="hartreedc">  -2932.14095217 </i>
    <i name="XCdc">     54.93007445 </i>
    <i name="pawpsdc">    151.32577238 </i>
    <i name="pawaedc">   -155.92769107 </i>
    <i name="eentropy">     -0.00143667 </i>
    <i name="bandstr">    -29.14462929 </i>
    <i name="atom">    588.62352690 </i>
    <i name="e_fr_energy">    188.13701443 </i>
    <i name="e_wo_entrp">    188.13845110 </i>
    <i name="e_0_energy">    188.13773276 </i>
   </energy>
  </scstep>
  <scstep>
   <time name="dav">  497.21  500.93</time>
   <time name="total">  497.22  501.42</time>
   <energy>
    <i name="e_fr_energy">     -9.49361715 </i>
    <i name="e_wo_entrp">     -9.49323903 </i>
    <i name="e_0_energy">     -9.49342809 </i>
   </energy>
  </scstep>
  <scstep>
   <time name="dav">  379.25  382.09</time>
   <time name="total">  414.42  417.72</time>
   <energy>
    <i name="e_fr_energy">    -38.25075880 </i>
    <i name="e_wo_entrp">    -38.25075773 </i>
    <i name="e_0_energy">    -38.25075827 </i>
   </energy>
  </scstep>
  <scstep>
   <time name="diag">   89.83   90.34</time>
   <time name="diis">  394.19  395.01</time>
   <time name="orth">    3.08    3.08</time>
   <time name="total">  525.09  526.77</time>
   <energy>
    <i name="e_fr_energy">    -37.64371519 </i>
    <i name="e_wo_entrp">    -37.64371055 </i>
    <i name="e_0_energy">    -37.64371287 </i>
   </energy>
  </scstep>
  <scstep>
   <time name="diag">   89.68   90.31</time>
   <time name="diis">  381.75  381.95</time>
   <time name="orth">    3.08    3.08</time>
   <time name="total">  512.71  513.69</time>
   <energy>
    <i name="e_fr_energy">    -36.91098642 </i>
    <i name="e_wo_entrp">    -36.91098108 </i>
    <i name="e_0_energy">    -36.91098375 </i>
   </energy>
  </scstep>
  <scstep>
   <time name="diag">   90.23   90.38</time>
   <time name="diis">  413.65  416.75</time>
   <time name="orth">    3.08    3.10</time>
   <time name="total">  544.77  548.50</time>
   <energy>
    <i name="e_fr_energy">    -36.91282707 </i>
    <i name="e_wo_entrp">    -36.91282178 </i>
    <i name="e_0_energy">    -36.91282443 </i>
   </energy>
  </scstep>
  <scstep>
   <time name="diag">   89.61   90.33</time>
   <time name="diis">  374.54  376.99</time>
   <time name="orth">    3.08    3.10</time>
   <time name="total">  505.19  508.77</time>
   <energy>
    <i name="e_fr_energy">    -36.90362286 </i>
    <i name="e_wo_entrp">    -36.90361823 </i>
    <i name="e_0_energy">    -36.90362054 </i>
   </energy>
  </scstep>
  <scstep>
   <time name="diag">   89.84   90.32</time>
   <time name="diis">  382.41  385.67</time>
   <time name="orth">    3.08    3.11</time>
   <time name="total">  513.23  517.44</time>
   <energy>
    <i name="e_fr_energy">    -36.89830002 </i>
    <i name="e_wo_entrp">    -36.89829521 </i>
    <i name="e_0_energy">    -36.89829762 </i>
   </energy>
  </scstep>
  <scstep>
   <time name="diag">   89.39   90.32</time>
   <time name="diis">  367.97  368.12</time>
   <time name="orth">    3.08    3.10</time>
   <time name="total">  498.65  499.89</time>
   <energy>
    <i name="e_fr_energy">    -36.89814136 </i>
    <i name="e_wo_entrp">    -36.89813621 </i>
    <i name="e_0_energy">    -36.89813878 </i>
   </energy>
  </scstep>
  <scstep>
   <time name="diag">   90.20   90.32</time>
   <time name="diis">  368.76  368.97</time>
   <time name="orth">    3.08    3.08</time>
   <time name="total">  500.26  500.69</time>
   <energy>
    <i name="e_fr_energy">    -36.89804115 </i>
    <i name="e_wo_entrp">    -36.89803620 </i>
    <i name="e_0_energy">    -36.89803867 </i>
   </energy>
  </scstep>
  <scstep>
   <time name="diag">   90.06   90.26</time>
   <time name="diis">  367.68  371.41</time>
   <time name="orth">    3.08    3.10</time>
   <time name="total">  498.76  503.19</time>
   <energy>
    <i name="e_fr_energy">    -36.90044841 </i>
    <i name="e_wo_entrp">    -36.90044354 </i>
    <i name="e_0_energy">    -36.90044597 </i>
   </energy>
  </scstep>
  <scstep>
   <time name="diag">   89.83   90.33</time>
   <time name="diis">  369.24  370.22</time>
   <time name="orth">    3.08    3.08</time>
   <time name="total">  500.33  501.93</time>
   <energy>
    <i name="e_fr_energy">    -36.90092748 </i>
    <i name="e_wo_entrp">    -36.90092253 </i>
    <i name="e_0_energy">    -36.90092500 </i>
   </energy>
  </scstep>
  <scstep>
   <time name="diag">   89.85   90.32</time>
   <time name="diis">  376.48  378.86</time>
   <time name="orth">    3.08    3.08</time>
   <time name="total">  507.21  510.88</time>
   <energy>
    <i name="e_fr_energy">    -36.90117284 </i>
    <i name="e_wo_entrp">    -36.90116788 </i>
    <i name="e_0_energy">    -36.90117036 </i>
   </energy>
  </scstep>
  <scstep>
   <time name="diag">   89.55   90.31</time>
   <time name="diis">  368.80  372.84</time>
   <time name="orth">    3.07    3.07</time>
   <time name="total">  499.35  504.56</time>
   <energy>
    <i name="e_fr_energy">    -36.90125507 </i>
    <i name="e_wo_entrp">    -36.90125013 </i>
    <i name="e_0_energy">    -36.90125260 </i>
   </energy>
  </scstep>
  <scstep>
   <time name="diag">   89.95   90.32</time>
   <time name="diis">  371.40  374.88</time>
   <time name="orth">    3.09    3.09</time>
   <time name="total">  502.35  506.63</time>
   <energy>
    <i name="e_fr_energy">    -36.90126424 </i>
    <i name="e_wo_entrp">    -36.90125930 </i>
    <i name="e_0_energy">    -36.90126177 </i>
   </energy>
  </scstep>
  <scstep>
   <time name="diag">   89.69   90.38</time>
   <time name="diis">  365.59  369.00</time>
   <time name="orth">    3.09    3.09</time>
   <time name="total">  496.34  500.79</time>
   <energy>
    <i name="e_fr_energy">    -36.90127659 </i>
    <i name="e_wo_entrp">    -36.90127164 </i>
    <i name="e_0_energy">    -36.90127411 </i>
   </energy>
  </scstep>
  <scstep>
   <time name="diag">   89.61   90.32</time>
   <time name="diis">  385.35  387.24</time>
   <time name="orth">    3.09    3.09</time>
   <time name="total">  516.13  518.97</time>
   <energy>
    <i name="e_fr_energy">    -36.90128170 </i>
    <i name="e_wo_entrp">    -36.90127676 </i>
    <i name="e_0_energy">    -36.90127923 </i>
   </energy>
  </scstep>
  <scstep>
   <time name="diag">   90.46   90.59</time>
   <time name="diis">  367.64  368.68</time>
   <time name="orth">    3.07    3.09</time>
   <time name="total">  499.23  500.68</time>
   <energy>
    <i name="e_fr_energy">    -36.90128283 </i>
    <i name="e_wo_entrp">    -36.90127788 </i>
    <i name="e_0_energy">    -36.90128035 </i>
   </energy>
  </scstep>
  <scstep>
   <time name="diag">   89.77   90.52</time>
   <time name="diis">  375.85  377.72</time>
   <time name="orth">    3.09    3.09</time>
   <time name="total">  506.94  509.67</time>
   <energy>
    <i name="e_fr_energy">    -36.90128359 </i>
    <i name="e_wo_entrp">    -36.90127865 </i>
    <i name="e_0_energy">    -36.90128112 </i>
   </energy>
  </scstep>
  <scstep>
   <time name="diag">   89.82   90.45</time>
   <time name="diis">  289.90  291.74</time>
   <time name="orth">    3.07    3.08</time>
   <time name="total">  420.90  423.65</time>
   <energy>
    <i name="e_fr_energy">    -36.90128365 </i>
    <i name="e_wo_entrp">    -36.90127870 </i>
    <i name="e_0_energy">    -36.90128117 </i>
   </energy>
  </scstep>
  <scstep>
   <time name="diag">   89.97   90.45</time>
   <time name="diis">  285.82  286.32</time>
   <time name="orth">    3.10    3.10</time>
   <time name="total">  417.13  418.24</time>
   <energy>
    <i name="e_fr_energy">    -36.90128366 </i>
    <i name="e_wo_entrp">    -36.90127872 </i>
    <i name="e_0_energy">    -36.90128119 </i>
   </energy>
  </scstep>
  <scstep>
   <time name="diag">   90.42   90.45</time>
   <time name="diis">  255.09  255.19</time>
   <time name="orth">    3.08    3.08</time>
   <time name="total">  351.32  351.47</time>
   <energy>
    <i name="alphaZ">      6.18334092 </i>
    <i name="ewald">   2504.28900898 </i>
    <i name="hartreedc">  -2998.43935918 </i>
    <i name="XCdc">     57.29509501 </i>
    <i name="pawpsdc">    272.11194546 </i>
    <i name="pawaedc">   -277.23826300 </i>
    <i name="eentropy">     -0.00000494 </i>
    <i name="bandstr">   -189.72657381 </i>
    <i name="atom">    588.62352690 </i>
    <i name="e_fr_energy">    -36.90128366 </i>
    <i name="e_wo_entrp">    -36.90127872 </i>
    <i name="e_0_energy">    -36.90128119 </i>
   </energy>
  </scstep>
  <structure>
   <crystal>
    <varray name="basis" >
     <v>       4.26213277       0.00000000       0.00000000 </v>
     <v>       0.00000000       2.50406386       0.00000000 </v>
     <v>       0.00000000       0.00000000      19.75496706 </v>
    </varray>
    <i name="volume">    210.83790140 </i>
    <varray name="rec_basis" >
     <v>       0.23462432       0.00000000       0.00000000 </v>
     <v>       0.00000000       0.39935084       0.00000000 </v>
     <v>       0.00000000       0.00000000       0.05062018 </v>
    </varray>
   </crystal>
   <varray name="positions" >
    <v>       0.00039382       0.00000000       0.00000000 </v>
    <v>       0.16627284       0.50000000       0.00000000 </v>
    <v>       0.50039382       0.50000000       0.00000000 </v>
    <v>       0.66627284       0.00000000       0.00000000 </v>
   </varray>
  </structure>
  <varray name="forces" >
   <v>      -0.00175038       0.00000000      -0.00000000 </v>
   <v>       0.00175038       0.00000000       0.00000000 </v>
   <v>      -0.00175038      -0.00000000      -0.00000000 </v>
   <v>       0.00175038       0.00000000       0.00000000 </v>
  </varray>
  <varray name="stress" >
   <v>      -0.01157129       0.00000000       0.00000000 </v>
   <v>       0.00000000     -24.74356804       0.00000000 </v>
   <v>       0.00000000       0.00000000      -0.01028026 </v>
  </varray>
  <energy>
   <i name="e_fr_energy">    -36.90128366 </i>
   <i name="e_wo_entrp">    -36.90128119 </i>
   <i name="e_0_energy">     -0.00000494 </i>
  </energy>
  <time name="totalsc">10667.0610726.59</time>
 </calculation>
 <calculation>
  <scstep>
   <time name="dav">  355.97  356.40</time>
   <time name="total">  394.30  394.75</time>
   <energy>
    <i name="alphaZ">      6.18334092 </i>
    <i name="ewald">   2504.29009355 </i>
    <i name="hartreedc">  -2998.43983964 </i>
    <i name="XCdc">     57.29512627 </i>
    <i name="pawpsdc">    272.11196957 </i>
    <i name="pawaedc">   -277.23828734 </i>
    <i name="eentropy">     -0.00000453 </i>
    <i name="bandstr">   -189.72720846 </i>
    <i name="atom">    588.62352690 </i>
    <i name="e_fr_energy">    -36.90128274 </i>
    <i name="e_wo_entrp">    -36.90127821 </i>
    <i name="e_0_energy">    -36.90128047 </i>
   </energy>
  </scstep>
  <scstep>
   <time name="diag">   90.38   90.40</time>
   <time name="diis">  371.28  371.54</time>
   <time name="orth">    3.09    3.09</time>
   <time name="total">  503.08  503.39</time>
   <energy>
    <i name="e_fr_energy">    -36.90128280 </i>
    <i name="e_wo_entrp">    -36.90127825 </i>
    <i name="e_0_energy">    -36.90128053 </i>
   </energy>
  </scstep>
  <scstep>
   <time name="diag">   90.36   90.41</time>
   <time name="diis">  376.06  376.18</time>
   <time name="orth">    3.07    3.07</time>
   <time name="total">  507.77  508.03</time>
   <energy>
    <i name="e_fr_energy">    -36.90128277 </i>
    <i name="e_wo_entrp">    -36.90127820 </i>
    <i name="e_0_energy">    -36.90128049 </i>
   </energy>
  </scstep>
  <scstep>
   <time name="diag">   90.36   90.39</time>
   <time name="diis">  380.55  380.71</time>
   <time name="orth">    3.09    3.09</time>
   <time name="total">  512.24  512.46</time>
   <energy>
    <i name="e_fr_energy">    -36.90128276 </i>
    <i name="e_wo_entrp">    -36.90127820 </i>
    <i name="e_0_energy">    -36.90128048 </i>
   </energy>
  </scstep>
  <scstep>
   <time name="diag">   90.36   90.39</time>
   <time name="diis">  344.29  344.41</time>
   <time name="orth">    3.08    3.08</time>
   <time name="total">  476.05  476.24</time>
   <energy>
    <i name="e_fr_energy">    -36.90128277 </i>
    <i name="e_wo_entrp">    -36.90127821 </i>
    <i name="e_0_energy">    -36.90128049 </i>
   </energy>
  </scstep>
  <scstep>
   <time name="diag">   90.34   90.39</time>
   <time name="diis">  252.01  253.26</time>
   <time name="orth">    3.07    3.07</time>
   <time name="total">  383.49  385.05</time>
   <energy>
    <i name="e_fr_energy">    -36.90128276 </i>
    <i name="e_wo_entrp">    -36.90127821 </i>
    <i name="e_0_energy">    -36.90128049 </i>
   </energy>
  </scstep>
  <scstep>
   <time name="diag">   89.88   90.34</time>
   <time name="diis">  249.46  250.80</time>
   <time name="orth">    3.08    3.10</time>
   <time name="total">  380.50  382.54</time>
   <energy>
    <i name="e_fr_energy">    -36.90128276 </i>
    <i name="e_wo_entrp">    -36.90127821 </i>
    <i name="e_0_energy">    -36.90128049 </i>
   </energy>
  </scstep>
  <scstep>
   <time name="diag">   89.88   90.35</time>
   <time name="diis">  235.46  236.22</time>
   <time name="orth">    3.07    3.07</time>
   <time name="total">  366.62  368.08</time>
   <energy>
    <i name="e_fr_energy">    -36.90128277 </i>
    <i name="e_wo_entrp">    -36.90127821 </i>
    <i name="e_0_energy">    -36.90128049 </i>
   </energy>
  </scstep>
  <scstep>
   <time name="diag">   90.06   90.37</time>
   <time name="diis">  224.61  225.20</time>
   <time name="orth">    3.09    3.09</time>
   <time name="total">  355.81  357.00</time>
   <energy>
    <i name="e_fr_energy">    -36.90128276 </i>
    <i name="e_wo_entrp">    -36.90127821 </i>
    <i name="e_0_energy">    -36.90128049 </i>
   </energy>
  </scstep>
  <scstep>
   <time name="diag">   89.87   90.39</time>
   <time name="diis">  217.27  217.38</time>
   <time name="orth">    3.10    3.10</time>
   <time name="total">  348.55  349.19</time>
   <energy>
    <i name="e_fr_energy">    -36.90128276 </i>
    <i name="e_wo_entrp">    -36.90127821 </i>
    <i name="e_0_energy">    -36.90128049 </i>
   </energy>
  </scstep>
  <scstep>
   <time name="diag">   89.52   90.36</time>
   <time name="diis">  206.70  208.44</time>
   <time name="orth">    3.07    3.15</time>
   <time name="total">  301.98  305.16</time>
   <energy>
    <i name="alphaZ">      6.18334092 </i>
    <i name="ewald">   2504.29009355 </i>
    <i name="hartreedc">  -2998.44030978 </i>
    <i name="XCdc">     57.29514536 </i>
    <i name="pawpsdc">    272.11386805 </i>
    <i name="pawaedc">   -277.24019421 </i>
    <i name="eentropy">     -0.00000456 </i>
    <i name="bandstr">   -189.72674900 </i>
    <i name="atom">    588.62352690 </i>
    <i name="e_fr_energy">    -36.90128276 </i>
    <i name="e_wo_entrp">    -36.90127821 </i>
    <i name="e_0_energy">    -36.90128048 </i>
   </energy>
  </scstep>
  <structure>
   <crystal>
    <varray name="basis" >
     <v>       4.26213277       0.00000000       0.00000000 </v>
     <v>       0.00000000       2.50406386       0.00000000 </v>
     <v>       0.00000000       0.00000000      19.75496706 </v>
    </varray>
    <i name="volume">    210.83790140 </i>
    <varray name="rec_basis" >
     <v>       0.23462432       0.00000000       0.00000000 </v>
     <v>       0.00000000       0.39935084       0.00000000 </v>
     <v>       0.00000000       0.00000000       0.05062018 </v>
    </varray>
   </crystal>
   <varray name="positions" >
    <v>       0.00037401       0.00000000      -0.00000000 </v>
    <v>       0.16629266       0.50000000       0.00000000 </v>
    <v>       0.50037401       0.50000000      -0.00000000 </v>
    <v>       0.66629266       0.00000000       0.00000000 </v>
   </varray>
  </structure>
  <varray name="forces" >
   <v>       0.00713862       0.00000000      -0.00000000 </v>
   <v>      -0.00713862      -0.00000000       0.00000000 </v>
   <v>       0.00713862       0.00000000      -0.00000000 </v>
   <v>      -0.00713862       0.00000000       0.00000000 </v>
  </varray>
  <varray name="stress" >
   <v>       0.02147875       0.00000000       0.00000000 </v>
   <v>       0.00000000     -24.76810638       0.00000000 </v>
   <v>       0.00000000       0.00000000      -0.01018584 </v>
  </varray>
  <energy>
   <i name="e_fr_energy">    -36.90128276 </i>
   <i name="e_wo_entrp">    -36.90128048 </i>
   <i name="e_0_energy">     -0.00000456 </i>
  </energy>
  <time name="totalsc"> 4641.24 4653.57</time>
 </calculation>
 <calculation>
  <scstep>
   <time name="dav">  362.52  363.95</time>
   <time name="total">  400.73  402.27</time>
   <energy>
    <i name="alphaZ">      6.18334092 </i>
    <i name="ewald">   2504.28922176 </i>
    <i name="hartreedc">  -2998.43993368 </i>
    <i name="XCdc">     57.29512055 </i>
    <i name="pawpsdc">    272.11386896 </i>
    <i name="pawaedc">   -277.24019514 </i>
    <i name="eentropy">     -0.00000489 </i>
    <i name="bandstr">   -189.72622911 </i>
    <i name="atom">    588.62352690 </i>
    <i name="e_fr_energy">    -36.90128373 </i>
    <i name="e_wo_entrp">    -36.90127884 </i>
    <i name="e_0_energy">    -36.90128128 </i>
   </energy>
  </scstep>
  <scstep>
   <time name="diag">   89.95   90.41</time>
   <time name="diis">  365.65  370.26</time>
   <time name="orth">    3.06    3.10</time>
   <time name="total">  496.54  502.08</time>
   <energy>
    <i name="e_fr_energy">    -36.90128376 </i>
    <i name="e_wo_entrp">    -36.90127888 </i>
    <i name="e_0_energy">    -36.90128132 </i>
   </energy>
  </scstep>
  <scstep>
   <time name="diag">   89.48   90.44</time>
   <time name="diis">  371.38  375.50</time>
   <time name="orth">    3.08    3.08</time>
   <time name="total">  501.81  507.32</time>
   <energy>
    <i name="e_fr_energy">    -36.90128373 </i>
    <i name="e_wo_entrp">    -36.90127886 </i>
    <i name="e_0_energy">    -36.90128130 </i>
   </energy>
  </scstep>
  <scstep>
   <time name="diag">   89.63   90.33</time>
   <time name="diis">  380.30  384.16</time>
   <time name="orth">    3.07    3.08</time>
   <time name="total">  510.80  516.07</time>
   <energy>
    <i name="e_fr_energy">    -36.90128372 </i>
    <i name="e_wo_entrp">    -36.90127886 </i>
    <i name="e_0_energy">    -36.90128129 </i>
   </energy>
  </scstep>
  <scstep>
   <time name="diag">   89.90   90.40</time>
   <time name="diis">  303.58  304.58</time>
   <time name="orth">    3.09    3.10</time>
   <time name="total">  434.76  436.43</time>
   <energy>
    <i name="e_fr_energy">    -36.90128372 </i>
    <i name="e_wo_entrp">    -36.90127886 </i>
    <i name="e_0_energy">    -36.90128129 </i>
   </energy>
  </scstep>
  <scstep>
   <time name="diag">   90.16   90.41</time>
   <time name="diis">  247.57  249.83</time>
   <time name="orth">    3.07    3.07</time>
   <time name="total">  378.80  381.66</time>
   <energy>
    <i name="e_fr_energy">    -36.90128372 </i>
    <i name="e_wo_entrp">    -36.90127886 </i>
    <i name="e_0_energy">    -36.90128129 </i>
   </energy>
  </scstep>
  <scstep>
   <time name="diag">   89.78   90.38</time>
   <time name="diis">  248.05  250.03</time>
   <time name="orth">    3.08    3.08</time>
   <time name="total">  378.86  381.79</time>
   <energy>
    <i name="e_fr_energy">    -36.90128372 </i>
    <i name="e_wo_entrp">    -36.90127886 </i>
    <i name="e_0_energy">    -36.90128129 </i>
   </energy>
  </scstep>
  <scstep>
   <time name="diag">   89.87   90.47</time>
   <time name="diis">  229.96  231.92</time>
   <time name="orth">    3.08    3.08</time>
   <time name="total">  325.62  328.23</time>
   <energy>
    <i name="alphaZ">      6.18334092 </i>
    <i name="ewald">   2504.28922176 </i>
    <i name="hartreedc">  -2998.43957638 </i>
    <i name="XCdc">     57.29510556 </i>
    <i name="pawpsdc">    272.11234890 </i>
    <i name="pawaedc">   -277.23866842 </i>
    <i name="eentropy">     -0.00000487 </i>
    <i name="bandstr">   -189.72657811 </i>
    <i name="atom">    588.62352690 </i>
    <i name="e_fr_energy">    -36.90128372 </i>
    <i name="e_wo_entrp">    -36.90127886 </i>
    <i name="e_0_energy">    -36.90128129 </i>
   </energy>
  </scstep>
  <structure>
   <crystal>
    <varray name="basis" >
     <v>       4.26213277       0.00000000       0.00000000 </v>
     <v>       0.00000000       2.50406386       0.00000000 </v>
     <v>       0.00000000       0.00000000      19.75496706 </v>
    </varray>
    <i name="volume">    210.83790140 </i>
    <varray name="rec_basis" >
     <v>       0.23462432       0.00000000       0.00000000 </v>
     <v>       0.00000000       0.39935084       0.00000000 </v>
     <v>       0.00000000       0.00000000       0.05062018 </v>
    </varray>
   </crystal>
   <varray name="positions" >
    <v>       0.00038992       0.00000000      -0.00000000 </v>
    <v>       0.16627674       0.50000000       0.00000000 </v>
    <v>       0.50038992       0.50000000      -0.00000000 </v>
    <v>       0.66627674       0.00000000       0.00000000 </v>
   </varray>
  </structure>
  <varray name="forces" >
   <v>       0.00000376      -0.00000000       0.00000000 </v>
   <v>      -0.00000376       0.00000000      -0.00000000 </v>
   <v>       0.00000376       0.00000000       0.00000000 </v>
   <v>      -0.00000376      -0.00000000      -0.00000000 </v>
  </varray>
  <varray name="stress" >
   <v>      -0.00501310       0.00000000       0.00000000 </v>
   <v>       0.00000000     -24.74843267       0.00000000 </v>
   <v>       0.00000000       0.00000000      -0.01022437 </v>
  </varray>
  <energy>
   <i name="e_fr_energy">    -36.90128372 </i>
   <i name="e_wo_entrp">    -36.90128129 </i>
   <i name="e_0_energy">     -0.00000487 </i>
  </energy>
  <time name="totalsc"> 3538.37 3566.84</time>
 </calculation>
 <calculation>
  <scstep>
   <time name="dav">  287.61  289.41</time>
   <time name="total">  325.43  327.73</time>
   <energy>
    <i name="alphaZ">      6.18334092 </i>
    <i name="ewald">   2504.28922130 </i>
    <i name="hartreedc">  -2998.43957309 </i>
    <i name="XCdc">     57.29510556 </i>
    <i name="pawpsdc">    272.11235090 </i>
    <i name="pawaedc">   -277.23867043 </i>
    <i name="eentropy">     -0.00000487 </i>
    <i name="bandstr">   -189.72658092 </i>
    <i name="atom">    588.62352690 </i>
    <i name="e_fr_energy">    -36.90128372 </i>
    <i name="e_wo_entrp">    -36.90127886 </i>
    <i name="e_0_energy">    -36.90128129 </i>
   </energy>
  </scstep>
  <scstep>
   <time name="diag">   89.46   90.38</time>
   <time name="diis">  188.69  190.42</time>
   <time name="orth">    3.08    3.08</time>
   <time name="total">  319.28  322.22</time>
   <energy>
    <i name="e_fr_energy">    -36.90128372 </i>
    <i name="e_wo_entrp">    -36.90127886 </i>
    <i name="e_0_energy">    -36.90128129 </i>
   </energy>
  </scstep>
  <scstep>
   <time name="diag">   89.89   90.34</time>
   <time name="diis">  184.60  186.50</time>
   <time name="orth">    3.09    3.10</time>
   <time name="total">  315.58  318.32</time>
   <energy>
    <i name="e_fr_energy">    -36.90128372 </i>
    <i name="e_wo_entrp">    -36.90127886 </i>
    <i name="e_0_energy">    -36.90128129 </i>
   </energy>
  </scstep>
  <scstep>
   <time name="diag">   89.68   90.40</time>
   <time name="diis">  182.61  184.20</time>
   <time name="orth">    3.08    3.08</time>
   <time name="total">  313.36  316.21</time>
   <energy>
    <i name="e_fr_energy">    -36.90128372 </i>
    <i name="e_wo_entrp">    -36.90127886 </i>
    <i name="e_0_energy">    -36.90128129 </i>
   </energy>
  </scstep>
  <scstep>
   <time name="diag">   89.74   90.36</time>
   <time name="diis">  182.85  184.35</time>
   <time name="orth">    3.08    3.08</time>
   <time name="total">  313.61  316.14</time>
   <energy>
    <i name="e_fr_energy">    -36.90128372 </i>
    <i name="e_wo_entrp">    -36.90127886 </i>
    <i name="e_0_energy">    -36.90128129 </i>
   </energy>
  </scstep>
  <scstep>
   <time name="diag">   89.57   90.37</time>
   <time name="diis">  180.50  182.08</time>
   <time name="orth">    3.08    3.08</time>
   <time name="total">  311.09  313.88</time>
   <energy>
    <i name="e_fr_energy">    -36.90128372 </i>
    <i name="e_wo_entrp">    -36.90127886 </i>
    <i name="e_0_energy">    -36.90128129 </i>
   </energy>
  </scstep>
  <scstep>
   <time name="diag">   89.41   90.36</time>
   <time name="diis">  179.11  180.50</time>
   <time name="orth">    3.08    3.10</time>
   <time name="total">  274.32  276.73</time>
   <energy>
    <i name="alphaZ">      6.18334092 </i>
    <i name="ewald">   2504.28922130 </i>
    <i name="hartreedc">  -2998.43955827 </i>
    <i name="XCdc">     57.29510543 </i>
    <i name="pawpsdc">    272.11234995 </i>
    <i name="pawaedc">   -277.23866949 </i>
    <i name="eentropy">     -0.00000487 </i>
    <i name="bandstr">   -189.72659561 </i>
    <i name="atom">    588.62352690 </i>
    <i name="e_fr_energy">    -36.90128372 </i>
    <i name="e_wo_entrp">    -36.90127886 </i>
    <i name="e_0_energy">    -36.90128129 </i>
   </energy>
  </scstep>
  <structure>
   <crystal>
    <varray name="basis" >
     <v>       4.26213277       0.00000000       0.00000000 </v>
     <v>       0.00000000       2.50406386       0.00000000 </v>
     <v>       0.00000000       0.00000000      19.75496706 </v>
    </varray>
    <i name="volume">    210.83790140 </i>
    <varray name="rec_basis" >
     <v>       0.23462432       0.00000000       0.00000000 </v>
     <v>       0.00000000       0.39935084       0.00000000 </v>
     <v>       0.00000000       0.00000000       0.05062018 </v>
    </varray>
   </crystal>
   <varray name="positions" >
    <v>       0.00038993      -0.00000000       0.00000000 </v>
    <v>       0.16627674       0.50000000      -0.00000000 </v>
    <v>       0.50038993       0.50000000       0.00000000 </v>
    <v>       0.66627674      -0.00000000      -0.00000000 </v>
   </varray>
  </structure>
  <varray name="forces" >
   <v>      -0.00000442      -0.00000000       0.00000000 </v>
   <v>       0.00000442       0.00000000      -0.00000000 </v>
   <v>      -0.00000442       0.00000000       0.00000000 </v>
   <v>       0.00000442      -0.00000000      -0.00000000 </v>
  </varray>
  <varray name="stress" >
   <v>      -0.00504756       0.00000000       0.00000000 </v>
   <v>       0.00000000     -24.74839852       0.00000000 </v>
   <v>       0.00000000       0.00000000      -0.01021885 </v>
  </varray>
  <energy>
   <i name="e_fr_energy">    -36.90128372 </i>
   <i name="e_wo_entrp">    -36.90128129 </i>
   <i name="e_0_energy">     -0.00000487 </i>
  </energy>
  <time name="totalsc"> 2282.73 2302.14</time>
 </calculation>
 <calculation>
  <scstep>
   <time name="dav">  281.60  282.93</time>
   <time name="total">  319.78  321.28</time>
   <energy>
    <i name="alphaZ">      6.18334092 </i>
    <i name="ewald">   2504.28922155 </i>
    <i name="hartreedc">  -2998.43955825 </i>
    <i name="XCdc">     57.29510544 </i>
    <i name="pawpsdc">    272.11234997 </i>
    <i name="pawaedc">   -277.23866951 </i>
    <i name="eentropy">     -0.00000487 </i>
    <i name="bandstr">   -189.72659589 </i>
    <i name="atom">    588.62352690 </i>
    <i name="e_fr_energy">    -36.90128372 </i>
    <i name="e_wo_entrp">    -36.90127886 </i>
    <i name="e_0_energy">    -36.90128129 </i>
   </energy>
  </scstep>
  <scstep>
   <time name="diag">   90.15   90.51</time>
   <time name="diis">  168.80  169.92</time>
   <time name="orth">    3.08    3.08</time>
   <time name="total">  300.27  301.90</time>
   <energy>
    <i name="e_fr_energy">    -36.90128372 </i>
    <i name="e_wo_entrp">    -36.90127886 </i>
    <i name="e_0_energy">    -36.90128129 </i>
   </energy>
  </scstep>
  <scstep>
   <time name="diag">   89.87   90.43</time>
   <time name="diis">  170.34  171.80</time>
   <time name="orth">    3.08    3.08</time>
   <time name="total">  301.15  303.62</time>
   <energy>
    <i name="e_fr_energy">    -36.90128372 </i>
    <i name="e_wo_entrp">    -36.90127886 </i>
    <i name="e_0_energy">    -36.90128129 </i>
   </energy>
  </scstep>
  <scstep>
   <time name="diag">   89.64   90.38</time>
   <time name="diis">  170.28  171.31</time>
   <time name="orth">    3.08    3.10</time>
   <time name="total">  300.93  303.18</time>
   <energy>
    <i name="e_fr_energy">    -36.90128372 </i>
    <i name="e_wo_entrp">    -36.90127886 </i>
    <i name="e_0_energy">    -36.90128129 </i>
   </energy>
  </scstep>
  <scstep>
   <time name="diag">   89.77   90.43</time>
   <time name="diis">  170.87  171.23</time>
   <time name="orth">    3.07    3.08</time>
   <time name="total">  301.85  303.09</time>
   <energy>
    <i name="e_fr_energy">    -36.90128372 </i>
    <i name="e_wo_entrp">    -36.90127886 </i>
    <i name="e_0_energy">    -36.90128129 </i>
   </energy>
  </scstep>
  <scstep>
   <time name="diag">   89.85   90.37</time>
   <time name="diis">  169.77  170.29</time>
   <time name="orth">    3.09    3.10</time>
   <time name="total">  300.96  302.25</time>
   <energy>
    <i name="e_fr_energy">    -36.90128372 </i>
    <i name="e_wo_entrp">    -36.90127886 </i>
    <i name="e_0_energy">    -36.90128129 </i>
   </energy>
  </scstep>
  <scstep>
   <time name="diag">   89.90   90.38</time>
   <time name="diis">  160.38  160.74</time>
   <time name="orth">    3.07    3.08</time>
   <time name="total">  291.43  292.53</time>
   <energy>
    <i name="e_fr_energy">    -36.90128372 </i>
    <i name="e_wo_entrp">    -36.90127886 </i>
    <i name="e_0_energy">    -36.90128129 </i>
   </energy>
  </scstep>
  <scstep>
   <time name="diag">   89.82   90.35</time>
   <time name="diis">  157.56  158.51</time>
   <time name="orth">    3.08    3.08</time>
   <time name="total">  253.24  254.79</time>
   <energy>
    <i name="alphaZ">      6.18334092 </i>
    <i name="ewald">   2504.28922155 </i>
    <i name="hartreedc">  -2998.43956084 </i>
    <i name="XCdc">     57.29510552 </i>
    <i name="pawpsdc">    272.11235177 </i>
    <i name="pawaedc">   -277.23867132 </i>
    <i name="eentropy">     -0.00000487 </i>
    <i name="bandstr">   -189.72659336 </i>
    <i name="atom">    588.62352690 </i>
    <i name="e_fr_energy">    -36.90128372 </i>
    <i name="e_wo_entrp">    -36.90127886 </i>
    <i name="e_0_energy">    -36.90128129 </i>
   </energy>
  </scstep>
  <structure>
   <crystal>
    <varray name="basis" >
     <v>       4.26213277       0.00000000       0.00000000 </v>
     <v>       0.00000000       2.50406386       0.00000000 </v>
     <v>       0.00000000       0.00000000      19.75496706 </v>
    </varray>
    <i name="volume">    210.83790140 </i>
    <varray name="rec_basis" >
     <v>       0.23462432       0.00000000       0.00000000 </v>
     <v>       0.00000000       0.39935084       0.00000000 </v>
     <v>       0.00000000       0.00000000       0.05062018 </v>
    </varray>
   </crystal>
   <varray name="positions" >
    <v>       0.00038993      -0.00000000       0.00000000 </v>
    <v>       0.16627674       0.50000000      -0.00000000 </v>
    <v>       0.50038993       0.50000000       0.00000000 </v>
    <v>       0.66627674      -0.00000000      -0.00000000 </v>
   </varray>
  </structure>
  <varray name="forces" >
   <v>      -0.00000051       0.00000000      -0.00000000 </v>
   <v>       0.00000051      -0.00000000       0.00000000 </v>
   <v>      -0.00000051      -0.00000000      -0.00000000 </v>
   <v>       0.00000051       0.00000000       0.00000000 </v>
  </varray>
  <varray name="stress" >
   <v>      -0.00503653       0.00000000       0.00000000 </v>
   <v>       0.00000000     -24.74841046       0.00000000 </v>
   <v>       0.00000000       0.00000000      -0.01020431 </v>
  </varray>
  <energy>
   <i name="e_fr_energy">    -36.90128372 </i>
   <i name="e_wo_entrp">    -36.90128129 </i>
   <i name="e_0_energy">     -0.00000487 </i>
  </energy>
  <time name="totalsc"> 2473.10 2486.81</time>
  <eigenvalues>
   <array>
    <dimension dim="1">band</dimension>
    <dimension dim="2">kpoint</dimension>
    <dimension dim="3">spin</dimension>
    <field>eigene</field>
    <field>occ</field>
    <set>
     <set comment="spin 1">
      <set comment="kpoint 1">
       <r>  -22.1507    1.0000 </r>
       <r>  -16.8309    1.0000 </r>
       <r>  -15.9069    1.0000 </r>
       <r>  -10.2795    1.0000 </r>
       <r>   -9.3542    1.0000 </r>
       <r>   -5.9157    1.0000 </r>
       <r>   -5.7547    1.0000 </r>
       <r>   -4.9870    1.0000 </r>
       <r>   -1.1122    0.0000 </r>
       <r>    0.5362    0.0000 </r>
       <r>    1.3355    0.0000 </r>
       <r>    1.7246    0.0000 </r>
      </set>
      <set comment="kpoint 2">
       <r>  -22.1404    1.0000 </r>
       <r>  -17.0136    1.0000 </r>
       <r>  -15.7091    1.0000 </r>
       <r>  -10.2672    1.0000 </r>
       <r>   -9.3438    1.0000 </r>
       <r>   -5.9389    1.0000 </r>
       <r>   -5.7959    1.0000 </r>
       <r>   -5.0556    1.0000 </r>
       <r>   -1.0283    0.0000 </r>
       <r>    0.5502    0.0000 </r>
       <r>    1.3497    0.0000 </r>
       <r>    1.7389    0.0000 </r>
      </set>
      <set comment="kpoint 3">
       <r>  -22.1094    1.0000 </r>
       <r>  -17.3683    1.0000 </r>
       <r>  -15.3091    1.0000 </r>
       <r>  -10.2303    1.0000 </r>
       <r>   -9.3129    1.0000 </r>
       <r>   -6.0074    1.0000 </r>
       <r>   -5.9180    1.0000 </r>
       <r>   -5.2453    1.0000 </r>
       <r>   -0.7929    0.0000 </r>
       <r>    0.5922    0.0000 </r>
       <r>    1.3922    0.0000 </r>
       <r>    1.7819    0.0000 </r>
      </set>
      <set comment="kpoint 4">
       <r>  -22.0578    1.0000 </r>
       <r>  -17.7549    1.0000 </r>
       <r>  -14.8474    1.0000 </r>
       <r>  -10.1690    1.0000 </r>
       <r>   -9.2616    1.0000 </r>
       <r>   -6.1173    1.0000 </r>
       <r>   -6.1165    1.0000 </r>
       <r>   -5.5205    1.0000 </r>
       <r>   -0.4421    0.0000 </r>
       <r>    0.6622    0.0000 </r>
       <r>    1.4629    0.0000 </r>
       <r>    1.8536    0.0000 </r>
      </set>
      <set comment="kpoint 5">
       <r>  -21.9857    1.0000 </r>
       <r>  -18.1405    1.0000 </r>
       <r>  -14.3572    1.0000 </r>
       <r>  -10.0833    1.0000 </r>
       <r>   -9.1900    1.0000 </r>
       <r>   -6.3847    1.0000 </r>
       <r>   -6.2632    1.0000 </r>
       <r>   -5.8468    1.0000 </r>
       <r>   -0.0112    0.0000 </r>
       <r>    0.7601    0.0000 </r>
       <r>    1.5619    0.0000 </r>
       <r>    1.9539    0.0000 </r>
      </set>
      <set comment="kpoint 6">
       <r>  -21.8929    1.0000 </r>
       <r>  -18.5157    1.0000 </r>
       <r>  -13.8486    1.0000 </r>
       <r>   -9.9733    1.0000 </r>
       <r>   -9.0986    1.0000 </r>
       <r>   -6.7144    1.0000 </r>
       <r>   -6.4385    1.0000 </r>
       <r>   -6.1993    1.0000 </r>
       <r>    0.4737    0.0000 </r>
       <r>    0.8861    0.0000 </r>
       <r>    1.6892    0.0000 </r>
       <r>    2.0829    0.0000 </r>
      </set>
      <set comment="kpoint 7">
       <r>  -21.7797    1.0000 </r>
       <r>  -18.8767    1.0000 </r>
       <r>  -13.3264    1.0000 </r>
       <r>   -9.8392    1.0000 </r>
       <r>   -8.9880    1.0000 </r>
       <r>   -7.0969    1.0000 </r>
       <r>   -6.6362    1.0000 </r>
       <r>   -6.5617    1.0000 </r>
       <r>    0.9945    0.0000 </r>
       <r>    1.0400    0.0000 </r>
       <r>    1.8447    0.0000 </r>
       <r>    2.2405    0.0000 </r>
      </set>
      <set comment="kpoint 8">
       <r>  -21.6461    1.0000 </r>
       <r>  -19.2217    1.0000 </r>
       <r>  -12.7936    1.0000 </r>
       <r>   -9.6813    1.0000 </r>
       <r>   -8.8586    1.0000 </r>
       <r>   -7.5235    1.0000 </r>
       <r>   -6.9235    1.0000 </r>
       <r>   -6.8498    1.0000 </r>
       <r>    1.2218    0.0000 </r>
       <r>    1.5387    0.0000 </r>
       <r>    2.0283    0.0000 </r>
       <r>    2.4268    0.0000 </r>
      </set>
      <set comment="kpoint 9">
       <r>  -21.4922    1.0000 </r>
       <r>  -19.5494    1.0000 </r>
       <r>  -12.2526    1.0000 </r>
       <r>   -9.4999    1.0000 </r>
       <r>   -8.7114    1.0000 </r>
       <r>   -7.9860    1.0000 </r>
       <r>   -7.2779    1.0000 </r>
       <r>   -7.0732    1.0000 </r>
       <r>    1.4315    0.0000 </r>
       <r>    2.0968    0.0000 </r>
       <r>    2.2399    0.0000 </r>
       <r>    2.6417    0.0000 </r>
      </set>
      <set comment="kpoint 10">
       <r>  -21.3181    1.0000 </r>
       <r>  -19.8592    1.0000 </r>
       <r>  -11.7060    1.0000 </r>
       <r>   -9.2954    1.0000 </r>
       <r>   -8.5474    1.0000 </r>
       <r>   -8.4770    1.0000 </r>
       <r>   -7.6203    1.0000 </r>
       <r>   -7.3009    1.0000 </r>
       <r>    1.6691    0.0000 </r>
       <r>    2.4793    0.0000 </r>
       <r>    2.6605    0.0000 </r>
       <r>    2.8853    0.0000 </r>
      </set>
      <set comment="kpoint 11">
       <r>  -21.1239    1.0000 </r>
       <r>  -20.1505    1.0000 </r>
       <r>  -11.1562    1.0000 </r>
       <r>   -9.0682    1.0000 </r>
       <r>   -8.9900    1.0000 </r>
       <r>   -8.3677    1.0000 </r>
       <r>   -7.9476    1.0000 </r>
       <r>   -7.5284    1.0000 </r>
       <r>    1.9344    0.0000 </r>
       <r>    2.7463    0.0000 </r>
       <r>    3.1575    0.0000 </r>
       <r>    3.2178    0.0000 </r>
      </set>
      <set comment="kpoint 12">
       <r>  -20.9099    1.0000 </r>
       <r>  -20.4229    1.0000 </r>
       <r>  -10.6062    1.0000 </r>
       <r>   -9.5190    1.0000 </r>
       <r>   -8.8189    1.0000 </r>
       <r>   -8.2576    1.0000 </r>
       <r>   -8.1740    1.0000 </r>
       <r>   -7.7519    1.0000 </r>
       <r>    2.2273    0.0000 </r>
       <r>    2.8951    0.0000 </r>
       <r>    3.0397    0.0000 </r>
       <r>    3.4582    0.0000 </r>
      </set>
      <set comment="kpoint 13">
       <r>  -20.6761    1.0000 </r>
       <r>  -20.6761    1.0000 </r>
       <r>  -10.0592    1.0000 </r>
       <r>  -10.0592    1.0000 </r>
       <r>   -8.5484    1.0000 </r>
       <r>   -8.5484    1.0000 </r>
       <r>   -7.9679    1.0000 </r>
       <r>   -7.9679    1.0000 </r>
       <r>    2.5476    0.0000 </r>
       <r>    2.5476    0.0000 </r>
       <r>    3.3556    0.0000 </r>
       <r>    3.3556    0.0000 </r>
      </set>
      <set comment="kpoint 14">
       <r>  -22.1375    1.0000 </r>
       <r>  -16.8195    1.0000 </r>
       <r>  -15.8960    1.0000 </r>
       <r>  -10.2637    1.0000 </r>
       <r>   -9.4137    1.0000 </r>
       <r>   -5.9705    1.0000 </r>
       <r>   -5.7861    1.0000 </r>
       <r>   -4.9709    1.0000 </r>
       <r>   -1.1175    0.0000 </r>
       <r>    0.5542    0.0000 </r>
       <r>    1.3538    0.0000 </r>
       <r>    1.7431    0.0000 </r>
      </set>
      <set comment="kpoint 15">
       <r>  -22.1271    1.0000 </r>
       <r>  -17.0020    1.0000 </r>
       <r>  -15.6984    1.0000 </r>
       <r>  -10.2514    1.0000 </r>
       <r>   -9.4033    1.0000 </r>
       <r>   -5.9976    1.0000 </r>
       <r>   -5.8227    1.0000 </r>
       <r>   -5.0397    1.0000 </r>
       <r>   -1.0335    0.0000 </r>
       <r>    0.5682    0.0000 </r>
       <r>    1.3679    0.0000 </r>
       <r>    1.7574    0.0000 </r>
      </set>
      <set comment="kpoint 16">
       <r>  -22.0962    1.0000 </r>
       <r>  -17.3565    1.0000 </r>
       <r>  -15.2988    1.0000 </r>
       <r>  -10.2146    1.0000 </r>
       <r>   -9.3724    1.0000 </r>
       <r>   -6.0809    1.0000 </r>
       <r>   -5.9280    1.0000 </r>
       <r>   -5.2297    1.0000 </r>
       <r>   -0.7982    0.0000 </r>
       <r>    0.6102    0.0000 </r>
       <r>    1.4104    0.0000 </r>
       <r>    1.8004    0.0000 </r>
      </set>
      <set comment="kpoint 17">
       <r>  -22.0446    1.0000 </r>
       <r>  -17.7428    1.0000 </r>
       <r>  -14.8376    1.0000 </r>
       <r>  -10.1533    1.0000 </r>
       <r>   -9.3209    1.0000 </r>
       <r>   -6.2301    1.0000 </r>
       <r>   -6.0843    1.0000 </r>
       <r>   -5.5053    1.0000 </r>
       <r>   -0.4476    0.0000 </r>
       <r>    0.6801    0.0000 </r>
       <r>    1.4811    0.0000 </r>
       <r>    1.8720    0.0000 </r>
      </set>
      <set comment="kpoint 18">
       <r>  -21.9724    1.0000 </r>
       <r>  -18.1283    1.0000 </r>
       <r>  -14.3480    1.0000 </r>
       <r>  -10.0676    1.0000 </r>
       <r>   -9.2491    1.0000 </r>
       <r>   -6.4616    1.0000 </r>
       <r>   -6.2635    1.0000 </r>
       <r>   -5.8319    1.0000 </r>
       <r>   -0.0173    0.0000 </r>
       <r>    0.7781    0.0000 </r>
       <r>    1.5801    0.0000 </r>
       <r>    1.9723    0.0000 </r>
      </set>
      <set comment="kpoint 19">
       <r>  -21.8797    1.0000 </r>
       <r>  -18.5034    1.0000 </r>
       <r>  -13.8402    1.0000 </r>
       <r>   -9.9576    1.0000 </r>
       <r>   -9.1575    1.0000 </r>
       <r>   -6.7700    1.0000 </r>
       <r>   -6.4563    1.0000 </r>
       <r>   -6.1845    1.0000 </r>
       <r>    0.4665    0.0000 </r>
       <r>    0.9041    0.0000 </r>
       <r>    1.7074    0.0000 </r>
       <r>    2.1013    0.0000 </r>
      </set>
      <set comment="kpoint 20">
       <r>  -21.7665    1.0000 </r>
       <r>  -18.8642    1.0000 </r>
       <r>  -13.3189    1.0000 </r>
       <r>   -9.8236    1.0000 </r>
       <r>   -9.0464    1.0000 </r>
       <r>   -7.1386    1.0000 </r>
       <r>   -6.6644    1.0000 </r>
       <r>   -6.5470    1.0000 </r>
       <r>    0.9860    0.0000 </r>
       <r>    1.0580    0.0000 </r>
       <r>    1.8629    0.0000 </r>
       <r>    2.2590    0.0000 </r>
      </set>
      <set comment="kpoint 21">
       <r>  -21.6329    1.0000 </r>
       <r>  -19.2091    1.0000 </r>
       <r>  -12.7872    1.0000 </r>
       <r>   -9.6658    1.0000 </r>
       <r>   -8.9166    1.0000 </r>
       <r>   -7.5549    1.0000 </r>
       <r>   -6.9088    1.0000 </r>
[...]
       <r>   -9.0870    1.0000 </r>
       <r>   -5.6371    1.0000 </r>
       <r>   -5.6371    1.0000 </r>
       <r>   -0.5134    0.0000 </r>
       <r>   -0.5134    0.0000 </r>
       <r>    4.8234    0.0000 </r>
       <r>    4.8234    0.0000 </r>
      </set>
      <set comment="kpoint 209">
       <r>  -18.8401    1.0000 </r>
       <r>  -17.1117    1.0000 </r>
       <r>  -13.9366    1.0000 </r>
       <r>  -12.3558    1.0000 </r>
       <r>  -12.3524    1.0000 </r>
       <r>  -10.8647    1.0000 </r>
       <r>   -6.4678    1.0000 </r>
       <r>   -4.6316    1.0000 </r>
       <r>   -0.9923    0.0000 </r>
       <r>    1.1070    0.0000 </r>
       <r>    5.1181    0.0000 </r>
       <r>    5.9071    0.0000 </r>
      </set>
      <set comment="kpoint 210">
       <r>  -18.8303    1.0000 </r>
       <r>  -17.1041    1.0000 </r>
       <r>  -14.0266    1.0000 </r>
       <r>  -12.4366    1.0000 </r>
       <r>  -12.2576    1.0000 </r>
       <r>  -10.7823    1.0000 </r>
       <r>   -6.4590    1.0000 </r>
       <r>   -4.6339    1.0000 </r>
       <r>   -1.0029    0.0000 </r>
       <r>    1.0812    0.0000 </r>
       <r>    5.1318    0.0000 </r>
       <r>    5.9232    0.0000 </r>
      </set>
      <set comment="kpoint 211">
       <r>  -18.8011    1.0000 </r>
       <r>  -17.0818    1.0000 </r>
       <r>  -14.2479    1.0000 </r>
       <r>  -12.6474    1.0000 </r>
       <r>  -12.0118    1.0000 </r>
       <r>  -10.5778    1.0000 </r>
       <r>   -6.4326    1.0000 </r>
       <r>   -4.6416    1.0000 </r>
       <r>   -1.0329    0.0000 </r>
       <r>    1.0056    0.0000 </r>
       <r>    5.1728    0.0000 </r>
       <r>    5.9713    0.0000 </r>
      </set>
      <set comment="kpoint 212">
       <r>  -18.7525    1.0000 </r>
       <r>  -17.0459    1.0000 </r>
       <r>  -14.5276    1.0000 </r>
       <r>  -12.9211    1.0000 </r>
       <r>  -11.6913    1.0000 </r>
       <r>  -10.3167    1.0000 </r>
       <r>   -6.3890    1.0000 </r>
       <r>   -4.6561    1.0000 </r>
       <r>   -1.0768    0.0000 </r>
       <r>    0.8857    0.0000 </r>
       <r>    5.2407    0.0000 </r>
       <r>    6.0503    0.0000 </r>
      </set>
      <set comment="kpoint 213">
       <r>  -18.6848    1.0000 </r>
       <r>  -16.9992    1.0000 </r>
       <r>  -14.8231    1.0000 </r>
       <r>  -13.2203    1.0000 </r>
       <r>  -11.3385    1.0000 </r>
       <r>  -10.0398    1.0000 </r>
       <r>   -6.3286    1.0000 </r>
       <r>   -4.6797    1.0000 </r>
       <r>   -1.1269    0.0000 </r>
       <r>    0.7294    0.0000 </r>
       <r>    5.3348    0.0000 </r>
       <r>    6.1587    0.0000 </r>
      </set>
      <set comment="kpoint 214">
       <r>  -18.5980    1.0000 </r>
       <r>  -16.9469    1.0000 </r>
       <r>  -15.1107    1.0000 </r>
       <r>  -13.5271    1.0000 </r>
       <r>  -10.9753    1.0000 </r>
       <r>   -9.7699    1.0000 </r>
       <r>   -6.2523    1.0000 </r>
       <r>   -4.7153    1.0000 </r>
       <r>   -1.1739    0.0000 </r>
       <r>    0.5454    0.0000 </r>
       <r>    5.4510    0.0000 </r>
       <r>    6.1810    0.0000 </r>
      </set>
      <set comment="kpoint 215">
       <r>  -18.4926    1.0000 </r>
       <r>  -16.8986    1.0000 </r>
       <r>  -15.3715    1.0000 </r>
       <r>  -13.8318    1.0000 </r>
       <r>  -10.6151    1.0000 </r>
       <r>   -9.5224    1.0000 </r>
       <r>   -6.1611    1.0000 </r>
       <r>   -4.7657    1.0000 </r>
       <r>   -1.2084    0.0000 </r>
       <r>    0.3430    0.0000 </r>
       <r>    5.5448    0.0000 </r>
       <r>    5.7925    0.0000 </r>
      </set>
      <set comment="kpoint 216">
       <r>  -18.3691    1.0000 </r>
       <r>  -16.8726    1.0000 </r>
       <r>  -15.5826    1.0000 </r>
       <r>  -14.1287    1.0000 </r>
       <r>  -10.2685    1.0000 </r>
       <r>   -9.3093    1.0000 </r>
       <r>   -6.0562    1.0000 </r>
       <r>   -4.8330    1.0000 </r>
       <r>   -1.2219    0.0000 </r>
       <r>    0.1305    0.0000 </r>
       <r>    5.3062    0.0000 </r>
       <r>    5.8280    0.0000 </r>
      </set>
      <set comment="kpoint 217">
       <r>  -18.2282    1.0000 </r>
       <r>  -16.8958    1.0000 </r>
       <r>  -15.7140    1.0000 </r>
       <r>  -14.4141    1.0000 </r>
       <r>   -9.9450    1.0000 </r>
       <r>   -9.1413    1.0000 </r>
       <r>   -5.9394    1.0000 </r>
       <r>   -4.9181    1.0000 </r>
       <r>   -1.2082    0.0000 </r>
       <r>   -0.0842    0.0000 </r>
       <r>    5.0124    0.0000 </r>
       <r>    5.8351    0.0000 </r>
      </set>
      <set comment="kpoint 218">
       <r>  -18.0708    1.0000 </r>
       <r>  -16.9881    1.0000 </r>
       <r>  -15.7441    1.0000 </r>
       <r>  -14.6849    1.0000 </r>
       <r>   -9.6539    1.0000 </r>
       <r>   -9.0272    1.0000 </r>
       <r>   -5.8128    1.0000 </r>
       <r>   -5.0203    1.0000 </r>
       <r>   -1.1634    0.0000 </r>
       <r>   -0.2945    0.0000 </r>
       <r>    4.7944    0.0000 </r>
       <r>    5.4361    0.0000 </r>
      </set>
      <set comment="kpoint 219">
       <r>  -17.8984    1.0000 </r>
       <r>  -17.1400    1.0000 </r>
       <r>  -15.6813    1.0000 </r>
       <r>  -14.9380    1.0000 </r>
       <r>   -9.4044    1.0000 </r>
       <r>   -8.9741    1.0000 </r>
       <r>   -5.6788    1.0000 </r>
       <r>   -5.1373    1.0000 </r>
       <r>   -1.0863    0.0000 </r>
       <r>   -0.4942    0.0000 </r>
       <r>    4.6666    0.0000 </r>
       <r>    5.1076    0.0000 </r>
      </set>
      <set comment="kpoint 220">
       <r>  -17.7135    1.0000 </r>
       <r>  -17.3245    1.0000 </r>
       <r>  -15.5519    1.0000 </r>
       <r>  -15.1704    1.0000 </r>
       <r>   -9.2052    1.0000 </r>
       <r>   -8.9861    1.0000 </r>
       <r>   -5.5406    1.0000 </r>
       <r>   -5.2658    1.0000 </r>
       <r>   -0.9778    0.0000 </r>
       <r>   -0.6778    0.0000 </r>
       <r>    4.6347    0.0000 </r>
       <r>    4.8594    0.0000 </r>
      </set>
      <set comment="kpoint 221">
       <r>  -17.5199    1.0000 </r>
       <r>  -17.5199    1.0000 </r>
       <r>  -15.3774    1.0000 </r>
       <r>  -15.3774    1.0000 </r>
       <r>   -9.0640    1.0000 </r>
       <r>   -9.0640    1.0000 </r>
       <r>   -5.4016    1.0000 </r>
       <r>   -5.4016    1.0000 </r>
       <r>   -0.8404    0.0000 </r>
       <r>   -0.8404    0.0000 </r>
       <r>    4.6998    0.0000 </r>
       <r>    4.6998    0.0000 </r>
      </set>
      <set comment="kpoint 222">
       <r>  -18.4313    1.0000 </r>
       <r>  -17.5633    1.0000 </r>
       <r>  -13.5698    1.0000 </r>
       <r>  -12.7769    1.0000 </r>
       <r>  -12.0169    1.0000 </r>
       <r>  -11.2667    1.0000 </r>
       <r>   -6.0216    1.0000 </r>
       <r>   -5.0985    1.0000 </r>
       <r>   -0.4999    0.0000 </r>
       <r>    0.5518    0.0000 </r>
       <r>    5.6994    0.0000 </r>
       <r>    6.4549    0.0000 </r>
      </set>
      <set comment="kpoint 223">
       <r>  -18.4217    1.0000 </r>
       <r>  -17.5546    1.0000 </r>
       <r>  -13.6602    1.0000 </r>
       <r>  -12.8639    1.0000 </r>
       <r>  -11.9210    1.0000 </r>
       <r>  -11.1791    1.0000 </r>
       <r>   -6.0140    1.0000 </r>
       <r>   -5.0959    1.0000 </r>
       <r>   -0.5168    0.0000 </r>
       <r>    0.5279    0.0000 </r>
       <r>    5.7130    0.0000 </r>
       <r>    6.4719    0.0000 </r>
      </set>
      <set comment="kpoint 224">
       <r>  -18.3931    1.0000 </r>
       <r>  -17.5287    1.0000 </r>
       <r>  -13.8831    1.0000 </r>
       <r>  -13.0802    1.0000 </r>
       <r>  -11.6821    1.0000 </r>
       <r>  -10.9613    1.0000 </r>
       <r>   -5.9916    1.0000 </r>
       <r>   -5.0885    1.0000 </r>
       <r>   -0.5656    0.0000 </r>
       <r>    0.4584    0.0000 </r>
       <r>    5.7538    0.0000 </r>
       <r>    6.5223    0.0000 </r>
      </set>
      <set comment="kpoint 225">
       <r>  -18.3455    1.0000 </r>
       <r>  -17.4861    1.0000 </r>
       <r>  -14.1671    1.0000 </r>
       <r>  -13.3593    1.0000 </r>
       <r>  -11.3725    1.0000 </r>
       <r>  -10.6818    1.0000 </r>
       <r>   -5.9547    1.0000 </r>
       <r>   -5.0774    1.0000 </r>
       <r>   -0.6410    0.0000 </r>
       <r>    0.3485    0.0000 </r>
       <r>    5.8212    0.0000 </r>
       <r>    6.6048    0.0000 </r>
      </set>
      <set comment="kpoint 226">
       <r>  -18.2793    1.0000 </r>
       <r>  -17.4277    1.0000 </r>
       <r>  -14.4717    1.0000 </r>
       <r>  -13.6627    1.0000 </r>
       <r>  -11.0344    1.0000 </r>
       <r>  -10.3819    1.0000 </r>
       <r>   -5.9042    1.0000 </r>
       <r>   -5.0645    1.0000 </r>
       <r>   -0.7350    0.0000 </r>
       <r>    0.2060    0.0000 </r>
       <r>    5.9136    0.0000 </r>
       <r>    6.7175    0.0000 </r>
      </set>
      <set comment="kpoint 227">
       <r>  -18.1948    1.0000 </r>
       <r>  -17.3554    1.0000 </r>
       <r>  -14.7768    1.0000 </r>
       <r>  -13.9721    1.0000 </r>
       <r>  -10.6900    1.0000 </r>
       <r>  -10.0842    1.0000 </r>
       <r>   -5.8412    1.0000 </r>
       <r>   -5.0523    1.0000 </r>
       <r>   -0.8380    0.0000 </r>
       <r>    0.0399    0.0000 </r>
       <r>    6.0192    0.0000 </r>
       <r>    6.4531    0.0000 </r>
      </set>
      <set comment="kpoint 228">
       <r>  -18.0926    1.0000 </r>
       <r>  -17.2722    1.0000 </r>
       <r>  -15.0703    1.0000 </r>
       <r>  -14.2777    1.0000 </r>
       <r>  -10.3530    1.0000 </r>
       <r>   -9.8036    1.0000 </r>
       <r>   -5.7672    1.0000 </r>
       <r>   -5.0439    1.0000 </r>
       <r>   -0.9398    0.0000 </r>
       <r>   -0.1405    0.0000 </r>
       <r>    5.9003    0.0000 </r>
       <r>    6.2436    0.0000 </r>
      </set>
      <set comment="kpoint 229">
       <r>  -17.9736    1.0000 </r>
       <r>  -17.1838    1.0000 </r>
       <r>  -15.3416    1.0000 </r>
       <r>  -14.5737    1.0000 </r>
       <r>  -10.0345    1.0000 </r>
       <r>   -9.5519    1.0000 </r>
       <r>   -5.6843    1.0000 </r>
       <r>   -5.0430    1.0000 </r>
       <r>   -1.0302    0.0000 </r>
       <r>   -0.3259    0.0000 </r>
       <r>    5.5056    0.0000 </r>
       <r>    5.9986    0.0000 </r>
      </set>
      <set comment="kpoint 230">
       <r>  -17.8392    1.0000 </r>
       <r>  -17.1008    1.0000 </r>
       <r>  -15.5773    1.0000 </r>
       <r>  -14.8556    1.0000 </r>
       <r>   -9.7444    1.0000 </r>
       <r>   -9.3396    1.0000 </r>
       <r>   -5.5949    1.0000 </r>
       <r>   -5.0529    1.0000 </r>
       <r>   -1.1001    0.0000 </r>
       <r>   -0.5080    0.0000 </r>
       <r>    5.1588    0.0000 </r>
       <r>    5.5718    0.0000 </r>
      </set>
      <set comment="kpoint 231">
       <r>  -17.6914    1.0000 </r>
       <r>  -17.0423    1.0000 </r>
       <r>  -15.7564    1.0000 </r>
       <r>  -15.1193    1.0000 </r>
       <r>   -9.4922    1.0000 </r>
       <r>   -9.1764    1.0000 </r>
       <r>   -5.5022    1.0000 </r>
       <r>   -5.0765    1.0000 </r>
       <r>   -1.1419    0.0000 </r>
       <r>   -0.6790    0.0000 </r>
       <r>    4.8886    0.0000 </r>
       <r>    5.2112    0.0000 </r>
      </set>
      <set comment="kpoint 232">
       <r>  -17.5341    1.0000 </r>
       <r>  -17.0361    1.0000 </r>
       <r>  -15.8499    1.0000 </r>
       <r>  -15.3598    1.0000 </r>
       <r>   -9.2873    1.0000 </r>
       <r>   -9.0703    1.0000 </r>
       <r>   -5.4095    1.0000 </r>
       <r>   -5.1157    1.0000 </r>
       <r>   -1.1502    0.0000 </r>
       <r>   -0.8317    0.0000 </r>
       <r>    4.7055    0.0000 </r>
       <r>    4.9275    0.0000 </r>
      </set>
      <set comment="kpoint 233">
       <r>  -17.3735    1.0000 </r>
       <r>  -17.1002    1.0000 </r>
       <r>  -15.8393    1.0000 </r>
       <r>  -15.5697    1.0000 </r>
       <r>   -9.1376    1.0000 </r>
       <r>   -9.0271    1.0000 </r>
       <r>   -5.3207    1.0000 </r>
       <r>   -5.1706    1.0000 </r>
       <r>   -1.1223    0.0000 </r>
       <r>   -0.9599    0.0000 </r>
       <r>    4.6165    0.0000 </r>
       <r>    4.7297    0.0000 </r>
      </set>
      <set comment="kpoint 234">
       <r>  -17.2219    1.0000 </r>
       <r>  -17.2219    1.0000 </r>
       <r>  -15.7367    1.0000 </r>
       <r>  -15.7367    1.0000 </r>
       <r>   -9.0496    1.0000 </r>
       <r>   -9.0496    1.0000 </r>
       <r>   -5.2399    1.0000 </r>
       <r>   -5.2399    1.0000 </r>
       <r>   -1.0581    0.0000 </r>
       <r>   -1.0581    0.0000 </r>
       <r>    4.6247    0.0000 </r>
       <r>    4.6247    0.0000 </r>
      </set>
      <set comment="kpoint 235">
       <r>  -18.0047    1.0000 </r>
       <r>  -18.0047    1.0000 </r>
       <r>  -13.1830    1.0000 </r>
       <r>  -13.1830    1.0000 </r>
       <r>  -11.6522    1.0000 </r>
       <r>  -11.6522    1.0000 </r>
       <r>   -5.5636    1.0000 </r>
       <r>   -5.5636    1.0000 </r>
       <r>    0.0154    0.0000 </r>
       <r>    0.0154    0.0000 </r>
       <r>    6.3106    0.0000 </r>
       <r>    6.3106    0.0000 </r>
      </set>
      <set comment="kpoint 236">
       <r>  -17.9954    1.0000 </r>
       <r>  -17.9954    1.0000 </r>
       <r>  -13.2722    1.0000 </r>
       <r>  -13.2722    1.0000 </r>
       <r>  -11.5599    1.0000 </r>
       <r>  -11.5599    1.0000 </r>
       <r>   -5.5580    1.0000 </r>
       <r>   -5.5580    1.0000 </r>
       <r>   -0.0056    0.0000 </r>
       <r>   -0.0056    0.0000 </r>
       <r>    6.3241    0.0000 </r>
       <r>    6.3241    0.0000 </r>
      </set>
      <set comment="kpoint 237">
       <r>  -17.9678    1.0000 </r>
       <r>  -17.9678    1.0000 </r>
       <r>  -13.4929    1.0000 </r>
       <r>  -13.4929    1.0000 </r>
       <r>  -11.3305    1.0000 </r>
       <r>  -11.3305    1.0000 </r>
       <r>   -5.5415    1.0000 </r>
       <r>   -5.5415    1.0000 </r>
       <r>   -0.0667    0.0000 </r>
       <r>   -0.0667    0.0000 </r>
       <r>    6.3646    0.0000 </r>
       <r>    6.3646    0.0000 </r>
      </set>
      <set comment="kpoint 238">
       <r>  -17.9220    1.0000 </r>
       <r>  -17.9220    1.0000 </r>
       <r>  -13.7757    1.0000 </r>
       <r>  -13.7757    1.0000 </r>
       <r>  -11.0348    1.0000 </r>
       <r>  -11.0348    1.0000 </r>
       <r>   -5.5147    1.0000 </r>
       <r>   -5.5147    1.0000 </r>
       <r>   -0.1626    0.0000 </r>
       <r>   -0.1626    0.0000 </r>
       <r>    6.4312    0.0000 </r>
       <r>    6.4312    0.0000 </r>
      </set>
      <set comment="kpoint 239">
       <r>  -17.8584    1.0000 </r>
       <r>  -17.8584    1.0000 </r>
       <r>  -14.0815    1.0000 </r>
       <r>  -14.0815    1.0000 </r>
       <r>  -10.7144    1.0000 </r>
       <r>  -10.7144    1.0000 </r>
       <r>   -5.4789    1.0000 </r>
       <r>   -5.4789    1.0000 </r>
       <r>   -0.2855    0.0000 </r>
       <r>   -0.2855    0.0000 </r>
       <r>    6.5203    0.0000 </r>
       <r>    6.5203    0.0000 </r>
      </set>
      <set comment="kpoint 240">
       <r>  -17.7779    1.0000 </r>
       <r>  -17.7779    1.0000 </r>
       <r>  -14.3912    1.0000 </r>
       <r>  -14.3912    1.0000 </r>
       <r>  -10.3919    1.0000 </r>
       <r>  -10.3919    1.0000 </r>
       <r>   -5.4358    1.0000 </r>
       <r>   -5.4358    1.0000 </r>
       <r>   -0.4261    0.0000 </r>
       <r>   -0.4261    0.0000 </r>
       <r>    6.5727    0.0000 </r>
       <r>    6.5727    0.0000 </r>
      </set>
      <set comment="kpoint 241">
       <r>  -17.6817    1.0000 </r>
       <r>  -17.6817    1.0000 </r>
       <r>  -14.6946    1.0000 </r>
       <r>  -14.6946    1.0000 </r>
       <r>  -10.0815    1.0000 </r>
       <r>  -10.0815    1.0000 </r>
       <r>   -5.3879    1.0000 </r>
       <r>   -5.3879    1.0000 </r>
       <r>   -0.5746    0.0000 </r>
       <r>   -0.5746    0.0000 </r>
       <r>    6.1820    0.0000 </r>
       <r>    6.1820    0.0000 </r>
      </set>
      <set comment="kpoint 242">
       <r>  -17.5716    1.0000 </r>
       <r>  -17.5716    1.0000 </r>
       <r>  -14.9848    1.0000 </r>
       <r>  -14.9848    1.0000 </r>
       <r>   -9.7946    1.0000 </r>
       <r>   -9.7946    1.0000 </r>
       <r>   -5.3380    1.0000 </r>
       <r>   -5.3380    1.0000 </r>
       <r>   -0.7211    0.0000 </r>
       <r>   -0.7211    0.0000 </r>
       <r>    5.7354    0.0000 </r>
       <r>    5.7354    0.0000 </r>
      </set>
      <set comment="kpoint 243">
       <r>  -17.4512    1.0000 </r>
       <r>  -17.4512    1.0000 </r>
       <r>  -15.2554    1.0000 </r>
       <r>  -15.2554    1.0000 </r>
       <r>   -9.5416    1.0000 </r>
       <r>   -9.5416    1.0000 </r>
       <r>   -5.2894    1.0000 </r>
       <r>   -5.2894    1.0000 </r>
       <r>   -0.8564    0.0000 </r>
       <r>   -0.8564    0.0000 </r>
       <r>    5.3457    0.0000 </r>
       <r>    5.3457    0.0000 </r>
      </set>
      <set comment="kpoint 244">
       <r>  -17.3265    1.0000 </r>
       <r>  -17.3265    1.0000 </r>
       <r>  -15.4985    1.0000 </r>
       <r>  -15.4985    1.0000 </r>
       <r>   -9.3322    1.0000 </r>
       <r>   -9.3322    1.0000 </r>
       <r>   -5.2460    1.0000 </r>
       <r>   -5.2460    1.0000 </r>
       <r>   -0.9720    0.0000 </r>
       <r>   -0.9720    0.0000 </r>
       <r>    5.0280    0.0000 </r>
       <r>    5.0280    0.0000 </r>
      </set>
      <set comment="kpoint 245">
       <r>  -17.2088    1.0000 </r>
       <r>  -17.2088    1.0000 </r>
       <r>  -15.7016    1.0000 </r>
       <r>  -15.7016    1.0000 </r>
       <r>   -9.1752    1.0000 </r>
       <r>   -9.1752    1.0000 </r>
       <r>   -5.2116    1.0000 </r>
       <r>   -5.2116    1.0000 </r>
       <r>   -1.0606    0.0000 </r>
       <r>   -1.0606    0.0000 </r>
       <r>    4.7928    0.0000 </r>
       <r>    4.7928    0.0000 </r>
      </set>
      <set comment="kpoint 246">
       <r>  -17.1182    1.0000 </r>
       <r>  -17.1182    1.0000 </r>
       <r>  -15.8436    1.0000 </r>
       <r>  -15.8436    1.0000 </r>
       <r>   -9.0778    1.0000 </r>
       <r>   -9.0778    1.0000 </r>
       <r>   -5.1894    1.0000 </r>
       <r>   -5.1894    1.0000 </r>
       <r>   -1.1162    0.0000 </r>
       <r>   -1.1162    0.0000 </r>
       <r>    4.6483    0.0000 </r>
       <r>    4.6483    0.0000 </r>
      </set>
      <set comment="kpoint 247">
       <r>  -17.0829    1.0000 </r>
       <r>  -17.0829    1.0000 </r>
       <r>  -15.8961    1.0000 </r>
       <r>  -15.8961    1.0000 </r>
       <r>   -9.0448    1.0000 </r>
       <r>   -9.0448    1.0000 </r>
       <r>   -5.1817    1.0000 </r>
       <r>   -5.1817    1.0000 </r>
       <r>   -1.1352    0.0000 </r>
       <r>   -1.1352    0.0000 </r>
       <r>    4.5995    0.0000 </r>
       <r>    4.5995    0.0000 </r>
      </set>
     </set>
    </set>
   </array>
  </eigenvalues>
  <separator name="orbital magnetization" >
   <v name="MAGDIPOLOUT">      0.00000000      0.00000000      0.00000000</v>
  </separator>
 </calculation>
 <structure name="finalpos" >
  <crystal>
   <varray name="basis" >
    <v>       4.26213277       0.00000000       0.00000000 </v>
    <v>       0.00000000       2.50406386       0.00000000 </v>
    <v>       0.00000000       0.00000000      19.75496706 </v>
   </varray>
   <i name="volume">    210.83790140 </i>
   <varray name="rec_basis" >
    <v>       0.23462432       0.00000000       0.00000000 </v>
    <v>       0.00000000       0.39935084       0.00000000 </v>
    <v>       0.00000000       0.00000000       0.05062018 </v>
   </varray>
  </crystal>
  <varray name="positions" >
   <v>       0.00038993      -0.00000000       0.00000000 </v>
   <v>       0.16627674       0.50000000      -0.00000000 </v>
   <v>       0.50038993       0.50000000       0.00000000 </v>
   <v>       0.66627674      -0.00000000      -0.00000000 </v>
  </varray>
 </structure>
</modeling>
