gr                                      
           1
     4.262133    0.000000    0.000000
     0.000000    2.504064    0.000000
     0.000000    0.000000   19.754967
   C 
   4
Direct configuration=     1
   0.00039382  0.00000000  0.00000000
   0.16627284  0.50000000  0.00000000
   0.50039382  0.50000000  0.00000000
   0.66627284  0.00000000  0.00000000
Direct configuration=     2
   0.00037401  0.00000000 -0.00000000
   0.16629266  0.50000000  0.00000000
   0.50037401  0.50000000 -0.00000000
   0.66629266  0.00000000  0.00000000
Direct configuration=     3
   0.00038992  0.00000000 -0.00000000
   0.16627674  0.50000000  0.00000000
   0.50038992  0.50000000 -0.00000000
   0.66627674  0.00000000  0.00000000
Direct configuration=     4
   0.00038993 -0.00000000  0.00000000
   0.16627674  0.50000000 -0.00000000
   0.50038993  0.50000000  0.00000000
   0.66627674 -0.00000000 -0.00000000
Direct configuration=     5
   0.00038993 -0.00000000  0.00000000
   0.16627674  0.50000000 -0.00000000
   0.50038993  0.50000000  0.00000000
   0.66627674 -0.00000000 -0.00000000
