    4    4  400    1
  0.5270948E+02  0.4380524E-09  0.2457137E-09  0.1958814E-08  0.5000000E-15
  1.000000000000000E-004
  CAR 
 gr                                      
     16    247     12
 
  0.0000000E+00  0.0000000E+00  0.0000000E+00  0.1157407E-02
    1      -22.079924
    2      -17.258473
    3      -15.831922
    4      -10.224812
    5       -8.803270
    6       -6.007400
    7       -5.726927
    8       -5.336298
    9       -1.186393
   10        0.544885
   11        1.342957
   12        1.736433
 
  0.4166667E-01  0.0000000E+00  0.0000000E+00  0.2314815E-02
    1      -22.070168
    2      -17.376492
    3      -15.698925
    4      -10.213237
    5       -8.793828
    6       -6.051695
    7       -5.746983
    8       -5.394980
    9       -1.111996
   10        0.558080
   11        1.356345
   12        1.749989
 
  0.8333333E-01  0.0000000E+00  0.0000000E+00  0.2314815E-02
    1      -22.040905
    2      -17.649684
    3      -15.380873
    4      -10.178529
    5       -8.765552
    6       -6.182466
    7       -5.806111
    8       -5.559187
    9       -0.900798
   10        0.597672
   11        1.396503
   12        1.790659
 
  0.1250000E+00  0.0000000E+00  0.0000000E+00  0.2314815E-02
    1      -21.992157
    2      -17.979850
    3      -14.976194
    4      -10.120746
    5       -8.718594
    6       -6.393781
    7       -5.901345
    8       -5.801711
    9       -0.580481
   10        0.663683
   11        1.463418
   12        1.858448
 
  0.1666667E+00  0.0000000E+00  0.0000000E+00  0.2314815E-02
    1      -21.923957
    2      -18.324533
    3      -14.527733
    4      -10.039988
    5       -8.653215
    6       -6.676971
    7       -6.094159
    8       -6.028231
    9       -0.180240
   10        0.756137
   11        1.557061
   12        1.953359
 
  0.2083333E+00  0.0000000E+00  0.0000000E+00  0.2314815E-02
    1      -21.836357
    2      -18.667346
    3      -14.052442
    4       -9.936395
    5       -8.569789
    6       -7.021926
    7       -6.414264
    8       -6.181393
    9        0.276496
   10        0.875049
   11        1.677390
   12        2.075397
 
  0.2500000E+00  0.0000000E+00  0.0000000E+00  0.2314815E-02
    1      -21.729422
    2      -19.001124
    3      -13.558226
    4       -9.810160
    5       -8.468815
    6       -7.418246
    7       -6.746533
    8       -6.355083
    9        0.772672
   10        1.020422
   11        1.824339
   12        2.224561
 
  0.2916667E+00  0.0000000E+00  0.0000000E+00  0.2314815E-02
    1      -21.603236
    2      -19.322271
    3      -13.049638
    4       -9.661530
    5       -8.350937
    6       -7.856053
    7       -7.080590
    8       -6.543630
    9        1.192239
   10        1.295846
   11        1.997799
   12        2.400851
 
  0.3333333E+00  0.0000000E+00  0.0000000E+00  0.2314815E-02
    1      -21.457904
    2      -19.628753
    3      -12.529902
    4       -9.490822
    5       -8.326434
    6       -8.216957
    7       -7.409475
    8       -6.741736
    9        1.390471
   10        1.836247
   11        2.197588
   12        2.604264
 
  0.3750000E+00  0.0000000E+00  0.0000000E+00  0.2314815E-02
    1      -21.293548
    2      -19.919307
    3      -12.001746
    4       -9.298432
    5       -8.821601
    6       -8.067867
    7       -7.728435
    8       -6.944639
    9        1.615070
   10        2.384711
   11        2.423364
   12        2.834790
 
  0.4166667E+00  0.0000000E+00  0.0000000E+00  0.2314815E-02
    1      -21.110321
    2      -20.193081
    3      -11.467805
    4       -9.334875
    5       -9.084858
    6       -8.034139
    7       -7.904877
    8       -7.148175
    9        1.865971
   10        2.674354
   11        2.927122
   12        3.092419
 
  0.4583333E+00  0.0000000E+00  0.0000000E+00  0.2314815E-02
    1      -20.908406
    2      -20.449472
    3      -10.930847
    4       -9.860588
    5       -8.850726
    6       -8.324193
    7       -7.729456
    8       -7.348763
    9        2.143088
   10        2.775461
   11        2.948305
   12        3.375917
 
  0.5000000E+00  0.0000000E+00  0.0000000E+00  0.1157407E-02
    1      -20.688030
    2      -20.688030
    3      -10.393939
    4      -10.393939
    5       -8.596831
    6       -8.596831
    7       -7.543374
    8       -7.543374
    9        2.446305
   10        2.446305
   11        3.234213
   12        3.234214
 
  0.0000000E+00  0.2777778E-01  0.0000000E+00  0.2314815E-02
    1      -22.066094
    2      -17.246468
    3      -15.820130
    4      -10.208399
    5       -8.866597
    6       -6.033476
    7       -5.785994
    8       -5.319611
    9       -1.188827
   10        0.563621
   11        1.361882
   12        1.755596
 
  0.4166667E-01  0.2777778E-01  0.0000000E+00  0.4629630E-02
    1      -22.056339
    2      -17.364368
    3      -15.687295
    4      -10.196828
    5       -8.857143
    6       -6.078484
    7       -5.804732
    8       -5.378406
    9       -1.114418
   10        0.576816
   11        1.375269
   12        1.769153
 
  0.8333333E-01  0.2777778E-01  0.0000000E+00  0.4629630E-02
    1      -22.027081
    2      -17.637339
    3      -15.369599
    4      -10.162131
    5       -8.828832
    6       -6.210094
    7       -5.861316
    8       -5.542881
    9       -0.903257
   10        0.616408
   11        1.415425
   12        1.809823
 
  0.1250000E+00  0.2777778E-01  0.0000000E+00  0.4629630E-02
    1      -21.978340
    2      -17.967292
    3      -14.965360
    4      -10.104368
    5       -8.781814
    6       -6.420775
    7       -5.954664
    8       -5.785694
    9       -0.583162
   10        0.682420
   11        1.482337
   12        1.877612
 
  0.1666667E+00  0.2777778E-01  0.0000000E+00  0.4629630E-02
    1      -21.910152
    2      -18.311790
    3      -14.517415
    4      -10.023636
    5       -8.716343
    6       -6.701681
    7       -6.080856
    8       -6.078368
    9       -0.183413
   10        0.774876
   11        1.575976
   12        1.972524
 
  0.2083333E+00  0.2777778E-01  0.0000000E+00  0.4629630E-02
    1      -21.822567
    2      -18.654442
    3      -14.042723
    4       -9.920078
    5       -8.632789
    6       -7.043251
    7       -6.398614
    8       -6.234283
    9        0.272541
   10        0.893791
   11        1.696300
   12        2.094562
 
  0.2500000E+00  0.2777778E-01  0.0000000E+00  0.4629630E-02
    1      -21.715650
    2      -18.988083
    3      -13.549208
    4       -9.793885
    5       -8.531645
    6       -7.435696
    7       -6.730949
    8       -6.408830
    9        0.767659
   10        1.039168
   11        1.843244
   12        2.243728
 
  0.2916667E+00  0.2777778E-01  0.0000000E+00  0.4629630E-02
    1      -21.589488
    2      -19.309111
    3      -13.041443
    4       -9.645305
    5       -8.413541
    6       -7.869578
    7       -7.065015
    8       -6.598526
    9        1.210992
   10        1.289534
   11        2.016700
   12        2.420021
 
  0.3333333E+00  0.2777778E-01  0.0000000E+00  0.4629630E-02
    1      -21.444182
    2      -19.615489
    3      -12.522676
    4       -9.474654
    5       -8.336251
    6       -8.279272
    7       -7.393871
    8       -6.797869
    9        1.409232
   10        1.828465
   11        2.216489
   12        2.623437
 
  0.3750000E+00  0.2777778E-01  0.0000000E+00  0.4629630E-02
    1      -21.279859
    2      -19.905953
    3      -11.995663
    4       -9.282327
    5       -8.828059
    6       -8.129815
    7       -7.712777
    8       -7.001974
    9        1.633839
   10        2.375461
   11        2.442270
   12        2.853967
 
  0.4166667E+00  0.2777778E-01  0.0000000E+00  0.4629630E-02
    1      -21.096669
    2      -20.179650
    3      -11.463070
    4       -9.338373
    5       -9.068823
    6       -8.018412
    7       -7.966366
    8       -7.206610
    9        1.884750
   10        2.693277
   11        2.917211
   12        3.111605
 
  0.4583333E+00  0.2777778E-01  0.0000000E+00  0.4629630E-02
    1      -20.894798
    2      -20.435973
    3      -10.927703
    4       -9.861520
    5       -8.834765
    6       -8.308389
    7       -7.790376
    8       -7.408166
    9        2.161880
   10        2.794297
   11        2.967239
   12        3.370661
 
  0.5000000E+00  0.2777778E-01  0.0000000E+00  0.2314815E-02
    1      -20.674473
    2      -20.674473
    3      -10.392671
    4      -10.392671
    5       -8.580948
    6       -8.580948
    7       -7.603603
    8       -7.603603
    9        2.465114
   10        2.465114
   11        3.252732
   12        3.252733
 
  0.0000000E+00  0.5555556E-01  0.0000000E+00  0.2314815E-02
    1      -22.024614
    2      -17.210455
    3      -15.784894
    4      -10.159195
    5       -9.051444
    6       -6.111315
    7       -5.958336
    8       -5.269570
    9       -1.196933
   10        0.619828
   11        1.418650
   12        1.813088
 
  0.4166667E-01  0.5555556E-01  0.0000000E+00  0.4629630E-02
    1      -22.014864
    2      -17.328005
    3      -15.652545
    4      -10.147635
    5       -9.041952
    6       -6.161241
    7       -5.970377
    8       -5.328716
    9       -1.122484
   10        0.633023
   11        1.432035
   12        1.826644
 
  0.8333333E-01  0.5555556E-01  0.0000000E+00  0.4629630E-02
    1      -21.985619
    2      -17.600320
    3      -15.335917
    4      -10.112974
    5       -9.013522
    6       -6.298188
    7       -6.016594
    8       -5.494017
    9       -0.911431
   10        0.672614
   11        1.472185
   12        1.867315
 
  0.1250000E+00  0.5555556E-01  0.0000000E+00  0.4629630E-02
    1      -21.936902
    2      -17.929638
    3      -14.933014
    4      -10.055269
    5       -8.966298
    6       -6.507661
    7       -6.103682
    8       -5.737717
    9       -0.592010
   10        0.738626
   11        1.539086
   12        1.935104
 
  0.1666667E+00  0.5555556E-01  0.0000000E+00  0.4629630E-02
    1      -21.868748
    2      -18.273580
    3      -14.486636
    4       -9.974619
    5       -8.900521
    6       -6.781437
    7       -6.228130
    8       -6.031080
    9       -0.193762
   10        0.831084
   11        1.632711
   12        2.030018
 
  0.2083333E+00  0.5555556E-01  0.0000000E+00  0.4629630E-02
    1      -21.781207
    2      -18.615751
    3      -14.013778
    4       -9.871166
    5       -8.816542
    6       -7.112233
    7       -6.383013
    8       -6.351753
    9        0.259798
   10        0.950005
   11        1.753020
   12        2.152058
 
  0.2500000E+00  0.5555556E-01  0.0000000E+00  0.4629630E-02
    1      -21.674346
    2      -18.948977
    3      -13.522414
    4       -9.745102
    5       -8.714827
    6       -7.492309
    7       -6.684286
    8       -6.560881
    9        0.751677
   10        1.095392
   11        1.899947
   12        2.301228
 
  0.2916667E+00  0.5555556E-01  0.0000000E+00  0.4629630E-02
    1      -21.548253
    2      -19.269645
    3      -13.017180
    4       -9.596673
    5       -8.595978
    6       -7.913672
    7       -7.018378
    8       -6.754752
    9        1.267229
   10        1.269574
   11        2.073390
   12        2.477527
 
  0.3333333E+00  0.5555556E-01  0.0000000E+00  0.4629630E-02
    1      -21.403029
    2      -19.575713
    3      -12.501401
    4       -9.426195
    5       -8.460750
    6       -8.368538
    7       -7.347141
    8       -6.958460
    9        1.465485
   10        1.803977
   11        2.273177
   12        2.680951
 
  0.3750000E+00  0.5555556E-01  0.0000000E+00  0.4629630E-02
    1      -21.238802
    2      -19.865907
    3      -11.977922
    4       -9.234062
    5       -8.849685
    6       -8.310076
    7       -7.665879
    8       -7.166727
    9        1.690113
   10        2.346364
   11        2.498976
   12        2.911492
 
  0.4166667E+00  0.5555556E-01  0.0000000E+00  0.4629630E-02
    1      -21.055725
    2      -20.139369
    3      -11.449515
    4       -9.350632
    5       -9.020770
    6       -8.145102
    7       -7.971301
    8       -7.375116
    9        1.941046
   10        2.750033
   11        2.885461
   12        3.169269
 
  0.4583333E+00  0.5555556E-01  0.0000000E+00  0.4629630E-02
    1      -20.853985
    2      -20.395489
    3      -10.919105
    4       -9.865691
    5       -8.786940
    6       -8.261044
    7       -7.967226
    8       -7.579940
    9        2.218201
   10        2.850710
   11        3.024032
   12        3.426240
 
  0.5000000E+00  0.5555556E-01  0.0000000E+00  0.2314815E-02
    1      -20.633813
    2      -20.633813
    3      -10.389934
    4      -10.389934
    5       -8.533362
    6       -8.533362
    7       -7.778148
    8       -7.778148
    9        2.521471
   10        2.521471
   11        3.308032
   12        3.308035
 
  0.0000000E+00  0.8333333E-01  0.0000000E+00  0.2314815E-02
    1      -21.955518
    2      -17.150447
    3      -15.726659
    4      -10.077305
    5       -9.343858
    6       -6.239744
    7       -6.230896
    8       -5.186241
    9       -1.213128
   10        0.713505
   11        1.513238
   12        1.908907
 
  0.4166667E-01  0.8333333E-01  0.0000000E+00  0.4629630E-02
    1      -21.945776
    2      -17.267432
    3      -15.595113
    4      -10.065765
    5       -9.334287
    6       -6.324714
    7       -6.205027
    8       -5.246005
    9       -1.138596
   10        0.726698
   11        1.526619
   12        1.922464
 
  0.8333333E-01  0.8333333E-01  0.0000000E+00  0.4629630E-02
    1      -21.916555
    2      -17.538673
    3      -15.280278
    4      -10.031165
    5       -9.305617
    6       -6.472643
    7       -6.232142
    8       -5.412757
    9       -0.927704
   10        0.766284
   11        1.566757
   12        1.963134
 
  0.1250000E+00  0.8333333E-01  0.0000000E+00  0.4629630E-02
    1      -21.867878
    2      -17.866942
    3      -14.879652
    4       -9.973561
    5       -9.257976
    6       -6.677627
    7       -6.311592
    8       -5.658001
    9       -0.609431
   10        0.832290
   11        1.633638
   12        2.030923
 
  0.1666667E+00  0.8333333E-01  0.0000000E+00  0.4629630E-02
    1      -21.799781
    2      -18.209957
    3      -14.435973
    4       -9.893052
    5       -9.191579
    6       -6.936946
    7       -6.435969
    8       -5.952554
    9       -0.213773
   10        0.924742
   11        1.727238
   12        2.125836
 
  0.2083333E+00  0.8333333E-01  0.0000000E+00  0.4629630E-02
    1      -21.712314
    2      -18.551325
    3      -13.966295
    4       -9.789779
    5       -9.106741
    6       -7.247100
    7       -6.596111
    8       -6.273956
    9        0.235652
   10        1.043661
   11        1.847516
   12        2.247878
 
  0.2500000E+00  0.8333333E-01  0.0000000E+00  0.4629630E-02
    1      -21.605548
    2      -18.883856
    3      -13.478687
    4       -9.663935
    5       -9.003880
    6       -7.603645
    7       -6.782464
    8       -6.606817
    9        0.721930
   10        1.189050
   11        1.994412
   12        2.397053
 
  0.2916667E+00  0.8333333E-01  0.0000000E+00  0.4629630E-02
    1      -21.479569
    2      -19.203923
    3      -12.977904
    4       -9.515767
    5       -8.883535
    6       -8.001175
    7       -6.986213
    8       -6.940941
    9        1.232934
   10        1.360896
   11        2.167830
   12        2.573358
 
  0.3333333E+00  0.8333333E-01  0.0000000E+00  0.4629630E-02
    1      -21.334481
    2      -19.509470
    3      -12.467414
    4       -9.345586
    5       -8.746382
    6       -8.433599
    7       -7.269535
    8       -7.199868
    9        1.559164
   10        1.759432
   11        2.367607
   12        2.776791
 
  0.3750000E+00  0.8333333E-01  0.0000000E+00  0.4629630E-02
    1      -21.170415
    2      -19.799212
    3      -11.950235
    4       -9.153787
    5       -8.894577
    6       -8.593260
    7       -7.587975
    8       -7.417364
    9        1.783806
   10        2.293521
   11        2.593436
   12        3.007345
 
  0.4166667E+00  0.8333333E-01  0.0000000E+00  0.4629630E-02
    1      -20.987527
    2      -20.072282
    3      -11.429344
    4       -9.377935
    5       -8.940861
    6       -8.425203
    7       -7.893025
    8       -7.633893
    9        2.034754
   10        2.826294
   11        2.844589
   12        3.265024
 
  0.4583333E+00  0.8333333E-01  0.0000000E+00  0.4629630E-02
    1      -20.786007
    2      -20.328062
    3      -10.907908
    4       -9.877940
    5       -8.707424
    6       -8.243481
    7       -8.182359
    8       -7.845660
    9        2.311926
   10        2.944488
   11        3.118667
   12        3.329939
 
  0.5000000E+00  0.8333333E-01  0.0000000E+00  0.2314815E-02
    1      -20.566090
    2      -20.566090
    3      -10.389446
    4      -10.389446
    5       -8.454258
    6       -8.454258
    7       -8.049656
    8       -8.049656
    9        2.615216
   10        2.615216
   11        3.398815
   12        3.398823
 
  0.0000000E+00  0.1111111E+00  0.0000000E+00  0.2314815E-02
    1      -21.858868
    2      -17.066463
    3      -15.646261
    4       -9.962911
    5       -9.724506
    6       -6.585951
    7       -6.416764
    8       -5.069733
    9       -1.241444
   10        0.844648
   11        1.645607
   12        2.043057
 
  0.4166667E-01  0.1111111E+00  0.0000000E+00  0.4629630E-02
    1      -21.849136
    2      -17.182698
    3      -15.515826
    4       -9.951401
    5       -9.714794
    6       -6.639068
    7       -6.418959
    8       -5.130444
    9       -1.166753
   10        0.857835
   11        1.658981
   12        2.056612
 
  0.8333333E-01  0.1111111E+00  0.0000000E+00  0.4629630E-02
    1      -21.819949
    2      -17.452482
    3      -15.203538
    4       -9.916888
    5       -9.685692
    6       -6.772920
    7       -6.449347
    8       -5.299395
    9       -0.956028
   10        0.897409
   11        1.699099
   12        2.097280
 
  0.1250000E+00  0.1111111E+00  0.0000000E+00  0.4629630E-02
    1      -21.771328
    2      -17.779300
    3      -14.806224
    4       -9.859431
    5       -9.637301
    6       -6.963186
    7       -6.527221
    8       -5.546952
    9       -0.639391
   10        0.963394
   11        1.765949
   12        2.165066
 
  0.1666667E+00  0.1111111E+00  0.0000000E+00  0.4629630E-02
    1      -21.703310
    2      -18.121020
    3      -14.366539
    4       -9.779128
    5       -9.569792
    6       -7.200492
    7       -6.653864
    8       -5.843258
    9       -0.247520
   10        1.055823
   11        1.859505
   12        2.259976
 
  0.2083333E+00  0.1111111E+00  0.0000000E+00  0.4629630E-02
    1      -21.615949
    2      -18.461259
    3      -13.901628
    4       -9.676120
    5       -9.483411
    6       -7.480565
    7       -6.822918
    8       -6.165714
    9        0.195829
   10        1.174719
   11        1.979731
   12        2.382017
 
  0.2500000E+00  0.1111111E+00  0.0000000E+00  0.4629630E-02
    1      -21.509315
    2      -18.792810
    3      -13.419715
    4       -9.550600
    5       -9.378486
    6       -7.801082
    7       -7.024363
    8       -6.499031
    9        0.673877
   10        1.320090
   11        2.126572
   12        2.531192
 
  0.2916667E+00  0.1111111E+00  0.0000000E+00  0.4629630E-02
    1      -21.383495
    2      -19.112029
    3      -12.925755
    4       -9.402812
    5       -9.255434
    6       -8.160095
    7       -7.247036
    8       -6.833175
    9        1.174738
   10        1.491923
   11        2.299940
   12        2.707502
 
  0.3333333E+00  0.1111111E+00  0.0000000E+00  0.4629630E-02
    1      -21.238599
    2      -19.416839
    3      -12.423470
    4       -9.233069
    5       -9.114774
    6       -8.554888
    7       -7.480668
    8       -7.161495
    9        1.689521
   10        1.690184
   11        2.499693
   12        2.910942
 
  0.3750000E+00  0.1111111E+00  0.0000000E+00  0.4629630E-02
    1      -21.074759
    2      -19.705942
    3      -11.916192
    4       -9.041760
    5       -8.981468
    6       -8.957148
    7       -7.717045
    8       -7.479477
    9        1.914817
   10        2.210955
   11        2.725558
   12        3.141507
 
  0.4166667E+00  0.1111111E+00  0.0000000E+00  0.4629630E-02
    1      -20.892137
    2      -19.978460
    3      -11.407282
    4       -9.434783
    5       -8.829373
    6       -8.783342
    7       -7.950185
    8       -7.783966
    9        2.165754
   10        2.732040
   11        2.976870
   12        3.399210
 
  0.4583333E+00  0.1111111E+00  0.0000000E+00  0.4629630E-02
    1      -20.690928
    2      -20.233760
    3      -10.900373
    4       -9.909294
    5       -8.596517
    6       -8.594330
    7       -8.175918
    8       -8.072687
    9        2.442908
   10        3.075413
   11        3.240866
   12        3.251112
 
  0.5000000E+00  0.1111111E+00  0.0000000E+00  0.2314815E-02
    1      -20.471371
    2      -20.471371
    3      -10.399520
    4      -10.399520
    5       -8.391332
    6       -8.391332
    7       -8.343962
    8       -8.343962
    9        2.746172
   10        2.746172
   11        3.517540
   12        3.517614
 
  0.0000000E+00  0.1388889E+00  0.0000000E+00  0.2314815E-02
    1      -21.734748
    2      -16.958536
    3      -15.545108
    4      -10.172198
    5       -9.816273
    6       -7.004783
    7       -6.639548
    8       -4.920204
    9       -1.287460
   10        1.013244
   11        1.815696
   12        2.215536
 
  0.4166667E-01  0.1388889E+00  0.0000000E+00  0.4629630E-02
    1      -21.725031
    2      -17.073878
    3      -15.416084
    4      -10.162244
    5       -9.804802
    6       -7.050777
    7       -6.644350
    8       -4.982291
    9       -1.212466
   10        1.026423
   11        1.829060
   12        2.229090
 
  0.8333333E-01  0.1388889E+00  0.0000000E+00  0.4629630E-02
    1      -21.695886
    2      -17.341876
    3      -15.107161
    4      -10.132399
    5       -9.770410
    6       -7.174550
    7       -6.671862
    8       -5.154399
    9       -1.001798
   10        1.065973
   11        1.869147
   12        2.269753
 
  0.1250000E+00  0.1388889E+00  0.0000000E+00  0.4629630E-02
    1      -21.647337
    2      -17.666861
    3      -14.714383
    4      -10.082716
    5       -9.713153
    6       -7.353957
    7       -6.740834
    8       -5.405212
    9       -0.687267
   10        1.131919
   11        1.935944
   12        2.337532
 
  0.1666667E+00  0.1388889E+00  0.0000000E+00  0.4629630E-02
    1      -21.579424
    2      -18.006919
    3      -14.280306
    4      -10.013281
    5       -9.633131
    6       -7.574823
    7       -6.859609
    8       -5.703933
    9       -0.300491
   10        1.224298
   11        2.029429
   12        2.432433
 
  0.2083333E+00  0.1388889E+00  0.0000000E+00  0.4629630E-02
    1      -21.492198
    2      -18.345696
    3      -13.822223
    4       -9.924210
    5       -9.530485
    6       -7.829451
    7       -7.027638
    8       -6.027796
    9        0.134626
   10        1.343139
   11        2.149567
   12        2.554466
 
  0.2500000E+00  0.1388889E+00  0.0000000E+00  0.4629630E-02
    1      -21.385733
    2      -18.675975
    3      -13.348614
    4       -9.815649
    5       -9.405406
    6       -8.114177
    7       -7.238305
    8       -6.361685
    9        0.601522
   10        1.488457
   11        2.296308
   12        2.703636
 
  0.2916667E+00  0.1388889E+00  0.0000000E+00  0.4629630E-02
    1      -21.260121
    2      -18.994088
    3      -12.864791
    4       -9.687766
    5       -9.258140
    6       -8.428109
    7       -7.480883
    8       -6.695800
    9        1.088648
   10        1.660242
   11        2.469579
   12        2.879943
 
  0.3333333E+00  0.1388889E+00  0.0000000E+00  0.4629630E-02
    1      -21.115473
    2      -19.297939
    3      -12.374938
    4       -9.540745
    5       -9.088996
    6       -8.771982
    7       -7.742530
    8       -7.023696
    9        1.587523
   10        1.858458
   11        2.669263
   12        3.083386
 
  0.3750000E+00  0.1388889E+00  0.0000000E+00  0.4629630E-02
    1      -20.951926
    2      -19.586211
    3      -11.882987
    4       -9.374787
    5       -9.146617
    6       -8.898361
    7       -8.010591
    8       -7.341011
    9        2.083047
   10        2.091450
   11        2.895149
   12        3.313957
 
  0.4166667E+00  0.1388889E+00  0.0000000E+00  0.4629630E-02
    1      -20.769649
    2      -19.858007
    3      -11.393056
    4       -9.551360
    5       -9.190112
    6       -8.686717
    7       -8.274703
    8       -7.644697
    9        2.333932
   10        2.594653
   11        3.146706
   12        3.571663
 
  0.4583333E+00  0.1388889E+00  0.0000000E+00  0.4629630E-02
    1      -20.568842
    2      -20.112684
    3      -10.909689
    4       -9.983356
    5       -8.987005
    6       -8.527824
    7       -8.454665
    8       -7.932556
    9        2.611019
   10        3.091102
   11        3.243318
   12        3.421309
 
  0.5000000E+00  0.1388889E+00  0.0000000E+00  0.2314815E-02
    1      -20.349753
    2      -20.349753
    3      -10.437959
    4      -10.437959
    5       -8.765928
    6       -8.765928
    7       -8.202958
    8       -8.202958
    9        2.914194
   10        2.914194
   11        3.555802
   12        3.555820
 
  0.0000000E+00  0.1666667E+00  0.0000000E+00  0.2314815E-02
    1      -21.583275
    2      -16.826705
    3      -15.425547
    4      -10.666164
    5       -9.637739
    6       -7.470137
    7       -6.904462
    8       -4.737861
    9       -1.358105
   10        1.219271
   11        2.023422
   12        2.426346
 
  0.4166667E-01  0.1666667E+00  0.0000000E+00  0.4629630E-02
    1      -21.573575
    2      -16.941082
    3      -15.298239
    4      -10.655795
    5       -9.626321
    6       -7.514819
    7       -6.905564
    8       -4.801924
    9       -1.282521
   10        1.232438
   11        2.036768
   12        2.439898
 
  0.8333333E-01  0.1666667E+00  0.0000000E+00  0.4629630E-02
    1      -21.544484
    2      -17.207044
    3      -14.993647
    4      -10.624673
    5       -9.592087
    6       -7.636426
    7       -6.920758
    8       -4.978490
    9       -1.071554
   10        1.271952
   11        2.076803
   12        2.480554
 
  0.1250000E+00  0.1666667E+00  0.0000000E+00  0.4629630E-02
    1      -21.496024
    2      -17.529843
    3      -14.607015
    4      -10.572753
    5       -9.535094
    6       -7.812725
    7       -6.970457
    8       -5.233775
    9       -0.759470
   10        1.337837
   11        2.143514
   12        2.548319
 
  0.1666667E+00  0.1666667E+00  0.0000000E+00  0.4629630E-02
    1      -21.428236
    2      -17.867872
    3      -14.180811
    4      -10.499945
    5       -9.455441
    6       -8.026922
    7       -7.067902
    8       -5.535703
    9       -0.379143
   10        1.430133
   11        2.236877
   12        2.643203
 
  0.2083333E+00  0.1666667E+00  0.0000000E+00  0.4629630E-02
    1      -21.341177
    2      -18.204842
    3      -13.732590
    4      -10.406097
    5       -9.353272
    6       -8.268594
    7       -7.217828
    8       -5.861353
    9        0.045416
   10        1.548876
   11        2.356858
   12        2.765217
 
  0.2500000E+00  0.1666667E+00  0.0000000E+00  0.4629630E-02
    1      -21.234921
    2      -18.533540
    3      -13.271314
    4      -10.290960
    5       -9.228776
    6       -8.531628
    7       -7.418442
    8       -6.195894
    9        0.498023
   10        1.694092
   11        2.503410
   12        2.914368
 
  0.2916667E+00  0.1666667E+00  0.0000000E+00  0.4629630E-02
    1      -21.109564
    2      -18.850277
    3      -12.802982
    4      -10.154144
    5       -9.082200
    6       -8.813038
    7       -7.662982
    8       -6.529868
    9        0.967623
   10        1.865777
   11        2.676470
   12        3.090665
 
  0.3333333E+00  0.1666667E+00  0.0000000E+00  0.4629630E-02
    1      -20.965221
    2      -19.152935
    3      -12.332711
    4       -9.995069
    5       -9.112485
    6       -8.913851
    7       -7.940897
    8       -6.857112
    9        1.446261
   10        2.063898
   11        2.875952
   12        3.294099
 
  0.3750000E+00  0.1666667E+00  0.0000000E+00  0.4629630E-02
    1      -20.802038
    2      -19.440171
    3      -11.865643
    4       -9.812929
    5       -9.431902
    6       -8.724113
    7       -8.239028
    8       -7.173470
    9        1.927820
   10        2.288394
   11        3.101727
   12        3.524670
 
  0.4166667E+00  0.1666667E+00  0.0000000E+00  0.4629630E-02
    1      -20.620188
    2      -19.711071
    3      -11.407354
    4       -9.774692
    5       -9.606727
    6       -8.543113
    7       -8.513462
    8       -7.476036
    9        2.407300
   10        2.539177
   11        3.353550
   12        3.782456
 
  0.4583333E+00  0.1666667E+00  0.0000000E+00  0.4629630E-02
    1      -20.419880
    2      -19.964971
    3      -10.963879
    4      -10.144097
    5       -9.375544
    6       -8.839874
    7       -8.282487
    8       -7.762710
    9        2.816142
   10        2.880363
   11        3.448072
   12        3.629057
 
  0.5000000E+00  0.1666667E+00  0.0000000E+00  0.2314815E-02
    1      -20.201371
    2      -20.201371
    3      -10.541203
    4      -10.541203
    5       -9.119255
    6       -9.119255
    7       -8.031926
    8       -8.031926
    9        3.119157
   10        3.119157
   11        3.342865
   12        3.342869
 