       N       E                     dE             d eps       ncg     rms          rms(c)
DAV:   1     0.187176023938E+03    0.18718E+03   -0.10599E+04  5928   0.275E+03
DAV:   2    -0.955428260439E+01   -0.19673E+03   -0.17490E+03 10440   0.262E+02
DAV:   3    -0.381246957860E+02   -0.28570E+02   -0.28097E+02  7424   0.118E+02    0.710E+00
RMM:   4    -0.375705294855E+02    0.55417E+00   -0.92308E+00  5928   0.262E+01    0.410E+00
RMM:   5    -0.368666942812E+02    0.70384E+00   -0.26197E+00  5929   0.111E+01    0.692E-01
RMM:   6    -0.368687137487E+02   -0.20195E-02   -0.81182E-02  6378   0.201E+00    0.499E-01
RMM:   7    -0.368598419909E+02    0.88718E-02   -0.30773E-02  5944   0.153E+00    0.324E-01
RMM:   8    -0.368550467105E+02    0.47953E-02   -0.61970E-03  5930   0.523E-01    0.136E-01
RMM:   9    -0.368548314517E+02    0.21526E-03   -0.19547E-02  5928   0.827E-01    0.150E-01
RMM:  10    -0.368547090852E+02    0.12237E-03   -0.19983E-03  5928   0.325E-01    0.266E-02
RMM:  11    -0.368569878856E+02   -0.22788E-02   -0.71119E-04  5928   0.180E-01    0.421E-02
RMM:  12    -0.368574996427E+02   -0.51176E-03   -0.20497E-04  5950   0.950E-02    0.475E-03
RMM:  13    -0.368577573325E+02   -0.25769E-03   -0.45185E-05  6041   0.342E-02    0.274E-03
RMM:  14    -0.368578403920E+02   -0.83059E-04   -0.99762E-06  5992   0.136E-02    0.847E-04
RMM:  15    -0.368578540101E+02   -0.13618E-04   -0.18087E-06  5943   0.726E-03    0.233E-03
RMM:  16    -0.368578671109E+02   -0.13101E-04   -0.20972E-06  5928   0.955E-03    0.142E-03
RMM:  17    -0.368578732258E+02   -0.61150E-05   -0.21800E-07  5929   0.286E-03    0.476E-04
RMM:  18    -0.368578743029E+02   -0.10770E-05   -0.26404E-08  5996   0.134E-03    0.857E-05
RMM:  19    -0.368578750576E+02   -0.75479E-06   -0.99605E-09  5335   0.428E-04    0.144E-05
RMM:  20    -0.368578750953E+02   -0.37657E-07   -0.63138E-10  4489   0.132E-04    0.215E-05
RMM:  21    -0.368578751074E+02   -0.12057E-07   -0.18153E-10  4292   0.796E-05    0.866E-06
RMM:  22    -0.368578751075E+02   -0.97089E-10   -0.17873E-11  3892   0.494E-05
   1 F= -.36857875E+02 E0= -.36857875E+02  d E =-.368579E+02
       N       E                     dE             d eps       ncg     rms          rms(c)
DAV:   1    -0.368578751073E+02    0.10220E-09    0.92039E-10  6536   0.625E-04    0.128E-05
RMM:   2    -0.368578751077E+02   -0.46737E-09   -0.45058E-11  3786   0.772E-05    0.915E-06
RMM:   3    -0.368578751080E+02   -0.24454E-09   -0.19032E-11  3743   0.587E-05    0.228E-06
RMM:   4    -0.368578751077E+02    0.29195E-09   -0.15998E-11  3378   0.398E-05    0.891E-07
RMM:   5    -0.368578751080E+02   -0.31025E-09   -0.65643E-12  3105   0.311E-05    0.169E-06
RMM:   6    -0.368578751078E+02    0.15189E-09   -0.33224E-12  2747   0.265E-05    0.680E-07
RMM:   7    -0.368578751078E+02    0.95497E-11   -0.21343E-12  2477   0.239E-05
   2 F= -.36857875E+02 E0= -.36857875E+02  d E =-.369482E-09
       N       E                     dE             d eps       ncg     rms          rms(c)
DAV:   1    -0.368578751074E+02    0.41518E-09    0.26355E-09  6352   0.493E-04    0.990E-06
RMM:   2    -0.368578751080E+02   -0.53024E-09   -0.14000E-11  3568   0.567E-05    0.693E-06
RMM:   3    -0.368578751079E+02    0.43656E-10   -0.11177E-11  3632   0.508E-05    0.178E-06
RMM:   4    -0.368578751077E+02    0.19645E-09   -0.10384E-11  3048   0.370E-05    0.588E-07
RMM:   5    -0.368578751075E+02    0.23226E-09   -0.42511E-12  2678   0.296E-05    0.109E-06
RMM:   6    -0.368578751079E+02   -0.39097E-09   -0.35075E-12  2442   0.258E-05    0.655E-07
RMM:   7    -0.368578751077E+02    0.12369E-09   -0.31239E-12  2136   0.230E-05    0.544E-07
RMM:   8    -0.368578751076E+02    0.11562E-09   -0.17435E-12  1862   0.211E-05    0.562E-07
RMM:   9    -0.368578751080E+02   -0.35459E-09   -0.44308E-13  1722   0.195E-05    0.564E-07
RMM:  10    -0.368578751079E+02    0.10164E-09   -0.92358E-13  1580   0.186E-05    0.557E-07
RMM:  11    -0.368578751078E+02    0.81741E-10   -0.93699E-13  1445   0.177E-05
   3 F= -.36857875E+02 E0= -.36857875E+02  d E =0.248974E-10
