<?xml version="1.0" encoding="ISO-8859-1"?>
<modeling>
 <generator>
  <i name="program" type="string">vasp </i>
  <i name="version" type="string">5.3.5  </i>
  <i name="subversion" type="string">31Mar14 (build Mar 02 2015 18:14:16) complex                          parallel </i>
  <i name="platform" type="string">LinuxIFC </i>
  <i name="date" type="string">2018 08 09 </i>
  <i name="time" type="string">14:13:10 </i>
 </generator>
 <incar>
  <i type="string" name="SYSTEM">  gr</i>
  <i type="string" name="PREC">accurate : accuracy</i>
  <i type="string" name="ALGO"> FAST.</i>
  <i type="int" name="NELM">   100</i>
  <i type="int" name="NELMDL">    -3</i>
  <i type="int" name="NELMIN">     5</i>
  <i type="int" name="IBRION">     1</i>
  <i name="EDIFF">      0.00000000</i>
  <i name="EDIFFG">     -0.00000100</i>
  <i type="int" name="NSW">   400</i>
  <i type="int" name="ISIF">     2</i>
  <i name="ENCUT">   2000.00000000</i>
  <i type="int" name="ISMEAR">     0</i>
  <i name="SIGMA">      0.05000000</i>
  <i type="int" name="NWRITE">     2</i>
  <i type="logical" name="LWAVE"> F  </i>
  <i type="logical" name="LCHARG"> F  </i>
  <i type="int" name="NELM">   100</i>
 </incar>
 <kpoints>
  <generation param="Gamma">
   <v type="int" name="divisions">      24       36        1 </v>
   <v name="usershift">      0.00000000       0.00000000       0.00000000 </v>
   <v name="genvec1">      0.04166667       0.00000000       0.00000000 </v>
   <v name="genvec2">      0.00000000       0.02777778       0.00000000 </v>
   <v name="genvec3">      0.00000000       0.00000000       1.00000000 </v>
   <v name="shift">      0.00000000       0.00000000       0.00000000 </v>
  </generation>
  <varray name="kpointlist" >
   <v>       0.00000000       0.00000000       0.00000000 </v>
   <v>       0.04166667       0.00000000       0.00000000 </v>
   <v>       0.08333333       0.00000000       0.00000000 </v>
   <v>       0.12500000       0.00000000       0.00000000 </v>
   <v>       0.16666667       0.00000000       0.00000000 </v>
   <v>       0.20833333       0.00000000       0.00000000 </v>
   <v>       0.25000000       0.00000000       0.00000000 </v>
   <v>       0.29166667       0.00000000       0.00000000 </v>
   <v>       0.33333333       0.00000000       0.00000000 </v>
   <v>       0.37500000       0.00000000       0.00000000 </v>
   <v>       0.41666667       0.00000000       0.00000000 </v>
   <v>       0.45833333       0.00000000       0.00000000 </v>
   <v>       0.50000000       0.00000000       0.00000000 </v>
   <v>       0.00000000       0.02777778       0.00000000 </v>
   <v>       0.04166667       0.02777778       0.00000000 </v>
   <v>       0.08333333       0.02777778       0.00000000 </v>
   <v>       0.12500000       0.02777778       0.00000000 </v>
   <v>       0.16666667       0.02777778       0.00000000 </v>
   <v>       0.20833333       0.02777778       0.00000000 </v>
   <v>       0.25000000       0.02777778       0.00000000 </v>
   <v>       0.29166667       0.02777778       0.00000000 </v>
   <v>       0.33333333       0.02777778       0.00000000 </v>
   <v>       0.37500000       0.02777778       0.00000000 </v>
   <v>       0.41666667       0.02777778       0.00000000 </v>
   <v>       0.45833333       0.02777778       0.00000000 </v>
   <v>       0.50000000       0.02777778       0.00000000 </v>
   <v>       0.00000000       0.05555556       0.00000000 </v>
   <v>       0.04166667       0.05555556       0.00000000 </v>
   <v>       0.08333333       0.05555556       0.00000000 </v>
   <v>       0.12500000       0.05555556       0.00000000 </v>
   <v>       0.16666667       0.05555556       0.00000000 </v>
   <v>       0.20833333       0.05555556       0.00000000 </v>
   <v>       0.25000000       0.05555556       0.00000000 </v>
   <v>       0.29166667       0.05555556       0.00000000 </v>
   <v>       0.33333333       0.05555556       0.00000000 </v>
   <v>       0.37500000       0.05555556       0.00000000 </v>
   <v>       0.41666667       0.05555556       0.00000000 </v>
   <v>       0.45833333       0.05555556       0.00000000 </v>
   <v>       0.50000000       0.05555556       0.00000000 </v>
   <v>       0.00000000       0.08333333       0.00000000 </v>
   <v>       0.04166667       0.08333333       0.00000000 </v>
   <v>       0.08333333       0.08333333       0.00000000 </v>
   <v>       0.12500000       0.08333333       0.00000000 </v>
   <v>       0.16666667       0.08333333       0.00000000 </v>
   <v>       0.20833333       0.08333333       0.00000000 </v>
   <v>       0.25000000       0.08333333       0.00000000 </v>
   <v>       0.29166667       0.08333333       0.00000000 </v>
   <v>       0.33333333       0.08333333       0.00000000 </v>
   <v>       0.37500000       0.08333333       0.00000000 </v>
   <v>       0.41666667       0.08333333       0.00000000 </v>
   <v>       0.45833333       0.08333333       0.00000000 </v>
   <v>       0.50000000       0.08333333       0.00000000 </v>
   <v>       0.00000000       0.11111111       0.00000000 </v>
   <v>       0.04166667       0.11111111       0.00000000 </v>
   <v>       0.08333333       0.11111111       0.00000000 </v>
   <v>       0.12500000       0.11111111       0.00000000 </v>
   <v>       0.16666667       0.11111111       0.00000000 </v>
   <v>       0.20833333       0.11111111       0.00000000 </v>
   <v>       0.25000000       0.11111111       0.00000000 </v>
   <v>       0.29166667       0.11111111       0.00000000 </v>
   <v>       0.33333333       0.11111111       0.00000000 </v>
   <v>       0.37500000       0.11111111       0.00000000 </v>
   <v>       0.41666667       0.11111111       0.00000000 </v>
   <v>       0.45833333       0.11111111       0.00000000 </v>
   <v>       0.50000000       0.11111111       0.00000000 </v>
   <v>       0.00000000       0.13888889       0.00000000 </v>
   <v>       0.04166667       0.13888889       0.00000000 </v>
   <v>       0.08333333       0.13888889       0.00000000 </v>
   <v>       0.12500000       0.13888889       0.00000000 </v>
   <v>       0.16666667       0.13888889       0.00000000 </v>
   <v>       0.20833333       0.13888889       0.00000000 </v>
   <v>       0.25000000       0.13888889       0.00000000 </v>
   <v>       0.29166667       0.13888889       0.00000000 </v>
   <v>       0.33333333       0.13888889       0.00000000 </v>
   <v>       0.37500000       0.13888889       0.00000000 </v>
   <v>       0.41666667       0.13888889       0.00000000 </v>
   <v>       0.45833333       0.13888889       0.00000000 </v>
   <v>       0.50000000       0.13888889       0.00000000 </v>
   <v>       0.00000000       0.16666667       0.00000000 </v>
   <v>       0.04166667       0.16666667       0.00000000 </v>
   <v>       0.08333333       0.16666667       0.00000000 </v>
   <v>       0.12500000       0.16666667       0.00000000 </v>
   <v>       0.16666667       0.16666667       0.00000000 </v>
   <v>       0.20833333       0.16666667       0.00000000 </v>
   <v>       0.25000000       0.16666667       0.00000000 </v>
   <v>       0.29166667       0.16666667       0.00000000 </v>
   <v>       0.33333333       0.16666667       0.00000000 </v>
   <v>       0.37500000       0.16666667       0.00000000 </v>
   <v>       0.41666667       0.16666667       0.00000000 </v>
   <v>       0.45833333       0.16666667       0.00000000 </v>
   <v>       0.50000000       0.16666667       0.00000000 </v>
   <v>       0.00000000       0.19444444       0.00000000 </v>
   <v>       0.04166667       0.19444444       0.00000000 </v>
   <v>       0.08333333       0.19444444       0.00000000 </v>
   <v>       0.12500000       0.19444444       0.00000000 </v>
   <v>       0.16666667       0.19444444       0.00000000 </v>
   <v>       0.20833333       0.19444444       0.00000000 </v>
   <v>       0.25000000       0.19444444       0.00000000 </v>
   <v>       0.29166667       0.19444444       0.00000000 </v>
   <v>       0.33333333       0.19444444       0.00000000 </v>
   <v>       0.37500000       0.19444444       0.00000000 </v>
   <v>       0.41666667       0.19444444       0.00000000 </v>
   <v>       0.45833333       0.19444444       0.00000000 </v>
   <v>       0.50000000       0.19444444       0.00000000 </v>
   <v>       0.00000000       0.22222222       0.00000000 </v>
   <v>       0.04166667       0.22222222       0.00000000 </v>
   <v>       0.08333333       0.22222222       0.00000000 </v>
   <v>       0.12500000       0.22222222       0.00000000 </v>
   <v>       0.16666667       0.22222222       0.00000000 </v>
   <v>       0.20833333       0.22222222       0.00000000 </v>
   <v>       0.25000000       0.22222222       0.00000000 </v>
   <v>       0.29166667       0.22222222       0.00000000 </v>
   <v>       0.33333333       0.22222222       0.00000000 </v>
   <v>       0.37500000       0.22222222       0.00000000 </v>
   <v>       0.41666667       0.22222222       0.00000000 </v>
   <v>       0.45833333       0.22222222       0.00000000 </v>
   <v>       0.50000000       0.22222222       0.00000000 </v>
   <v>       0.00000000       0.25000000       0.00000000 </v>
   <v>       0.04166667       0.25000000       0.00000000 </v>
   <v>       0.08333333       0.25000000       0.00000000 </v>
   <v>       0.12500000       0.25000000       0.00000000 </v>
   <v>       0.16666667       0.25000000       0.00000000 </v>
   <v>       0.20833333       0.25000000       0.00000000 </v>
   <v>       0.25000000       0.25000000       0.00000000 </v>
   <v>       0.29166667       0.25000000       0.00000000 </v>
   <v>       0.33333333       0.25000000       0.00000000 </v>
   <v>       0.37500000       0.25000000       0.00000000 </v>
   <v>       0.41666667       0.25000000       0.00000000 </v>
   <v>       0.45833333       0.25000000       0.00000000 </v>
   <v>       0.50000000       0.25000000       0.00000000 </v>
   <v>       0.00000000       0.27777778       0.00000000 </v>
   <v>       0.04166667       0.27777778       0.00000000 </v>
   <v>       0.08333333       0.27777778       0.00000000 </v>
   <v>       0.12500000       0.27777778       0.00000000 </v>
   <v>       0.16666667       0.27777778       0.00000000 </v>
   <v>       0.20833333       0.27777778       0.00000000 </v>
   <v>       0.25000000       0.27777778       0.00000000 </v>
   <v>       0.29166667       0.27777778       0.00000000 </v>
   <v>       0.33333333       0.27777778       0.00000000 </v>
   <v>       0.37500000       0.27777778       0.00000000 </v>
   <v>       0.41666667       0.27777778       0.00000000 </v>
   <v>       0.45833333       0.27777778       0.00000000 </v>
   <v>       0.50000000       0.27777778       0.00000000 </v>
   <v>       0.00000000       0.30555556       0.00000000 </v>
   <v>       0.04166667       0.30555556       0.00000000 </v>
   <v>       0.08333333       0.30555556       0.00000000 </v>
   <v>       0.12500000       0.30555556       0.00000000 </v>
   <v>       0.16666667       0.30555556       0.00000000 </v>
   <v>       0.20833333       0.30555556       0.00000000 </v>
   <v>       0.25000000       0.30555556       0.00000000 </v>
   <v>       0.29166667       0.30555556       0.00000000 </v>
   <v>       0.33333333       0.30555556       0.00000000 </v>
   <v>       0.37500000       0.30555556       0.00000000 </v>
   <v>       0.41666667       0.30555556       0.00000000 </v>
   <v>       0.45833333       0.30555556       0.00000000 </v>
   <v>       0.50000000       0.30555556       0.00000000 </v>
   <v>       0.00000000       0.33333333       0.00000000 </v>
   <v>       0.04166667       0.33333333       0.00000000 </v>
   <v>       0.08333333       0.33333333       0.00000000 </v>
   <v>       0.12500000       0.33333333       0.00000000 </v>
   <v>       0.16666667       0.33333333       0.00000000 </v>
   <v>       0.20833333       0.33333333       0.00000000 </v>
   <v>       0.25000000       0.33333333       0.00000000 </v>
   <v>       0.29166667       0.33333333       0.00000000 </v>
   <v>       0.33333333       0.33333333       0.00000000 </v>
   <v>       0.37500000       0.33333333       0.00000000 </v>
   <v>       0.41666667       0.33333333       0.00000000 </v>
   <v>       0.45833333       0.33333333       0.00000000 </v>
   <v>       0.50000000       0.33333333       0.00000000 </v>
   <v>       0.00000000       0.36111111       0.00000000 </v>
   <v>       0.04166667       0.36111111       0.00000000 </v>
   <v>       0.08333333       0.36111111       0.00000000 </v>
   <v>       0.12500000       0.36111111       0.00000000 </v>
   <v>       0.16666667       0.36111111       0.00000000 </v>
   <v>       0.20833333       0.36111111       0.00000000 </v>
   <v>       0.25000000       0.36111111       0.00000000 </v>
   <v>       0.29166667       0.36111111       0.00000000 </v>
   <v>       0.33333333       0.36111111       0.00000000 </v>
   <v>       0.37500000       0.36111111       0.00000000 </v>
   <v>       0.41666667       0.36111111       0.00000000 </v>
   <v>       0.45833333       0.36111111       0.00000000 </v>
   <v>       0.50000000       0.36111111       0.00000000 </v>
   <v>       0.00000000       0.38888889       0.00000000 </v>
   <v>       0.04166667       0.38888889       0.00000000 </v>
   <v>       0.08333333       0.38888889       0.00000000 </v>
   <v>       0.12500000       0.38888889       0.00000000 </v>
   <v>       0.16666667       0.38888889       0.00000000 </v>
   <v>       0.20833333       0.38888889       0.00000000 </v>
   <v>       0.25000000       0.38888889       0.00000000 </v>
   <v>       0.29166667       0.38888889       0.00000000 </v>
   <v>       0.33333333       0.38888889       0.00000000 </v>
   <v>       0.37500000       0.38888889       0.00000000 </v>
   <v>       0.41666667       0.38888889       0.00000000 </v>
   <v>       0.45833333       0.38888889       0.00000000 </v>
   <v>       0.50000000       0.38888889       0.00000000 </v>
   <v>       0.00000000       0.41666667       0.00000000 </v>
   <v>       0.04166667       0.41666667       0.00000000 </v>
   <v>       0.08333333       0.41666667       0.00000000 </v>
   <v>       0.12500000       0.41666667       0.00000000 </v>
   <v>       0.16666667       0.41666667       0.00000000 </v>
   <v>       0.20833333       0.41666667       0.00000000 </v>
   <v>       0.25000000       0.41666667       0.00000000 </v>
   <v>       0.29166667       0.41666667       0.00000000 </v>
   <v>       0.33333333       0.41666667       0.00000000 </v>
   <v>       0.37500000       0.41666667       0.00000000 </v>
   <v>       0.41666667       0.41666667       0.00000000 </v>
   <v>       0.45833333       0.41666667       0.00000000 </v>
   <v>       0.50000000       0.41666667       0.00000000 </v>
   <v>       0.00000000       0.44444444       0.00000000 </v>
   <v>       0.04166667       0.44444444       0.00000000 </v>
   <v>       0.08333333       0.44444444       0.00000000 </v>
   <v>       0.12500000       0.44444444       0.00000000 </v>
   <v>       0.16666667       0.44444444       0.00000000 </v>
   <v>       0.20833333       0.44444444       0.00000000 </v>
   <v>       0.25000000       0.44444444       0.00000000 </v>
   <v>       0.29166667       0.44444444       0.00000000 </v>
   <v>       0.33333333       0.44444444       0.00000000 </v>
   <v>       0.37500000       0.44444444       0.00000000 </v>
   <v>       0.41666667       0.44444444       0.00000000 </v>
   <v>       0.45833333       0.44444444       0.00000000 </v>
   <v>       0.50000000       0.44444444       0.00000000 </v>
   <v>       0.00000000       0.47222222       0.00000000 </v>
   <v>       0.04166667       0.47222222       0.00000000 </v>
   <v>       0.08333333       0.47222222       0.00000000 </v>
   <v>       0.12500000       0.47222222       0.00000000 </v>
   <v>       0.16666667       0.47222222       0.00000000 </v>
   <v>       0.20833333       0.47222222       0.00000000 </v>
   <v>       0.25000000       0.47222222       0.00000000 </v>
   <v>       0.29166667       0.47222222       0.00000000 </v>
   <v>       0.33333333       0.47222222       0.00000000 </v>
   <v>       0.37500000       0.47222222       0.00000000 </v>
   <v>       0.41666667       0.47222222       0.00000000 </v>
   <v>       0.45833333       0.47222222       0.00000000 </v>
   <v>       0.50000000       0.47222222       0.00000000 </v>
   <v>       0.00000000       0.50000000       0.00000000 </v>
   <v>       0.04166667       0.50000000       0.00000000 </v>
   <v>       0.08333333       0.50000000       0.00000000 </v>
   <v>       0.12500000       0.50000000       0.00000000 </v>
   <v>       0.16666667       0.50000000       0.00000000 </v>
   <v>       0.20833333       0.50000000       0.00000000 </v>
   <v>       0.25000000       0.50000000       0.00000000 </v>
   <v>       0.29166667       0.50000000       0.00000000 </v>
   <v>       0.33333333       0.50000000       0.00000000 </v>
   <v>       0.37500000       0.50000000       0.00000000 </v>
   <v>       0.41666667       0.50000000       0.00000000 </v>
   <v>       0.45833333       0.50000000       0.00000000 </v>
   <v>       0.50000000       0.50000000       0.00000000 </v>
  </varray>
  <varray name="weights" >
   <v>       0.00115741 </v>
   <v>       0.00231481 </v>
   <v>       0.00231481 </v>
   <v>       0.00231481 </v>
   <v>       0.00231481 </v>
   <v>       0.00231481 </v>
   <v>       0.00231481 </v>
   <v>       0.00231481 </v>
   <v>       0.00231481 </v>
   <v>       0.00231481 </v>
   <v>       0.00231481 </v>
   <v>       0.00231481 </v>
   <v>       0.00115741 </v>
   <v>       0.00231481 </v>
   <v>       0.00462963 </v>
   <v>       0.00462963 </v>
   <v>       0.00462963 </v>
   <v>       0.00462963 </v>
   <v>       0.00462963 </v>
   <v>       0.00462963 </v>
   <v>       0.00462963 </v>
   <v>       0.00462963 </v>
   <v>       0.00462963 </v>
   <v>       0.00462963 </v>
   <v>       0.00462963 </v>
   <v>       0.00231481 </v>
   <v>       0.00231481 </v>
   <v>       0.00462963 </v>
   <v>       0.00462963 </v>
   <v>       0.00462963 </v>
   <v>       0.00462963 </v>
   <v>       0.00462963 </v>
   <v>       0.00462963 </v>
   <v>       0.00462963 </v>
   <v>       0.00462963 </v>
   <v>       0.00462963 </v>
   <v>       0.00462963 </v>
   <v>       0.00462963 </v>
   <v>       0.00231481 </v>
   <v>       0.00231481 </v>
   <v>       0.00462963 </v>
   <v>       0.00462963 </v>
   <v>       0.00462963 </v>
   <v>       0.00462963 </v>
   <v>       0.00462963 </v>
   <v>       0.00462963 </v>
   <v>       0.00462963 </v>
   <v>       0.00462963 </v>
   <v>       0.00462963 </v>
   <v>       0.00462963 </v>
   <v>       0.00462963 </v>
   <v>       0.00231481 </v>
   <v>       0.00231481 </v>
   <v>       0.00462963 </v>
   <v>       0.00462963 </v>
   <v>       0.00462963 </v>
   <v>       0.00462963 </v>
   <v>       0.00462963 </v>
   <v>       0.00462963 </v>
   <v>       0.00462963 </v>
   <v>       0.00462963 </v>
   <v>       0.00462963 </v>
   <v>       0.00462963 </v>
   <v>       0.00462963 </v>
   <v>       0.00231481 </v>
   <v>       0.00231481 </v>
   <v>       0.00462963 </v>
   <v>       0.00462963 </v>
   <v>       0.00462963 </v>
   <v>       0.00462963 </v>
   <v>       0.00462963 </v>
   <v>       0.00462963 </v>
   <v>       0.00462963 </v>
   <v>       0.00462963 </v>
   <v>       0.00462963 </v>
   <v>       0.00462963 </v>
   <v>       0.00462963 </v>
   <v>       0.00231481 </v>
   <v>       0.00231481 </v>
   <v>       0.00462963 </v>
   <v>       0.00462963 </v>
   <v>       0.00462963 </v>
   <v>       0.00462963 </v>
   <v>       0.00462963 </v>
   <v>       0.00462963 </v>
   <v>       0.00462963 </v>
   <v>       0.00462963 </v>
   <v>       0.00462963 </v>
   <v>       0.00462963 </v>
   <v>       0.00462963 </v>
   <v>       0.00231481 </v>
   <v>       0.00231481 </v>
   <v>       0.00462963 </v>
   <v>       0.00462963 </v>
   <v>       0.00462963 </v>
   <v>       0.00462963 </v>
   <v>       0.00462963 </v>
   <v>       0.00462963 </v>
   <v>       0.00462963 </v>
   <v>       0.00462963 </v>
   <v>       0.00462963 </v>
   <v>       0.00462963 </v>
   <v>       0.00462963 </v>
   <v>       0.00231481 </v>
   <v>       0.00231481 </v>
   <v>       0.00462963 </v>
   <v>       0.00462963 </v>
   <v>       0.00462963 </v>
   <v>       0.00462963 </v>
   <v>       0.00462963 </v>
   <v>       0.00462963 </v>
   <v>       0.00462963 </v>
   <v>       0.00462963 </v>
   <v>       0.00462963 </v>
   <v>       0.00462963 </v>
   <v>       0.00462963 </v>
   <v>       0.00231481 </v>
   <v>       0.00231481 </v>
   <v>       0.00462963 </v>
   <v>       0.00462963 </v>
   <v>       0.00462963 </v>
   <v>       0.00462963 </v>
   <v>       0.00462963 </v>
   <v>       0.00462963 </v>
   <v>       0.00462963 </v>
   <v>       0.00462963 </v>
   <v>       0.00462963 </v>
   <v>       0.00462963 </v>
   <v>       0.00462963 </v>
   <v>       0.00231481 </v>
   <v>       0.00231481 </v>
   <v>       0.00462963 </v>
   <v>       0.00462963 </v>
   <v>       0.00462963 </v>
   <v>       0.00462963 </v>
   <v>       0.00462963 </v>
   <v>       0.00462963 </v>
   <v>       0.00462963 </v>
   <v>       0.00462963 </v>
   <v>       0.00462963 </v>
   <v>       0.00462963 </v>
   <v>       0.00462963 </v>
   <v>       0.00231481 </v>
   <v>       0.00231481 </v>
   <v>       0.00462963 </v>
   <v>       0.00462963 </v>
   <v>       0.00462963 </v>
   <v>       0.00462963 </v>
   <v>       0.00462963 </v>
   <v>       0.00462963 </v>
   <v>       0.00462963 </v>
   <v>       0.00462963 </v>
   <v>       0.00462963 </v>
   <v>       0.00462963 </v>
   <v>       0.00462963 </v>
   <v>       0.00231481 </v>
   <v>       0.00231481 </v>
   <v>       0.00462963 </v>
   <v>       0.00462963 </v>
   <v>       0.00462963 </v>
   <v>       0.00462963 </v>
   <v>       0.00462963 </v>
   <v>       0.00462963 </v>
   <v>       0.00462963 </v>
   <v>       0.00462963 </v>
   <v>       0.00462963 </v>
   <v>       0.00462963 </v>
   <v>       0.00462963 </v>
   <v>       0.00231481 </v>
   <v>       0.00231481 </v>
   <v>       0.00462963 </v>
   <v>       0.00462963 </v>
   <v>       0.00462963 </v>
   <v>       0.00462963 </v>
   <v>       0.00462963 </v>
   <v>       0.00462963 </v>
   <v>       0.00462963 </v>
   <v>       0.00462963 </v>
   <v>       0.00462963 </v>
   <v>       0.00462963 </v>
   <v>       0.00462963 </v>
   <v>       0.00231481 </v>
   <v>       0.00231481 </v>
   <v>       0.00462963 </v>
   <v>       0.00462963 </v>
   <v>       0.00462963 </v>
   <v>       0.00462963 </v>
   <v>       0.00462963 </v>
   <v>       0.00462963 </v>
   <v>       0.00462963 </v>
   <v>       0.00462963 </v>
   <v>       0.00462963 </v>
   <v>       0.00462963 </v>
   <v>       0.00462963 </v>
   <v>       0.00231481 </v>
   <v>       0.00231481 </v>
   <v>       0.00462963 </v>
   <v>       0.00462963 </v>
   <v>       0.00462963 </v>
   <v>       0.00462963 </v>
   <v>       0.00462963 </v>
   <v>       0.00462963 </v>
   <v>       0.00462963 </v>
   <v>       0.00462963 </v>
   <v>       0.00462963 </v>
   <v>       0.00462963 </v>
   <v>       0.00462963 </v>
   <v>       0.00231481 </v>
   <v>       0.00231481 </v>
   <v>       0.00462963 </v>
   <v>       0.00462963 </v>
   <v>       0.00462963 </v>
   <v>       0.00462963 </v>
   <v>       0.00462963 </v>
   <v>       0.00462963 </v>
   <v>       0.00462963 </v>
   <v>       0.00462963 </v>
   <v>       0.00462963 </v>
   <v>       0.00462963 </v>
   <v>       0.00462963 </v>
   <v>       0.00231481 </v>
   <v>       0.00231481 </v>
   <v>       0.00462963 </v>
   <v>       0.00462963 </v>
   <v>       0.00462963 </v>
   <v>       0.00462963 </v>
   <v>       0.00462963 </v>
   <v>       0.00462963 </v>
   <v>       0.00462963 </v>
   <v>       0.00462963 </v>
   <v>       0.00462963 </v>
   <v>       0.00462963 </v>
   <v>       0.00462963 </v>
   <v>       0.00231481 </v>
   <v>       0.00115741 </v>
   <v>       0.00231481 </v>
   <v>       0.00231481 </v>
   <v>       0.00231481 </v>
   <v>       0.00231481 </v>
   <v>       0.00231481 </v>
   <v>       0.00231481 </v>
   <v>       0.00231481 </v>
   <v>       0.00231481 </v>
   <v>       0.00231481 </v>
   <v>       0.00231481 </v>
   <v>       0.00231481 </v>
   <v>       0.00115741 </v>
  </varray>
 </kpoints>
 <parameters>
  <separator name="general" >
   <i type="string" name="SYSTEM">gr</i>
   <i type="logical" name="LCOMPAT"> F  </i>
  </separator>
  <separator name="electronic" >
   <i type="string" name="PREC">accura</i>
   <i name="ENMAX">   2000.00000000</i>
   <i name="ENAUG">    644.87300000</i>
   <i name="EDIFF">      0.00000000</i>
   <i type="int" name="IALGO">    68</i>
   <i type="int" name="IWAVPR">    11</i>
   <i type="int" name="NBANDS">    12</i>
   <i name="NELECT">     16.00000000</i>
   <i type="int" name="TURBO">     0</i>
   <i type="int" name="IRESTART">     0</i>
   <i type="int" name="NREBOOT">     0</i>
   <i type="int" name="NMIN">     0</i>
   <i name="EREF">      0.00000000</i>
   <separator name="electronic smearing" >
    <i type="int" name="ISMEAR">     0</i>
    <i name="SIGMA">      0.05000000</i>
    <i name="KSPACING">      0.50000000</i>
    <i type="logical" name="KGAMMA"> T  </i>
   </separator>
   <separator name="electronic projectors" >
    <i type="logical" name="LREAL"> F  </i>
    <v name="ROPT">      0.00000000</v>
    <i type="int" name="LMAXPAW">  -100</i>
    <i type="int" name="LMAXMIX">     2</i>
    <i type="logical" name="NLSPLINE"> F  </i>
   </separator>
   <separator name="electronic startup" >
    <i type="int" name="ISTART">     0</i>
    <i type="int" name="ICHARG">     2</i>
    <i type="int" name="INIWAV">     1</i>
   </separator>
   <separator name="electronic spin" >
    <i type="int" name="ISPIN">     1</i>
    <i type="logical" name="LNONCOLLINEAR"> F  </i>
    <v name="MAGMOM">      1.00000000      1.00000000      1.00000000      1.00000000</v>
    <i name="NUPDOWN">     -1.00000000</i>
    <i type="logical" name="LSORBIT"> F  </i>
    <v name="SAXIS">      0.00000000      0.00000000      1.00000000</v>
    <i type="logical" name="LSPIRAL"> F  </i>
    <v name="QSPIRAL">      0.00000000      0.00000000      0.00000000</v>
    <i type="logical" name="LZEROZ"> F  </i>
   </separator>
   <separator name="electronic exchange-correlation" >
    <i type="logical" name="LASPH"> F  </i>
    <i type="logical" name="LMETAGGA"> F  </i>
   </separator>
   <separator name="electronic convergence" >
    <i type="int" name="NELM">   100</i>
    <i type="int" name="NELMDL">    -3</i>
    <i type="int" name="NELMIN">     5</i>
    <i name="ENINI">   2000.00000000</i>
    <separator name="electronic convergence detail" >
     <i type="logical" name="LDIAG"> T  </i>
     <i type="logical" name="LSUBROT"> F  </i>
     <i name="WEIMIN">      0.00100000</i>
     <i name="EBREAK">      0.00000000</i>
     <i name="DEPER">      0.30000000</i>
     <i type="int" name="NRMM">     4</i>
     <i name="TIME">      0.40000000</i>
    </separator>
   </separator>
   <separator name="electronic mixer" >
    <i name="AMIX">      0.40000000</i>
    <i name="BMIX">      1.00000000</i>
    <i name="AMIN">      0.10000000</i>
    <i name="AMIX_MAG">      1.60000000</i>
    <i name="BMIX_MAG">      1.00000000</i>
    <separator name="electronic mixer details" >
     <i type="int" name="IMIX">     4</i>
     <i type="int" name="MAXMIX">   -45</i>
     <i name="WC">    100.00000000</i>
     <i type="int" name="INIMIX">     1</i>
     <i type="int" name="MIXPRE">     1</i>
     <i type="int" name="MREMOVE">     5</i>
    </separator>
   </separator>
   <separator name="electronic dipolcorrection" >
    <i type="logical" name="LDIPOL"> F  </i>
    <i type="logical" name="LMONO"> F  </i>
    <i type="int" name="IDIPOL">     0</i>
    <i name="EPSILON">      1.00000000</i>
    <v name="DIPOL">   -100.00000000   -100.00000000   -100.00000000</v>
    <i name="EFIELD">      0.00000000</i>
   </separator>
  </separator>
  <separator name="grids" >
   <i type="int" name="NGX">    64</i>
   <i type="int" name="NGY">    36</i>
   <i type="int" name="NGZ">   288</i>
   <i type="int" name="NGXF">   128</i>
   <i type="int" name="NGYF">    72</i>
   <i type="int" name="NGZF">   576</i>
   <i type="logical" name="ADDGRID"> F  </i>
  </separator>
  <separator name="ionic" >
   <i type="int" name="NSW">   400</i>
   <i type="int" name="IBRION">     1</i>
   <i type="int" name="ISIF">     2</i>
   <i name="PSTRESS">      0.00000000</i>
   <i name="EDIFFG">     -0.00000100</i>
   <i type="int" name="NFREE">     0</i>
   <i name="POTIM">      0.50000000</i>
   <i name="SMASS">     -3.00000000</i>
   <i name="SCALEE">      1.00000000</i>
  </separator>
  <separator name="ionic md" >
   <i name="TEBEG">      0.00010000</i>
   <i name="TEEND">      0.00010000</i>
   <i type="int" name="NBLOCK">     1</i>
   <i type="int" name="KBLOCK">   400</i>
   <i type="int" name="NPACO">   256</i>
   <i name="APACO">     16.00000000</i>
  </separator>
  <separator name="symmetry" >
   <i type="int" name="ISYM">     2</i>
   <i name="SYMPREC">      0.00001000</i>
  </separator>
  <separator name="dos" >
   <i type="logical" name="LORBIT"> F  </i>
   <v name="RWIGS">     -1.00000000</v>
   <i type="int" name="NEDOS">   301</i>
   <i name="EMIN">     10.00000000</i>
   <i name="EMAX">    -10.00000000</i>
   <i name="EFERMI">      0.00000000</i>
  </separator>
  <separator name="writing" >
   <i type="int" name="NWRITE">     2</i>
   <i type="logical" name="LWAVE"> F  </i>
   <i type="logical" name="LCHARG"> F  </i>
   <i type="logical" name="LPARD"> F  </i>
   <i type="logical" name="LVTOT"> F  </i>
   <i type="logical" name="LVHAR"> F  </i>
   <i type="logical" name="LELF"> F  </i>
   <i type="logical" name="LOPTICS"> F  </i>
   <v name="STM">      0.00000000      0.00000000      0.00000000      0.00000000      0.00000000      0.00000000      0.00000000</v>
  </separator>
  <separator name="performance" >
   <i type="int" name="NPAR">     4</i>
   <i type="int" name="NSIM">     4</i>
   <i type="int" name="NBLK">    -1</i>
   <i type="logical" name="LPLANE"> T  </i>
   <i type="logical" name="LSCALAPACK"> F  </i>
   <i type="logical" name="LSCAAWARE"> F  </i>
   <i type="logical" name="LSCALU"> F  </i>
   <i type="logical" name="LASYNC"> F  </i>
   <i type="logical" name="LORBITALREAL"> F  </i>
  </separator>
  <separator name="miscellaneous" >
   <i type="int" name="IDIOT">     3</i>
   <i type="logical" name="LMUSIC"> F  </i>
   <v name="POMASS">     12.01100000</v>
   <v name="DARWINR">      0.00000000</v>
   <v name="DARWINV">      1.00000000</v>
   <i type="logical" name="LCORR"> T  </i>
  </separator>
  <i type="logical" name="GGA_COMPAT"> T  </i>
  <i type="logical" name="LBERRY"> F  </i>
  <i type="int" name="ICORELEVEL">     0</i>
  <i type="logical" name="LDAU"> F  </i>
  <i type="int" name="I_CONSTRAINED_M">     0</i>
  <separator name="electronic exchange-correlation" >
   <i type="string" name="GGA">--</i>
   <i type="int" name="VOSKOWN">     0</i>
   <i type="logical" name="LHFCALC"> F  </i>
   <i type="string" name="PRECFOCK"></i>
   <i type="logical" name="LSYMGRAD"> F  </i>
   <i type="logical" name="LHFONE"> F  </i>
   <i type="logical" name="LRHFCALC"> F  </i>
   <i type="logical" name="LTHOMAS"> F  </i>
   <i type="logical" name="LMODELHF"> F  </i>
   <i name="ENCUT4O">     -1.00000000</i>
   <i type="int" name="EXXOEP">     0</i>
   <i type="int" name="FOURORBIT">     0</i>
   <i name="AEXX">      0.00000000</i>
   <i name="HFALPHA">      0.00000000</i>
   <i name="MCALPHA">      0.00000000</i>
   <i name="ALDAX">      1.00000000</i>
   <i name="AGGAX">      1.00000000</i>
   <i name="ALDAC">      1.00000000</i>
   <i name="AGGAC">      1.00000000</i>
   <i type="int" name="NKREDX">     1</i>
   <i type="int" name="NKREDY">     1</i>
   <i type="int" name="NKREDZ">     1</i>
   <i type="logical" name="SHIFTRED"> F  </i>
   <i type="logical" name="ODDONLY"> F  </i>
   <i type="logical" name="EVENONLY"> F  </i>
   <i type="int" name="LMAXFOCK">     0</i>
   <i type="int" name="NMAXFOCKAE">     0</i>
   <i type="logical" name="LFOCKAEDFT"> F  </i>
   <i name="HFSCREEN">      0.00000000</i>
   <i name="HFSCREENC">      0.00000000</i>
   <i type="int" name="NBANDSGWLOW">     0</i>
  </separator>
  <separator name="vdW DFT" >
   <i type="logical" name="LUSE_VDW"> F  </i>
   <i name="Zab_VDW">     -0.84910000</i>
   <i name="PARAM1">      0.12340000</i>
   <i name="PARAM2">      1.00000000</i>
   <i name="PARAM3">      0.00000000</i>
  </separator>
  <separator name="model GW" >
   <i type="int" name="MODEL_GW">     0</i>
   <i name="MODEL_EPS0">     31.62568521</i>
   <i name="MODEL_ALPHA">      1.00000000</i>
  </separator>
  <separator name="linear response parameters" >
   <i type="logical" name="LEPSILON"> F  </i>
   <i type="logical" name="LRPA"> F  </i>
   <i type="logical" name="LNABLA"> F  </i>
   <i type="logical" name="LVEL"> F  </i>
   <i type="int" name="KINTER">     0</i>
   <i name="CSHIFT">      0.10000000</i>
   <i name="OMEGAMAX">     -1.00000000</i>
   <i name="DEG_THRESHOLD">      0.00200000</i>
  </separator>
  <separator name="orbital magnetization" >
   <i type="logical" name="NUCIND"> F  </i>
   <v name="MAGPOS">      0.00000000      0.00000000      0.00000000</v>
   <i type="logical" name="LNICSALL"> T  </i>
   <i type="logical" name="ORBITALMAG"> F  </i>
   <i type="logical" name="LMAGBLOCH"> F  </i>
   <i type="logical" name="LCHIMAG"> F  </i>
   <i type="logical" name="LGAUGE"> T  </i>
   <i type="int" name="MAGATOM">     0</i>
   <v name="MAGDIPOL">      0.00000000      0.00000000      0.00000000</v>
   <v name="AVECCONST">      0.00000000      0.00000000      0.00000000</v>
  </separator>
  <separator name="response functions" >
   <i type="logical" name="LADDER"> F  </i>
   <i type="logical" name="LFXC"> F  </i>
   <i type="logical" name="LHARTREE"> T  </i>
   <i type="int" name="IBSE">     0</i>
   <i type="logical" name="LTCTE"> F  </i>
   <i type="logical" name="LTETE"> F  </i>
   <i type="logical" name="LTRIPLET"> F  </i>
   <i type="logical" name="LFXCEPS"> F  </i>
   <i type="logical" name="LFXHEG"> F  </i>
   <i type="logical" name="L2ORDER"> F  </i>
   <i type="logical" name="LUSEW"> F  </i>
   <i name="ENCUTGW">     -2.00000000</i>
   <i name="ENCUTGWSOFT">     -2.00000000</i>
   <i name="ENCUTLF">     -1.00000000</i>
   <i type="int" name="LMAXMP2">    -1</i>
   <i name="SCISSOR">      0.00000000</i>
   <i type="int" name="NOMEGA">     0</i>
   <i type="int" name="NOMEGAR">     0</i>
   <i type="int" name="NBANDSGW">    -1</i>
   <i type="int" name="NBANDSO">    -1</i>
   <i type="int" name="NBANDSV">    -1</i>
   <i type="int" name="NELM">   100</i>
   <i type="int" name="DIM">     3</i>
   <i type="int" name="ANTIRES">     0</i>
   <i name="OMEGAMAX">    -30.00000000</i>
   <i name="OMEGAMIN">    -30.00000000</i>
   <i name="OMEGATL">   -200.00000000</i>
   <i type="int" name="OMEGAGRID">     0</i>
   <i name="CSHIFT">     -0.10000000</i>
   <i type="logical" name="SELFENERGY"> F  </i>
   <i type="logical" name="LSPECTRAL"> F  </i>
   <i type="logical" name="ODDONLYGW"> F  </i>
   <i type="logical" name="EVENONLYGW"> F  </i>
   <i type="int" name="NKREDLFX">     1</i>
   <i type="int" name="NKREDLFY">     1</i>
   <i type="int" name="NKREDLFZ">     1</i>
   <i type="int" name="MAXMEM">  1800</i>
   <i type="int" name="TELESCOPE">     0</i>
   <i type="int" name="TAUPAR">     1</i>
  </separator>
  <separator name="External order field" >
   <i name="OFIELD_KAPPA">      0.00000000</i>
   <v name="OFIELD_K">      0.00000000      0.00000000      0.00000000</v>
   <i name="OFIELD_Q6_NEAR">      0.00000000</i>
   <i name="OFIELD_Q6_FAR">      0.00000000</i>
   <i name="OFIELD_A">      0.00000000</i>
  </separator>
 </parameters>
 <atominfo>
  <atoms>       4 </atoms>
  <types>       1 </types>
  <array name="atoms" >
   <dimension dim="1">ion</dimension>
   <field type="string">element</field>
   <field type="int">atomtype</field>
   <set>
    <rc><c>C </c><c>   1</c></rc>
    <rc><c>C </c><c>   1</c></rc>
    <rc><c>C </c><c>   1</c></rc>
    <rc><c>C </c><c>   1</c></rc>
   </set>
  </array>
  <array name="atomtypes" >
   <dimension dim="1">type</dimension>
   <field type="int">atomspertype</field>
   <field type="string">element</field>
   <field>mass</field>
   <field>valence</field>
   <field type="string">pseudopotential</field>
   <set>
    <rc><c>   4</c><c>C </c><c>     12.01100000</c><c>      4.00000000</c><c> PAW_PBE C 08Apr2002                    </c></rc>
   </set>
  </array>
 </atominfo>
 <structure name="initialpos" >
  <crystal>
   <varray name="basis" >
    <v>       4.38052433       0.00000000       0.00000000 </v>
    <v>       0.00000000       2.45713657       0.00000000 </v>
    <v>       0.00000000       0.00000000      19.58814420 </v>
   </varray>
   <i name="volume">    210.83790140 </i>
   <varray name="rec_basis" >
    <v>       0.22828317       0.00000000       0.00000000 </v>
    <v>       0.00000000       0.40697779       0.00000000 </v>
    <v>       0.00000000       0.00000000       0.05105129 </v>
   </varray>
  </crystal>
  <varray name="positions" >
   <v>       0.99945869       0.00000000       0.00000000 </v>
   <v>       0.16720798       0.50000000       0.00000000 </v>
   <v>       0.49945869       0.50000000       0.00000000 </v>
   <v>       0.66720798       0.00000000       0.00000000 </v>
  </varray>
 </structure>
 <calculation>
  <scstep>
   <time name="dav">  289.61  290.83</time>
   <time name="total">  292.29  293.65</time>
   <energy>
    <i name="alphaZ">      6.18334092 </i>
    <i name="ewald">   2448.72722818 </i>
    <i name="hartreedc">  -2878.24289211 </i>
    <i name="XCdc">     54.81560005 </i>
    <i name="pawpsdc">    151.32577238 </i>
    <i name="pawaedc">   -155.92769107 </i>
    <i name="eentropy">     -0.00147937 </i>
    <i name="bandstr">    -28.32738195 </i>
    <i name="atom">    588.62352690 </i>
    <i name="e_fr_energy">    187.17602394 </i>
    <i name="e_wo_entrp">    187.17750331 </i>
    <i name="e_0_energy">    187.17676362 </i>
   </energy>
  </scstep>
  <scstep>
   <time name="dav">  436.49  438.45</time>
   <time name="total">  436.50  438.48</time>
   <energy>
    <i name="e_fr_energy">     -9.55428260 </i>
    <i name="e_wo_entrp">     -9.55387162 </i>
    <i name="e_0_energy">     -9.55407711 </i>
   </energy>
  </scstep>
  <scstep>
   <time name="dav">  337.16  338.12</time>
   <time name="total">  366.79  367.86</time>
   <energy>
    <i name="e_fr_energy">    -38.12469579 </i>
    <i name="e_wo_entrp">    -38.12469579 </i>
    <i name="e_0_energy">    -38.12469579 </i>
   </energy>
  </scstep>
  <scstep>
   <time name="diag">   78.23   78.64</time>
   <time name="diis">  336.14  338.19</time>
   <time name="orth">    3.10    3.10</time>
   <time name="total">  449.37  452.40</time>
   <energy>
    <i name="e_fr_energy">    -37.57052949 </i>
    <i name="e_wo_entrp">    -37.57052948 </i>
    <i name="e_0_energy">    -37.57052948 </i>
   </energy>
  </scstep>
  <scstep>
   <time name="diag">   78.44   78.58</time>
   <time name="diis">  331.30  333.59</time>
   <time name="orth">    3.08    3.08</time>
   <time name="total">  444.62  447.48</time>
   <energy>
    <i name="e_fr_energy">    -36.86669428 </i>
    <i name="e_wo_entrp">    -36.86669426 </i>
    <i name="e_0_energy">    -36.86669427 </i>
   </energy>
  </scstep>
  <scstep>
   <time name="diag">   77.77   78.54</time>
   <time name="diis">  363.70  365.73</time>
   <time name="orth">    3.10    3.10</time>
   <time name="total">  476.44  479.37</time>
   <energy>
    <i name="e_fr_energy">    -36.86871375 </i>
    <i name="e_wo_entrp">    -36.86871373 </i>
    <i name="e_0_energy">    -36.86871374 </i>
   </energy>
  </scstep>
  <scstep>
   <time name="diag">   78.32   78.59</time>
   <time name="diis">  332.09  334.17</time>
   <time name="orth">    3.09    3.10</time>
   <time name="total">  445.21  448.07</time>
   <energy>
    <i name="e_fr_energy">    -36.85984199 </i>
    <i name="e_wo_entrp">    -36.85984198 </i>
    <i name="e_0_energy">    -36.85984198 </i>
   </energy>
  </scstep>
  <scstep>
   <time name="diag">   78.26   78.54</time>
   <time name="diis">  330.02  331.07</time>
   <time name="orth">    3.10    3.10</time>
   <time name="total">  443.39  444.74</time>
   <energy>
    <i name="e_fr_energy">    -36.85504671 </i>
    <i name="e_wo_entrp">    -36.85504670 </i>
    <i name="e_0_energy">    -36.85504670 </i>
   </energy>
  </scstep>
  <scstep>
   <time name="diag">   78.50   78.51</time>
   <time name="diis">  318.45  318.89</time>
   <time name="orth">    3.08    3.08</time>
   <time name="total">  431.98  432.77</time>
   <energy>
    <i name="e_fr_energy">    -36.85483145 </i>
    <i name="e_wo_entrp">    -36.85483143 </i>
    <i name="e_0_energy">    -36.85483144 </i>
   </energy>
  </scstep>
  <scstep>
   <time name="diag">   78.17   78.54</time>
   <time name="diis">  318.55  319.77</time>
   <time name="orth">    3.08    3.10</time>
   <time name="total">  431.70  433.47</time>
   <energy>
    <i name="e_fr_energy">    -36.85470909 </i>
    <i name="e_wo_entrp">    -36.85470907 </i>
    <i name="e_0_energy">    -36.85470908 </i>
   </energy>
  </scstep>
  <scstep>
   <time name="diag">   78.14   78.52</time>
   <time name="diis">  320.55  321.13</time>
   <time name="orth">    3.09    3.09</time>
   <time name="total">  433.97  434.97</time>
   <energy>
    <i name="e_fr_energy">    -36.85698789 </i>
    <i name="e_wo_entrp">    -36.85698787 </i>
    <i name="e_0_energy">    -36.85698788 </i>
   </energy>
  </scstep>
  <scstep>
   <time name="diag">   78.55   78.60</time>
   <time name="diis">  321.55  321.65</time>
   <time name="orth">    3.08    3.10</time>
   <time name="total">  435.10  435.47</time>
   <energy>
    <i name="e_fr_energy">    -36.85749964 </i>
    <i name="e_wo_entrp">    -36.85749963 </i>
    <i name="e_0_energy">    -36.85749963 </i>
   </energy>
  </scstep>
  <scstep>
   <time name="diag">   78.16   78.52</time>
   <time name="diis">  326.98  327.60</time>
   <time name="orth">    3.08    3.08</time>
   <time name="total">  440.25  441.26</time>
   <energy>
    <i name="e_fr_energy">    -36.85775733 </i>
    <i name="e_wo_entrp">    -36.85775732 </i>
    <i name="e_0_energy">    -36.85775732 </i>
   </energy>
  </scstep>
  <scstep>
   <time name="diag">   78.45   78.48</time>
   <time name="diis">  325.96  326.05</time>
   <time name="orth">    3.08    3.08</time>
   <time name="total">  439.33  439.47</time>
   <energy>
    <i name="e_fr_energy">    -36.85784039 </i>
    <i name="e_wo_entrp">    -36.85784038 </i>
    <i name="e_0_energy">    -36.85784038 </i>
   </energy>
  </scstep>
  <scstep>
   <time name="diag">   78.36   78.39</time>
   <time name="diis">  320.37  320.44</time>
   <time name="orth">    3.10    3.10</time>
   <time name="total">  433.87  434.03</time>
   <energy>
    <i name="e_fr_energy">    -36.85785401 </i>
    <i name="e_wo_entrp">    -36.85785399 </i>
    <i name="e_0_energy">    -36.85785400 </i>
   </energy>
  </scstep>
  <scstep>
   <time name="diag">   78.46   78.48</time>
   <time name="diis">  319.51  319.58</time>
   <time name="orth">    3.11    3.11</time>
   <time name="total">  432.94  433.04</time>
   <energy>
    <i name="e_fr_energy">    -36.85786711 </i>
    <i name="e_wo_entrp">    -36.85786709 </i>
    <i name="e_0_energy">    -36.85786710 </i>
   </energy>
  </scstep>
  <scstep>
   <time name="diag">   78.46   78.48</time>
   <time name="diis">  319.97  320.05</time>
   <time name="orth">    3.08    3.08</time>
   <time name="total">  433.46  433.64</time>
   <energy>
    <i name="e_fr_energy">    -36.85787323 </i>
    <i name="e_wo_entrp">    -36.85787321 </i>
    <i name="e_0_energy">    -36.85787322 </i>
   </energy>
  </scstep>
  <scstep>
   <time name="diag">   77.64   78.42</time>
   <time name="diis">  323.59  324.45</time>
   <time name="orth">    3.10    3.10</time>
   <time name="total">  436.23  438.91</time>
   <energy>
    <i name="e_fr_energy">    -36.85787430 </i>
    <i name="e_wo_entrp">    -36.85787429 </i>
    <i name="e_0_energy">    -36.85787429 </i>
   </energy>
  </scstep>
  <scstep>
   <time name="diag">   78.11   78.49</time>
   <time name="diis">  292.96  293.56</time>
   <time name="orth">    3.07    3.07</time>
   <time name="total">  406.47  407.50</time>
   <energy>
    <i name="e_fr_energy">    -36.85787506 </i>
    <i name="e_wo_entrp">    -36.85787504 </i>
    <i name="e_0_energy">    -36.85787505 </i>
   </energy>
  </scstep>
  <scstep>
   <time name="diag">   78.00   78.55</time>
   <time name="diis">  245.62  247.48</time>
   <time name="orth">    3.07    3.09</time>
   <time name="total">  358.77  362.07</time>
   <energy>
    <i name="e_fr_energy">    -36.85787510 </i>
    <i name="e_wo_entrp">    -36.85787508 </i>
    <i name="e_0_energy">    -36.85787509 </i>
   </energy>
  </scstep>
  <scstep>
   <time name="diag">   77.92   78.54</time>
   <time name="diis">  237.60  240.00</time>
   <time name="orth">    3.07    3.09</time>
   <time name="total">  350.67  354.07</time>
   <energy>
    <i name="e_fr_energy">    -36.85787511 </i>
    <i name="e_wo_entrp">    -36.85787509 </i>
    <i name="e_0_energy">    -36.85787510 </i>
   </energy>
  </scstep>
  <scstep>
   <time name="diag">   77.61   78.59</time>
   <time name="diis">  218.74  221.00</time>
   <time name="orth">    3.08    3.09</time>
   <time name="total">  301.84  305.12</time>
   <energy>
    <i name="alphaZ">      6.18334092 </i>
    <i name="ewald">   2448.72722818 </i>
    <i name="hartreedc">  -2943.01409151 </i>
    <i name="XCdc">     57.13961745 </i>
    <i name="pawpsdc">    268.77685247 </i>
    <i name="pawaedc">   -273.88815295 </i>
    <i name="eentropy">     -0.00000002 </i>
    <i name="bandstr">   -189.40619655 </i>
    <i name="atom">    588.62352690 </i>
    <i name="e_fr_energy">    -36.85787511 </i>
    <i name="e_wo_entrp">    -36.85787509 </i>
    <i name="e_0_energy">    -36.85787510 </i>
   </energy>
  </scstep>
  <structure>
   <crystal>
    <varray name="basis" >
     <v>       4.38052433       0.00000000       0.00000000 </v>
     <v>       0.00000000       2.45713657       0.00000000 </v>
     <v>       0.00000000       0.00000000      19.58814420 </v>
    </varray>
    <i name="volume">    210.83790140 </i>
    <varray name="rec_basis" >
     <v>       0.22828317       0.00000000       0.00000000 </v>
     <v>       0.00000000       0.40697779       0.00000000 </v>
     <v>       0.00000000       0.00000000       0.05105129 </v>
    </varray>
   </crystal>
   <varray name="positions" >
    <v>       0.99945869       0.00000000       0.00000000 </v>
    <v>       0.16720798       0.50000000       0.00000000 </v>
    <v>       0.49945869       0.50000000       0.00000000 </v>
    <v>       0.66720798       0.00000000       0.00000000 </v>
   </varray>
  </structure>
  <varray name="forces" >
   <v>       0.00001313       0.00000000       0.00000000 </v>
   <v>      -0.00001313       0.00000000      -0.00000000 </v>
   <v>       0.00001313      -0.00000000       0.00000000 </v>
   <v>      -0.00001313       0.00000000      -0.00000000 </v>
  </varray>
  <varray name="stress" >
   <v>     -41.29990819       0.00000000       0.00000000 </v>
   <v>       0.00000000      -0.00132918       0.00000000 </v>
   <v>       0.00000000       0.00000000      -0.01032634 </v>
  </varray>
  <energy>
   <i name="e_fr_energy">    -36.85787511 </i>
   <i name="e_wo_entrp">    -36.85787510 </i>
   <i name="e_0_energy">     -0.00000002 </i>
  </energy>
  <time name="totalsc"> 9221.67 9259.09</time>
 </calculation>
 <calculation>
  <scstep>
   <time name="dav">  308.51  310.94</time>
   <time name="total">  340.76  343.44</time>
   <energy>
    <i name="alphaZ">      6.18334092 </i>
    <i name="ewald">   2448.72724178 </i>
    <i name="hartreedc">  -2943.01409178 </i>
    <i name="XCdc">     57.13961754 </i>
    <i name="pawpsdc">    268.77685987 </i>
    <i name="pawaedc">   -273.88816025 </i>
    <i name="eentropy">     -0.00000002 </i>
    <i name="bandstr">   -189.40621008 </i>
    <i name="atom">    588.62352690 </i>
    <i name="e_fr_energy">    -36.85787511 </i>
    <i name="e_wo_entrp">    -36.85787509 </i>
    <i name="e_0_energy">    -36.85787510 </i>
   </energy>
  </scstep>
  <scstep>
   <time name="diag">   77.74   78.51</time>
   <time name="diis">  211.15  213.61</time>
   <time name="orth">    3.08    3.08</time>
   <time name="total">  324.05  327.63</time>
   <energy>
    <i name="e_fr_energy">    -36.85787511 </i>
    <i name="e_wo_entrp">    -36.85787509 </i>
    <i name="e_0_energy">    -36.85787510 </i>
   </energy>
  </scstep>
  <scstep>
   <time name="diag">   77.74   78.48</time>
   <time name="diis">  208.63  211.00</time>
   <time name="orth">    3.08    3.08</time>
   <time name="total">  321.49  325.00</time>
   <energy>
    <i name="e_fr_energy">    -36.85787511 </i>
    <i name="e_wo_entrp">    -36.85787509 </i>
    <i name="e_0_energy">    -36.85787510 </i>
   </energy>
  </scstep>
  <scstep>
   <time name="diag">   77.77   78.50</time>
   <time name="diis">  198.31  200.25</time>
   <time name="orth">    3.08    3.09</time>
   <time name="total">  311.42  314.21</time>
   <energy>
    <i name="e_fr_energy">    -36.85787511 </i>
    <i name="e_wo_entrp">    -36.85787509 </i>
    <i name="e_0_energy">    -36.85787510 </i>
   </energy>
  </scstep>
  <scstep>
   <time name="diag">   78.37   78.48</time>
   <time name="diis">  191.57  192.19</time>
   <time name="orth">    3.08    3.08</time>
   <time name="total">  305.29  306.17</time>
   <energy>
    <i name="e_fr_energy">    -36.85787511 </i>
    <i name="e_wo_entrp">    -36.85787509 </i>
    <i name="e_0_energy">    -36.85787510 </i>
   </energy>
  </scstep>
  <scstep>
   <time name="diag">   78.40   78.52</time>
   <time name="diis">  182.53  182.67</time>
   <time name="orth">    3.10    3.10</time>
   <time name="total">  296.45  296.75</time>
   <energy>
    <i name="e_fr_energy">    -36.85787511 </i>
    <i name="e_wo_entrp">    -36.85787509 </i>
    <i name="e_0_energy">    -36.85787510 </i>
   </energy>
  </scstep>
  <scstep>
   <time name="diag">   78.45   78.54</time>
   <time name="diis">  174.04  174.54</time>
   <time name="orth">    3.07    3.08</time>
   <time name="total">  257.93  258.62</time>
   <energy>
    <i name="alphaZ">      6.18334092 </i>
    <i name="ewald">   2448.72724178 </i>
    <i name="hartreedc">  -2943.01411911 </i>
    <i name="XCdc">     57.13961881 </i>
    <i name="pawpsdc">    268.77690780 </i>
    <i name="pawaedc">   -273.88820875 </i>
    <i name="eentropy">     -0.00000002 </i>
    <i name="bandstr">   -189.40618344 </i>
    <i name="atom">    588.62352690 </i>
    <i name="e_fr_energy">    -36.85787511 </i>
    <i name="e_wo_entrp">    -36.85787509 </i>
    <i name="e_0_energy">    -36.85787510 </i>
   </energy>
  </scstep>
  <structure>
   <crystal>
    <varray name="basis" >
     <v>       4.38052433       0.00000000       0.00000000 </v>
     <v>       0.00000000       2.45713657       0.00000000 </v>
     <v>       0.00000000       0.00000000      19.58814420 </v>
    </varray>
    <i name="volume">    210.83790140 </i>
    <varray name="rec_basis" >
     <v>       0.22828317       0.00000000       0.00000000 </v>
     <v>       0.00000000       0.40697779       0.00000000 </v>
     <v>       0.00000000       0.00000000       0.05105129 </v>
    </varray>
   </crystal>
   <varray name="positions" >
    <v>       0.99945884       0.00000000       0.00000000 </v>
    <v>       0.16720783       0.50000000      -0.00000000 </v>
    <v>       0.49945884       0.50000000       0.00000000 </v>
    <v>       0.66720783       0.00000000      -0.00000000 </v>
   </varray>
  </structure>
  <varray name="forces" >
   <v>      -0.00004907       0.00000000       0.00000000 </v>
   <v>       0.00004907      -0.00000000       0.00000000 </v>
   <v>      -0.00004907       0.00000000       0.00000000 </v>
   <v>       0.00004907      -0.00000000       0.00000000 </v>
  </varray>
  <varray name="stress" >
   <v>     -41.30000067       0.00000000       0.00000000 </v>
   <v>       0.00000000      -0.00108669       0.00000000 </v>
   <v>       0.00000000       0.00000000      -0.01016076 </v>
  </varray>
  <energy>
   <i name="e_fr_energy">    -36.85787511 </i>
   <i name="e_wo_entrp">    -36.85787510 </i>
   <i name="e_0_energy">     -0.00000002 </i>
  </energy>
  <time name="totalsc"> 2259.80 2274.94</time>
 </calculation>
 <calculation>
  <scstep>
   <time name="dav">  304.48  305.46</time>
   <time name="total">  336.67  337.89</time>
   <energy>
    <i name="alphaZ">      6.18334092 </i>
    <i name="ewald">   2448.72723105 </i>
    <i name="hartreedc">  -2943.01411434 </i>
    <i name="XCdc">     57.13961849 </i>
    <i name="pawpsdc">    268.77690778 </i>
    <i name="pawaedc">   -273.88820872 </i>
    <i name="eentropy">     -0.00000002 </i>
    <i name="bandstr">   -189.40617717 </i>
    <i name="atom">    588.62352690 </i>
    <i name="e_fr_energy">    -36.85787511 </i>
    <i name="e_wo_entrp">    -36.85787509 </i>
    <i name="e_0_energy">    -36.85787510 </i>
   </energy>
  </scstep>
  <scstep>
   <time name="diag">   77.70   78.59</time>
   <time name="diis">  202.85  204.56</time>
   <time name="orth">    3.07    3.07</time>
   <time name="total">  315.61  318.58</time>
   <energy>
    <i name="e_fr_energy">    -36.85787511 </i>
    <i name="e_wo_entrp">    -36.85787509 </i>
    <i name="e_0_energy">    -36.85787510 </i>
   </energy>
  </scstep>
  <scstep>
   <time name="diag">   78.07   78.56</time>
   <time name="diis">  204.35  205.51</time>
   <time name="orth">    3.07    3.07</time>
   <time name="total">  317.72  319.64</time>
   <energy>
    <i name="e_fr_energy">    -36.85787511 </i>
    <i name="e_wo_entrp">    -36.85787509 </i>
    <i name="e_0_energy">    -36.85787510 </i>
   </energy>
  </scstep>
  <scstep>
   <time name="diag">   78.43   78.52</time>
   <time name="diis">  188.27  189.18</time>
   <time name="orth">    3.07    3.09</time>
   <time name="total">  302.02  303.23</time>
   <energy>
    <i name="e_fr_energy">    -36.85787511 </i>
    <i name="e_wo_entrp">    -36.85787509 </i>
    <i name="e_0_energy">    -36.85787510 </i>
   </energy>
  </scstep>
  <scstep>
   <time name="diag">   78.10   78.54</time>
   <time name="diis">  174.65  175.69</time>
   <time name="orth">    3.08    3.09</time>
   <time name="total">  288.02  289.76</time>
   <energy>
    <i name="e_fr_energy">    -36.85787511 </i>
    <i name="e_wo_entrp">    -36.85787509 </i>
    <i name="e_0_energy">    -36.85787510 </i>
   </energy>
  </scstep>
  <scstep>
   <time name="diag">   78.05   78.60</time>
   <time name="diis">  171.11  171.21</time>
   <time name="orth">    3.09    3.10</time>
   <time name="total">  284.69  285.37</time>
   <energy>
    <i name="e_fr_energy">    -36.85787511 </i>
    <i name="e_wo_entrp">    -36.85787509 </i>
    <i name="e_0_energy">    -36.85787510 </i>
   </energy>
  </scstep>
  <scstep>
   <time name="diag">   78.47   78.54</time>
   <time name="diis">  160.66  160.83</time>
   <time name="orth">    3.09    3.10</time>
   <time name="total">  274.49  274.98</time>
   <energy>
    <i name="e_fr_energy">    -36.85787511 </i>
    <i name="e_wo_entrp">    -36.85787509 </i>
    <i name="e_0_energy">    -36.85787510 </i>
   </energy>
  </scstep>
  <scstep>
   <time name="diag">   78.18   78.64</time>
   <time name="diis">  149.80  150.64</time>
   <time name="orth">    3.07    3.09</time>
   <time name="total">  263.33  264.87</time>
   <energy>
    <i name="e_fr_energy">    -36.85787511 </i>
    <i name="e_wo_entrp">    -36.85787509 </i>
    <i name="e_0_energy">    -36.85787510 </i>
   </energy>
  </scstep>
  <scstep>
   <time name="diag">   78.62   78.64</time>
   <time name="diis">  146.89  146.91</time>
   <time name="orth">    3.09    3.09</time>
   <time name="total">  261.07  261.12</time>
   <energy>
    <i name="e_fr_energy">    -36.85787511 </i>
    <i name="e_wo_entrp">    -36.85787509 </i>
    <i name="e_0_energy">    -36.85787510 </i>
   </energy>
  </scstep>
  <scstep>
   <time name="diag">   78.36   78.52</time>
   <time name="diis">  142.52  142.61</time>
   <time name="orth">    3.08    3.08</time>
   <time name="total">  256.44  256.69</time>
   <energy>
    <i name="e_fr_energy">    -36.85787511 </i>
    <i name="e_wo_entrp">    -36.85787509 </i>
    <i name="e_0_energy">    -36.85787510 </i>
   </energy>
  </scstep>
  <scstep>
   <time name="diag">   78.47   78.52</time>
   <time name="diis">  139.11  139.21</time>
   <time name="orth">    3.07    3.08</time>
   <time name="total">  223.06  224.67</time>
   <energy>
    <i name="alphaZ">      6.18334092 </i>
    <i name="ewald">   2448.72723105 </i>
    <i name="hartreedc">  -2943.01410797 </i>
    <i name="XCdc">     57.13961822 </i>
    <i name="pawpsdc">    268.77689235 </i>
    <i name="pawaedc">   -273.88819318 </i>
    <i name="eentropy">     -0.00000002 </i>
    <i name="bandstr">   -189.40618338 </i>
    <i name="atom">    588.62352690 </i>
    <i name="e_fr_energy">    -36.85787511 </i>
    <i name="e_wo_entrp">    -36.85787509 </i>
    <i name="e_0_energy">    -36.85787510 </i>
   </energy>
  </scstep>
  <structure>
   <crystal>
    <varray name="basis" >
     <v>       4.38052433       0.00000000       0.00000000 </v>
     <v>       0.00000000       2.45713657       0.00000000 </v>
     <v>       0.00000000       0.00000000      19.58814420 </v>
    </varray>
    <i name="volume">    210.83790140 </i>
    <varray name="rec_basis" >
     <v>       0.22828317       0.00000000       0.00000000 </v>
     <v>       0.00000000       0.40697779       0.00000000 </v>
     <v>       0.00000000       0.00000000       0.05105129 </v>
    </varray>
   </crystal>
   <varray name="positions" >
    <v>       0.99945872       0.00000000       0.00000000 </v>
    <v>       0.16720794       0.50000000      -0.00000000 </v>
    <v>       0.49945872       0.50000000       0.00000000 </v>
    <v>       0.66720794       0.00000000      -0.00000000 </v>
   </varray>
  </structure>
  <varray name="forces" >
   <v>       0.00000082       0.00000000       0.00000000 </v>
   <v>      -0.00000082      -0.00000000      -0.00000000 </v>
   <v>       0.00000082       0.00000000       0.00000000 </v>
   <v>      -0.00000082      -0.00000000      -0.00000000 </v>
  </varray>
  <varray name="stress" >
   <v>     -41.29990661       0.00000000       0.00000000 </v>
   <v>       0.00000000      -0.00126667       0.00000000 </v>
   <v>       0.00000000       0.00000000      -0.01016387 </v>
  </varray>
  <energy>
   <i name="e_fr_energy">    -36.85787511 </i>
   <i name="e_wo_entrp">    -36.85787510 </i>
   <i name="e_0_energy">     -0.00000002 </i>
  </energy>
  <time name="totalsc"> 3218.25 3232.10</time>
  <eigenvalues>
   <array>
    <dimension dim="1">band</dimension>
    <dimension dim="2">kpoint</dimension>
    <dimension dim="3">spin</dimension>
    <field>eigene</field>
    <field>occ</field>
    <set>
     <set comment="spin 1">
      <set comment="kpoint 1">
       <r>  -22.0799    1.0000 </r>
       <r>  -17.2585    1.0000 </r>
       <r>  -15.8319    1.0000 </r>
       <r>  -10.2248    1.0000 </r>
       <r>   -8.8033    1.0000 </r>
       <r>   -6.0074    1.0000 </r>
       <r>   -5.7269    1.0000 </r>
       <r>   -5.3363    1.0000 </r>
       <r>   -1.1864    0.0000 </r>
       <r>    0.5449    0.0000 </r>
       <r>    1.3430    0.0000 </r>
       <r>    1.7364    0.0000 </r>
      </set>
      <set comment="kpoint 2">
       <r>  -22.0702    1.0000 </r>
       <r>  -17.3765    1.0000 </r>
       <r>  -15.6989    1.0000 </r>
       <r>  -10.2132    1.0000 </r>
       <r>   -8.7938    1.0000 </r>
       <r>   -6.0517    1.0000 </r>
       <r>   -5.7470    1.0000 </r>
       <r>   -5.3950    1.0000 </r>
       <r>   -1.1120    0.0000 </r>
       <r>    0.5581    0.0000 </r>
       <r>    1.3563    0.0000 </r>
       <r>    1.7500    0.0000 </r>
      </set>
      <set comment="kpoint 3">
       <r>  -22.0409    1.0000 </r>
       <r>  -17.6497    1.0000 </r>
       <r>  -15.3809    1.0000 </r>
       <r>  -10.1785    1.0000 </r>
       <r>   -8.7656    1.0000 </r>
       <r>   -6.1825    1.0000 </r>
       <r>   -5.8061    1.0000 </r>
       <r>   -5.5592    1.0000 </r>
       <r>   -0.9008    0.0000 </r>
       <r>    0.5977    0.0000 </r>
       <r>    1.3965    0.0000 </r>
       <r>    1.7907    0.0000 </r>
      </set>
      <set comment="kpoint 4">
       <r>  -21.9922    1.0000 </r>
       <r>  -17.9798    1.0000 </r>
       <r>  -14.9762    1.0000 </r>
       <r>  -10.1207    1.0000 </r>
       <r>   -8.7186    1.0000 </r>
       <r>   -6.3938    1.0000 </r>
       <r>   -5.9013    1.0000 </r>
       <r>   -5.8017    1.0000 </r>
       <r>   -0.5805    0.0000 </r>
       <r>    0.6637    0.0000 </r>
       <r>    1.4634    0.0000 </r>
       <r>    1.8584    0.0000 </r>
      </set>
      <set comment="kpoint 5">
       <r>  -21.9240    1.0000 </r>
       <r>  -18.3245    1.0000 </r>
       <r>  -14.5277    1.0000 </r>
       <r>  -10.0400    1.0000 </r>
       <r>   -8.6532    1.0000 </r>
       <r>   -6.6770    1.0000 </r>
       <r>   -6.0942    1.0000 </r>
       <r>   -6.0282    1.0000 </r>
       <r>   -0.1802    0.0000 </r>
       <r>    0.7561    0.0000 </r>
       <r>    1.5571    0.0000 </r>
       <r>    1.9534    0.0000 </r>
      </set>
      <set comment="kpoint 6">
       <r>  -21.8364    1.0000 </r>
       <r>  -18.6673    1.0000 </r>
       <r>  -14.0524    1.0000 </r>
       <r>   -9.9364    1.0000 </r>
       <r>   -8.5698    1.0000 </r>
       <r>   -7.0219    1.0000 </r>
       <r>   -6.4143    1.0000 </r>
       <r>   -6.1814    1.0000 </r>
       <r>    0.2765    0.0000 </r>
       <r>    0.8750    0.0000 </r>
       <r>    1.6774    0.0000 </r>
       <r>    2.0754    0.0000 </r>
      </set>
      <set comment="kpoint 7">
       <r>  -21.7294    1.0000 </r>
       <r>  -19.0011    1.0000 </r>
       <r>  -13.5582    1.0000 </r>
       <r>   -9.8102    1.0000 </r>
       <r>   -8.4688    1.0000 </r>
       <r>   -7.4182    1.0000 </r>
       <r>   -6.7465    1.0000 </r>
       <r>   -6.3551    1.0000 </r>
       <r>    0.7727    0.0000 </r>
       <r>    1.0204    0.0000 </r>
       <r>    1.8243    0.0000 </r>
       <r>    2.2246    0.0000 </r>
      </set>
      <set comment="kpoint 8">
       <r>  -21.6032    1.0000 </r>
       <r>  -19.3223    1.0000 </r>
       <r>  -13.0496    1.0000 </r>
       <r>   -9.6615    1.0000 </r>
       <r>   -8.3509    1.0000 </r>
       <r>   -7.8561    1.0000 </r>
       <r>   -7.0806    1.0000 </r>
       <r>   -6.5436    1.0000 </r>
       <r>    1.1922    0.0000 </r>
       <r>    1.2958    0.0000 </r>
       <r>    1.9978    0.0000 </r>
       <r>    2.4009    0.0000 </r>
      </set>
      <set comment="kpoint 9">
       <r>  -21.4579    1.0000 </r>
       <r>  -19.6288    1.0000 </r>
       <r>  -12.5299    1.0000 </r>
       <r>   -9.4908    1.0000 </r>
       <r>   -8.3264    1.0000 </r>
       <r>   -8.2170    1.0000 </r>
       <r>   -7.4095    1.0000 </r>
       <r>   -6.7417    1.0000 </r>
       <r>    1.3905    0.0000 </r>
       <r>    1.8362    0.0000 </r>
       <r>    2.1976    0.0000 </r>
       <r>    2.6043    0.0000 </r>
      </set>
      <set comment="kpoint 10">
       <r>  -21.2935    1.0000 </r>
       <r>  -19.9193    1.0000 </r>
       <r>  -12.0017    1.0000 </r>
       <r>   -9.2984    1.0000 </r>
       <r>   -8.8216    1.0000 </r>
       <r>   -8.0679    1.0000 </r>
       <r>   -7.7284    1.0000 </r>
       <r>   -6.9446    1.0000 </r>
       <r>    1.6151    0.0000 </r>
       <r>    2.3847    0.0000 </r>
       <r>    2.4234    0.0000 </r>
       <r>    2.8348    0.0000 </r>
      </set>
      <set comment="kpoint 11">
       <r>  -21.1103    1.0000 </r>
       <r>  -20.1931    1.0000 </r>
       <r>  -11.4678    1.0000 </r>
       <r>   -9.3349    1.0000 </r>
       <r>   -9.0849    1.0000 </r>
       <r>   -8.0341    1.0000 </r>
       <r>   -7.9049    1.0000 </r>
       <r>   -7.1482    1.0000 </r>
       <r>    1.8660    0.0000 </r>
       <r>    2.6744    0.0000 </r>
       <r>    2.9271    0.0000 </r>
       <r>    3.0924    0.0000 </r>
      </set>
      <set comment="kpoint 12">
       <r>  -20.9084    1.0000 </r>
       <r>  -20.4495    1.0000 </r>
       <r>  -10.9308    1.0000 </r>
       <r>   -9.8606    1.0000 </r>
       <r>   -8.8507    1.0000 </r>
       <r>   -8.3242    1.0000 </r>
       <r>   -7.7295    1.0000 </r>
       <r>   -7.3488    1.0000 </r>
       <r>    2.1431    0.0000 </r>
       <r>    2.7755    0.0000 </r>
       <r>    2.9483    0.0000 </r>
       <r>    3.3759    0.0000 </r>
      </set>
      <set comment="kpoint 13">
       <r>  -20.6880    1.0000 </r>
       <r>  -20.6880    1.0000 </r>
       <r>  -10.3939    1.0000 </r>
       <r>  -10.3939    1.0000 </r>
       <r>   -8.5968    1.0000 </r>
       <r>   -8.5968    1.0000 </r>
       <r>   -7.5434    1.0000 </r>
       <r>   -7.5434    1.0000 </r>
       <r>    2.4463    0.0000 </r>
       <r>    2.4463    0.0000 </r>
       <r>    3.2342    0.0000 </r>
       <r>    3.2342    0.0000 </r>
      </set>
      <set comment="kpoint 14">
       <r>  -22.0661    1.0000 </r>
       <r>  -17.2465    1.0000 </r>
       <r>  -15.8201    1.0000 </r>
       <r>  -10.2084    1.0000 </r>
       <r>   -8.8666    1.0000 </r>
       <r>   -6.0335    1.0000 </r>
       <r>   -5.7860    1.0000 </r>
       <r>   -5.3196    1.0000 </r>
       <r>   -1.1888    0.0000 </r>
       <r>    0.5636    0.0000 </r>
       <r>    1.3619    0.0000 </r>
       <r>    1.7556    0.0000 </r>
      </set>
      <set comment="kpoint 15">
       <r>  -22.0563    1.0000 </r>
       <r>  -17.3644    1.0000 </r>
       <r>  -15.6873    1.0000 </r>
       <r>  -10.1968    1.0000 </r>
       <r>   -8.8571    1.0000 </r>
       <r>   -6.0785    1.0000 </r>
       <r>   -5.8047    1.0000 </r>
       <r>   -5.3784    1.0000 </r>
       <r>   -1.1144    0.0000 </r>
       <r>    0.5768    0.0000 </r>
       <r>    1.3753    0.0000 </r>
       <r>    1.7692    0.0000 </r>
      </set>
      <set comment="kpoint 16">
       <r>  -22.0271    1.0000 </r>
       <r>  -17.6373    1.0000 </r>
       <r>  -15.3696    1.0000 </r>
       <r>  -10.1621    1.0000 </r>
       <r>   -8.8288    1.0000 </r>
       <r>   -6.2101    1.0000 </r>
       <r>   -5.8613    1.0000 </r>
       <r>   -5.5429    1.0000 </r>
       <r>   -0.9033    0.0000 </r>
       <r>    0.6164    0.0000 </r>
       <r>    1.4154    0.0000 </r>
       <r>    1.8098    0.0000 </r>
      </set>
      <set comment="kpoint 17">
       <r>  -21.9783    1.0000 </r>
       <r>  -17.9673    1.0000 </r>
       <r>  -14.9654    1.0000 </r>
       <r>  -10.1044    1.0000 </r>
       <r>   -8.7818    1.0000 </r>
       <r>   -6.4208    1.0000 </r>
       <r>   -5.9547    1.0000 </r>
       <r>   -5.7857    1.0000 </r>
       <r>   -0.5832    0.0000 </r>
       <r>    0.6824    0.0000 </r>
       <r>    1.4823    0.0000 </r>
       <r>    1.8776    0.0000 </r>
      </set>
      <set comment="kpoint 18">
       <r>  -21.9102    1.0000 </r>
       <r>  -18.3118    1.0000 </r>
       <r>  -14.5174    1.0000 </r>
       <r>  -10.0236    1.0000 </r>
       <r>   -8.7163    1.0000 </r>
       <r>   -6.7017    1.0000 </r>
       <r>   -6.0809    1.0000 </r>
       <r>   -6.0784    1.0000 </r>
       <r>   -0.1834    0.0000 </r>
       <r>    0.7749    0.0000 </r>
       <r>    1.5760    0.0000 </r>
       <r>    1.9725    0.0000 </r>
      </set>
      <set comment="kpoint 19">
       <r>  -21.8226    1.0000 </r>
       <r>  -18.6544    1.0000 </r>
       <r>  -14.0427    1.0000 </r>
       <r>   -9.9201    1.0000 </r>
       <r>   -8.6328    1.0000 </r>
       <r>   -7.0433    1.0000 </r>
       <r>   -6.3986    1.0000 </r>
       <r>   -6.2343    1.0000 </r>
       <r>    0.2725    0.0000 </r>
       <r>    0.8938    0.0000 </r>
       <r>    1.6963    0.0000 </r>
       <r>    2.0946    0.0000 </r>
      </set>
      <set comment="kpoint 20">
       <r>  -21.7157    1.0000 </r>
       <r>  -18.9881    1.0000 </r>
       <r>  -13.5492    1.0000 </r>
       <r>   -9.7939    1.0000 </r>
       <r>   -8.5316    1.0000 </r>
       <r>   -7.4357    1.0000 </r>
       <r>   -6.7309    1.0000 </r>
       <r>   -6.4088    1.0000 </r>
       <r>    0.7677    0.0000 </r>
       <r>    1.0392    0.0000 </r>
       <r>    1.8432    0.0000 </r>
       <r>    2.2437    0.0000 </r>
      </set>
      <set comment="kpoint 21">
       <r>  -21.5895    1.0000 </r>
       <r>  -19.3091    1.0000 </r>
       <r>  -13.0414    1.0000 </r>
       <r>   -9.6453    1.0000 </r>
       <r>   -8.4135    1.0000 </r>
       <r>   -7.8696    1.0000 </r>
       <r>   -7.0650    1.0000 </r>
       <r>   -6.5985    1.0000 </r>
       <r>    1.2110    0.0000 </r>
       <r>    1.2895    0.0000 </r>
       <r>    2.0167    0.0000 </r>
       <r>    2.4200    0.0000 </r>
      </set>
      <set comment="kpoint 22">
       <r>  -21.4442    1.0000 </r>
       <r>  -19.6155    1.0000 </r>
       <r>  -12.5227    1.0000 </r>
       <r>   -9.4747    1.0000 </r>
       <r>   -8.3363    1.0000 </r>
       <r>   -8.2793    1.0000 </r>
       <r>   -7.3939    1.0000 </r>
       <r>   -6.7979    1.0000 </r>
       <r>    1.4092    0.0000 </r>
       <r>    1.8285    0.0000 </r>
       <r>    2.2165    0.0000 </r>
       <r>    2.6234    0.0000 </r>
      </set>
      <set comment="kpoint 23">
       <r>  -21.2799    1.0000 </r>
       <r>  -19.9060    1.0000 </r>
       <r>  -11.9957    1.0000 </r>
       <r>   -9.2823    1.0000 </r>
       <r>   -8.8281    1.0000 </r>
       <r>   -8.1298    1.0000 </r>
       <r>   -7.7128    1.0000 </r>
       <r>   -7.0020    1.0000 </r>
       <r>    1.6338    0.0000 </r>
       <r>    2.3755    0.0000 </r>
       <r>    2.4423    0.0000 </r>
       <r>    2.8540    0.0000 </r>
      </set>
      <set comment="kpoint 24">
       <r>  -21.0967    1.0000 </r>
       <r>  -20.1796    1.0000 </r>
       <r>  -11.4631    1.0000 </r>
       <r>   -9.3384    1.0000 </r>
       <r>   -9.0688    1.0000 </r>
       <r>   -8.0184    1.0000 </r>
       <r>   -7.9664    1.0000 </r>
       <r>   -7.2066    1.0000 </r>
       <r>    1.8848    0.0000 </r>
       <r>    2.6933    0.0000 </r>
       <r>    2.9172    0.0000 </r>
       <r>    3.1116    0.0000 </r>
      </set>
      <set comment="kpoint 25">
       <r>  -20.8948    1.0000 </r>
       <r>  -20.4360    1.0000 </r>
       <r>  -10.9277    1.0000 </r>
       <r>   -9.8615    1.0000 </r>
       <r>   -8.8348    1.0000 </r>
       <r>   -8.3084    1.0000 </r>
       <r>   -7.7904    1.0000 </r>
       <r>   -7.4082    1.0000 </r>
       <r>    2.1619    0.0000 </r>
       <r>    2.7943    0.0000 </r>
       <r>    2.9672    0.0000 </r>
       <r>    3.3707    0.0000 </r>
      </set>
      <set comment="kpoint 26">
       <r>  -20.6745    1.0000 </r>
       <r>  -20.6745    1.0000 </r>
       <r>  -10.3927    1.0000 </r>
       <r>  -10.3927    1.0000 </r>
       <r>   -8.5809    1.0000 </r>
       <r>   -8.5809    1.0000 </r>
       <r>   -7.6036    1.0000 </r>
       <r>   -7.6036    1.0000 </r>
       <r>    2.4651    0.0000 </r>
       <r>    2.4651    0.0000 </r>
       <r>    3.2527    0.0000 </r>
       <r>    3.2527    0.0000 </r>
      </set>
      <set comment="kpoint 27">
       <r>  -22.0246    1.0000 </r>
       <r>  -17.2105    1.0000 </r>
       <r>  -15.7849    1.0000 </r>
       <r>  -10.1592    1.0000 </r>
       <r>   -9.0514    1.0000 </r>
       <r>   -6.1113    1.0000 </r>
       <r>   -5.9583    1.0000 </r>
       <r>   -5.2696    1.0000 </r>
       <r>   -1.1969    0.0000 </r>
       <r>    0.6198    0.0000 </r>
       <r>    1.4186    0.0000 </r>
       <r>    1.8131    0.0000 </r>
      </set>
      <set comment="kpoint 28">
       <r>  -22.0149    1.0000 </r>
       <r>  -17.3280    1.0000 </r>
       <r>  -15.6525    1.0000 </r>
       <r>  -10.1476    1.0000 </r>
       <r>   -9.0420    1.0000 </r>
       <r>   -6.1612    1.0000 </r>
       <r>   -5.9704    1.0000 </r>
       <r>   -5.3287    1.0000 </r>
       <r>   -1.1225    0.0000 </r>
       <r>    0.6330    0.0000 </r>
       <r>    1.4320    0.0000 </r>
       <r>    1.8266    0.0000 </r>
      </set>
      <set comment="kpoint 29">
       <r>  -21.9856    1.0000 </r>
       <r>  -17.6003    1.0000 </r>
       <r>  -15.3359    1.0000 </r>
       <r>  -10.1130    1.0000 </r>
       <r>   -9.0135    1.0000 </r>
       <r>   -6.2982    1.0000 </r>
       <r>   -6.0166    1.0000 </r>
       <r>   -5.4940    1.0000 </r>
       <r>   -0.9114    0.0000 </r>
       <r>    0.6726    0.0000 </r>
       <r>    1.4722    0.0000 </r>
       <r>    1.8673    0.0000 </r>
      </set>
      <set comment="kpoint 30">
       <r>  -21.9369    1.0000 </r>
       <r>  -17.9296    1.0000 </r>
       <r>  -14.9330    1.0000 </r>
       <r>  -10.0553    1.0000 </r>
       <r>   -8.9663    1.0000 </r>
       <r>   -6.5077    1.0000 </r>
       <r>   -6.1037    1.0000 </r>
       <r>   -5.7377    1.0000 </r>
       <r>   -0.5920    0.0000 </r>
       <r>    0.7386    0.0000 </r>
       <r>    1.5391    0.0000 </r>
       <r>    1.9351    0.0000 </r>
      </set>
      <set comment="kpoint 31">
       <r>  -21.8687    1.0000 </r>
       <r>  -18.2736    1.0000 </r>
       <r>  -14.4866    1.0000 </r>
       <r>   -9.9746    1.0000 </r>
       <r>   -8.9005    1.0000 </r>
       <r>   -6.7814    1.0000 </r>
       <r>   -6.2281    1.0000 </r>
       <r>   -6.0311    1.0000 </r>
       <r>   -0.1938    0.0000 </r>
       <r>    0.8311    0.0000 </r>
       <r>    1.6327    0.0000 </r>
       <r>    2.0300    0.0000 </r>
      </set>
      <set comment="kpoint 32">
       <r>  -21.7812    1.0000 </r>
       <r>  -18.6158    1.0000 </r>
       <r>  -14.0138    1.0000 </r>
       <r>   -9.8712    1.0000 </r>
       <r>   -8.8165    1.0000 </r>
       <r>   -7.1122    1.0000 </r>
       <r>   -6.3830    1.0000 </r>
       <r>   -6.3518    1.0000 </r>
       <r>    0.2598    0.0000 </r>
       <r>    0.9500    0.0000 </r>
       <r>    1.7530    0.0000 </r>
       <r>    2.1521    0.0000 </r>
      </set>
      <set comment="kpoint 33">
       <r>  -21.6743    1.0000 </r>
       <r>  -18.9490    1.0000 </r>
       <r>  -13.5224    1.0000 </r>
       <r>   -9.7451    1.0000 </r>
       <r>   -8.7148    1.0000 </r>
       <r>   -7.4923    1.0000 </r>
       <r>   -6.6843    1.0000 </r>
       <r>   -6.5609    1.0000 </r>
       <r>    0.7517    0.0000 </r>
       <r>    1.0954    0.0000 </r>
       <r>    1.8999    0.0000 </r>
       <r>    2.3012    0.0000 </r>
      </set>
      <set comment="kpoint 34">
       <r>  -21.5483    1.0000 </r>
       <r>  -19.2696    1.0000 </r>
       <r>  -13.0172    1.0000 </r>
       <r>   -9.5967    1.0000 </r>
       <r>   -8.5960    1.0000 </r>
       <r>   -7.9137    1.0000 </r>
       <r>   -7.0184    1.0000 </r>
       <r>   -6.7548    1.0000 </r>
       <r>    1.2672    0.0000 </r>
       <r>    1.2696    0.0000 </r>
       <r>    2.0734    0.0000 </r>
       <r>    2.4775    0.0000 </r>
      </set>
      <set comment="kpoint 35">
       <r>  -21.4030    1.0000 </r>
       <r>  -19.5757    1.0000 </r>
       <r>  -12.5014    1.0000 </r>
       <r>   -9.4262    1.0000 </r>
       <r>   -8.4607    1.0000 </r>
       <r>   -8.3685    1.0000 </r>
       <r>   -7.3471    1.0000 </r>
       <r>   -6.9585    1.0000 </r>
       <r>    1.4655    0.0000 </r>
       <r>    1.8040    0.0000 </r>
       <r>    2.2732    0.0000 </r>
       <r>    2.6810    0.0000 </r>
      </set>
      <set comment="kpoint 36">
       <r>  -21.2388    1.0000 </r>
       <r>  -19.8659    1.0000 </r>
       <r>  -11.9779    1.0000 </r>
       <r>   -9.2341    1.0000 </r>
       <r>   -8.8497    1.0000 </r>
       <r>   -8.3101    1.0000 </r>
       <r>   -7.6659    1.0000 </r>
       <r>   -7.1667    1.0000 </r>
       <r>    1.6901    0.0000 </r>
       <r>    2.3464    0.0000 </r>
       <r>    2.4990    0.0000 </r>
       <r>    2.9115    0.0000 </r>
      </set>
      <set comment="kpoint 37">
       <r>  -21.0557    1.0000 </r>
       <r>  -20.1394    1.0000 </r>
       <r>  -11.4495    1.0000 </r>
       <r>   -9.3506    1.0000 </r>
       <r>   -9.0208    1.0000 </r>
       <r>   -8.1451    1.0000 </r>
       <r>   -7.9713    1.0000 </r>
       <r>   -7.3751    1.0000 </r>
       <r>    1.9410    0.0000 </r>
       <r>    2.7500    0.0000 </r>
       <r>    2.8855    0.0000 </r>
       <r>    3.1693    0.0000 </r>
      </set>
      <set comment="kpoint 38">
       <r>  -20.8540    1.0000 </r>
       <r>  -20.3955    1.0000 </r>
       <r>  -10.9191    1.0000 </r>
       <r>   -9.8657    1.0000 </r>
       <r>   -8.7869    1.0000 </r>
       <r>   -8.2610    1.0000 </r>
       <r>   -7.9672    1.0000 </r>
       <r>   -7.5799    1.0000 </r>
       <r>    2.2182    0.0000 </r>
       <r>    2.8507    0.0000 </r>
       <r>    3.0240    0.0000 </r>
       <r>    3.4262    0.0000 </r>
      </set>
      <set comment="kpoint 39">
       <r>  -20.6338    1.0000 </r>
       <r>  -20.6338    1.0000 </r>
       <r>  -10.3899    1.0000 </r>
       <r>  -10.3899    1.0000 </r>
       <r>   -8.5334    1.0000 </r>
       <r>   -8.5334    1.0000 </r>
       <r>   -7.7781    1.0000 </r>
       <r>   -7.7781    1.0000 </r>
       <r>    2.5215    0.0000 </r>
       <r>    2.5215    0.0000 </r>
       <r>    3.3080    0.0000 </r>
       <r>    3.3080    0.0000 </r>
      </set>
      <set comment="kpoint 40">
       <r>  -21.9555    1.0000 </r>
       <r>  -17.1504    1.0000 </r>
       <r>  -15.7267    1.0000 </r>
       <r>  -10.0773    1.0000 </r>
       <r>   -9.3439    1.0000 </r>
       <r>   -6.2397    1.0000 </r>
       <r>   -6.2309    1.0000 </r>
       <r>   -5.1862    1.0000 </r>
       <r>   -1.2131    0.0000 </r>
       <r>    0.7135    0.0000 </r>
       <r>    1.5132    0.0000 </r>
       <r>    1.9089    0.0000 </r>
      </set>
      <set comment="kpoint 41">
       <r>  -21.9458    1.0000 </r>
       <r>  -17.2674    1.0000 </r>
       <r>  -15.5951    1.0000 </r>
       <r>  -10.0658    1.0000 </r>
       <r>   -9.3343    1.0000 </r>
       <r>   -6.3247    1.0000 </r>
       <r>   -6.2050    1.0000 </r>
       <r>   -5.2460    1.0000 </r>
       <r>   -1.1386    0.0000 </r>
       <r>    0.7267    0.0000 </r>
       <r>    1.5266    0.0000 </r>
       <r>    1.9225    0.0000 </r>
      </set>
      <set comment="kpoint 42">
       <r>  -21.9166    1.0000 </r>
       <r>  -17.5387    1.0000 </r>
       <r>  -15.2803    1.0000 </r>
       <r>  -10.0312    1.0000 </r>
       <r>   -9.3056    1.0000 </r>
       <r>   -6.4726    1.0000 </r>
       <r>   -6.2321    1.0000 </r>
       <r>   -5.4128    1.0000 </r>
       <r>   -0.9277    0.0000 </r>
       <r>    0.7663    0.0000 </r>
       <r>    1.5668    0.0000 </r>
       <r>    1.9631    0.0000 </r>
      </set>
      <set comment="kpoint 43">
       <r>  -21.8679    1.0000 </r>
       <r>  -17.8669    1.0000 </r>
       <r>  -14.8797    1.0000 </r>
       <r>   -9.9736    1.0000 </r>
       <r>   -9.2580    1.0000 </r>
       <r>   -6.6776    1.0000 </r>
       <r>   -6.3116    1.0000 </r>
       <r>   -5.6580    1.0000 </r>
       <r>   -0.6094    0.0000 </r>
[...]
       <r>   -9.3564    1.0000 </r>
       <r>   -5.5135    1.0000 </r>
       <r>   -5.5135    1.0000 </r>
       <r>   -0.4930    0.0000 </r>
       <r>   -0.4930    0.0000 </r>
       <r>    4.1376    0.0000 </r>
       <r>    4.1376    0.0000 </r>
      </set>
      <set comment="kpoint 209">
       <r>  -18.6220    1.0000 </r>
       <r>  -16.8055    1.0000 </r>
       <r>  -14.2159    1.0000 </r>
       <r>  -12.5490    1.0000 </r>
       <r>  -12.2984    1.0000 </r>
       <r>  -10.7857    1.0000 </r>
       <r>   -6.2754    1.0000 </r>
       <r>   -4.3986    1.0000 </r>
       <r>   -1.2047    0.0000 </r>
       <r>    0.9543    0.0000 </r>
       <r>    5.3149    0.0000 </r>
       <r>    6.0845    0.0000 </r>
      </set>
      <set comment="kpoint 210">
       <r>  -18.6128    1.0000 </r>
       <r>  -16.7983    1.0000 </r>
       <r>  -14.2827    1.0000 </r>
       <r>  -12.6119    1.0000 </r>
       <r>  -12.2238    1.0000 </r>
       <r>  -10.7254    1.0000 </r>
       <r>   -6.2671    1.0000 </r>
       <r>   -4.4026    1.0000 </r>
       <r>   -1.2111    0.0000 </r>
       <r>    0.9317    0.0000 </r>
       <r>    5.3278    0.0000 </r>
       <r>    6.0996    0.0000 </r>
      </set>
      <set comment="kpoint 211">
       <r>  -18.5852    1.0000 </r>
       <r>  -16.7772    1.0000 </r>
       <r>  -14.4570    1.0000 </r>
       <r>  -12.7781    1.0000 </r>
       <r>  -12.0265    1.0000 </r>
       <r>  -10.5673    1.0000 </r>
       <r>   -6.2423    1.0000 </r>
       <r>   -4.4151    1.0000 </r>
       <r>   -1.2286    0.0000 </r>
       <r>    0.8654    0.0000 </r>
       <r>    5.3664    0.0000 </r>
       <r>    6.1447    0.0000 </r>
      </set>
      <set comment="kpoint 212">
       <r>  -18.5392    1.0000 </r>
       <r>  -16.7436    1.0000 </r>
       <r>  -14.6906    1.0000 </r>
       <r>  -13.0065    1.0000 </r>
       <r>  -11.7545    1.0000 </r>
       <r>  -10.3546    1.0000 </r>
       <r>   -6.2013    1.0000 </r>
       <r>   -4.4373    1.0000 </r>
       <r>   -1.2531    0.0000 </r>
       <r>    0.7597    0.0000 </r>
       <r>    5.4297    0.0000 </r>
       <r>    6.2188    0.0000 </r>
      </set>
      <set comment="kpoint 213">
       <r>  -18.4751    1.0000 </r>
       <r>  -16.7005    1.0000 </r>
       <r>  -14.9466    1.0000 </r>
       <r>  -13.2662    1.0000 </r>
       <r>  -11.4438    1.0000 </r>
       <r>  -10.1215    1.0000 </r>
       <r>   -6.1445    1.0000 </r>
       <r>   -4.4712    1.0000 </r>
       <r>   -1.2785    0.0000 </r>
       <r>    0.6209    0.0000 </r>
       <r>    5.5110    0.0000 </r>
       <r>    5.8714    0.0000 </r>
      </set>
      <set comment="kpoint 214">
       <r>  -18.3929    1.0000 </r>
       <r>  -16.6537    1.0000 </r>
       <r>  -15.1999    1.0000 </r>
       <r>  -13.5388    1.0000 </r>
       <r>  -11.1167    1.0000 </r>
       <r>   -9.8905    1.0000 </r>
       <r>   -6.0725    1.0000 </r>
       <r>   -4.5188    1.0000 </r>
       <r>   -1.2974    0.0000 </r>
       <r>    0.4564    0.0000 </r>
       <r>    5.3513    0.0000 </r>
       <r>    5.6639    0.0000 </r>
      </set>
      <set comment="kpoint 215">
       <r>  -18.2931    1.0000 </r>
       <r>  -16.6155    1.0000 </r>
       <r>  -15.4278    1.0000 </r>
       <r>  -13.8139    1.0000 </r>
       <r>  -10.7877    1.0000 </r>
       <r>   -9.6775    1.0000 </r>
       <r>   -5.9863    1.0000 </r>
       <r>   -4.5820    1.0000 </r>
       <r>   -1.3028    0.0000 </r>
       <r>    0.2738    0.0000 </r>
       <r>    4.9348    0.0000 </r>
       <r>    5.7951    0.0000 </r>
      </set>
      <set comment="kpoint 216">
       <r>  -18.1758    1.0000 </r>
       <r>  -16.6093    1.0000 </r>
       <r>  -15.6009    1.0000 </r>
       <r>  -14.0851    1.0000 </r>
       <r>  -10.4680    1.0000 </r>
       <r>   -9.4949    1.0000 </r>
       <r>   -5.8869    1.0000 </r>
       <r>   -4.6616    1.0000 </r>
       <r>   -1.2884    0.0000 </r>
       <r>    0.0804    0.0000 </r>
       <r>    4.5738    0.0000 </r>
       <r>    5.5337    0.0000 </r>
      </set>
      <set comment="kpoint 217">
       <r>  -18.0418    1.0000 </r>
       <r>  -16.6661    1.0000 </r>
       <r>  -15.6847    1.0000 </r>
       <r>  -14.3481    1.0000 </r>
       <r>  -10.1671    1.0000 </r>
       <r>   -9.3530    1.0000 </r>
       <r>   -5.7759    1.0000 </r>
       <r>   -4.7574    1.0000 </r>
       <r>   -1.2500    0.0000 </r>
       <r>   -0.1170    0.0000 </r>
       <r>    4.2860    0.0000 </r>
       <r>    5.0935    0.0000 </r>
      </set>
      <set comment="kpoint 218">
       <r>  -17.8916    1.0000 </r>
       <r>  -16.7944    1.0000 </r>
       <r>  -15.6685    1.0000 </r>
       <r>  -14.5996    1.0000 </r>
       <r>   -9.8942    1.0000 </r>
       <r>   -9.2603    1.0000 </r>
       <r>   -5.6549    1.0000 </r>
       <r>   -4.8677    1.0000 </r>
       <r>   -1.1853    0.0000 </r>
       <r>   -0.3126    0.0000 </r>
       <r>    4.0801    0.0000 </r>
       <r>    4.7113    0.0000 </r>
      </set>
      <set comment="kpoint 219">
       <r>  -17.7265    1.0000 </r>
       <r>  -16.9692    1.0000 </r>
       <r>  -15.5758    1.0000 </r>
       <r>  -14.8370    1.0000 </r>
       <r>   -9.6580    1.0000 </r>
       <r>   -9.2233    1.0000 </r>
       <r>   -5.5261    1.0000 </r>
       <r>   -4.9899    1.0000 </r>
       <r>   -1.0939    0.0000 </r>
       <r>   -0.5008    0.0000 </r>
       <r>    3.9624    0.0000 </r>
       <r>    4.3963    0.0000 </r>
      </set>
      <set comment="kpoint 220">
       <r>  -17.5478    1.0000 </r>
       <r>  -17.1627    1.0000 </r>
       <r>  -15.4336    1.0000 </r>
       <r>  -15.0576    1.0000 </r>
       <r>   -9.4667    1.0000 </r>
       <r>   -9.2455    1.0000 </r>
       <r>   -5.3921    1.0000 </r>
       <r>   -5.1204    1.0000 </r>
       <r>   -0.9771    0.0000 </r>
       <r>   -0.6771    0.0000 </r>
       <r>    3.9363    0.0000 </r>
       <r>    4.1575    0.0000 </r>
      </set>
      <set comment="kpoint 221">
       <r>  -17.3584    1.0000 </r>
       <r>  -17.3584    1.0000 </r>
       <r>  -15.2581    1.0000 </r>
       <r>  -15.2581    1.0000 </r>
       <r>   -9.3275    1.0000 </r>
       <r>   -9.3275    1.0000 </r>
       <r>   -5.2557    1.0000 </r>
       <r>   -5.2557    1.0000 </r>
       <r>   -0.8371    0.0000 </r>
       <r>   -0.8371    0.0000 </r>
       <r>    4.0023    0.0000 </r>
       <r>    4.0023    0.0000 </r>
      </set>
      <set comment="kpoint 222">
       <r>  -18.1934    1.0000 </r>
       <r>  -17.2813    1.0000 </r>
       <r>  -13.8301    1.0000 </r>
       <r>  -12.9958    1.0000 </r>
       <r>  -11.9512    1.0000 </r>
       <r>  -11.1898    1.0000 </r>
       <r>   -5.8165    1.0000 </r>
       <r>   -4.8723    1.0000 </r>
       <r>   -0.6972    0.0000 </r>
       <r>    0.3845    0.0000 </r>
       <r>    5.9213    0.0000 </r>
       <r>    6.6458    0.0000 </r>
      </set>
      <set comment="kpoint 223">
       <r>  -18.1843    1.0000 </r>
       <r>  -17.2730    1.0000 </r>
       <r>  -13.8974    1.0000 </r>
       <r>  -13.0607    1.0000 </r>
       <r>  -11.8790    1.0000 </r>
       <r>  -11.1249    1.0000 </r>
       <r>   -5.8095    1.0000 </r>
       <r>   -4.8706    1.0000 </r>
       <r>   -0.7106    0.0000 </r>
       <r>    0.3639    0.0000 </r>
       <r>    5.9341    0.0000 </r>
       <r>    6.6619    0.0000 </r>
      </set>
      <set comment="kpoint 224">
       <r>  -18.1572    1.0000 </r>
       <r>  -17.2483    1.0000 </r>
       <r>  -14.0734    1.0000 </r>
       <r>  -13.2314    1.0000 </r>
       <r>  -11.6885    1.0000 </r>
       <r>  -10.9545    1.0000 </r>
       <r>   -5.7887    1.0000 </r>
       <r>   -4.8659    1.0000 </r>
       <r>   -0.7491    0.0000 </r>
       <r>    0.3037    0.0000 </r>
       <r>    5.9724    0.0000 </r>
       <r>    6.7096    0.0000 </r>
      </set>
      <set comment="kpoint 225">
       <r>  -18.1121    1.0000 </r>
       <r>  -17.2077    1.0000 </r>
       <r>  -14.3116    1.0000 </r>
       <r>  -13.4647    1.0000 </r>
       <r>  -11.4275    1.0000 </r>
       <r>  -10.7236    1.0000 </r>
       <r>   -5.7544    1.0000 </r>
       <r>   -4.8591    1.0000 </r>
       <r>   -0.8086    0.0000 </r>
       <r>    0.2080    0.0000 </r>
       <r>    6.0342    0.0000 </r>
       <r>    6.6898    0.0000 </r>
      </set>
      <set comment="kpoint 226">
       <r>  -18.0493    1.0000 </r>
       <r>  -17.1520    1.0000 </r>
       <r>  -14.5774    1.0000 </r>
       <r>  -13.7286    1.0000 </r>
       <r>  -11.1319    1.0000 </r>
       <r>  -10.4670    1.0000 </r>
       <r>   -5.7075    1.0000 </r>
       <r>   -4.8520    1.0000 </r>
       <r>   -0.8824    0.0000 </r>
       <r>    0.0832    0.0000 </r>
       <r>    6.0631    0.0000 </r>
       <r>    6.2010    0.0000 </r>
      </set>
      <set comment="kpoint 227">
       <r>  -17.9690    1.0000 </r>
       <r>  -17.0828    1.0000 </r>
       <r>  -14.8504    1.0000 </r>
       <r>  -14.0043    1.0000 </r>
       <r>  -10.8241    1.0000 </r>
       <r>  -10.2073    1.0000 </r>
       <r>   -5.6488    1.0000 </r>
       <r>   -4.8470    1.0000 </r>
       <r>   -0.9625    0.0000 </r>
       <r>   -0.0632    0.0000 </r>
       <r>    5.6124    0.0000 </r>
       <r>    6.2105    0.0000 </r>
      </set>
      <set comment="kpoint 228">
       <r>  -17.8718    1.0000 </r>
       <r>  -17.0032    1.0000 </r>
       <r>  -15.1172    1.0000 </r>
       <r>  -14.2813    1.0000 </r>
       <r>  -10.5189    1.0000 </r>
       <r>   -9.9601    1.0000 </r>
       <r>   -5.5798    1.0000 </r>
       <r>   -4.8467    1.0000 </r>
       <r>   -1.0403    0.0000 </r>
       <r>   -0.2233    0.0000 </r>
       <r>    5.1545    0.0000 </r>
       <r>    5.7007    0.0000 </r>
      </set>
      <set comment="kpoint 229">
       <r>  -17.7582    1.0000 </r>
       <r>  -16.9187    1.0000 </r>
       <r>  -15.3662    1.0000 </r>
       <r>  -14.5527    1.0000 </r>
       <r>  -10.2278    1.0000 </r>
       <r>   -9.7377    1.0000 </r>
       <r>   -5.5023    1.0000 </r>
       <r>   -4.8542    1.0000 </r>
       <r>   -1.1073    0.0000 </r>
       <r>   -0.3894    0.0000 </r>
       <r>    4.7534    0.0000 </r>
       <r>    5.2362    0.0000 </r>
      </set>
      <set comment="kpoint 230">
       <r>  -17.6294    1.0000 </r>
       <r>  -16.8405    1.0000 </r>
       <r>  -15.5827    1.0000 </r>
       <r>  -14.8138    1.0000 </r>
       <r>   -9.9609    1.0000 </r>
       <r>   -9.5505    1.0000 </r>
       <r>   -5.4183    1.0000 </r>
       <r>   -4.8723    1.0000 </r>
       <r>   -1.1556    0.0000 </r>
       <r>   -0.5539    0.0000 </r>
       <r>    4.4203    0.0000 </r>
       <r>    4.8268    0.0000 </r>
      </set>
      <set comment="kpoint 231">
       <r>  -17.4869    1.0000 </r>
       <r>  -16.7904    1.0000 </r>
       <r>  -15.7426    1.0000 </r>
       <r>  -15.0607    1.0000 </r>
       <r>   -9.7275    1.0000 </r>
       <r>   -9.4077    1.0000 </r>
       <r>   -5.3306    1.0000 </r>
       <r>   -4.9031    1.0000 </r>
       <r>   -1.1791    0.0000 </r>
       <r>   -0.7101    0.0000 </r>
       <r>    4.1641    0.0000 </r>
       <r>    4.4821    0.0000 </r>
      </set>
      <set comment="kpoint 232">
       <r>  -17.3334    1.0000 </r>
       <r>  -16.7998    1.0000 </r>
       <r>  -15.8131    1.0000 </r>
       <r>  -15.2890    1.0000 </r>
       <r>   -9.5363    1.0000 </r>
       <r>   -9.3168    1.0000 </r>
       <r>   -5.2421    1.0000 </r>
       <r>   -4.9479    1.0000 </r>
       <r>   -1.1735    0.0000 </r>
       <r>   -0.8516    0.0000 </r>
       <r>    3.9923    0.0000 </r>
       <r>    4.2111    0.0000 </r>
      </set>
      <set comment="kpoint 233">
       <r>  -17.1739    1.0000 </r>
       <r>  -16.8830    1.0000 </r>
       <r>  -15.7791    1.0000 </r>
       <r>  -15.4929    1.0000 </r>
       <r>   -9.3949    1.0000 </r>
       <r>   -9.2832    1.0000 </r>
       <r>   -5.1563    1.0000 </r>
       <r>   -5.0062    1.0000 </r>
       <r>   -1.1368    0.0000 </r>
       <r>   -0.9730    0.0000 </r>
       <r>    3.9101    0.0000 </r>
       <r>    4.0217    0.0000 </r>
      </set>
      <set comment="kpoint 234">
       <r>  -17.0177    1.0000 </r>
       <r>  -17.0177    1.0000 </r>
       <r>  -15.6625    1.0000 </r>
       <r>  -15.6625    1.0000 </r>
       <r>   -9.3094    1.0000 </r>
       <r>   -9.3094    1.0000 </r>
       <r>   -5.0766    1.0000 </r>
       <r>   -5.0766    1.0000 </r>
       <r>   -1.0693    0.0000 </r>
       <r>   -1.0693    0.0000 </r>
       <r>    3.9201    0.0000 </r>
       <r>    3.9201    0.0000 </r>
      </set>
      <set comment="kpoint 235">
       <r>  -17.7455    1.0000 </r>
       <r>  -17.7455    1.0000 </r>
       <r>  -13.4232    1.0000 </r>
       <r>  -13.4232    1.0000 </r>
       <r>  -11.5798    1.0000 </r>
       <r>  -11.5798    1.0000 </r>
       <r>   -5.3470    1.0000 </r>
       <r>   -5.3470    1.0000 </r>
       <r>   -0.1668    0.0000 </r>
       <r>   -0.1668    0.0000 </r>
       <r>    6.5599    0.0000 </r>
       <r>    6.5599    0.0000 </r>
      </set>
      <set comment="kpoint 236">
       <r>  -17.7367    1.0000 </r>
       <r>  -17.7367    1.0000 </r>
       <r>  -13.4896    1.0000 </r>
       <r>  -13.4896    1.0000 </r>
       <r>  -11.5109    1.0000 </r>
       <r>  -11.5109    1.0000 </r>
       <r>   -5.3421    1.0000 </r>
       <r>   -5.3421    1.0000 </r>
       <r>   -0.1845    0.0000 </r>
       <r>   -0.1845    0.0000 </r>
       <r>    6.5726    0.0000 </r>
       <r>    6.5726    0.0000 </r>
      </set>
      <set comment="kpoint 237">
       <r>  -17.7104    1.0000 </r>
       <r>  -17.7104    1.0000 </r>
       <r>  -13.6638    1.0000 </r>
       <r>  -13.6638    1.0000 </r>
       <r>  -11.3296    1.0000 </r>
       <r>  -11.3296    1.0000 </r>
       <r>   -5.3274    1.0000 </r>
       <r>   -5.3274    1.0000 </r>
       <r>   -0.2361    0.0000 </r>
       <r>   -0.2361    0.0000 </r>
       <r>    6.6103    0.0000 </r>
       <r>    6.6103    0.0000 </r>
      </set>
      <set comment="kpoint 238">
       <r>  -17.6668    1.0000 </r>
       <r>  -17.6668    1.0000 </r>
       <r>  -13.9008    1.0000 </r>
       <r>  -13.9008    1.0000 </r>
       <r>  -11.0825    1.0000 </r>
       <r>  -11.0825    1.0000 </r>
       <r>   -5.3036    1.0000 </r>
       <r>   -5.3036    1.0000 </r>
       <r>   -0.3173    0.0000 </r>
       <r>   -0.3173    0.0000 </r>
       <r>    6.6672    0.0000 </r>
       <r>    6.6675    0.0000 </r>
      </set>
      <set comment="kpoint 239">
       <r>  -17.6063    1.0000 </r>
       <r>  -17.6063    1.0000 </r>
       <r>  -14.1673    1.0000 </r>
       <r>  -14.1673    1.0000 </r>
       <r>  -10.8050    1.0000 </r>
       <r>  -10.8050    1.0000 </r>
       <r>   -5.2719    1.0000 </r>
       <r>   -5.2719    1.0000 </r>
       <r>   -0.4219    0.0000 </r>
       <r>   -0.4219    0.0000 </r>
       <r>    6.4218    0.0000 </r>
       <r>    6.4218    0.0000 </r>
      </set>
      <set comment="kpoint 240">
       <r>  -17.5295    1.0000 </r>
       <r>  -17.5295    1.0000 </r>
       <r>  -14.4442    1.0000 </r>
       <r>  -14.4442    1.0000 </r>
       <r>  -10.5197    1.0000 </r>
       <r>  -10.5197    1.0000 </r>
       <r>   -5.2339    1.0000 </r>
       <r>   -5.2339    1.0000 </r>
       <r>   -0.5419    0.0000 </r>
       <r>   -0.5419    0.0000 </r>
       <r>    5.8977    0.0000 </r>
       <r>    5.8977    0.0000 </r>
      </set>
      <set comment="kpoint 241">
       <r>  -17.4373    1.0000 </r>
       <r>  -17.4373    1.0000 </r>
       <r>  -14.7200    1.0000 </r>
       <r>  -14.7200    1.0000 </r>
       <r>  -10.2418    1.0000 </r>
       <r>  -10.2418    1.0000 </r>
       <r>   -5.1917    1.0000 </r>
       <r>   -5.1917    1.0000 </r>
       <r>   -0.6691    0.0000 </r>
       <r>   -0.6691    0.0000 </r>
       <r>    5.4105    0.0000 </r>
       <r>    5.4105    0.0000 </r>
      </set>
      <set comment="kpoint 242">
       <r>  -17.3315    1.0000 </r>
       <r>  -17.3315    1.0000 </r>
       <r>  -14.9872    1.0000 </r>
       <r>  -14.9872    1.0000 </r>
       <r>   -9.9832    1.0000 </r>
       <r>   -9.9832    1.0000 </r>
       <r>   -5.1478    1.0000 </r>
       <r>   -5.1478    1.0000 </r>
       <r>   -0.7951    0.0000 </r>
       <r>   -0.7951    0.0000 </r>
       <r>    4.9751    0.0000 </r>
       <r>    4.9751    0.0000 </r>
      </set>
      <set comment="kpoint 243">
       <r>  -17.2148    1.0000 </r>
       <r>  -17.2148    1.0000 </r>
       <r>  -15.2394    1.0000 </r>
       <r>  -15.2394    1.0000 </r>
       <r>   -9.7542    1.0000 </r>
       <r>   -9.7542    1.0000 </r>
       <r>   -5.1053    1.0000 </r>
       <r>   -5.1053    1.0000 </r>
       <r>   -0.9116    0.0000 </r>
       <r>   -0.9116    0.0000 </r>
       <r>    4.6014    0.0000 </r>
       <r>    4.6014    0.0000 </r>
      </set>
      <set comment="kpoint 244">
       <r>  -17.0924    1.0000 </r>
       <r>  -17.0924    1.0000 </r>
       <r>  -15.4690    1.0000 </r>
       <r>  -15.4690    1.0000 </r>
       <r>   -9.5643    1.0000 </r>
       <r>   -9.5643    1.0000 </r>
       <r>   -5.0674    1.0000 </r>
       <r>   -5.0674    1.0000 </r>
       <r>   -1.0114    0.0000 </r>
       <r>   -1.0114    0.0000 </r>
       <r>    4.2988    0.0000 </r>
       <r>    4.2988    0.0000 </r>
      </set>
      <set comment="kpoint 245">
       <r>  -16.9747    1.0000 </r>
       <r>  -16.9747    1.0000 </r>
       <r>  -15.6642    1.0000 </r>
       <r>  -15.6642    1.0000 </r>
       <r>   -9.4217    1.0000 </r>
       <r>   -9.4217    1.0000 </r>
       <r>   -5.0374    1.0000 </r>
       <r>   -5.0374    1.0000 </r>
       <r>   -1.0878    0.0000 </r>
       <r>   -1.0878    0.0000 </r>
       <r>    4.0756    0.0000 </r>
       <r>    4.0756    0.0000 </r>
      </set>
      <set comment="kpoint 246">
       <r>  -16.8817    1.0000 </r>
       <r>  -16.8817    1.0000 </r>
       <r>  -15.8041    1.0000 </r>
       <r>  -15.8041    1.0000 </r>
       <r>   -9.3332    1.0000 </r>
       <r>   -9.3332    1.0000 </r>
       <r>   -5.0181    1.0000 </r>
       <r>   -5.0181    1.0000 </r>
       <r>   -1.1358    0.0000 </r>
       <r>   -1.1358    0.0000 </r>
       <r>    3.9387    0.0000 </r>
       <r>    3.9387    0.0000 </r>
      </set>
      <set comment="kpoint 247">
       <r>  -16.8445    1.0000 </r>
       <r>  -16.8445    1.0000 </r>
       <r>  -15.8570    1.0000 </r>
       <r>  -15.8570    1.0000 </r>
       <r>   -9.3032    1.0000 </r>
       <r>   -9.3032    1.0000 </r>
       <r>   -5.0115    1.0000 </r>
       <r>   -5.0115    1.0000 </r>
       <r>   -1.1522    0.0000 </r>
       <r>   -1.1522    0.0000 </r>
       <r>    3.8926    0.0000 </r>
       <r>    3.8926    0.0000 </r>
      </set>
     </set>
    </set>
   </array>
  </eigenvalues>
  <separator name="orbital magnetization" >
   <v name="MAGDIPOLOUT">      0.00000000      0.00000000      0.00000000</v>
  </separator>
 </calculation>
 <structure name="finalpos" >
  <crystal>
   <varray name="basis" >
    <v>       4.38052433       0.00000000       0.00000000 </v>
    <v>       0.00000000       2.45713657       0.00000000 </v>
    <v>       0.00000000       0.00000000      19.58814420 </v>
   </varray>
   <i name="volume">    210.83790140 </i>
   <varray name="rec_basis" >
    <v>       0.22828317       0.00000000       0.00000000 </v>
    <v>       0.00000000       0.40697779       0.00000000 </v>
    <v>       0.00000000       0.00000000       0.05105129 </v>
   </varray>
  </crystal>
  <varray name="positions" >
   <v>       0.99945872       0.00000000       0.00000000 </v>
   <v>       0.16720794       0.50000000      -0.00000000 </v>
   <v>       0.49945872       0.50000000       0.00000000 </v>
   <v>       0.66720794       0.00000000      -0.00000000 </v>
  </varray>
 </structure>
</modeling>
