gr                                      
           1
     4.380524    0.000000    0.000000
     0.000000    2.457137    0.000000
     0.000000    0.000000   19.588144
   C 
   4
Direct configuration=     1
   0.99945869  0.00000000  0.00000000
   0.16720798  0.50000000  0.00000000
   0.49945869  0.50000000  0.00000000
   0.66720798  0.00000000  0.00000000
Direct configuration=     2
   0.99945884  0.00000000  0.00000000
   0.16720783  0.50000000 -0.00000000
   0.49945884  0.50000000  0.00000000
   0.66720783  0.00000000 -0.00000000
Direct configuration=     3
   0.99945872  0.00000000  0.00000000
   0.16720794  0.50000000 -0.00000000
   0.49945872  0.50000000  0.00000000
   0.66720794  0.00000000 -0.00000000
