    4    4  400    1
  0.5270948E+02  0.4251755E-09  0.2541692E-09  0.1951001E-08  0.5000000E-15
  1.000000000000000E-004
  CAR 
 gr                                      
     16    247     12
 
  0.0000000E+00  0.0000000E+00  0.0000000E+00  0.1157407E-02
    1      -22.046533
    2      -16.640701
    3      -15.844383
    4      -10.199064
    5       -9.531008
    6       -6.025029
    7       -5.739101
    8       -4.863035
    9       -1.160924
   10        0.549042
   11        1.346463
   12        1.741962
 
  0.4166667E-01  0.0000000E+00  0.0000000E+00  0.2314815E-02
    1      -22.036137
    2      -16.844600
    3      -15.625535
    4      -10.186742
    5       -9.520550
    6       -6.049015
    7       -5.778749
    8       -4.934031
    9       -1.075386
   10        0.563124
   11        1.360680
   12        1.756362
 
  0.8333333E-01  0.0000000E+00  0.0000000E+00  0.2314815E-02
    1      -22.004953
    2      -17.217236
    3      -15.208145
    4      -10.149797
    5       -9.489225
    6       -6.119577
    7       -5.896296
    8       -5.129300
    9       -0.836667
   10        0.605366
   11        1.403330
   12        1.799563
 
  0.1250000E+00  0.0000000E+00  0.0000000E+00  0.2314815E-02
    1      -21.953002
    2      -17.613265
    3      -14.737843
    4      -10.088284
    5       -9.437182
    6       -6.232772
    7       -6.087757
    8       -5.410772
    9       -0.483374
   10        0.675764
   11        1.474401
   12        1.871563
 
  0.1666667E+00  0.0000000E+00  0.0000000E+00  0.2314815E-02
    1      -21.880318
    2      -18.004862
    3      -14.242942
    4      -10.002301
    5       -9.364678
    6       -6.382779
    7       -6.347079
    8       -5.742651
    9       -0.052203
   10        0.774305
   11        1.573874
   12        1.972362
 
  0.2083333E+00  0.0000000E+00  0.0000000E+00  0.2314815E-02
    1      -21.786953
    2      -18.384408
    3      -13.731763
    4       -9.891988
    5       -9.272080
    6       -6.666855
    7       -6.562718
    8       -6.099628
    9        0.430280
   10        0.900973
   11        1.701719
   12        2.101957
 
  0.2500000E+00  0.0000000E+00  0.0000000E+00  0.2314815E-02
    1      -21.672968
    2      -18.748878
    3      -13.208258
    4       -9.757532
    5       -9.159884
    6       -7.039035
    7       -6.765433
    8       -6.465496
    9        0.946236
   10        1.055743
   11        1.857895
   12        2.260344
 
  0.2916667E+00  0.0000000E+00  0.0000000E+00  0.2314815E-02
    1      -21.538446
    2      -19.096729
    3      -12.675147
    4       -9.599175
    5       -9.028727
    6       -7.455504
    7       -6.984051
    8       -6.830016
    9        1.238580
   10        1.483408
   11        2.042342
   12        2.447518
 
  0.3333333E+00  0.0000000E+00  0.0000000E+00  0.2314815E-02
    1      -21.383483
    2      -19.427021
    3      -12.134825
    4       -9.417221
    5       -8.879410
    6       -7.908499
    7       -7.212324
    8       -7.186582
    9        1.449436
   10        2.032714
   11        2.254968
   12        2.663467
 
  0.3750000E+00  0.0000000E+00  0.0000000E+00  0.2314815E-02
    1      -21.208194
    2      -19.739112
    3      -11.589707
    4       -9.212054
    5       -8.712928
    6       -8.390858
    7       -7.530779
    8       -7.444782
    9        1.688246
   10        2.495627
   11        2.586550
   12        2.908169
 
  0.4166667E+00  0.0000000E+00  0.0000000E+00  0.2314815E-02
    1      -21.012713
    2      -20.032520
    3      -11.042403
    4       -8.984145
    5       -8.896132
    6       -8.530507
    7       -7.859550
    8       -7.676751
    9        1.954914
   10        2.764035
   11        3.136205
   12        3.181576
 
  0.4583333E+00  0.0000000E+00  0.0000000E+00  0.2314815E-02
    1      -20.797201
    2      -20.306866
    3      -10.495830
    4       -9.418616
    5       -8.734088
    6       -8.333643
    7       -8.170705
    8       -7.904302
    9        2.249293
   10        2.919750
   11        3.059452
   12        3.483550
 
  0.5000000E+00  0.0000000E+00  0.0000000E+00  0.1157407E-02
    1      -20.561846
    2      -20.561846
    3       -9.953302
    4       -9.953302
    5       -8.462626
    6       -8.462626
    7       -8.124167
    8       -8.124167
    9        2.571112
   10        2.571112
   11        3.378462
   12        3.378463
 
  0.0000000E+00  0.2777778E-01  0.0000000E+00  0.2314815E-02
    1      -22.033650
    2      -16.629564
    3      -15.834266
    4      -10.183795
    5       -9.588526
    6       -6.078068
    7       -5.771600
    8       -4.847456
    9       -1.167508
   10        0.566454
   11        1.364135
   12        1.759856
 
  0.4166667E-01  0.2777778E-01  0.0000000E+00  0.4629630E-02
    1      -22.023254
    2      -16.833386
    3      -15.615558
    4      -10.171478
    5       -9.578034
    6       -6.104832
    7       -5.807725
    8       -4.918638
    9       -1.081919
   10        0.580537
   11        1.378352
   12        1.774257
 
  0.8333333E-01  0.2777778E-01  0.0000000E+00  0.4629630E-02
    1      -21.992074
    2      -17.205834
    3      -15.198551
    4      -10.134547
    5       -9.546604
    6       -6.184502
    7       -5.914068
    8       -5.114319
    9       -0.843191
   10        0.622785
   11        1.420998
   12        1.817458
 
  0.1250000E+00  0.2777778E-01  0.0000000E+00  0.4629630E-02
    1      -21.940131
    2      -17.601660
    3      -14.728786
    4      -10.073057
    5       -9.494380
    6       -6.316694
    7       -6.083435
    8       -5.396193
    9       -0.490170
   10        0.693191
   11        1.492063
   12        1.889460
 
  0.1666667E+00  0.2777778E-01  0.0000000E+00  0.4629630E-02
    1      -21.867457
    2      -17.993072
    3      -14.234558
    4       -9.987106
    5       -9.421606
    6       -6.506711
    7       -6.299095
    8       -5.728350
    9       -0.059664
   10        0.791743
   11        1.591527
   12        1.990261
 
  0.2083333E+00  0.2777778E-01  0.0000000E+00  0.4629630E-02
    1      -21.774106
    2      -18.372454
    3      -13.724205
    4       -9.876834
    5       -9.328636
    6       -6.769303
    7       -6.532429
    8       -6.085474
    9        0.421752
   10        0.918424
   11        1.719362
   12        2.119859
 
  0.2500000E+00  0.2777778E-01  0.0000000E+00  0.4629630E-02
    1      -21.660138
    2      -18.736782
    3      -13.201706
    4       -9.742429
    5       -9.215942
    6       -7.106933
    7       -6.766063
    8       -6.451387
    9        0.936276
   10        1.073208
   11        1.875525
   12        2.278250
 
  0.2916667E+00  0.2777778E-01  0.0000000E+00  0.4629630E-02
    1      -21.525638
    2      -19.084510
    3      -12.669823
    4       -9.584132
    5       -9.084131
    6       -7.502965
    7       -7.001826
    8       -6.815885
    9        1.256060
   10        1.471699
   11        2.059958
   12        2.465429
 
  0.3333333E+00  0.2777778E-01  0.0000000E+00  0.4629630E-02
    1      -21.370701
    2      -19.414695
    3      -12.131006
    4       -9.402249
    5       -8.933967
    6       -7.942439
    7       -7.240743
    8       -7.172385
    9        1.466933
   10        2.019001
   11        2.272571
   12        2.681383
 
  0.3750000E+00  0.2777778E-01  0.0000000E+00  0.4629630E-02
    1      -21.195443
    2      -19.726694
    3      -11.587738
    4       -9.197161
    5       -8.766394
    6       -8.415062
    7       -7.516490
    8       -7.480478
    9        1.705762
   10        2.513221
   11        2.570700
   12        2.926095
 
  0.4166667E+00  0.2777778E-01  0.0000000E+00  0.4629630E-02
    1      -20.999998
    2      -20.020024
    3      -11.042718
    4       -8.969340
    5       -8.912991
    6       -8.582568
    7       -7.845158
    8       -7.717720
    9        1.972456
   10        2.781631
   11        3.118566
   12        3.199520
 
  0.4583333E+00  0.2777778E-01  0.0000000E+00  0.4629630E-02
    1      -20.784529
    2      -20.294302
    3      -10.498985
    4       -9.429788
    5       -8.719378
    6       -8.383901
    7       -8.156205
    8       -7.949220
    9        2.266873
   10        2.937585
   11        3.077082
   12        3.502085
 
  0.5000000E+00  0.2777778E-01  0.0000000E+00  0.2314815E-02
    1      -20.549223
    2      -20.549223
    3       -9.960005
    4       -9.960005
    5       -8.448018
    6       -8.448018
    7       -8.172099
    8       -8.172099
    9        2.588766
   10        2.588766
   11        3.396146
   12        3.396146
 
  0.0000000E+00  0.5555556E-01  0.0000000E+00  0.2314815E-02
    1      -21.995009
    2      -16.596155
    3      -15.804136
    4      -10.138021
    5       -9.756303
    6       -6.233069
    7       -5.868005
    8       -4.800738
    9       -1.188032
   10        0.618699
   11        1.417145
   12        1.813540
 
  0.4166667E-01  0.5555556E-01  0.0000000E+00  0.4629630E-02
    1      -21.984618
    2      -16.799773
    3      -15.585832
    4      -10.125718
    5       -9.745701
    6       -6.265963
    7       -5.895839
    8       -4.872495
    9       -1.102275
   10        0.632787
   11        1.431358
   12        1.827942
 
  0.8333333E-01  0.5555556E-01  0.0000000E+00  0.4629630E-02
    1      -21.953451
    2      -17.171665
    3      -15.169987
    4      -10.088828
    5       -9.713934
    6       -6.362403
    7       -5.979301
    8       -5.069447
    9       -0.863502
   10        0.675047
   11        1.473993
   12        1.871146
 
  0.1250000E+00  0.5555556E-01  0.0000000E+00  0.4629630E-02
    1      -21.901529
    2      -17.566884
    3      -14.701870
    4      -10.027407
    5       -9.661127
    6       -6.517154
    7       -6.117045
    8       -5.352553
    9       -0.511295
   10        0.745474
   11        1.545039
   12        1.943152
 
  0.1666667E+00  0.5555556E-01  0.0000000E+00  0.4629630E-02
    1      -21.828888
    2      -17.957735
    3      -14.209722
    4       -9.941555
    5       -9.587487
    6       -6.725029
    7       -6.304098
    8       -5.685556
    9       -0.082811
   10        0.844054
   11        1.644477
   12        2.043959
 
  0.2083333E+00  0.5555556E-01  0.0000000E+00  0.4629630E-02
    1      -21.735578
    2      -18.336622
    3      -13.701930
    4       -9.831409
    5       -9.493314
    6       -6.983232
    7       -6.530582
    8       -6.043123
    9        0.395365
   10        0.970768
   11        1.772278
   12        2.173564
 
  0.2500000E+00  0.5555556E-01  0.0000000E+00  0.4629630E-02
    1      -21.621663
    2      -18.700519
    3      -13.182571
    4       -9.697159
    5       -9.379007
    6       -7.291438
    7       -6.782817
    8       -6.409170
    9        0.905541
   10        1.125589
   11        1.928401
   12        2.331965
 
  0.2916667E+00  0.5555556E-01  0.0000000E+00  0.4629630E-02
    1      -21.487228
    2      -19.047874
    3      -12.654543
    4       -9.539047
    5       -9.245072
    6       -7.649140
    7       -7.047049
    8       -6.773591
    9        1.308482
   10        1.435653
   11        2.112789
   12        2.519155
 
  0.3333333E+00  0.5555556E-01  0.0000000E+00  0.4629630E-02
    1      -21.332368
    2      -19.377739
    3      -12.120475
    4       -9.357376
    5       -9.092138
    6       -8.052734
    7       -7.313192
    8       -7.129885
    9        1.519398
   10        1.976862
   11        2.325357
   12        2.735125
 
  0.3750000E+00  0.5555556E-01  0.0000000E+00  0.4629630E-02
    1      -21.157203
    2      -19.689462
    3      -11.583088
    4       -9.152529
    5       -8.920969
    6       -8.495530
    7       -7.575342
    8       -7.473709
    9        1.758276
   10        2.522003
   11        2.565973
   12        2.979861
 
  0.4166667E+00  0.5555556E-01  0.0000000E+00  0.4629630E-02
    1      -20.961868
    2      -19.982553
    3      -11.045392
    4       -8.969716
    5       -8.924976
    6       -8.732484
    7       -7.830066
    8       -7.802058
    9        2.025031
   10        2.834386
   11        3.063967
   12        3.253330
 
  0.4583333E+00  0.5555556E-01  0.0000000E+00  0.4629630E-02
    1      -20.746527
    2      -20.256628
    3      -10.510831
    4       -9.467853
    5       -8.675307
    6       -8.527771
    7       -8.112774
    8       -8.074972
    9        2.319541
   10        2.990820
   11        3.129943
   12        3.557071
 
  0.5000000E+00  0.5555556E-01  0.0000000E+00  0.2314815E-02
    1      -20.511373
    2      -20.511373
    3       -9.983413
    4       -9.983413
    5       -8.404260
    6       -8.404260
    7       -8.308107
    8       -8.308107
    9        2.641603
   10        2.641603
   11        3.449191
   12        3.449191
 
  0.0000000E+00  0.8333333E-01  0.0000000E+00  0.2314815E-02
    1      -21.930649
    2      -16.540488
    3      -15.754703
    4      -10.061836
    5      -10.021285
    6       -6.478884
    7       -6.025180
    8       -4.722939
    9       -1.224783
   10        0.705807
   11        1.505471
   12        1.903021
 
  0.4166667E-01  0.8333333E-01  0.0000000E+00  0.4629630E-02
    1      -21.920265
    2      -16.743844
    3      -15.537017
    4      -10.049556
    5      -10.010474
    6       -6.518218
    7       -6.043188
    8       -4.795719
    9       -1.138701
   10        0.719899
   11        1.519677
   12        1.917423
 
  0.8333333E-01  0.8333333E-01  0.0000000E+00  0.4629630E-02
    1      -21.889119
    2      -17.114843
    3      -15.123153
    4      -10.012738
    5       -9.978068
    6       -6.629922
    7       -6.101771
    8       -4.994909
    9       -0.899782
   10        0.762172
   11        1.562291
   12        1.960629
 
  0.1250000E+00  0.8333333E-01  0.0000000E+00  0.4629630E-02
    1      -21.837235
    2      -17.509047
    3      -14.657922
    4       -9.951437
    5       -9.924148
    6       -6.800908
    7       -6.208884
    8       -5.280157
    9       -0.548922
   10        0.832620
   11        1.633303
   12        2.032639
 
  0.1666667E+00  0.8333333E-01  0.0000000E+00  0.4629630E-02
    1      -21.764648
    2      -17.898952
    3      -14.169465
    4       -9.865753
    5       -9.848850
    6       -7.019184
    7       -6.368270
    8       -5.614612
    9       -0.123872
   10        0.931231
   11        1.732692
   12        2.133453
 
  0.2083333E+00  0.8333333E-01  0.0000000E+00  0.4629630E-02
    1      -21.671407
    2      -18.277002
    3      -13.666266
    4       -9.755824
    5       -9.752363
    6       -7.276530
    7       -6.577341
    8       -5.972922
    9        0.348780
   10        1.057985
   11        1.860430
   12        2.263068
 
  0.2500000E+00  0.8333333E-01  0.0000000E+00  0.4629630E-02
    1      -21.557582
    2      -18.640171
    3      -13.152598
    4       -9.634926
    5       -9.621840
    6       -7.568644
    7       -6.827878
    8       -6.339175
    9        0.851548
   10        1.212853
   11        2.016476
   12        2.421481
 
  0.2916667E+00  0.8333333E-01  0.0000000E+00  0.4629630E-02
    1      -21.423255
    2      -18.986896
    3      -12.631638
    4       -9.496828
    5       -9.464043
    6       -7.894645
    7       -7.107449
    8       -6.703446
    9        1.372623
   10        1.395797
   11        2.200776
   12        2.608686
 
  0.3333333E+00  0.8333333E-01  0.0000000E+00  0.4629630E-02
    1      -21.268527
    2      -19.316218
    3      -12.106392
    4       -9.338399
    5       -9.282738
    6       -8.255799
    7       -7.401566
    8       -7.059367
    9        1.606767
   10        1.903453
   11        2.413252
   12        2.824677
 
  0.3750000E+00  0.8333333E-01  0.0000000E+00  0.4629630E-02
    1      -21.093517
    2      -19.627473
    3      -11.580084
    4       -9.159999
    5       -9.078305
    6       -8.653170
    7       -7.696675
    8       -7.402694
    9        1.845705
   10        2.437294
   11        2.653788
   12        3.069441
 
  0.4166667E+00  0.8333333E-01  0.0000000E+00  0.4629630E-02
    1      -20.898366
    2      -19.920163
    3      -11.056391
    4       -9.085348
    5       -8.962002
    6       -8.851213
    7       -7.982838
    8       -7.730485
    9        2.112530
   10        2.922181
   11        2.968158
   12        3.342957
 
  0.4583333E+00  0.8333333E-01  0.0000000E+00  0.4629630E-02
    1      -20.683242
    2      -20.193893
    3      -10.539621
    4       -9.547952
    5       -8.744783
    6       -8.602049
    7       -8.254392
    8       -8.040625
    9        2.407136
   10        3.078950
   11        3.217914
   12        3.486854
 
  0.5000000E+00  0.8333333E-01  0.0000000E+00  0.2314815E-02
    1      -20.448341
    2      -20.448341
    3      -10.034849
    4      -10.034849
    5       -8.508735
    6       -8.508735
    7       -8.331544
    8       -8.331544
    9        2.729366
   10        2.729366
   11        3.537561
   12        3.537562
 
  0.0000000E+00  0.1111111E+00  0.0000000E+00  0.2314815E-02
    1      -21.840633
    2      -16.462583
    3      -15.687315
    4      -10.365161
    5       -9.955403
    6       -6.800201
    7       -6.238277
    8       -4.614156
    9       -1.281468
   10        0.827812
   11        1.629076
   12        2.028303
 
  0.4166667E-01  0.1111111E+00  0.0000000E+00  0.4629630E-02
    1      -21.830260
    2      -16.665759
    3      -15.470371
    4      -10.353996
    5       -9.943158
    6       -6.845167
    7       -6.246317
    8       -4.688516
    9       -1.194814
   10        0.841905
   11        1.643271
   12        2.042706
 
  0.8333333E-01  0.1111111E+00  0.0000000E+00  0.4629630E-02
    1      -21.799146
    2      -17.035584
    3      -15.059395
    4      -10.320502
    5       -9.906444
    6       -6.969480
    7       -6.279902
    8       -4.891120
    9       -0.955505
   10        0.884181
   11        1.685852
   12        2.085913
 
  0.1250000E+00  0.1111111E+00  0.0000000E+00  0.4629630E-02
    1      -21.747314
    2      -17.428356
    3      -14.598558
    4      -10.264681
    5       -9.845318
    6       -7.153082
    7       -6.355630
    8       -5.179570
    9       -0.606479
   10        0.954638
   11        1.756806
   12        2.157925
 
  0.1666667E+00  0.1111111E+00  0.0000000E+00  0.4629630E-02
    1      -21.674801
    2      -17.816910
    3      -14.115832
    4      -10.186527
    5       -9.759878
    6       -7.379526
    7       -6.483982
    8       -5.516140
    9       -0.186344
   10        1.053267
   11        1.856114
   12        2.258743
 
  0.2083333E+00  0.1111111E+00  0.0000000E+00  0.4629630E-02
    1      -21.581661
    2      -18.193757
    3      -13.619890
    4      -10.086011
    5       -9.650266
    6       -7.637908
    7       -6.667424
    8       -5.875495
    9        0.278356
   10        1.180050
   11        1.983746
   12        2.388366
 
  0.2500000E+00  0.1111111E+00  0.0000000E+00  0.4629630E-02
    1      -21.467962
    2      -18.555879
    3      -13.115371
    4       -9.963056
    5       -9.516671
    6       -7.921600
    7       -6.902051
    8       -6.241999
    9        0.770481
   10        1.334956
   11        2.139660
   12        2.546790
 
  0.2916667E+00  0.1111111E+00  0.0000000E+00  0.4629630E-02
    1      -21.333788
    2      -18.901700
    3      -12.605987
    4       -9.817503
    5       -9.359336
    6       -8.227398
    7       -7.179137
    8       -6.606000
    9        1.278612
   10        1.517945
   11        2.323801
   12        2.734012
 
  0.3333333E+00  0.1111111E+00  0.0000000E+00  0.4629630E-02
    1      -21.179245
    2      -19.230245
    3      -12.095480
    4       -9.649063
    5       -9.178567
    6       -8.555129
    7       -7.486389
    8       -6.961336
    9        1.728965
   10        1.794597
   11        2.536098
   12        2.950022
 
  0.3750000E+00  0.1111111E+00  0.0000000E+00  0.4629630E-02
    1      -21.004455
    2      -19.540831
    3      -11.588054
    4       -9.457261
    5       -8.974742
    6       -8.907143
    7       -7.809231
    8       -7.303903
    9        1.967953
   10        2.312162
   11        2.776453
   12        3.194812
 
  0.4166667E+00  0.1111111E+00  0.0000000E+00  0.4629630E-02
    1      -20.809566
    2      -19.832948
    3      -11.088625
    4       -9.286996
    5       -9.241407
    6       -8.748329
    7       -8.132687
    8       -7.630853
    9        2.234830
   10        2.826117
   11        3.044724
   12        3.468367
 
  0.4583333E+00  0.1111111E+00  0.0000000E+00  0.4629630E-02
    1      -20.594751
    2      -20.106185
    3      -10.602906
    4       -9.697191
    5       -9.000691
    6       -8.499910
    7       -8.443963
    8       -7.940131
    9        2.529500
   10        3.201628
   11        3.331700
   12        3.340627
 
  0.5000000E+00  0.1111111E+00  0.0000000E+00  0.2314815E-02
    1      -20.360211
    2      -20.360211
    3      -10.137137
    4      -10.137137
    5       -8.734599
    6       -8.734599
    7       -8.230206
    8       -8.230206
    9        2.851831
   10        2.851831
   11        3.661042
   12        3.661047
 
  0.0000000E+00  0.1388889E+00  0.0000000E+00  0.2314815E-02
    1      -21.725055
    2      -16.362472
    3      -15.604265
    4      -10.767443
    5       -9.818956
    6       -7.180570
    7       -6.501218
    8       -4.474527
    9       -1.362997
   10        0.984741
   11        1.787904
   12        2.189396
 
  0.4166667E-01  0.1388889E+00  0.0000000E+00  0.4629630E-02
    1      -21.714695
    2      -16.565782
    3      -15.388042
    4      -10.755689
    5       -9.806759
    6       -7.230359
    7       -6.499462
    8       -4.551221
    9       -1.275350
   10        0.998828
   11        1.802081
   12        2.203797
 
  0.8333333E-01  0.1388889E+00  0.0000000E+00  0.4629630E-02
    1      -21.683622
    2      -16.934235
    3      -14.981063
    4      -10.720380
    5       -9.770186
    6       -7.365350
    7       -6.508048
    8       -4.758766
    9       -1.035120
   10        1.041092
   11        1.844609
   12        2.247002
 
  0.1250000E+00  0.1388889E+00  0.0000000E+00  0.4629630E-02
    1      -21.631858
    2      -17.325145
    3      -14.526659
    4      -10.661362
    5       -9.709297
    6       -7.559673
    7       -6.551049
    8       -5.051708
    9       -0.688277
   10        1.111535
   11        1.915473
   12        2.319012
 
  0.1666667E+00  0.1388889E+00  0.0000000E+00  0.4629630E-02
    1      -21.559445
    2      -17.711902
    3      -14.052563
    4      -10.578348
    5       -9.624190
    6       -7.793560
    7       -6.644665
    8       -5.391140
    9       -0.274571
   10        1.210154
   11        2.014649
   12        2.419829
 
  0.2083333E+00  0.1388889E+00  0.0000000E+00  0.4629630E-02
    1      -21.466434
    2      -18.087143
    3      -13.567815
    4      -10.470874
    5       -9.515008
    6       -8.054437
    7       -6.795662
    8       -5.751827
    9        0.179633
   10        1.336937
   11        2.142103
   12        2.549454
 
  0.2500000E+00  0.1388889E+00  0.0000000E+00  0.4629630E-02
    1      -21.352897
    2      -18.447867
    3      -13.077761
    4      -10.338217
    5       -9.381943
    6       -8.334413
    7       -7.003787
    8       -6.118568
    9        0.657756
   10        1.491856
   11        2.297787
   12        2.707886
 
  0.2916667E+00  0.1388889E+00  0.0000000E+00  0.4629630E-02
    1      -21.218925
    2      -18.792482
    3      -12.587142
    4      -10.179310
    5       -9.225239
    6       -8.628773
    7       -7.263636
    8       -6.482104
    9        1.148963
   10        1.674869
   11        2.481637
   12        2.895118
 
  0.3333333E+00  0.1388889E+00  0.0000000E+00  0.4629630E-02
    1      -21.064623
    2      -19.119991
    3      -12.101073
    4       -9.992645
    5       -9.045202
    6       -8.935390
    7       -7.565986
    8       -6.836561
    9        1.645658
   10        1.885917
   11        2.693568
   12        3.111145
 
  0.3750000E+00  0.1388889E+00  0.0000000E+00  0.4629630E-02
    1      -20.890122
    2      -19.429691
    3      -11.625413
    4       -9.776284
    5       -9.254588
    6       -8.842211
    7       -7.898787
    8       -7.178029
    9        2.124931
   10        2.142117
   11        2.933470
   12        3.355957
 
  0.4166667E+00  0.1388889E+00  0.0000000E+00  0.4629630E-02
    1      -20.695577
    2      -19.721047
    3      -11.166670
    4       -9.589099
    5       -9.528192
    6       -8.616732
    7       -8.247933
    8       -7.503782
    9        2.391830
   10        2.633743
   11        3.201180
   12        3.629542
 
  0.4583333E+00  0.1388889E+00  0.0000000E+00  0.4629630E-02
    1      -20.481167
    2      -19.993634
    3      -10.731144
    4       -9.943597
    5       -9.247251
    6       -8.598231
    7       -8.369339
    8       -7.811848
    9        2.686515
   10        3.116604
   11        3.358713
   12        3.496364
 
  0.5000000E+00  0.1388889E+00  0.0000000E+00  0.2314815E-02
    1      -20.247104
    2      -20.247104
    3      -10.323221
    4      -10.323221
    5       -8.935135
    6       -8.935135
    7       -8.100747
    8       -8.100747
    9        3.008864
   10        3.008864
   11        3.586542
   12        3.586542
 
  0.0000000E+00  0.1666667E+00  0.0000000E+00  0.2314815E-02
    1      -21.584037
    2      -16.240196
    3      -15.509401
    4      -11.207263
    5       -9.652807
    6       -7.604573
    7       -6.807198
    8       -4.304235
    9       -1.475074
   10        1.176600
   11        1.981876
   12        2.386303
 
  0.4166667E-01  0.1666667E+00  0.0000000E+00  0.4629630E-02
    1      -21.573693
    2      -16.444358
    3      -15.293655
    4      -11.194512
    5       -9.640672
    6       -7.658626
    7       -6.795865
    8       -4.384367
    9       -1.385680
   10        1.190677
   11        1.996025
   12        2.400702
 
  0.8333333E-01  0.1666667E+00  0.0000000E+00  0.4629630E-02
    1      -21.542671
    2      -16.811364
    3      -14.892220
    4      -11.156107
    5       -9.604284
    6       -7.803091
    7       -6.779550
    8       -4.598962
    9       -1.143450
   10        1.232910
   11        2.038467
   12        2.443900
 
  0.1250000E+00  0.1666667E+00  0.0000000E+00  0.4629630E-02
    1      -21.490994
    2      -17.199935
    3      -14.447364
    4      -11.091577
    5       -9.543705
    6       -8.007125
    7       -6.788789
    8       -4.898030
    9       -0.798842
   10        1.303308
   11        2.109183
   12        2.515902
 
  0.1666667E+00  0.1666667E+00  0.0000000E+00  0.4629630E-02
    1      -21.418702
    2      -17.584379
    3      -13.986531
    4      -11.000062
    5       -9.459035
    6       -8.248256
    7       -6.844738
    8       -5.241158
    9       -0.393010
   10        1.401878
   11        2.208139
   12        2.616709
 
  0.2083333E+00  0.1666667E+00  0.0000000E+00  0.4629630E-02
    1      -21.325852
    2      -17.957545
    3      -13.519522
    4      -10.880194
    5       -9.350419
    6       -8.512737
    7       -6.957996
    8       -5.603413
    9        0.048143
   10        1.528618
   11        2.335285
   12        2.746327
 
  0.2500000E+00  0.1666667E+00  0.0000000E+00  0.4629630E-02
    1      -21.212519
    2      -18.316462
    3      -13.053047
    4      -10.729959
    5       -9.218051
    6       -8.791983
    7       -7.131627
    8       -5.970264
    9        0.508934
   10        1.683507
   11        2.490546
   12        2.904756
 
  0.2916667E+00  0.1666667E+00  0.0000000E+00  0.4629630E-02
    1      -21.078797
    2      -18.659526
    3      -12.593681
    4      -10.546605
    5       -9.080521
    6       -9.062178
    7       -7.363173
    8       -6.333009
    9        0.979401
   10        1.866503
   11        2.673810
   12        3.091993
 
  0.3333333E+00  0.1666667E+00  0.0000000E+00  0.4629630E-02
    1      -20.924798
    2      -18.985707
    3      -12.148539
    4      -10.326828
    5       -9.375077
    6       -8.883108
    7       -7.646076
    8       -6.686163
    9        1.452739
   10        2.077546
   11        2.884893
   12        3.308031
 
  0.3750000E+00  0.1666667E+00  0.0000000E+00  0.4629630E-02
    1      -20.750661
    2      -19.294271
    3      -11.724756
    4      -10.067669
    5       -9.674270
    6       -8.681222
    7       -7.970804
    8       -7.026067
    9        1.923947
   10        2.316555
   11        3.123413
   12        3.552860
 
  0.4166667E+00  0.1666667E+00  0.0000000E+00  0.4629630E-02
    1      -20.556548
    2      -19.584658
    3      -11.327762
    4       -9.978627
    5       -9.768467
    6       -8.456985
    7       -8.325710
    8       -7.350160
    9        2.389082
   10        2.583439
   11        3.388009
   12        3.826466
 
  0.4583333E+00  0.1666667E+00  0.0000000E+00  0.4629630E-02
    1      -20.342649
    2      -19.856420
    3      -10.959058
    4      -10.290759
    5       -9.433263
    6       -8.697527
    7       -8.210967
    8       -7.656566
    9        2.844695
   10        2.878090
   11        3.550152
   12        3.639920
 
  0.5000000E+00  0.1666667E+00  0.0000000E+00  0.2314815E-02
    1      -20.109187
    2      -20.109187
    3      -10.615443
    4      -10.615443
    5       -9.071722
    6       -9.071722
    7       -7.943869
    8       -7.943869
    9        3.200381
   10        3.200381
   11        3.286516
   12        3.286516
 