<?xml version="1.0" encoding="ISO-8859-1"?>
<modeling>
 <generator>
  <i name="program" type="string">vasp </i>
  <i name="version" type="string">5.3.5  </i>
  <i name="subversion" type="string">31Mar14 (build Mar 02 2015 18:14:16) complex                          parallel </i>
  <i name="platform" type="string">LinuxIFC </i>
  <i name="date" type="string">2018 08 11 </i>
  <i name="time" type="string">01:36:14 </i>
 </generator>
 <incar>
  <i type="string" name="SYSTEM">  gr</i>
  <i type="string" name="PREC">accurate : accuracy</i>
  <i type="string" name="ALGO"> FAST.</i>
  <i type="int" name="NELM">   100</i>
  <i type="int" name="NELMDL">    -3</i>
  <i type="int" name="NELMIN">     5</i>
  <i type="int" name="IBRION">     1</i>
  <i name="EDIFF">      0.00000000</i>
  <i name="EDIFFG">     -0.00000100</i>
  <i type="int" name="NSW">   400</i>
  <i type="int" name="ISIF">     2</i>
  <i name="ENCUT">   2000.00000000</i>
  <i type="int" name="ISMEAR">     0</i>
  <i name="SIGMA">      0.05000000</i>
  <i type="int" name="NWRITE">     2</i>
  <i type="logical" name="LWAVE"> F  </i>
  <i type="logical" name="LCHARG"> F  </i>
  <i type="int" name="NELM">   100</i>
 </incar>
 <kpoints>
  <generation param="Gamma">
   <v type="int" name="divisions">      24       36        1 </v>
   <v name="usershift">      0.00000000       0.00000000       0.00000000 </v>
   <v name="genvec1">      0.04166667       0.00000000       0.00000000 </v>
   <v name="genvec2">      0.00000000       0.02777778       0.00000000 </v>
   <v name="genvec3">      0.00000000       0.00000000       1.00000000 </v>
   <v name="shift">      0.00000000       0.00000000       0.00000000 </v>
  </generation>
  <varray name="kpointlist" >
   <v>       0.00000000       0.00000000       0.00000000 </v>
   <v>       0.04166667       0.00000000       0.00000000 </v>
   <v>       0.08333333       0.00000000       0.00000000 </v>
   <v>       0.12500000       0.00000000       0.00000000 </v>
   <v>       0.16666667       0.00000000       0.00000000 </v>
   <v>       0.20833333       0.00000000       0.00000000 </v>
   <v>       0.25000000       0.00000000       0.00000000 </v>
   <v>       0.29166667       0.00000000       0.00000000 </v>
   <v>       0.33333333       0.00000000       0.00000000 </v>
   <v>       0.37500000       0.00000000       0.00000000 </v>
   <v>       0.41666667       0.00000000       0.00000000 </v>
   <v>       0.45833333       0.00000000       0.00000000 </v>
   <v>       0.50000000       0.00000000       0.00000000 </v>
   <v>       0.00000000       0.02777778       0.00000000 </v>
   <v>       0.04166667       0.02777778       0.00000000 </v>
   <v>       0.08333333       0.02777778       0.00000000 </v>
   <v>       0.12500000       0.02777778       0.00000000 </v>
   <v>       0.16666667       0.02777778       0.00000000 </v>
   <v>       0.20833333       0.02777778       0.00000000 </v>
   <v>       0.25000000       0.02777778       0.00000000 </v>
   <v>       0.29166667       0.02777778       0.00000000 </v>
   <v>       0.33333333       0.02777778       0.00000000 </v>
   <v>       0.37500000       0.02777778       0.00000000 </v>
   <v>       0.41666667       0.02777778       0.00000000 </v>
   <v>       0.45833333       0.02777778       0.00000000 </v>
   <v>       0.50000000       0.02777778       0.00000000 </v>
   <v>       0.00000000       0.05555556       0.00000000 </v>
   <v>       0.04166667       0.05555556       0.00000000 </v>
   <v>       0.08333333       0.05555556       0.00000000 </v>
   <v>       0.12500000       0.05555556       0.00000000 </v>
   <v>       0.16666667       0.05555556       0.00000000 </v>
   <v>       0.20833333       0.05555556       0.00000000 </v>
   <v>       0.25000000       0.05555556       0.00000000 </v>
   <v>       0.29166667       0.05555556       0.00000000 </v>
   <v>       0.33333333       0.05555556       0.00000000 </v>
   <v>       0.37500000       0.05555556       0.00000000 </v>
   <v>       0.41666667       0.05555556       0.00000000 </v>
   <v>       0.45833333       0.05555556       0.00000000 </v>
   <v>       0.50000000       0.05555556       0.00000000 </v>
   <v>       0.00000000       0.08333333       0.00000000 </v>
   <v>       0.04166667       0.08333333       0.00000000 </v>
   <v>       0.08333333       0.08333333       0.00000000 </v>
   <v>       0.12500000       0.08333333       0.00000000 </v>
   <v>       0.16666667       0.08333333       0.00000000 </v>
   <v>       0.20833333       0.08333333       0.00000000 </v>
   <v>       0.25000000       0.08333333       0.00000000 </v>
   <v>       0.29166667       0.08333333       0.00000000 </v>
   <v>       0.33333333       0.08333333       0.00000000 </v>
   <v>       0.37500000       0.08333333       0.00000000 </v>
   <v>       0.41666667       0.08333333       0.00000000 </v>
   <v>       0.45833333       0.08333333       0.00000000 </v>
   <v>       0.50000000       0.08333333       0.00000000 </v>
   <v>       0.00000000       0.11111111       0.00000000 </v>
   <v>       0.04166667       0.11111111       0.00000000 </v>
   <v>       0.08333333       0.11111111       0.00000000 </v>
   <v>       0.12500000       0.11111111       0.00000000 </v>
   <v>       0.16666667       0.11111111       0.00000000 </v>
   <v>       0.20833333       0.11111111       0.00000000 </v>
   <v>       0.25000000       0.11111111       0.00000000 </v>
   <v>       0.29166667       0.11111111       0.00000000 </v>
   <v>       0.33333333       0.11111111       0.00000000 </v>
   <v>       0.37500000       0.11111111       0.00000000 </v>
   <v>       0.41666667       0.11111111       0.00000000 </v>
   <v>       0.45833333       0.11111111       0.00000000 </v>
   <v>       0.50000000       0.11111111       0.00000000 </v>
   <v>       0.00000000       0.13888889       0.00000000 </v>
   <v>       0.04166667       0.13888889       0.00000000 </v>
   <v>       0.08333333       0.13888889       0.00000000 </v>
   <v>       0.12500000       0.13888889       0.00000000 </v>
   <v>       0.16666667       0.13888889       0.00000000 </v>
   <v>       0.20833333       0.13888889       0.00000000 </v>
   <v>       0.25000000       0.13888889       0.00000000 </v>
   <v>       0.29166667       0.13888889       0.00000000 </v>
   <v>       0.33333333       0.13888889       0.00000000 </v>
   <v>       0.37500000       0.13888889       0.00000000 </v>
   <v>       0.41666667       0.13888889       0.00000000 </v>
   <v>       0.45833333       0.13888889       0.00000000 </v>
   <v>       0.50000000       0.13888889       0.00000000 </v>
   <v>       0.00000000       0.16666667       0.00000000 </v>
   <v>       0.04166667       0.16666667       0.00000000 </v>
   <v>       0.08333333       0.16666667       0.00000000 </v>
   <v>       0.12500000       0.16666667       0.00000000 </v>
   <v>       0.16666667       0.16666667       0.00000000 </v>
   <v>       0.20833333       0.16666667       0.00000000 </v>
   <v>       0.25000000       0.16666667       0.00000000 </v>
   <v>       0.29166667       0.16666667       0.00000000 </v>
   <v>       0.33333333       0.16666667       0.00000000 </v>
   <v>       0.37500000       0.16666667       0.00000000 </v>
   <v>       0.41666667       0.16666667       0.00000000 </v>
   <v>       0.45833333       0.16666667       0.00000000 </v>
   <v>       0.50000000       0.16666667       0.00000000 </v>
   <v>       0.00000000       0.19444444       0.00000000 </v>
   <v>       0.04166667       0.19444444       0.00000000 </v>
   <v>       0.08333333       0.19444444       0.00000000 </v>
   <v>       0.12500000       0.19444444       0.00000000 </v>
   <v>       0.16666667       0.19444444       0.00000000 </v>
   <v>       0.20833333       0.19444444       0.00000000 </v>
   <v>       0.25000000       0.19444444       0.00000000 </v>
   <v>       0.29166667       0.19444444       0.00000000 </v>
   <v>       0.33333333       0.19444444       0.00000000 </v>
   <v>       0.37500000       0.19444444       0.00000000 </v>
   <v>       0.41666667       0.19444444       0.00000000 </v>
   <v>       0.45833333       0.19444444       0.00000000 </v>
   <v>       0.50000000       0.19444444       0.00000000 </v>
   <v>       0.00000000       0.22222222       0.00000000 </v>
   <v>       0.04166667       0.22222222       0.00000000 </v>
   <v>       0.08333333       0.22222222       0.00000000 </v>
   <v>       0.12500000       0.22222222       0.00000000 </v>
   <v>       0.16666667       0.22222222       0.00000000 </v>
   <v>       0.20833333       0.22222222       0.00000000 </v>
   <v>       0.25000000       0.22222222       0.00000000 </v>
   <v>       0.29166667       0.22222222       0.00000000 </v>
   <v>       0.33333333       0.22222222       0.00000000 </v>
   <v>       0.37500000       0.22222222       0.00000000 </v>
   <v>       0.41666667       0.22222222       0.00000000 </v>
   <v>       0.45833333       0.22222222       0.00000000 </v>
   <v>       0.50000000       0.22222222       0.00000000 </v>
   <v>       0.00000000       0.25000000       0.00000000 </v>
   <v>       0.04166667       0.25000000       0.00000000 </v>
   <v>       0.08333333       0.25000000       0.00000000 </v>
   <v>       0.12500000       0.25000000       0.00000000 </v>
   <v>       0.16666667       0.25000000       0.00000000 </v>
   <v>       0.20833333       0.25000000       0.00000000 </v>
   <v>       0.25000000       0.25000000       0.00000000 </v>
   <v>       0.29166667       0.25000000       0.00000000 </v>
   <v>       0.33333333       0.25000000       0.00000000 </v>
   <v>       0.37500000       0.25000000       0.00000000 </v>
   <v>       0.41666667       0.25000000       0.00000000 </v>
   <v>       0.45833333       0.25000000       0.00000000 </v>
   <v>       0.50000000       0.25000000       0.00000000 </v>
   <v>       0.00000000       0.27777778       0.00000000 </v>
   <v>       0.04166667       0.27777778       0.00000000 </v>
   <v>       0.08333333       0.27777778       0.00000000 </v>
   <v>       0.12500000       0.27777778       0.00000000 </v>
   <v>       0.16666667       0.27777778       0.00000000 </v>
   <v>       0.20833333       0.27777778       0.00000000 </v>
   <v>       0.25000000       0.27777778       0.00000000 </v>
   <v>       0.29166667       0.27777778       0.00000000 </v>
   <v>       0.33333333       0.27777778       0.00000000 </v>
   <v>       0.37500000       0.27777778       0.00000000 </v>
   <v>       0.41666667       0.27777778       0.00000000 </v>
   <v>       0.45833333       0.27777778       0.00000000 </v>
   <v>       0.50000000       0.27777778       0.00000000 </v>
   <v>       0.00000000       0.30555556       0.00000000 </v>
   <v>       0.04166667       0.30555556       0.00000000 </v>
   <v>       0.08333333       0.30555556       0.00000000 </v>
   <v>       0.12500000       0.30555556       0.00000000 </v>
   <v>       0.16666667       0.30555556       0.00000000 </v>
   <v>       0.20833333       0.30555556       0.00000000 </v>
   <v>       0.25000000       0.30555556       0.00000000 </v>
   <v>       0.29166667       0.30555556       0.00000000 </v>
   <v>       0.33333333       0.30555556       0.00000000 </v>
   <v>       0.37500000       0.30555556       0.00000000 </v>
   <v>       0.41666667       0.30555556       0.00000000 </v>
   <v>       0.45833333       0.30555556       0.00000000 </v>
   <v>       0.50000000       0.30555556       0.00000000 </v>
   <v>       0.00000000       0.33333333       0.00000000 </v>
   <v>       0.04166667       0.33333333       0.00000000 </v>
   <v>       0.08333333       0.33333333       0.00000000 </v>
   <v>       0.12500000       0.33333333       0.00000000 </v>
   <v>       0.16666667       0.33333333       0.00000000 </v>
   <v>       0.20833333       0.33333333       0.00000000 </v>
   <v>       0.25000000       0.33333333       0.00000000 </v>
   <v>       0.29166667       0.33333333       0.00000000 </v>
   <v>       0.33333333       0.33333333       0.00000000 </v>
   <v>       0.37500000       0.33333333       0.00000000 </v>
   <v>       0.41666667       0.33333333       0.00000000 </v>
   <v>       0.45833333       0.33333333       0.00000000 </v>
   <v>       0.50000000       0.33333333       0.00000000 </v>
   <v>       0.00000000       0.36111111       0.00000000 </v>
   <v>       0.04166667       0.36111111       0.00000000 </v>
   <v>       0.08333333       0.36111111       0.00000000 </v>
   <v>       0.12500000       0.36111111       0.00000000 </v>
   <v>       0.16666667       0.36111111       0.00000000 </v>
   <v>       0.20833333       0.36111111       0.00000000 </v>
   <v>       0.25000000       0.36111111       0.00000000 </v>
   <v>       0.29166667       0.36111111       0.00000000 </v>
   <v>       0.33333333       0.36111111       0.00000000 </v>
   <v>       0.37500000       0.36111111       0.00000000 </v>
   <v>       0.41666667       0.36111111       0.00000000 </v>
   <v>       0.45833333       0.36111111       0.00000000 </v>
   <v>       0.50000000       0.36111111       0.00000000 </v>
   <v>       0.00000000       0.38888889       0.00000000 </v>
   <v>       0.04166667       0.38888889       0.00000000 </v>
   <v>       0.08333333       0.38888889       0.00000000 </v>
   <v>       0.12500000       0.38888889       0.00000000 </v>
   <v>       0.16666667       0.38888889       0.00000000 </v>
   <v>       0.20833333       0.38888889       0.00000000 </v>
   <v>       0.25000000       0.38888889       0.00000000 </v>
   <v>       0.29166667       0.38888889       0.00000000 </v>
   <v>       0.33333333       0.38888889       0.00000000 </v>
   <v>       0.37500000       0.38888889       0.00000000 </v>
   <v>       0.41666667       0.38888889       0.00000000 </v>
   <v>       0.45833333       0.38888889       0.00000000 </v>
   <v>       0.50000000       0.38888889       0.00000000 </v>
   <v>       0.00000000       0.41666667       0.00000000 </v>
   <v>       0.04166667       0.41666667       0.00000000 </v>
   <v>       0.08333333       0.41666667       0.00000000 </v>
   <v>       0.12500000       0.41666667       0.00000000 </v>
   <v>       0.16666667       0.41666667       0.00000000 </v>
   <v>       0.20833333       0.41666667       0.00000000 </v>
   <v>       0.25000000       0.41666667       0.00000000 </v>
   <v>       0.29166667       0.41666667       0.00000000 </v>
   <v>       0.33333333       0.41666667       0.00000000 </v>
   <v>       0.37500000       0.41666667       0.00000000 </v>
   <v>       0.41666667       0.41666667       0.00000000 </v>
   <v>       0.45833333       0.41666667       0.00000000 </v>
   <v>       0.50000000       0.41666667       0.00000000 </v>
   <v>       0.00000000       0.44444444       0.00000000 </v>
   <v>       0.04166667       0.44444444       0.00000000 </v>
   <v>       0.08333333       0.44444444       0.00000000 </v>
   <v>       0.12500000       0.44444444       0.00000000 </v>
   <v>       0.16666667       0.44444444       0.00000000 </v>
   <v>       0.20833333       0.44444444       0.00000000 </v>
   <v>       0.25000000       0.44444444       0.00000000 </v>
   <v>       0.29166667       0.44444444       0.00000000 </v>
   <v>       0.33333333       0.44444444       0.00000000 </v>
   <v>       0.37500000       0.44444444       0.00000000 </v>
   <v>       0.41666667       0.44444444       0.00000000 </v>
   <v>       0.45833333       0.44444444       0.00000000 </v>
   <v>       0.50000000       0.44444444       0.00000000 </v>
   <v>       0.00000000       0.47222222       0.00000000 </v>
   <v>       0.04166667       0.47222222       0.00000000 </v>
   <v>       0.08333333       0.47222222       0.00000000 </v>
   <v>       0.12500000       0.47222222       0.00000000 </v>
   <v>       0.16666667       0.47222222       0.00000000 </v>
   <v>       0.20833333       0.47222222       0.00000000 </v>
   <v>       0.25000000       0.47222222       0.00000000 </v>
   <v>       0.29166667       0.47222222       0.00000000 </v>
   <v>       0.33333333       0.47222222       0.00000000 </v>
   <v>       0.37500000       0.47222222       0.00000000 </v>
   <v>       0.41666667       0.47222222       0.00000000 </v>
   <v>       0.45833333       0.47222222       0.00000000 </v>
   <v>       0.50000000       0.47222222       0.00000000 </v>
   <v>       0.00000000       0.50000000       0.00000000 </v>
   <v>       0.04166667       0.50000000       0.00000000 </v>
   <v>       0.08333333       0.50000000       0.00000000 </v>
   <v>       0.12500000       0.50000000       0.00000000 </v>
   <v>       0.16666667       0.50000000       0.00000000 </v>
   <v>       0.20833333       0.50000000       0.00000000 </v>
   <v>       0.25000000       0.50000000       0.00000000 </v>
   <v>       0.29166667       0.50000000       0.00000000 </v>
   <v>       0.33333333       0.50000000       0.00000000 </v>
   <v>       0.37500000       0.50000000       0.00000000 </v>
   <v>       0.41666667       0.50000000       0.00000000 </v>
   <v>       0.45833333       0.50000000       0.00000000 </v>
   <v>       0.50000000       0.50000000       0.00000000 </v>
  </varray>
  <varray name="weights" >
   <v>       0.00115741 </v>
   <v>       0.00231481 </v>
   <v>       0.00231481 </v>
   <v>       0.00231481 </v>
   <v>       0.00231481 </v>
   <v>       0.00231481 </v>
   <v>       0.00231481 </v>
   <v>       0.00231481 </v>
   <v>       0.00231481 </v>
   <v>       0.00231481 </v>
   <v>       0.00231481 </v>
   <v>       0.00231481 </v>
   <v>       0.00115741 </v>
   <v>       0.00231481 </v>
   <v>       0.00462963 </v>
   <v>       0.00462963 </v>
   <v>       0.00462963 </v>
   <v>       0.00462963 </v>
   <v>       0.00462963 </v>
   <v>       0.00462963 </v>
   <v>       0.00462963 </v>
   <v>       0.00462963 </v>
   <v>       0.00462963 </v>
   <v>       0.00462963 </v>
   <v>       0.00462963 </v>
   <v>       0.00231481 </v>
   <v>       0.00231481 </v>
   <v>       0.00462963 </v>
   <v>       0.00462963 </v>
   <v>       0.00462963 </v>
   <v>       0.00462963 </v>
   <v>       0.00462963 </v>
   <v>       0.00462963 </v>
   <v>       0.00462963 </v>
   <v>       0.00462963 </v>
   <v>       0.00462963 </v>
   <v>       0.00462963 </v>
   <v>       0.00462963 </v>
   <v>       0.00231481 </v>
   <v>       0.00231481 </v>
   <v>       0.00462963 </v>
   <v>       0.00462963 </v>
   <v>       0.00462963 </v>
   <v>       0.00462963 </v>
   <v>       0.00462963 </v>
   <v>       0.00462963 </v>
   <v>       0.00462963 </v>
   <v>       0.00462963 </v>
   <v>       0.00462963 </v>
   <v>       0.00462963 </v>
   <v>       0.00462963 </v>
   <v>       0.00231481 </v>
   <v>       0.00231481 </v>
   <v>       0.00462963 </v>
   <v>       0.00462963 </v>
   <v>       0.00462963 </v>
   <v>       0.00462963 </v>
   <v>       0.00462963 </v>
   <v>       0.00462963 </v>
   <v>       0.00462963 </v>
   <v>       0.00462963 </v>
   <v>       0.00462963 </v>
   <v>       0.00462963 </v>
   <v>       0.00462963 </v>
   <v>       0.00231481 </v>
   <v>       0.00231481 </v>
   <v>       0.00462963 </v>
   <v>       0.00462963 </v>
   <v>       0.00462963 </v>
   <v>       0.00462963 </v>
   <v>       0.00462963 </v>
   <v>       0.00462963 </v>
   <v>       0.00462963 </v>
   <v>       0.00462963 </v>
   <v>       0.00462963 </v>
   <v>       0.00462963 </v>
   <v>       0.00462963 </v>
   <v>       0.00231481 </v>
   <v>       0.00231481 </v>
   <v>       0.00462963 </v>
   <v>       0.00462963 </v>
   <v>       0.00462963 </v>
   <v>       0.00462963 </v>
   <v>       0.00462963 </v>
   <v>       0.00462963 </v>
   <v>       0.00462963 </v>
   <v>       0.00462963 </v>
   <v>       0.00462963 </v>
   <v>       0.00462963 </v>
   <v>       0.00462963 </v>
   <v>       0.00231481 </v>
   <v>       0.00231481 </v>
   <v>       0.00462963 </v>
   <v>       0.00462963 </v>
   <v>       0.00462963 </v>
   <v>       0.00462963 </v>
   <v>       0.00462963 </v>
   <v>       0.00462963 </v>
   <v>       0.00462963 </v>
   <v>       0.00462963 </v>
   <v>       0.00462963 </v>
   <v>       0.00462963 </v>
   <v>       0.00462963 </v>
   <v>       0.00231481 </v>
   <v>       0.00231481 </v>
   <v>       0.00462963 </v>
   <v>       0.00462963 </v>
   <v>       0.00462963 </v>
   <v>       0.00462963 </v>
   <v>       0.00462963 </v>
   <v>       0.00462963 </v>
   <v>       0.00462963 </v>
   <v>       0.00462963 </v>
   <v>       0.00462963 </v>
   <v>       0.00462963 </v>
   <v>       0.00462963 </v>
   <v>       0.00231481 </v>
   <v>       0.00231481 </v>
   <v>       0.00462963 </v>
   <v>       0.00462963 </v>
   <v>       0.00462963 </v>
   <v>       0.00462963 </v>
   <v>       0.00462963 </v>
   <v>       0.00462963 </v>
   <v>       0.00462963 </v>
   <v>       0.00462963 </v>
   <v>       0.00462963 </v>
   <v>       0.00462963 </v>
   <v>       0.00462963 </v>
   <v>       0.00231481 </v>
   <v>       0.00231481 </v>
   <v>       0.00462963 </v>
   <v>       0.00462963 </v>
   <v>       0.00462963 </v>
   <v>       0.00462963 </v>
   <v>       0.00462963 </v>
   <v>       0.00462963 </v>
   <v>       0.00462963 </v>
   <v>       0.00462963 </v>
   <v>       0.00462963 </v>
   <v>       0.00462963 </v>
   <v>       0.00462963 </v>
   <v>       0.00231481 </v>
   <v>       0.00231481 </v>
   <v>       0.00462963 </v>
   <v>       0.00462963 </v>
   <v>       0.00462963 </v>
   <v>       0.00462963 </v>
   <v>       0.00462963 </v>
   <v>       0.00462963 </v>
   <v>       0.00462963 </v>
   <v>       0.00462963 </v>
   <v>       0.00462963 </v>
   <v>       0.00462963 </v>
   <v>       0.00462963 </v>
   <v>       0.00231481 </v>
   <v>       0.00231481 </v>
   <v>       0.00462963 </v>
   <v>       0.00462963 </v>
   <v>       0.00462963 </v>
   <v>       0.00462963 </v>
   <v>       0.00462963 </v>
   <v>       0.00462963 </v>
   <v>       0.00462963 </v>
   <v>       0.00462963 </v>
   <v>       0.00462963 </v>
   <v>       0.00462963 </v>
   <v>       0.00462963 </v>
   <v>       0.00231481 </v>
   <v>       0.00231481 </v>
   <v>       0.00462963 </v>
   <v>       0.00462963 </v>
   <v>       0.00462963 </v>
   <v>       0.00462963 </v>
   <v>       0.00462963 </v>
   <v>       0.00462963 </v>
   <v>       0.00462963 </v>
   <v>       0.00462963 </v>
   <v>       0.00462963 </v>
   <v>       0.00462963 </v>
   <v>       0.00462963 </v>
   <v>       0.00231481 </v>
   <v>       0.00231481 </v>
   <v>       0.00462963 </v>
   <v>       0.00462963 </v>
   <v>       0.00462963 </v>
   <v>       0.00462963 </v>
   <v>       0.00462963 </v>
   <v>       0.00462963 </v>
   <v>       0.00462963 </v>
   <v>       0.00462963 </v>
   <v>       0.00462963 </v>
   <v>       0.00462963 </v>
   <v>       0.00462963 </v>
   <v>       0.00231481 </v>
   <v>       0.00231481 </v>
   <v>       0.00462963 </v>
   <v>       0.00462963 </v>
   <v>       0.00462963 </v>
   <v>       0.00462963 </v>
   <v>       0.00462963 </v>
   <v>       0.00462963 </v>
   <v>       0.00462963 </v>
   <v>       0.00462963 </v>
   <v>       0.00462963 </v>
   <v>       0.00462963 </v>
   <v>       0.00462963 </v>
   <v>       0.00231481 </v>
   <v>       0.00231481 </v>
   <v>       0.00462963 </v>
   <v>       0.00462963 </v>
   <v>       0.00462963 </v>
   <v>       0.00462963 </v>
   <v>       0.00462963 </v>
   <v>       0.00462963 </v>
   <v>       0.00462963 </v>
   <v>       0.00462963 </v>
   <v>       0.00462963 </v>
   <v>       0.00462963 </v>
   <v>       0.00462963 </v>
   <v>       0.00231481 </v>
   <v>       0.00231481 </v>
   <v>       0.00462963 </v>
   <v>       0.00462963 </v>
   <v>       0.00462963 </v>
   <v>       0.00462963 </v>
   <v>       0.00462963 </v>
   <v>       0.00462963 </v>
   <v>       0.00462963 </v>
   <v>       0.00462963 </v>
   <v>       0.00462963 </v>
   <v>       0.00462963 </v>
   <v>       0.00462963 </v>
   <v>       0.00231481 </v>
   <v>       0.00115741 </v>
   <v>       0.00231481 </v>
   <v>       0.00231481 </v>
   <v>       0.00231481 </v>
   <v>       0.00231481 </v>
   <v>       0.00231481 </v>
   <v>       0.00231481 </v>
   <v>       0.00231481 </v>
   <v>       0.00231481 </v>
   <v>       0.00231481 </v>
   <v>       0.00231481 </v>
   <v>       0.00231481 </v>
   <v>       0.00115741 </v>
  </varray>
 </kpoints>
 <parameters>
  <separator name="general" >
   <i type="string" name="SYSTEM">gr</i>
   <i type="logical" name="LCOMPAT"> F  </i>
  </separator>
  <separator name="electronic" >
   <i type="string" name="PREC">accura</i>
   <i name="ENMAX">   2000.00000000</i>
   <i name="ENAUG">    644.87300000</i>
   <i name="EDIFF">      0.00000000</i>
   <i type="int" name="IALGO">    68</i>
   <i type="int" name="IWAVPR">    11</i>
   <i type="int" name="NBANDS">    12</i>
   <i name="NELECT">     16.00000000</i>
   <i type="int" name="TURBO">     0</i>
   <i type="int" name="IRESTART">     0</i>
   <i type="int" name="NREBOOT">     0</i>
   <i type="int" name="NMIN">     0</i>
   <i name="EREF">      0.00000000</i>
   <separator name="electronic smearing" >
    <i type="int" name="ISMEAR">     0</i>
    <i name="SIGMA">      0.05000000</i>
    <i name="KSPACING">      0.50000000</i>
    <i type="logical" name="KGAMMA"> T  </i>
   </separator>
   <separator name="electronic projectors" >
    <i type="logical" name="LREAL"> F  </i>
    <v name="ROPT">      0.00000000</v>
    <i type="int" name="LMAXPAW">  -100</i>
    <i type="int" name="LMAXMIX">     2</i>
    <i type="logical" name="NLSPLINE"> F  </i>
   </separator>
   <separator name="electronic startup" >
    <i type="int" name="ISTART">     0</i>
    <i type="int" name="ICHARG">     2</i>
    <i type="int" name="INIWAV">     1</i>
   </separator>
   <separator name="electronic spin" >
    <i type="int" name="ISPIN">     1</i>
    <i type="logical" name="LNONCOLLINEAR"> F  </i>
    <v name="MAGMOM">      1.00000000      1.00000000      1.00000000      1.00000000</v>
    <i name="NUPDOWN">     -1.00000000</i>
    <i type="logical" name="LSORBIT"> F  </i>
    <v name="SAXIS">      0.00000000      0.00000000      1.00000000</v>
    <i type="logical" name="LSPIRAL"> F  </i>
    <v name="QSPIRAL">      0.00000000      0.00000000      0.00000000</v>
    <i type="logical" name="LZEROZ"> F  </i>
   </separator>
   <separator name="electronic exchange-correlation" >
    <i type="logical" name="LASPH"> F  </i>
    <i type="logical" name="LMETAGGA"> F  </i>
   </separator>
   <separator name="electronic convergence" >
    <i type="int" name="NELM">   100</i>
    <i type="int" name="NELMDL">    -3</i>
    <i type="int" name="NELMIN">     5</i>
    <i name="ENINI">   2000.00000000</i>
    <separator name="electronic convergence detail" >
     <i type="logical" name="LDIAG"> T  </i>
     <i type="logical" name="LSUBROT"> F  </i>
     <i name="WEIMIN">      0.00100000</i>
     <i name="EBREAK">      0.00000000</i>
     <i name="DEPER">      0.30000000</i>
     <i type="int" name="NRMM">     4</i>
     <i name="TIME">      0.40000000</i>
    </separator>
   </separator>
   <separator name="electronic mixer" >
    <i name="AMIX">      0.40000000</i>
    <i name="BMIX">      1.00000000</i>
    <i name="AMIN">      0.10000000</i>
    <i name="AMIX_MAG">      1.60000000</i>
    <i name="BMIX_MAG">      1.00000000</i>
    <separator name="electronic mixer details" >
     <i type="int" name="IMIX">     4</i>
     <i type="int" name="MAXMIX">   -45</i>
     <i name="WC">    100.00000000</i>
     <i type="int" name="INIMIX">     1</i>
     <i type="int" name="MIXPRE">     1</i>
     <i type="int" name="MREMOVE">     5</i>
    </separator>
   </separator>
   <separator name="electronic dipolcorrection" >
    <i type="logical" name="LDIPOL"> F  </i>
    <i type="logical" name="LMONO"> F  </i>
    <i type="int" name="IDIPOL">     0</i>
    <i name="EPSILON">      1.00000000</i>
    <v name="DIPOL">   -100.00000000   -100.00000000   -100.00000000</v>
    <i name="EFIELD">      0.00000000</i>
   </separator>
  </separator>
  <separator name="grids" >
   <i type="int" name="NGX">    64</i>
   <i type="int" name="NGY">    40</i>
   <i type="int" name="NGZ">   288</i>
   <i type="int" name="NGXF">   128</i>
   <i type="int" name="NGYF">    80</i>
   <i type="int" name="NGZF">   576</i>
   <i type="logical" name="ADDGRID"> F  </i>
  </separator>
  <separator name="ionic" >
   <i type="int" name="NSW">   400</i>
   <i type="int" name="IBRION">     1</i>
   <i type="int" name="ISIF">     2</i>
   <i name="PSTRESS">      0.00000000</i>
   <i name="EDIFFG">     -0.00000100</i>
   <i type="int" name="NFREE">     0</i>
   <i name="POTIM">      0.50000000</i>
   <i name="SMASS">     -3.00000000</i>
   <i name="SCALEE">      1.00000000</i>
  </separator>
  <separator name="ionic md" >
   <i name="TEBEG">      0.00010000</i>
   <i name="TEEND">      0.00010000</i>
   <i type="int" name="NBLOCK">     1</i>
   <i type="int" name="KBLOCK">   400</i>
   <i type="int" name="NPACO">   256</i>
   <i name="APACO">     16.00000000</i>
  </separator>
  <separator name="symmetry" >
   <i type="int" name="ISYM">     2</i>
   <i name="SYMPREC">      0.00001000</i>
  </separator>
  <separator name="dos" >
   <i type="logical" name="LORBIT"> F  </i>
   <v name="RWIGS">     -1.00000000</v>
   <i type="int" name="NEDOS">   301</i>
   <i name="EMIN">     10.00000000</i>
   <i name="EMAX">    -10.00000000</i>
   <i name="EFERMI">      0.00000000</i>
  </separator>
  <separator name="writing" >
   <i type="int" name="NWRITE">     2</i>
   <i type="logical" name="LWAVE"> F  </i>
   <i type="logical" name="LCHARG"> F  </i>
   <i type="logical" name="LPARD"> F  </i>
   <i type="logical" name="LVTOT"> F  </i>
   <i type="logical" name="LVHAR"> F  </i>
   <i type="logical" name="LELF"> F  </i>
   <i type="logical" name="LOPTICS"> F  </i>
   <v name="STM">      0.00000000      0.00000000      0.00000000      0.00000000      0.00000000      0.00000000      0.00000000</v>
  </separator>
  <separator name="performance" >
   <i type="int" name="NPAR">     4</i>
   <i type="int" name="NSIM">     4</i>
   <i type="int" name="NBLK">    -1</i>
   <i type="logical" name="LPLANE"> T  </i>
   <i type="logical" name="LSCALAPACK"> F  </i>
   <i type="logical" name="LSCAAWARE"> F  </i>
   <i type="logical" name="LSCALU"> F  </i>
   <i type="logical" name="LASYNC"> F  </i>
   <i type="logical" name="LORBITALREAL"> F  </i>
  </separator>
  <separator name="miscellaneous" >
   <i type="int" name="IDIOT">     3</i>
   <i type="logical" name="LMUSIC"> F  </i>
   <v name="POMASS">     12.01100000</v>
   <v name="DARWINR">      0.00000000</v>
   <v name="DARWINV">      1.00000000</v>
   <i type="logical" name="LCORR"> T  </i>
  </separator>
  <i type="logical" name="GGA_COMPAT"> T  </i>
  <i type="logical" name="LBERRY"> F  </i>
  <i type="int" name="ICORELEVEL">     0</i>
  <i type="logical" name="LDAU"> F  </i>
  <i type="int" name="I_CONSTRAINED_M">     0</i>
  <separator name="electronic exchange-correlation" >
   <i type="string" name="GGA">--</i>
   <i type="int" name="VOSKOWN">     0</i>
   <i type="logical" name="LHFCALC"> F  </i>
   <i type="string" name="PRECFOCK"></i>
   <i type="logical" name="LSYMGRAD"> F  </i>
   <i type="logical" name="LHFONE"> F  </i>
   <i type="logical" name="LRHFCALC"> F  </i>
   <i type="logical" name="LTHOMAS"> F  </i>
   <i type="logical" name="LMODELHF"> F  </i>
   <i name="ENCUT4O">     -1.00000000</i>
   <i type="int" name="EXXOEP">     0</i>
   <i type="int" name="FOURORBIT">     0</i>
   <i name="AEXX">      0.00000000</i>
   <i name="HFALPHA">      0.00000000</i>
   <i name="MCALPHA">      0.00000000</i>
   <i name="ALDAX">      1.00000000</i>
   <i name="AGGAX">      1.00000000</i>
   <i name="ALDAC">      1.00000000</i>
   <i name="AGGAC">      1.00000000</i>
   <i type="int" name="NKREDX">     1</i>
   <i type="int" name="NKREDY">     1</i>
   <i type="int" name="NKREDZ">     1</i>
   <i type="logical" name="SHIFTRED"> F  </i>
   <i type="logical" name="ODDONLY"> F  </i>
   <i type="logical" name="EVENONLY"> F  </i>
   <i type="int" name="LMAXFOCK">     0</i>
   <i type="int" name="NMAXFOCKAE">     0</i>
   <i type="logical" name="LFOCKAEDFT"> F  </i>
   <i name="HFSCREEN">      0.00000000</i>
   <i name="HFSCREENC">      0.00000000</i>
   <i type="int" name="NBANDSGWLOW">     0</i>
  </separator>
  <separator name="vdW DFT" >
   <i type="logical" name="LUSE_VDW"> F  </i>
   <i name="Zab_VDW">     -0.84910000</i>
   <i name="PARAM1">      0.12340000</i>
   <i name="PARAM2">      1.00000000</i>
   <i name="PARAM3">      0.00000000</i>
  </separator>
  <separator name="model GW" >
   <i type="int" name="MODEL_GW">     0</i>
   <i name="MODEL_EPS0">     31.62568521</i>
   <i name="MODEL_ALPHA">      1.00000000</i>
  </separator>
  <separator name="linear response parameters" >
   <i type="logical" name="LEPSILON"> F  </i>
   <i type="logical" name="LRPA"> F  </i>
   <i type="logical" name="LNABLA"> F  </i>
   <i type="logical" name="LVEL"> F  </i>
   <i type="int" name="KINTER">     0</i>
   <i name="CSHIFT">      0.10000000</i>
   <i name="OMEGAMAX">     -1.00000000</i>
   <i name="DEG_THRESHOLD">      0.00200000</i>
  </separator>
  <separator name="orbital magnetization" >
   <i type="logical" name="NUCIND"> F  </i>
   <v name="MAGPOS">      0.00000000      0.00000000      0.00000000</v>
   <i type="logical" name="LNICSALL"> T  </i>
   <i type="logical" name="ORBITALMAG"> F  </i>
   <i type="logical" name="LMAGBLOCH"> F  </i>
   <i type="logical" name="LCHIMAG"> F  </i>
   <i type="logical" name="LGAUGE"> T  </i>
   <i type="int" name="MAGATOM">     0</i>
   <v name="MAGDIPOL">      0.00000000      0.00000000      0.00000000</v>
   <v name="AVECCONST">      0.00000000      0.00000000      0.00000000</v>
  </separator>
  <separator name="response functions" >
   <i type="logical" name="LADDER"> F  </i>
   <i type="logical" name="LFXC"> F  </i>
   <i type="logical" name="LHARTREE"> T  </i>
   <i type="int" name="IBSE">     0</i>
   <i type="logical" name="LTCTE"> F  </i>
   <i type="logical" name="LTETE"> F  </i>
   <i type="logical" name="LTRIPLET"> F  </i>
   <i type="logical" name="LFXCEPS"> F  </i>
   <i type="logical" name="LFXHEG"> F  </i>
   <i type="logical" name="L2ORDER"> F  </i>
   <i type="logical" name="LUSEW"> F  </i>
   <i name="ENCUTGW">     -2.00000000</i>
   <i name="ENCUTGWSOFT">     -2.00000000</i>
   <i name="ENCUTLF">     -1.00000000</i>
   <i type="int" name="LMAXMP2">    -1</i>
   <i name="SCISSOR">      0.00000000</i>
   <i type="int" name="NOMEGA">     0</i>
   <i type="int" name="NOMEGAR">     0</i>
   <i type="int" name="NBANDSGW">    -1</i>
   <i type="int" name="NBANDSO">    -1</i>
   <i type="int" name="NBANDSV">    -1</i>
   <i type="int" name="NELM">   100</i>
   <i type="int" name="DIM">     3</i>
   <i type="int" name="ANTIRES">     0</i>
   <i name="OMEGAMAX">    -30.00000000</i>
   <i name="OMEGAMIN">    -30.00000000</i>
   <i name="OMEGATL">   -200.00000000</i>
   <i type="int" name="OMEGAGRID">     0</i>
   <i name="CSHIFT">     -0.10000000</i>
   <i type="logical" name="SELFENERGY"> F  </i>
   <i type="logical" name="LSPECTRAL"> F  </i>
   <i type="logical" name="ODDONLYGW"> F  </i>
   <i type="logical" name="EVENONLYGW"> F  </i>
   <i type="int" name="NKREDLFX">     1</i>
   <i type="int" name="NKREDLFY">     1</i>
   <i type="int" name="NKREDLFZ">     1</i>
   <i type="int" name="MAXMEM">  1800</i>
   <i type="int" name="TELESCOPE">     0</i>
   <i type="int" name="TAUPAR">     1</i>
  </separator>
  <separator name="External order field" >
   <i name="OFIELD_KAPPA">      0.00000000</i>
   <v name="OFIELD_K">      0.00000000      0.00000000      0.00000000</v>
   <i name="OFIELD_Q6_NEAR">      0.00000000</i>
   <i name="OFIELD_Q6_FAR">      0.00000000</i>
   <i name="OFIELD_A">      0.00000000</i>
  </separator>
 </parameters>
 <atominfo>
  <atoms>       4 </atoms>
  <types>       1 </types>
  <array name="atoms" >
   <dimension dim="1">ion</dimension>
   <field type="string">element</field>
   <field type="int">atomtype</field>
   <set>
    <rc><c>C </c><c>   1</c></rc>
    <rc><c>C </c><c>   1</c></rc>
    <rc><c>C </c><c>   1</c></rc>
    <rc><c>C </c><c>   1</c></rc>
   </set>
  </array>
  <array name="atomtypes" >
   <dimension dim="1">type</dimension>
   <field type="int">atomspertype</field>
   <field type="string">element</field>
   <field>mass</field>
   <field>valence</field>
   <field type="string">pseudopotential</field>
   <set>
    <rc><c>   4</c><c>C </c><c>     12.01100000</c><c>      4.00000000</c><c> PAW_PBE C 08Apr2002                    </c></rc>
   </set>
  </array>
 </atominfo>
 <structure name="initialpos" >
  <crystal>
   <varray name="basis" >
    <v>       4.25175484       0.00000000       0.00000000 </v>
    <v>       0.00000000       2.54169206       0.00000000 </v>
    <v>       0.00000000       0.00000000      19.51001208 </v>
   </varray>
   <i name="volume">    210.83790140 </i>
   <varray name="rec_basis" >
    <v>       0.23519700       0.00000000       0.00000000 </v>
    <v>       0.00000000       0.39343869       0.00000000 </v>
    <v>       0.00000000       0.00000000       0.05125573 </v>
   </varray>
  </crystal>
  <varray name="positions" >
   <v>       0.00074775       0.00000000       0.00000000 </v>
   <v>       0.16591892       0.50000000       0.00000000 </v>
   <v>       0.50074775       0.50000000       0.00000000 </v>
   <v>       0.66591892       0.00000000       0.00000000 </v>
  </varray>
 </structure>
 <calculation>
  <scstep>
   <time name="dav">  315.48  316.09</time>
   <time name="total">  318.31  318.93</time>
   <energy>
    <i name="alphaZ">      6.18334092 </i>
    <i name="ewald">   2422.87851369 </i>
    <i name="hartreedc">  -2853.17284722 </i>
    <i name="XCdc">     54.76162764 </i>
    <i name="pawpsdc">    151.32577238 </i>
    <i name="pawaedc">   -155.92769107 </i>
    <i name="eentropy">     -0.00168075 </i>
    <i name="bandstr">    -28.22579858 </i>
    <i name="atom">    588.62352690 </i>
    <i name="e_fr_energy">    186.44476391 </i>
    <i name="e_wo_entrp">    186.44644466 </i>
    <i name="e_0_energy">    186.44560428 </i>
   </energy>
  </scstep>
  <scstep>
   <time name="dav">  480.58  481.92</time>
   <time name="total">  480.59  481.93</time>
   <energy>
    <i name="e_fr_energy">     -9.50945119 </i>
    <i name="e_wo_entrp">     -9.50914095 </i>
    <i name="e_0_energy">     -9.50929607 </i>
   </energy>
  </scstep>
  <scstep>
   <time name="dav">  367.77  369.18</time>
   <time name="total">  401.02  402.73</time>
   <energy>
    <i name="e_fr_energy">    -38.03783277 </i>
    <i name="e_wo_entrp">    -38.03783267 </i>
    <i name="e_0_energy">    -38.03783272 </i>
   </energy>
  </scstep>
  <scstep>
   <time name="diag">   86.88   87.15</time>
   <time name="diis">  370.87  371.93</time>
   <time name="orth">    3.06    3.10</time>
   <time name="total">  496.66  498.99</time>
   <energy>
    <i name="e_fr_energy">    -37.52765399 </i>
    <i name="e_wo_entrp">    -37.52765399 </i>
    <i name="e_0_energy">    -37.52765399 </i>
   </energy>
  </scstep>
  <scstep>
   <time name="diag">   86.37   87.17</time>
   <time name="diis">  367.74  369.84</time>
   <time name="orth">    3.08    3.08</time>
   <time name="total">  493.33  496.69</time>
   <energy>
    <i name="e_fr_energy">    -36.83667600 </i>
    <i name="e_wo_entrp">    -36.83667600 </i>
    <i name="e_0_energy">    -36.83667600 </i>
   </energy>
  </scstep>
  <scstep>
   <time name="diag">   86.95   87.13</time>
   <time name="diis">  405.32  408.07</time>
   <time name="orth">    3.08    3.08</time>
   <time name="total">  531.09  534.41</time>
   <energy>
    <i name="e_fr_energy">    -36.83918055 </i>
    <i name="e_wo_entrp">    -36.83918055 </i>
    <i name="e_0_energy">    -36.83918055 </i>
   </energy>
  </scstep>
  <scstep>
   <time name="diag">   87.02   87.19</time>
   <time name="diis">  367.23  367.69</time>
   <time name="orth">    3.08    3.10</time>
   <time name="total">  493.36  494.20</time>
   <energy>
    <i name="e_fr_energy">    -36.83051657 </i>
    <i name="e_wo_entrp">    -36.83051657 </i>
    <i name="e_0_energy">    -36.83051657 </i>
   </energy>
  </scstep>
  <scstep>
   <time name="diag">   86.73   87.17</time>
   <time name="diis">  368.58  371.50</time>
   <time name="orth">    3.07    3.10</time>
   <time name="total">  494.35  498.19</time>
   <energy>
    <i name="e_fr_energy">    -36.82598469 </i>
    <i name="e_wo_entrp">    -36.82598468 </i>
    <i name="e_0_energy">    -36.82598468 </i>
   </energy>
  </scstep>
  <scstep>
   <time name="diag">   86.91   87.12</time>
   <time name="diis">  349.87  352.33</time>
   <time name="orth">    3.08    3.08</time>
   <time name="total">  475.92  478.84</time>
   <energy>
    <i name="e_fr_energy">    -36.82582158 </i>
    <i name="e_wo_entrp">    -36.82582158 </i>
    <i name="e_0_energy">    -36.82582158 </i>
   </energy>
  </scstep>
  <scstep>
   <time name="diag">   86.64   87.10</time>
   <time name="diis">  352.80  353.43</time>
   <time name="orth">    3.09    3.09</time>
   <time name="total">  478.46  479.68</time>
   <energy>
    <i name="e_fr_energy">    -36.82574436 </i>
    <i name="e_wo_entrp">    -36.82574436 </i>
    <i name="e_0_energy">    -36.82574436 </i>
   </energy>
  </scstep>
  <scstep>
   <time name="diag">   86.20   87.09</time>
   <time name="diis">  352.14  355.12</time>
   <time name="orth">    3.10    3.11</time>
   <time name="total">  477.29  481.50</time>
   <energy>
    <i name="e_fr_energy">    -36.82796926 </i>
    <i name="e_wo_entrp">    -36.82796926 </i>
    <i name="e_0_energy">    -36.82796926 </i>
   </energy>
  </scstep>
  <scstep>
   <time name="diag">   86.42   87.11</time>
   <time name="diis">  355.62  356.21</time>
   <time name="orth">    3.09    3.09</time>
   <time name="total">  480.98  482.33</time>
   <energy>
    <i name="e_fr_energy">    -36.82845138 </i>
    <i name="e_wo_entrp">    -36.82845138 </i>
    <i name="e_0_energy">    -36.82845138 </i>
   </energy>
  </scstep>
  <scstep>
   <time name="diag">   86.88   87.07</time>
   <time name="diis">  363.25  363.58</time>
   <time name="orth">    3.14    3.17</time>
   <time name="total">  489.44  490.25</time>
   <energy>
    <i name="e_fr_energy">    -36.82871779 </i>
    <i name="e_wo_entrp">    -36.82871779 </i>
    <i name="e_0_energy">    -36.82871779 </i>
   </energy>
  </scstep>
  <scstep>
   <time name="diag">   86.86   87.10</time>
   <time name="diis">  355.05  357.89</time>
   <time name="orth">    3.10    3.10</time>
   <time name="total">  481.01  484.43</time>
   <energy>
    <i name="e_fr_energy">    -36.82879839 </i>
    <i name="e_wo_entrp">    -36.82879839 </i>
    <i name="e_0_energy">    -36.82879839 </i>
   </energy>
  </scstep>
  <scstep>
   <time name="diag">   86.92   87.04</time>
   <time name="diis">  354.17  354.29</time>
   <time name="orth">    3.08    3.08</time>
   <time name="total">  480.12  480.40</time>
   <energy>
    <i name="e_fr_energy">    -36.82881039 </i>
    <i name="e_wo_entrp">    -36.82881039 </i>
    <i name="e_0_energy">    -36.82881039 </i>
   </energy>
  </scstep>
  <scstep>
   <time name="diag">   86.97   87.00</time>
   <time name="diis">  352.86  353.02</time>
   <time name="orth">    3.10    3.10</time>
   <time name="total">  478.89  479.11</time>
   <energy>
    <i name="e_fr_energy">    -36.82882447 </i>
    <i name="e_wo_entrp">    -36.82882447 </i>
    <i name="e_0_energy">    -36.82882447 </i>
   </energy>
  </scstep>
  <scstep>
   <time name="diag">   87.00   87.04</time>
   <time name="diis">  361.71  361.82</time>
   <time name="orth">    3.10    3.10</time>
   <time name="total">  487.90  488.49</time>
   <energy>
    <i name="e_fr_energy">    -36.82883036 </i>
    <i name="e_wo_entrp">    -36.82883036 </i>
    <i name="e_0_energy">    -36.82883036 </i>
   </energy>
  </scstep>
  <scstep>
   <time name="diag">   87.02   87.05</time>
   <time name="diis">  351.34  351.52</time>
   <time name="orth">    3.08    3.08</time>
   <time name="total">  477.64  477.88</time>
   <energy>
    <i name="e_fr_energy">    -36.82883145 </i>
    <i name="e_wo_entrp">    -36.82883144 </i>
    <i name="e_0_energy">    -36.82883145 </i>
   </energy>
  </scstep>
  <scstep>
   <time name="diag">   87.00   87.04</time>
   <time name="diis">  357.26  357.34</time>
   <time name="orth">    3.08    3.08</time>
   <time name="total">  483.48  484.16</time>
   <energy>
    <i name="e_fr_energy">    -36.82883213 </i>
    <i name="e_wo_entrp">    -36.82883212 </i>
    <i name="e_0_energy">    -36.82883212 </i>
   </energy>
  </scstep>
  <scstep>
   <time name="diag">   87.01   87.07</time>
   <time name="diis">  274.03  274.24</time>
   <time name="orth">    3.08    3.08</time>
   <time name="total">  400.18  400.55</time>
   <energy>
    <i name="e_fr_energy">    -36.82883217 </i>
    <i name="e_wo_entrp">    -36.82883217 </i>
    <i name="e_0_energy">    -36.82883217 </i>
   </energy>
  </scstep>
  <scstep>
   <time name="diag">   86.97   87.05</time>
   <time name="diis">  264.85  264.97</time>
   <time name="orth">    3.10    3.10</time>
   <time name="total">  390.87  391.33</time>
   <energy>
    <i name="e_fr_energy">    -36.82883218 </i>
    <i name="e_wo_entrp">    -36.82883218 </i>
    <i name="e_0_energy">    -36.82883218 </i>
   </energy>
  </scstep>
  <scstep>
   <time name="diag">   86.74   86.99</time>
   <time name="diis">  243.62  244.46</time>
   <time name="orth">    3.10    3.10</time>
   <time name="total">  369.52  370.68</time>
   <energy>
    <i name="e_fr_energy">    -36.82883218 </i>
    <i name="e_wo_entrp">    -36.82883218 </i>
    <i name="e_0_energy">    -36.82883218 </i>
   </energy>
  </scstep>
  <scstep>
   <time name="diag">   86.93   86.97</time>
   <time name="diis">  234.54  234.63</time>
   <time name="orth">    3.10    3.10</time>
   <time name="total">  360.77  360.91</time>
   <energy>
    <i name="e_fr_energy">    -36.82883218 </i>
    <i name="e_wo_entrp">    -36.82883218 </i>
    <i name="e_0_energy">    -36.82883218 </i>
   </energy>
  </scstep>
  <scstep>
   <time name="diag">   86.76   87.04</time>
   <time name="diis">  219.43  220.18</time>
   <time name="orth">    3.08    3.08</time>
   <time name="total">  345.37  346.49</time>
   <energy>
    <i name="e_fr_energy">    -36.82883218 </i>
    <i name="e_wo_entrp">    -36.82883218 </i>
    <i name="e_0_energy">    -36.82883218 </i>
   </energy>
  </scstep>
  <scstep>
   <time name="diag">   86.75   87.03</time>
   <time name="diis">  208.62  209.60</time>
   <time name="orth">    3.08    3.08</time>
   <time name="total">  301.27  302.53</time>
   <energy>
    <i name="alphaZ">      6.18334092 </i>
    <i name="ewald">   2422.87851369 </i>
    <i name="hartreedc">  -2917.22906591 </i>
    <i name="XCdc">     57.06627796 </i>
    <i name="pawpsdc">    267.22125501 </i>
    <i name="pawaedc">   -272.32558172 </i>
    <i name="eentropy">     -0.00000000 </i>
    <i name="bandstr">   -189.24709903 </i>
    <i name="atom">    588.62352690 </i>
    <i name="e_fr_energy">    -36.82883218 </i>
    <i name="e_wo_entrp">    -36.82883218 </i>
    <i name="e_0_energy">    -36.82883218 </i>
   </energy>
  </scstep>
  <structure>
   <crystal>
    <varray name="basis" >
     <v>       4.25175484       0.00000000       0.00000000 </v>
     <v>       0.00000000       2.54169206       0.00000000 </v>
     <v>       0.00000000       0.00000000      19.51001208 </v>
    </varray>
    <i name="volume">    210.83790140 </i>
    <varray name="rec_basis" >
     <v>       0.23519700       0.00000000       0.00000000 </v>
     <v>       0.00000000       0.39343869       0.00000000 </v>
     <v>       0.00000000       0.00000000       0.05125573 </v>
    </varray>
   </crystal>
   <varray name="positions" >
    <v>       0.00074775       0.00000000       0.00000000 </v>
    <v>       0.16591892       0.50000000       0.00000000 </v>
    <v>       0.50074775       0.50000000       0.00000000 </v>
    <v>       0.66591892       0.00000000       0.00000000 </v>
   </varray>
  </structure>
  <varray name="forces" >
   <v>       0.00093612       0.00000000       0.00000000 </v>
   <v>      -0.00093612      -0.00000000      -0.00000000 </v>
   <v>       0.00093612       0.00000000       0.00000000 </v>
   <v>      -0.00093612      -0.00000000      -0.00000000 </v>
  </varray>
  <varray name="stress" >
   <v>       0.00590126       0.00000000       0.00000000 </v>
   <v>       0.00000000     -48.91935263       0.00000000 </v>
   <v>       0.00000000       0.00000000      -0.01006331 </v>
  </varray>
  <energy>
   <i name="e_fr_energy">    -36.82883218 </i>
   <i name="e_wo_entrp">    -36.82883218 </i>
   <i name="e_0_energy">     -0.00000000 </i>
  </energy>
  <time name="totalsc">11272.8911311.82</time>
 </calculation>
 <calculation>
  <scstep>
   <time name="dav">  333.10  333.52</time>
   <time name="total">  369.22  369.66</time>
   <energy>
    <i name="alphaZ">      6.18334092 </i>
    <i name="ewald">   2422.87736538 </i>
    <i name="hartreedc">  -2917.22856284 </i>
    <i name="XCdc">     57.06624492 </i>
    <i name="pawpsdc">    267.22125336 </i>
    <i name="pawaedc">   -272.32558000 </i>
    <i name="eentropy">     -0.00000000 </i>
    <i name="bandstr">   -189.24642057 </i>
    <i name="atom">    588.62352690 </i>
    <i name="e_fr_energy">    -36.82883192 </i>
    <i name="e_wo_entrp">    -36.82883192 </i>
    <i name="e_0_energy">    -36.82883192 </i>
   </energy>
  </scstep>
  <scstep>
   <time name="diag">   86.29   87.05</time>
   <time name="diis">  351.04  352.99</time>
   <time name="orth">    3.08    3.10</time>
   <time name="total">  476.32  479.46</time>
   <energy>
    <i name="e_fr_energy">    -36.82883194 </i>
    <i name="e_wo_entrp">    -36.82883194 </i>
    <i name="e_0_energy">    -36.82883194 </i>
   </energy>
  </scstep>
  <scstep>
   <time name="diag">   86.39   87.09</time>
   <time name="diis">  353.71  356.87</time>
   <time name="orth">    3.08    3.08</time>
   <time name="total">  479.15  483.35</time>
   <energy>
    <i name="e_fr_energy">    -36.82883192 </i>
    <i name="e_wo_entrp">    -36.82883192 </i>
    <i name="e_0_energy">    -36.82883192 </i>
   </energy>
  </scstep>
  <scstep>
   <time name="diag">   86.43   87.09</time>
   <time name="diis">  359.17  359.73</time>
   <time name="orth">    3.09    3.10</time>
   <time name="total">  484.99  486.29</time>
   <energy>
    <i name="e_fr_energy">    -36.82883192 </i>
    <i name="e_wo_entrp">    -36.82883192 </i>
    <i name="e_0_energy">    -36.82883192 </i>
   </energy>
  </scstep>
  <scstep>
   <time name="diag">   86.76   87.11</time>
   <time name="diis">  266.29  267.27</time>
   <time name="orth">    3.08    3.08</time>
   <time name="total">  392.10  393.80</time>
   <energy>
    <i name="e_fr_energy">    -36.82883192 </i>
    <i name="e_wo_entrp">    -36.82883192 </i>
    <i name="e_0_energy">    -36.82883192 </i>
   </energy>
  </scstep>
  <scstep>
   <time name="diag">   86.56   87.09</time>
   <time name="diis">  236.45  236.98</time>
   <time name="orth">    3.10    3.10</time>
   <time name="total">  328.80  330.17</time>
   <energy>
    <i name="alphaZ">      6.18334092 </i>
    <i name="ewald">   2422.87736538 </i>
    <i name="hartreedc">  -2917.22812039 </i>
    <i name="XCdc">     57.06622571 </i>
    <i name="pawpsdc">    267.21927900 </i>
    <i name="pawaedc">   -272.32359712 </i>
    <i name="eentropy">     -0.00000000 </i>
    <i name="bandstr">   -189.24685233 </i>
    <i name="atom">    588.62352690 </i>
    <i name="e_fr_energy">    -36.82883192 </i>
    <i name="e_wo_entrp">    -36.82883192 </i>
    <i name="e_0_energy">    -36.82883192 </i>
   </energy>
  </scstep>
  <structure>
   <crystal>
    <varray name="basis" >
     <v>       4.25175484       0.00000000       0.00000000 </v>
     <v>       0.00000000       2.54169206       0.00000000 </v>
     <v>       0.00000000       0.00000000      19.51001208 </v>
    </varray>
    <i name="volume">    210.83790140 </i>
    <varray name="rec_basis" >
     <v>       0.23519700       0.00000000       0.00000000 </v>
     <v>       0.00000000       0.39343869       0.00000000 </v>
     <v>       0.00000000       0.00000000       0.05125573 </v>
    </varray>
   </crystal>
   <varray name="positions" >
    <v>       0.00075837       0.00000000       0.00000000 </v>
    <v>       0.16590830       0.50000000      -0.00000000 </v>
    <v>       0.50075837       0.50000000       0.00000000 </v>
    <v>       0.66590830      -0.00000000      -0.00000000 </v>
   </varray>
  </structure>
  <varray name="forces" >
   <v>      -0.00369273      -0.00000000       0.00000000 </v>
   <v>       0.00369273       0.00000000       0.00000000 </v>
   <v>      -0.00369273      -0.00000000       0.00000000 </v>
   <v>       0.00369273       0.00000000       0.00000000 </v>
  </varray>
  <varray name="stress" >
   <v>      -0.01302682       0.00000000       0.00000000 </v>
   <v>       0.00000000     -48.90935270       0.00000000 </v>
   <v>       0.00000000       0.00000000      -0.01012300 </v>
  </varray>
  <energy>
   <i name="e_fr_energy">    -36.82883192 </i>
   <i name="e_wo_entrp">    -36.82883192 </i>
   <i name="e_0_energy">     -0.00000000 </i>
  </energy>
  <time name="totalsc"> 2636.43 2649.75</time>
 </calculation>
 <calculation>
  <scstep>
   <time name="dav">  353.02  354.62</time>
   <time name="total">  389.29  391.01</time>
   <energy>
    <i name="alphaZ">      6.18334092 </i>
    <i name="ewald">   2422.87828123 </i>
    <i name="hartreedc">  -2917.22850314 </i>
    <i name="XCdc">     57.06625152 </i>
    <i name="pawpsdc">    267.21927148 </i>
    <i name="pawaedc">   -272.32358945 </i>
    <i name="eentropy">     -0.00000000 </i>
    <i name="bandstr">   -189.24741166 </i>
    <i name="atom">    588.62352690 </i>
    <i name="e_fr_energy">    -36.82883218 </i>
    <i name="e_wo_entrp">    -36.82883218 </i>
    <i name="e_0_energy">    -36.82883218 </i>
   </energy>
  </scstep>
  <scstep>
   <time name="diag">   86.64   87.09</time>
   <time name="diis">  353.18  353.82</time>
   <time name="orth">    3.12    3.12</time>
   <time name="total">  479.20  480.32</time>
   <energy>
    <i name="e_fr_energy">    -36.82883220 </i>
    <i name="e_wo_entrp">    -36.82883220 </i>
    <i name="e_0_energy">    -36.82883220 </i>
   </energy>
  </scstep>
  <scstep>
   <time name="diag">   87.03   87.08</time>
   <time name="diis">  356.49  356.97</time>
   <time name="orth">    3.08    3.10</time>
   <time name="total">  482.91  483.88</time>
   <energy>
    <i name="e_fr_energy">    -36.82883220 </i>
    <i name="e_wo_entrp">    -36.82883220 </i>
    <i name="e_0_energy">    -36.82883220 </i>
   </energy>
  </scstep>
  <scstep>
   <time name="diag">   87.05   87.07</time>
   <time name="diis">  358.79  358.91</time>
   <time name="orth">    3.10    3.10</time>
   <time name="total">  484.98  485.15</time>
   <energy>
    <i name="e_fr_energy">    -36.82883220 </i>
    <i name="e_wo_entrp">    -36.82883219 </i>
    <i name="e_0_energy">    -36.82883219 </i>
   </energy>
  </scstep>
  <scstep>
   <time name="diag">   87.09   87.10</time>
   <time name="diis">  252.82  252.89</time>
   <time name="orth">    3.10    3.10</time>
   <time name="total">  379.20  379.33</time>
   <energy>
    <i name="e_fr_energy">    -36.82883220 </i>
    <i name="e_wo_entrp">    -36.82883220 </i>
    <i name="e_0_energy">    -36.82883220 </i>
   </energy>
  </scstep>
  <scstep>
   <time name="diag">   87.02   87.08</time>
   <time name="diis">  233.96  234.13</time>
   <time name="orth">    3.10    3.10</time>
   <time name="total">  326.80  327.02</time>
   <energy>
    <i name="alphaZ">      6.18334092 </i>
    <i name="ewald">   2422.87828123 </i>
    <i name="hartreedc">  -2917.22883723 </i>
    <i name="XCdc">     57.06626677 </i>
    <i name="pawpsdc">    267.22085732 </i>
    <i name="pawaedc">   -272.32518218 </i>
    <i name="eentropy">     -0.00000000 </i>
    <i name="bandstr">   -189.24708594 </i>
    <i name="atom">    588.62352690 </i>
    <i name="e_fr_energy">    -36.82883220 </i>
    <i name="e_wo_entrp">    -36.82883220 </i>
    <i name="e_0_energy">    -36.82883220 </i>
   </energy>
  </scstep>
  <structure>
   <crystal>
    <varray name="basis" >
     <v>       4.25175484       0.00000000       0.00000000 </v>
     <v>       0.00000000       2.54169206       0.00000000 </v>
     <v>       0.00000000       0.00000000      19.51001208 </v>
    </varray>
    <i name="volume">    210.83790140 </i>
    <varray name="rec_basis" >
     <v>       0.23519700       0.00000000       0.00000000 </v>
     <v>       0.00000000       0.39343869       0.00000000 </v>
     <v>       0.00000000       0.00000000       0.05125573 </v>
    </varray>
   </crystal>
   <varray name="positions" >
    <v>       0.00074990       0.00000000       0.00000000 </v>
    <v>       0.16591677       0.50000000      -0.00000000 </v>
    <v>       0.50074990       0.50000000       0.00000000 </v>
    <v>       0.66591677      -0.00000000      -0.00000000 </v>
   </varray>
  </structure>
  <varray name="forces" >
   <v>      -0.00000704      -0.00000000      -0.00000000 </v>
   <v>       0.00000704       0.00000000       0.00000000 </v>
   <v>      -0.00000704      -0.00000000      -0.00000000 </v>
   <v>       0.00000704       0.00000000       0.00000000 </v>
  </varray>
  <varray name="stress" >
   <v>       0.00196312       0.00000000       0.00000000 </v>
   <v>       0.00000000     -48.91719427       0.00000000 </v>
   <v>       0.00000000       0.00000000      -0.01001030 </v>
  </varray>
  <energy>
   <i name="e_fr_energy">    -36.82883220 </i>
   <i name="e_wo_entrp">    -36.82883220 </i>
   <i name="e_0_energy">     -0.00000000 </i>
  </energy>
  <time name="totalsc"> 2648.74 2653.51</time>
 </calculation>
 <calculation>
  <scstep>
   <time name="dav">  286.20  286.37</time>
   <time name="total">  322.54  322.76</time>
   <energy>
    <i name="alphaZ">      6.18334092 </i>
    <i name="ewald">   2422.87828299 </i>
    <i name="hartreedc">  -2917.22884432 </i>
    <i name="XCdc">     57.06626704 </i>
    <i name="pawpsdc">    267.22086218 </i>
    <i name="pawaedc">   -272.32518711 </i>
    <i name="eentropy">     -0.00000000 </i>
    <i name="bandstr">   -189.24708080 </i>
    <i name="atom">    588.62352690 </i>
    <i name="e_fr_energy">    -36.82883220 </i>
    <i name="e_wo_entrp">    -36.82883219 </i>
    <i name="e_0_energy">    -36.82883220 </i>
   </energy>
  </scstep>
  <scstep>
   <time name="diag">   87.04   87.07</time>
   <time name="diis">  202.28  202.32</time>
   <time name="orth">    3.10    3.10</time>
   <time name="total">  328.66  328.75</time>
   <energy>
    <i name="e_fr_energy">    -36.82883220 </i>
    <i name="e_wo_entrp">    -36.82883220 </i>
    <i name="e_0_energy">    -36.82883220 </i>
   </energy>
  </scstep>
  <scstep>
   <time name="diag">   87.06   87.10</time>
   <time name="diis">  196.54  196.61</time>
   <time name="orth">    3.08    3.08</time>
   <time name="total">  322.92  323.04</time>
   <energy>
    <i name="e_fr_energy">    -36.82883220 </i>
    <i name="e_wo_entrp">    -36.82883220 </i>
    <i name="e_0_energy">    -36.82883220 </i>
   </energy>
  </scstep>
  <scstep>
   <time name="diag">   87.02   87.05</time>
   <time name="diis">  191.26  191.30</time>
   <time name="orth">    3.09    3.10</time>
   <time name="total">  317.53  317.61</time>
   <energy>
    <i name="e_fr_energy">    -36.82883220 </i>
    <i name="e_wo_entrp">    -36.82883220 </i>
    <i name="e_0_energy">    -36.82883220 </i>
   </energy>
  </scstep>
  <scstep>
   <time name="diag">   87.02   87.06</time>
   <time name="diis">  187.29  187.47</time>
   <time name="orth">    3.08    3.10</time>
   <time name="total">  280.11  280.36</time>
   <energy>
    <i name="alphaZ">      6.18334092 </i>
    <i name="ewald">   2422.87828299 </i>
    <i name="hartreedc">  -2917.22886387 </i>
    <i name="XCdc">     57.06626729 </i>
    <i name="pawpsdc">    267.22085811 </i>
    <i name="pawaedc">   -272.32518307 </i>
    <i name="eentropy">     -0.00000000 </i>
    <i name="bandstr">   -189.24706147 </i>
    <i name="atom">    588.62352690 </i>
    <i name="e_fr_energy">    -36.82883220 </i>
    <i name="e_wo_entrp">    -36.82883220 </i>
    <i name="e_0_energy">    -36.82883220 </i>
   </energy>
  </scstep>
  <structure>
   <crystal>
    <varray name="basis" >
     <v>       4.25175484       0.00000000       0.00000000 </v>
     <v>       0.00000000       2.54169206       0.00000000 </v>
     <v>       0.00000000       0.00000000      19.51001208 </v>
    </varray>
    <i name="volume">    210.83790140 </i>
    <varray name="rec_basis" >
     <v>       0.23519700       0.00000000       0.00000000 </v>
     <v>       0.00000000       0.39343869       0.00000000 </v>
     <v>       0.00000000       0.00000000       0.05125573 </v>
    </varray>
   </crystal>
   <varray name="positions" >
    <v>       0.00074988      -0.00000000      -0.00000000 </v>
    <v>       0.16591679       0.50000000       0.00000000 </v>
    <v>       0.50074988       0.50000000      -0.00000000 </v>
    <v>       0.66591679       0.00000000       0.00000000 </v>
   </varray>
  </structure>
  <varray name="forces" >
   <v>       0.00000894      -0.00000000       0.00000000 </v>
   <v>      -0.00000894       0.00000000      -0.00000000 </v>
   <v>       0.00000894      -0.00000000       0.00000000 </v>
   <v>      -0.00000894       0.00000000      -0.00000000 </v>
  </varray>
  <varray name="stress" >
   <v>       0.00211077       0.00000000       0.00000000 </v>
   <v>       0.00000000     -48.91733197       0.00000000 </v>
   <v>       0.00000000       0.00000000      -0.01004193 </v>
  </varray>
  <energy>
   <i name="e_fr_energy">    -36.82883220 </i>
   <i name="e_wo_entrp">    -36.82883220 </i>
   <i name="e_0_energy">     -0.00000000 </i>
  </energy>
  <time name="totalsc"> 1677.92 1679.12</time>
 </calculation>
 <calculation>
  <scstep>
   <time name="dav">  271.85  272.04</time>
   <time name="total">  308.36  308.55</time>
   <energy>
    <i name="alphaZ">      6.18334092 </i>
    <i name="ewald">   2422.87828201 </i>
    <i name="hartreedc">  -2917.22886456 </i>
    <i name="XCdc">     57.06626727 </i>
    <i name="pawpsdc">    267.22085804 </i>
    <i name="pawaedc">   -272.32518300 </i>
    <i name="eentropy">     -0.00000000 </i>
    <i name="bandstr">   -189.24705978 </i>
    <i name="atom">    588.62352690 </i>
    <i name="e_fr_energy">    -36.82883220 </i>
    <i name="e_wo_entrp">    -36.82883219 </i>
    <i name="e_0_energy">    -36.82883219 </i>
   </energy>
  </scstep>
  <scstep>
   <time name="diag">   87.06   87.09</time>
   <time name="diis">  163.78  163.87</time>
   <time name="orth">    3.10    3.10</time>
   <time name="total">  289.96  290.09</time>
   <energy>
    <i name="e_fr_energy">    -36.82883220 </i>
    <i name="e_wo_entrp">    -36.82883220 </i>
    <i name="e_0_energy">    -36.82883220 </i>
   </energy>
  </scstep>
  <scstep>
   <time name="diag">   87.07   87.09</time>
   <time name="diis">  163.61  163.67</time>
   <time name="orth">    3.10    3.10</time>
   <time name="total">  289.70  289.88</time>
   <energy>
    <i name="e_fr_energy">    -36.82883220 </i>
    <i name="e_wo_entrp">    -36.82883220 </i>
    <i name="e_0_energy">    -36.82883220 </i>
   </energy>
  </scstep>
  <scstep>
   <time name="diag">   86.64   87.08</time>
   <time name="diis">  162.80  162.95</time>
   <time name="orth">    3.10    3.10</time>
   <time name="total">  288.79  289.38</time>
   <energy>
    <i name="e_fr_energy">    -36.82883220 </i>
    <i name="e_wo_entrp">    -36.82883220 </i>
    <i name="e_0_energy">    -36.82883220 </i>
   </energy>
  </scstep>
  <scstep>
   <time name="diag">   87.05   87.07</time>
   <time name="diis">  163.88  163.93</time>
   <time name="orth">    3.10    3.10</time>
   <time name="total">  256.78  256.86</time>
   <energy>
    <i name="alphaZ">      6.18334092 </i>
    <i name="ewald">   2422.87828201 </i>
    <i name="hartreedc">  -2917.22886217 </i>
    <i name="XCdc">     57.06626717 </i>
    <i name="pawpsdc">    267.22085443 </i>
    <i name="pawaedc">   -272.32517936 </i>
    <i name="eentropy">     -0.00000000 </i>
    <i name="bandstr">   -189.24706209 </i>
    <i name="atom">    588.62352690 </i>
    <i name="e_fr_energy">    -36.82883220 </i>
    <i name="e_wo_entrp">    -36.82883220 </i>
    <i name="e_0_energy">    -36.82883220 </i>
   </energy>
  </scstep>
  <structure>
   <crystal>
    <varray name="basis" >
     <v>       4.25175484       0.00000000       0.00000000 </v>
     <v>       0.00000000       2.54169206       0.00000000 </v>
     <v>       0.00000000       0.00000000      19.51001208 </v>
    </varray>
    <i name="volume">    210.83790140 </i>
    <varray name="rec_basis" >
     <v>       0.23519700       0.00000000       0.00000000 </v>
     <v>       0.00000000       0.39343869       0.00000000 </v>
     <v>       0.00000000       0.00000000       0.05125573 </v>
    </varray>
   </crystal>
   <varray name="positions" >
    <v>       0.00074989      -0.00000000      -0.00000000 </v>
    <v>       0.16591678       0.50000000       0.00000000 </v>
    <v>       0.50074989       0.50000000      -0.00000000 </v>
    <v>       0.66591678       0.00000000       0.00000000 </v>
   </varray>
  </structure>
  <varray name="forces" >
   <v>       0.00000045       0.00000000       0.00000000 </v>
   <v>      -0.00000045       0.00000000      -0.00000000 </v>
   <v>       0.00000045      -0.00000000       0.00000000 </v>
   <v>      -0.00000045       0.00000000      -0.00000000 </v>
  </varray>
  <varray name="stress" >
   <v>       0.00207128       0.00000000       0.00000000 </v>
   <v>       0.00000000     -48.91729667       0.00000000 </v>
   <v>       0.00000000       0.00000000      -0.01006037 </v>
  </varray>
  <energy>
   <i name="e_fr_energy">    -36.82883220 </i>
   <i name="e_wo_entrp">    -36.82883220 </i>
   <i name="e_0_energy">     -0.00000000 </i>
  </energy>
  <time name="totalsc"> 1533.11 1534.36</time>
  <eigenvalues>
   <array>
    <dimension dim="1">band</dimension>
    <dimension dim="2">kpoint</dimension>
    <dimension dim="3">spin</dimension>
    <field>eigene</field>
    <field>occ</field>
    <set>
     <set comment="spin 1">
      <set comment="kpoint 1">
       <r>  -22.0465    1.0000 </r>
       <r>  -16.6407    1.0000 </r>
       <r>  -15.8444    1.0000 </r>
       <r>  -10.1991    1.0000 </r>
       <r>   -9.5310    1.0000 </r>
       <r>   -6.0250    1.0000 </r>
       <r>   -5.7391    1.0000 </r>
       <r>   -4.8630    1.0000 </r>
       <r>   -1.1609    0.0000 </r>
       <r>    0.5490    0.0000 </r>
       <r>    1.3465    0.0000 </r>
       <r>    1.7420    0.0000 </r>
      </set>
      <set comment="kpoint 2">
       <r>  -22.0361    1.0000 </r>
       <r>  -16.8446    1.0000 </r>
       <r>  -15.6255    1.0000 </r>
       <r>  -10.1867    1.0000 </r>
       <r>   -9.5206    1.0000 </r>
       <r>   -6.0490    1.0000 </r>
       <r>   -5.7787    1.0000 </r>
       <r>   -4.9340    1.0000 </r>
       <r>   -1.0754    0.0000 </r>
       <r>    0.5631    0.0000 </r>
       <r>    1.3607    0.0000 </r>
       <r>    1.7564    0.0000 </r>
      </set>
      <set comment="kpoint 3">
       <r>  -22.0050    1.0000 </r>
       <r>  -17.2172    1.0000 </r>
       <r>  -15.2081    1.0000 </r>
       <r>  -10.1498    1.0000 </r>
       <r>   -9.4892    1.0000 </r>
       <r>   -6.1196    1.0000 </r>
       <r>   -5.8963    1.0000 </r>
       <r>   -5.1293    1.0000 </r>
       <r>   -0.8367    0.0000 </r>
       <r>    0.6054    0.0000 </r>
       <r>    1.4033    0.0000 </r>
       <r>    1.7996    0.0000 </r>
      </set>
      <set comment="kpoint 4">
       <r>  -21.9530    1.0000 </r>
       <r>  -17.6133    1.0000 </r>
       <r>  -14.7378    1.0000 </r>
       <r>  -10.0883    1.0000 </r>
       <r>   -9.4372    1.0000 </r>
       <r>   -6.2328    1.0000 </r>
       <r>   -6.0878    1.0000 </r>
       <r>   -5.4108    1.0000 </r>
       <r>   -0.4834    0.0000 </r>
       <r>    0.6758    0.0000 </r>
       <r>    1.4744    0.0000 </r>
       <r>    1.8716    0.0000 </r>
      </set>
      <set comment="kpoint 5">
       <r>  -21.8803    1.0000 </r>
       <r>  -18.0049    1.0000 </r>
       <r>  -14.2429    1.0000 </r>
       <r>  -10.0023    1.0000 </r>
       <r>   -9.3647    1.0000 </r>
       <r>   -6.3828    1.0000 </r>
       <r>   -6.3471    1.0000 </r>
       <r>   -5.7427    1.0000 </r>
       <r>   -0.0522    0.0000 </r>
       <r>    0.7743    0.0000 </r>
       <r>    1.5739    0.0000 </r>
       <r>    1.9724    0.0000 </r>
      </set>
      <set comment="kpoint 6">
       <r>  -21.7870    1.0000 </r>
       <r>  -18.3844    1.0000 </r>
       <r>  -13.7318    1.0000 </r>
       <r>   -9.8920    1.0000 </r>
       <r>   -9.2721    1.0000 </r>
       <r>   -6.6669    1.0000 </r>
       <r>   -6.5627    1.0000 </r>
       <r>   -6.0996    1.0000 </r>
       <r>    0.4303    0.0000 </r>
       <r>    0.9010    0.0000 </r>
       <r>    1.7017    0.0000 </r>
       <r>    2.1020    0.0000 </r>
      </set>
      <set comment="kpoint 7">
       <r>  -21.6730    1.0000 </r>
       <r>  -18.7489    1.0000 </r>
       <r>  -13.2083    1.0000 </r>
       <r>   -9.7575    1.0000 </r>
       <r>   -9.1599    1.0000 </r>
       <r>   -7.0390    1.0000 </r>
       <r>   -6.7654    1.0000 </r>
       <r>   -6.4655    1.0000 </r>
       <r>    0.9462    0.0000 </r>
       <r>    1.0557    0.0000 </r>
       <r>    1.8579    0.0000 </r>
       <r>    2.2603    0.0000 </r>
      </set>
      <set comment="kpoint 8">
       <r>  -21.5384    1.0000 </r>
       <r>  -19.0967    1.0000 </r>
       <r>  -12.6751    1.0000 </r>
       <r>   -9.5992    1.0000 </r>
       <r>   -9.0287    1.0000 </r>
       <r>   -7.4555    1.0000 </r>
       <r>   -6.9841    1.0000 </r>
       <r>   -6.8300    1.0000 </r>
       <r>    1.2386    0.0000 </r>
       <r>    1.4834    0.0000 </r>
       <r>    2.0423    0.0000 </r>
       <r>    2.4475    0.0000 </r>
      </set>
      <set comment="kpoint 9">
       <r>  -21.3835    1.0000 </r>
       <r>  -19.4270    1.0000 </r>
       <r>  -12.1348    1.0000 </r>
       <r>   -9.4172    1.0000 </r>
       <r>   -8.8794    1.0000 </r>
       <r>   -7.9085    1.0000 </r>
       <r>   -7.2123    1.0000 </r>
       <r>   -7.1866    1.0000 </r>
       <r>    1.4494    0.0000 </r>
       <r>    2.0327    0.0000 </r>
       <r>    2.2550    0.0000 </r>
       <r>    2.6635    0.0000 </r>
      </set>
      <set comment="kpoint 10">
       <r>  -21.2082    1.0000 </r>
       <r>  -19.7391    1.0000 </r>
       <r>  -11.5897    1.0000 </r>
       <r>   -9.2121    1.0000 </r>
       <r>   -8.7129    1.0000 </r>
       <r>   -8.3909    1.0000 </r>
       <r>   -7.5308    1.0000 </r>
       <r>   -7.4448    1.0000 </r>
       <r>    1.6882    0.0000 </r>
       <r>    2.4956    0.0000 </r>
       <r>    2.5865    0.0000 </r>
       <r>    2.9082    0.0000 </r>
      </set>
      <set comment="kpoint 11">
       <r>  -21.0127    1.0000 </r>
       <r>  -20.0325    1.0000 </r>
       <r>  -11.0424    1.0000 </r>
       <r>   -8.9841    1.0000 </r>
       <r>   -8.8961    1.0000 </r>
       <r>   -8.5305    1.0000 </r>
       <r>   -7.8595    1.0000 </r>
       <r>   -7.6768    1.0000 </r>
       <r>    1.9549    0.0000 </r>
       <r>    2.7640    0.0000 </r>
       <r>    3.1362    0.0000 </r>
       <r>    3.1816    0.0000 </r>
      </set>
      <set comment="kpoint 12">
       <r>  -20.7972    1.0000 </r>
       <r>  -20.3069    1.0000 </r>
       <r>  -10.4958    1.0000 </r>
       <r>   -9.4186    1.0000 </r>
       <r>   -8.7341    1.0000 </r>
       <r>   -8.3336    1.0000 </r>
       <r>   -8.1707    1.0000 </r>
       <r>   -7.9043    1.0000 </r>
       <r>    2.2493    0.0000 </r>
       <r>    2.9197    0.0000 </r>
       <r>    3.0595    0.0000 </r>
       <r>    3.4836    0.0000 </r>
      </set>
      <set comment="kpoint 13">
       <r>  -20.5618    1.0000 </r>
       <r>  -20.5618    1.0000 </r>
       <r>   -9.9533    1.0000 </r>
       <r>   -9.9533    1.0000 </r>
       <r>   -8.4626    1.0000 </r>
       <r>   -8.4626    1.0000 </r>
       <r>   -8.1242    1.0000 </r>
       <r>   -8.1242    1.0000 </r>
       <r>    2.5711    0.0000 </r>
       <r>    2.5711    0.0000 </r>
       <r>    3.3785    0.0000 </r>
       <r>    3.3785    0.0000 </r>
      </set>
      <set comment="kpoint 14">
       <r>  -22.0336    1.0000 </r>
       <r>  -16.6296    1.0000 </r>
       <r>  -15.8343    1.0000 </r>
       <r>  -10.1838    1.0000 </r>
       <r>   -9.5885    1.0000 </r>
       <r>   -6.0781    1.0000 </r>
       <r>   -5.7716    1.0000 </r>
       <r>   -4.8475    1.0000 </r>
       <r>   -1.1675    0.0000 </r>
       <r>    0.5665    0.0000 </r>
       <r>    1.3641    0.0000 </r>
       <r>    1.7599    0.0000 </r>
      </set>
      <set comment="kpoint 15">
       <r>  -22.0233    1.0000 </r>
       <r>  -16.8334    1.0000 </r>
       <r>  -15.6156    1.0000 </r>
       <r>  -10.1715    1.0000 </r>
       <r>   -9.5780    1.0000 </r>
       <r>   -6.1048    1.0000 </r>
       <r>   -5.8077    1.0000 </r>
       <r>   -4.9186    1.0000 </r>
       <r>   -1.0819    0.0000 </r>
       <r>    0.5805    0.0000 </r>
       <r>    1.3784    0.0000 </r>
       <r>    1.7743    0.0000 </r>
      </set>
      <set comment="kpoint 16">
       <r>  -21.9921    1.0000 </r>
       <r>  -17.2058    1.0000 </r>
       <r>  -15.1986    1.0000 </r>
       <r>  -10.1345    1.0000 </r>
       <r>   -9.5466    1.0000 </r>
       <r>   -6.1845    1.0000 </r>
       <r>   -5.9141    1.0000 </r>
       <r>   -5.1143    1.0000 </r>
       <r>   -0.8432    0.0000 </r>
       <r>    0.6228    0.0000 </r>
       <r>    1.4210    0.0000 </r>
       <r>    1.8175    0.0000 </r>
      </set>
      <set comment="kpoint 17">
       <r>  -21.9401    1.0000 </r>
       <r>  -17.6017    1.0000 </r>
       <r>  -14.7288    1.0000 </r>
       <r>  -10.0731    1.0000 </r>
       <r>   -9.4944    1.0000 </r>
       <r>   -6.3167    1.0000 </r>
       <r>   -6.0834    1.0000 </r>
       <r>   -5.3962    1.0000 </r>
       <r>   -0.4902    0.0000 </r>
       <r>    0.6932    0.0000 </r>
       <r>    1.4921    0.0000 </r>
       <r>    1.8895    0.0000 </r>
      </set>
      <set comment="kpoint 18">
       <r>  -21.8675    1.0000 </r>
       <r>  -17.9931    1.0000 </r>
       <r>  -14.2346    1.0000 </r>
       <r>   -9.9871    1.0000 </r>
       <r>   -9.4216    1.0000 </r>
       <r>   -6.5067    1.0000 </r>
       <r>   -6.2991    1.0000 </r>
       <r>   -5.7283    1.0000 </r>
       <r>   -0.0597    0.0000 </r>
       <r>    0.7917    0.0000 </r>
       <r>    1.5915    0.0000 </r>
       <r>    1.9903    0.0000 </r>
      </set>
      <set comment="kpoint 19">
       <r>  -21.7741    1.0000 </r>
       <r>  -18.3725    1.0000 </r>
       <r>  -13.7242    1.0000 </r>
       <r>   -9.8768    1.0000 </r>
       <r>   -9.3286    1.0000 </r>
       <r>   -6.7693    1.0000 </r>
       <r>   -6.5324    1.0000 </r>
       <r>   -6.0855    1.0000 </r>
       <r>    0.4218    0.0000 </r>
       <r>    0.9184    0.0000 </r>
       <r>    1.7194    0.0000 </r>
       <r>    2.1199    0.0000 </r>
      </set>
      <set comment="kpoint 20">
       <r>  -21.6601    1.0000 </r>
       <r>  -18.7368    1.0000 </r>
       <r>  -13.2017    1.0000 </r>
       <r>   -9.7424    1.0000 </r>
       <r>   -9.2159    1.0000 </r>
       <r>   -7.1069    1.0000 </r>
       <r>   -6.7661    1.0000 </r>
       <r>   -6.4514    1.0000 </r>
       <r>    0.9363    0.0000 </r>
       <r>    1.0732    0.0000 </r>
       <r>    1.8755    0.0000 </r>
       <r>    2.2783    0.0000 </r>
      </set>
      <set comment="kpoint 21">
       <r>  -21.5256    1.0000 </r>
       <r>  -19.0845    1.0000 </r>
       <r>  -12.6698    1.0000 </r>
       <r>   -9.5841    1.0000 </r>
       <r>   -9.0841    1.0000 </r>
       <r>   -7.5030    1.0000 </r>
       <r>   -7.0018    1.0000 </r>
       <r>   -6.8159    1.0000 </r>
       <r>    1.2561    0.0000 </r>
       <r>    1.4717    0.0000 </r>
       <r>    2.0600    0.0000 </r>
       <r>    2.4654    0.0000 </r>
      </set>
      <set comment="kpoint 22">
       <r>  -21.3707    1.0000 </r>
       <r>  -19.4147    1.0000 </r>
       <r>  -12.1310    1.0000 </r>
       <r>   -9.4022    1.0000 </r>
       <r>   -8.9340    1.0000 </r>
       <r>   -7.9424    1.0000 </r>
       <r>   -7.2407    1.0000 </r>
       <r>   -7.1724    1.0000 </r>
       <r>    1.4669    0.0000 </r>
       <r>    2.0190    0.0000 </r>
       <r>    2.2726    0.0000 </r>
       <r>    2.6814    0.0000 </r>
      </set>
      <set comment="kpoint 23">
       <r>  -21.1954    1.0000 </r>
       <r>  -19.7267    1.0000 </r>
       <r>  -11.5877    1.0000 </r>
       <r>   -9.1972    1.0000 </r>
       <r>   -8.7664    1.0000 </r>
       <r>   -8.4151    1.0000 </r>
       <r>   -7.5165    1.0000 </r>
       <r>   -7.4805    1.0000 </r>
       <r>    1.7058    0.0000 </r>
       <r>    2.5132    0.0000 </r>
       <r>    2.5707    0.0000 </r>
       <r>    2.9261    0.0000 </r>
      </set>
      <set comment="kpoint 24">
       <r>  -21.0000    1.0000 </r>
       <r>  -20.0200    1.0000 </r>
       <r>  -11.0427    1.0000 </r>
       <r>   -8.9693    1.0000 </r>
       <r>   -8.9130    1.0000 </r>
       <r>   -8.5826    1.0000 </r>
       <r>   -7.8452    1.0000 </r>
       <r>   -7.7177    1.0000 </r>
       <r>    1.9725    0.0000 </r>
       <r>    2.7816    0.0000 </r>
       <r>    3.1186    0.0000 </r>
       <r>    3.1995    0.0000 </r>
      </set>
      <set comment="kpoint 25">
       <r>  -20.7845    1.0000 </r>
       <r>  -20.2943    1.0000 </r>
       <r>  -10.4990    1.0000 </r>
       <r>   -9.4298    1.0000 </r>
       <r>   -8.7194    1.0000 </r>
       <r>   -8.3839    1.0000 </r>
       <r>   -8.1562    1.0000 </r>
       <r>   -7.9492    1.0000 </r>
       <r>    2.2669    0.0000 </r>
       <r>    2.9376    0.0000 </r>
       <r>    3.0771    0.0000 </r>
       <r>    3.5021    0.0000 </r>
      </set>
      <set comment="kpoint 26">
       <r>  -20.5492    1.0000 </r>
       <r>  -20.5492    1.0000 </r>
       <r>   -9.9600    1.0000 </r>
       <r>   -9.9600    1.0000 </r>
       <r>   -8.4480    1.0000 </r>
       <r>   -8.4480    1.0000 </r>
       <r>   -8.1721    1.0000 </r>
       <r>   -8.1721    1.0000 </r>
       <r>    2.5888    0.0000 </r>
       <r>    2.5888    0.0000 </r>
       <r>    3.3961    0.0000 </r>
       <r>    3.3961    0.0000 </r>
      </set>
      <set comment="kpoint 27">
       <r>  -21.9950    1.0000 </r>
       <r>  -16.5962    1.0000 </r>
       <r>  -15.8041    1.0000 </r>
       <r>  -10.1380    1.0000 </r>
       <r>   -9.7563    1.0000 </r>
       <r>   -6.2331    1.0000 </r>
       <r>   -5.8680    1.0000 </r>
       <r>   -4.8007    1.0000 </r>
       <r>   -1.1880    0.0000 </r>
       <r>    0.6187    0.0000 </r>
       <r>    1.4171    0.0000 </r>
       <r>    1.8135    0.0000 </r>
      </set>
      <set comment="kpoint 28">
       <r>  -21.9846    1.0000 </r>
       <r>  -16.7998    1.0000 </r>
       <r>  -15.5858    1.0000 </r>
       <r>  -10.1257    1.0000 </r>
       <r>   -9.7457    1.0000 </r>
       <r>   -6.2660    1.0000 </r>
       <r>   -5.8958    1.0000 </r>
[...]
       <r>   -8.9690    1.0000 </r>
       <r>   -5.6765    1.0000 </r>
       <r>   -5.6765    1.0000 </r>
       <r>   -0.6003    0.0000 </r>
       <r>   -0.6003    0.0000 </r>
       <r>    4.8028    0.0000 </r>
       <r>    4.8028    0.0000 </r>
      </set>
      <set comment="kpoint 209">
       <r>  -18.8372    1.0000 </r>
       <r>  -17.1697    1.0000 </r>
       <r>  -13.8206    1.0000 </r>
       <r>  -12.2897    1.0000 </r>
       <r>  -12.2782    1.0000 </r>
       <r>  -10.8410    1.0000 </r>
       <r>   -6.5125    1.0000 </r>
       <r>   -4.7309    1.0000 </r>
       <r>   -0.9977    0.0000 </r>
       <r>    1.0340    0.0000 </r>
       <r>    4.9910    0.0000 </r>
       <r>    5.7803    0.0000 </r>
      </set>
      <set comment="kpoint 210">
       <r>  -18.8275    1.0000 </r>
       <r>  -17.1624    1.0000 </r>
       <r>  -13.9144    1.0000 </r>
       <r>  -12.3675    1.0000 </r>
       <r>  -12.1873    1.0000 </r>
       <r>  -10.7531    1.0000 </r>
       <r>   -6.5037    1.0000 </r>
       <r>   -4.7327    1.0000 </r>
       <r>   -1.0092    0.0000 </r>
       <r>    1.0079    0.0000 </r>
       <r>    5.0048    0.0000 </r>
       <r>    5.7966    0.0000 </r>
      </set>
      <set comment="kpoint 211">
       <r>  -18.7982    1.0000 </r>
       <r>  -17.1407    1.0000 </r>
       <r>  -14.1423    1.0000 </r>
       <r>  -12.5879    1.0000 </r>
       <r>  -11.9334    1.0000 </r>
       <r>  -10.5376    1.0000 </r>
       <r>   -6.4773    1.0000 </r>
       <r>   -4.7389    1.0000 </r>
       <r>   -1.0418    0.0000 </r>
       <r>    0.9317    0.0000 </r>
       <r>    5.0460    0.0000 </r>
       <r>    5.8450    0.0000 </r>
      </set>
      <set comment="kpoint 212">
       <r>  -18.7496    1.0000 </r>
       <r>  -17.1060    1.0000 </r>
       <r>  -14.4273    1.0000 </r>
       <r>  -12.8704    1.0000 </r>
       <r>  -11.6054    1.0000 </r>
       <r>  -10.2654    1.0000 </r>
       <r>   -6.4338    1.0000 </r>
       <r>   -4.7508    1.0000 </r>
       <r>   -1.0900    0.0000 </r>
       <r>    0.8108    0.0000 </r>
       <r>    5.1144    0.0000 </r>
       <r>    5.9244    0.0000 </r>
      </set>
      <set comment="kpoint 213">
       <r>  -18.6818    1.0000 </r>
       <r>  -17.0610    1.0000 </r>
       <r>  -14.7261    1.0000 </r>
       <r>  -13.1769    1.0000 </r>
       <r>  -11.2460    1.0000 </r>
       <r>   -9.9782    1.0000 </r>
       <r>   -6.3735    1.0000 </r>
       <r>   -4.7709    1.0000 </r>
       <r>   -1.1457    0.0000 </r>
       <r>    0.6534    0.0000 </r>
       <r>    5.2091    0.0000 </r>
       <r>    6.0335    0.0000 </r>
      </set>
      <set comment="kpoint 214">
       <r>  -18.5951    1.0000 </r>
       <r>  -17.0109    1.0000 </r>
       <r>  -15.0154    1.0000 </r>
       <r>  -13.4894    1.0000 </r>
       <r>  -10.8770    1.0000 </r>
       <r>   -9.6987    1.0000 </r>
       <r>   -6.2974    1.0000 </r>
       <r>   -4.8021    1.0000 </r>
       <r>   -1.1995    0.0000 </r>
       <r>    0.4684    0.0000 </r>
       <r>    5.3272    0.0000 </r>
       <r>    6.1823    0.0000 </r>
      </set>
      <set comment="kpoint 215">
       <r>  -18.4899    1.0000 </r>
       <r>  -16.9647    1.0000 </r>
       <r>  -15.2773    1.0000 </r>
       <r>  -13.7987    1.0000 </r>
       <r>  -10.5117    1.0000 </r>
       <r>   -9.4420    1.0000 </r>
       <r>   -6.2064    1.0000 </r>
       <r>   -4.8474    1.0000 </r>
       <r>   -1.2414    0.0000 </r>
       <r>    0.2651    0.0000 </r>
       <r>    5.4438    0.0000 </r>
       <r>    5.7714    0.0000 </r>
      </set>
      <set comment="kpoint 216">
       <r>  -18.3667    1.0000 </r>
       <r>  -16.9386    1.0000 </r>
       <r>  -15.4908    1.0000 </r>
       <r>  -14.0992    1.0000 </r>
       <r>  -10.1605    1.0000 </r>
       <r>   -9.2203    1.0000 </r>
       <r>   -6.1020    1.0000 </r>
       <r>   -4.9092    1.0000 </r>
       <r>   -1.2628    0.0000 </r>
       <r>    0.0521    0.0000 </r>
       <r>    5.2931    0.0000 </r>
       <r>    5.7173    0.0000 </r>
      </set>
      <set comment="kpoint 217">
       <r>  -18.2265    1.0000 </r>
       <r>  -16.9554    1.0000 </r>
       <r>  -15.6303    1.0000 </r>
       <r>  -14.3870    1.0000 </r>
       <r>   -9.8332    1.0000 </r>
       <r>   -9.0443    1.0000 </r>
       <r>   -5.9859    1.0000 </r>
       <r>   -4.9887    1.0000 </r>
       <r>   -1.2568    0.0000 </r>
       <r>   -0.1627    0.0000 </r>
       <r>    5.0040    0.0000 </r>
       <r>    5.8204    0.0000 </r>
      </set>
      <set comment="kpoint 218">
       <r>  -18.0702    1.0000 </r>
       <r>  -17.0340    1.0000 </r>
       <r>  -15.6754    1.0000 </r>
       <r>  -14.6591    1.0000 </r>
       <r>   -9.5390    1.0000 </r>
       <r>   -8.9233    1.0000 </r>
       <r>   -5.8603    1.0000 </r>
       <r>   -5.0856    1.0000 </r>
       <r>   -1.2192    0.0000 </r>
       <r>   -0.3725    0.0000 </r>
       <r>    4.7840    0.0000 </r>
       <r>    5.4204    0.0000 </r>
      </set>
      <set comment="kpoint 219">
       <r>  -17.8999    1.0000 </r>
       <r>  -17.1702    1.0000 </r>
       <r>  -15.6289    1.0000 </r>
       <r>  -14.9122    1.0000 </r>
       <r>   -9.2876    1.0000 </r>
       <r>   -8.8645    1.0000 </r>
       <r>   -5.7277    1.0000 </r>
       <r>   -5.1979    1.0000 </r>
       <r>   -1.1484    0.0000 </r>
       <r>   -0.5709    0.0000 </r>
       <r>    4.6536    0.0000 </r>
       <r>    5.0910    0.0000 </r>
      </set>
      <set comment="kpoint 220">
       <r>  -17.7182    1.0000 </r>
       <r>  -17.3425    1.0000 </r>
       <r>  -15.5120    1.0000 </r>
       <r>  -15.1427    1.0000 </r>
       <r>   -9.0879    1.0000 </r>
       <r>   -8.8723    1.0000 </r>
       <r>   -5.5914    1.0000 </r>
       <r>   -5.3223    1.0000 </r>
       <r>   -1.0452    0.0000 </r>
       <r>   -0.7524    0.0000 </r>
       <r>    4.6194    0.0000 </r>
       <r>    4.8424    0.0000 </r>
      </set>
      <set comment="kpoint 221">
       <r>  -17.5297    1.0000 </r>
       <r>  -17.5297    1.0000 </r>
       <r>  -15.3453    1.0000 </r>
       <r>  -15.3453    1.0000 </r>
       <r>   -8.9476    1.0000 </r>
       <r>   -8.9476    1.0000 </r>
       <r>   -5.4549    1.0000 </r>
       <r>   -5.4549    1.0000 </r>
       <r>   -0.9120    0.0000 </r>
       <r>   -0.9120    0.0000 </r>
       <r>    4.6832    0.0000 </r>
       <r>    4.6832    0.0000 </r>
      </set>
      <set comment="kpoint 222">
       <r>  -18.4420    1.0000 </r>
       <r>  -17.6045    1.0000 </r>
       <r>  -13.4634    1.0000 </r>
       <r>  -12.6915    1.0000 </r>
       <r>  -11.9623    1.0000 </r>
       <r>  -11.2334    1.0000 </r>
       <r>   -6.0803    1.0000 </r>
       <r>   -5.1849    1.0000 </r>
       <r>   -0.5212    0.0000 </r>
       <r>    0.4966    0.0000 </r>
       <r>    5.5537    0.0000 </r>
       <r>    6.3128    0.0000 </r>
      </set>
      <set comment="kpoint 223">
       <r>  -18.4325    1.0000 </r>
       <r>  -17.5960    1.0000 </r>
       <r>  -13.5581    1.0000 </r>
       <r>  -12.7833    1.0000 </r>
       <r>  -11.8617    1.0000 </r>
       <r>  -11.1405    1.0000 </r>
       <r>   -6.0727    1.0000 </r>
       <r>   -5.1821    1.0000 </r>
       <r>   -0.5386    0.0000 </r>
       <r>    0.4725    0.0000 </r>
       <r>    5.5674    0.0000 </r>
       <r>    6.3298    0.0000 </r>
      </set>
      <set comment="kpoint 224">
       <r>  -18.4040    1.0000 </r>
       <r>  -17.5704    1.0000 </r>
       <r>  -13.7888    1.0000 </r>
       <r>  -13.0089    1.0000 </r>
       <r>  -11.6138    1.0000 </r>
       <r>  -10.9122    1.0000 </r>
       <r>   -6.0503    1.0000 </r>
       <r>   -5.1741    1.0000 </r>
       <r>   -0.5890    0.0000 </r>
       <r>    0.4021    0.0000 </r>
       <r>    5.6084    0.0000 </r>
       <r>    6.3805    0.0000 </r>
      </set>
      <set comment="kpoint 225">
       <r>  -18.3565    1.0000 </r>
       <r>  -17.5286    1.0000 </r>
       <r>  -14.0792    1.0000 </r>
       <r>  -13.2962    1.0000 </r>
       <r>  -11.2956    1.0000 </r>
       <r>  -10.6224    1.0000 </r>
       <r>   -6.0133    1.0000 </r>
       <r>   -5.1620    1.0000 </r>
       <r>   -0.6668    0.0000 </r>
       <r>    0.2910    0.0000 </r>
       <r>    5.6762    0.0000 </r>
       <r>    6.4633    0.0000 </r>
      </set>
      <set comment="kpoint 226">
       <r>  -18.2906    1.0000 </r>
       <r>  -17.4714    1.0000 </r>
       <r>  -14.3883    1.0000 </r>
       <r>  -13.6061    1.0000 </r>
       <r>  -10.9501    1.0000 </r>
       <r>  -10.3131    1.0000 </r>
       <r>   -5.9628    1.0000 </r>
       <r>   -5.1477    1.0000 </r>
       <r>   -0.7641    0.0000 </r>
       <r>    0.1471    0.0000 </r>
       <r>    5.7694    0.0000 </r>
       <r>    6.5765    0.0000 </r>
      </set>
      <set comment="kpoint 227">
       <r>  -18.2065    1.0000 </r>
       <r>  -17.4009    1.0000 </r>
       <r>  -14.6960    1.0000 </r>
       <r>  -13.9205    1.0000 </r>
       <r>  -10.5989    1.0000 </r>
       <r>  -10.0068    1.0000 </r>
       <r>   -5.8997    1.0000 </r>
       <r>   -5.1337    1.0000 </r>
       <r>   -0.8709    0.0000 </r>
       <r>   -0.0205    0.0000 </r>
       <r>    5.8800    0.0000 </r>
       <r>    6.4510    0.0000 </r>
      </set>
      <set comment="kpoint 228">
       <r>  -18.1050    1.0000 </r>
       <r>  -17.3204    1.0000 </r>
       <r>  -14.9904    1.0000 </r>
       <r>  -14.2298    1.0000 </r>
       <r>  -10.2559    1.0000 </r>
       <r>   -9.7181    1.0000 </r>
       <r>   -5.8258    1.0000 </r>
       <r>   -5.1232    1.0000 </r>
       <r>   -0.9769    0.0000 </r>
       <r>   -0.2022    0.0000 </r>
       <r>    5.8661    0.0000 </r>
       <r>    6.1367    0.0000 </r>
      </set>
      <set comment="kpoint 229">
       <r>  -17.9871    1.0000 </r>
       <r>  -17.2355    1.0000 </r>
       <r>  -15.2609    1.0000 </r>
       <r>  -14.5282    1.0000 </r>
       <r>   -9.9319    1.0000 </r>
       <r>   -9.4589    1.0000 </r>
       <r>   -5.7431    1.0000 </r>
       <r>   -5.1197    1.0000 </r>
       <r>   -1.0717    0.0000 </r>
       <r>   -0.3887    0.0000 </r>
       <r>    5.4984    0.0000 </r>
       <r>    5.9885    0.0000 </r>
      </set>
      <set comment="kpoint 230">
       <r>  -17.8544    1.0000 </r>
       <r>  -17.1568    1.0000 </r>
       <r>  -15.4944    1.0000 </r>
       <r>  -14.8111    1.0000 </r>
       <r>   -9.6370    1.0000 </r>
       <r>   -9.2399    1.0000 </r>
       <r>   -5.6541    1.0000 </r>
       <r>   -5.1269    1.0000 </r>
       <r>   -1.1460    0.0000 </r>
       <r>   -0.5715    0.0000 </r>
       <r>    5.1518    0.0000 </r>
       <r>    5.5612    0.0000 </r>
      </set>
      <set comment="kpoint 231">
       <r>  -17.7094    1.0000 </r>
       <r>  -17.1017    1.0000 </r>
       <r>  -15.6716    1.0000 </r>
       <r>  -15.0742    1.0000 </r>
       <r>   -9.3810    1.0000 </r>
       <r>   -9.0708    1.0000 </r>
       <r>   -5.5620    1.0000 </r>
       <r>   -5.1477    1.0000 </r>
       <r>   -1.1921    0.0000 </r>
       <r>   -0.7426    0.0000 </r>
       <r>    4.8794    0.0000 </r>
       <r>    5.1992    0.0000 </r>
      </set>
      <set comment="kpoint 232">
       <r>  -17.5563    1.0000 </r>
       <r>  -17.0940    1.0000 </r>
       <r>  -15.7677    1.0000 </r>
       <r>  -15.3120    1.0000 </r>
       <r>   -9.1732    1.0000 </r>
       <r>   -8.9599    1.0000 </r>
       <r>   -5.4702    1.0000 </r>
       <r>   -5.1841    1.0000 </r>
       <r>   -1.2043    0.0000 </r>
       <r>   -0.8949    0.0000 </r>
       <r>    4.6941    0.0000 </r>
       <r>    4.9142    0.0000 </r>
      </set>
      <set comment="kpoint 233">
       <r>  -17.4023    1.0000 </r>
       <r>  -17.1495    1.0000 </r>
       <r>  -15.7661    1.0000 </r>
       <r>  -15.5165    1.0000 </r>
       <r>   -9.0221    1.0000 </r>
       <r>   -8.9134    1.0000 </r>
       <r>   -5.3827    1.0000 </r>
       <r>   -5.2365    1.0000 </r>
       <r>   -1.1797    0.0000 </r>
       <r>   -1.0219    0.0000 </r>
       <r>    4.6033    0.0000 </r>
       <r>    4.7155    0.0000 </r>
      </set>
      <set comment="kpoint 234">
       <r>  -17.2600    1.0000 </r>
       <r>  -17.2600    1.0000 </r>
       <r>  -15.6747    1.0000 </r>
       <r>  -15.6747    1.0000 </r>
       <r>   -8.9342    1.0000 </r>
       <r>   -8.9342    1.0000 </r>
       <r>   -5.3036    1.0000 </r>
       <r>   -5.3036    1.0000 </r>
       <r>   -1.1182    0.0000 </r>
       <r>   -1.1182    0.0000 </r>
       <r>    4.6105    0.0000 </r>
       <r>    4.6105    0.0000 </r>
      </set>
      <set comment="kpoint 235">
       <r>  -18.0301    1.0000 </r>
       <r>  -18.0301    1.0000 </r>
       <r>  -13.0868    1.0000 </r>
       <r>  -13.0868    1.0000 </r>
       <r>  -11.6085    1.0000 </r>
       <r>  -11.6085    1.0000 </r>
       <r>   -5.6363    1.0000 </r>
       <r>   -5.6363    1.0000 </r>
       <r>   -0.0225    0.0000 </r>
       <r>   -0.0225    0.0000 </r>
       <r>    6.1445    0.0000 </r>
       <r>    6.1445    0.0000 </r>
      </set>
      <set comment="kpoint 236">
       <r>  -18.0209    1.0000 </r>
       <r>  -18.0209    1.0000 </r>
       <r>  -13.1806    1.0000 </r>
       <r>  -13.1806    1.0000 </r>
       <r>  -11.5113    1.0000 </r>
       <r>  -11.5113    1.0000 </r>
       <r>   -5.6307    1.0000 </r>
       <r>   -5.6307    1.0000 </r>
       <r>   -0.0439    0.0000 </r>
       <r>   -0.0439    0.0000 </r>
       <r>    6.1581    0.0000 </r>
       <r>    6.1581    0.0000 </r>
      </set>
      <set comment="kpoint 237">
       <r>  -17.9935    1.0000 </r>
       <r>  -17.9935    1.0000 </r>
       <r>  -13.4099    1.0000 </r>
       <r>  -13.4099    1.0000 </r>
       <r>  -11.2721    1.0000 </r>
       <r>  -11.2721    1.0000 </r>
       <r>   -5.6139    1.0000 </r>
       <r>   -5.6139    1.0000 </r>
       <r>   -0.1060    0.0000 </r>
       <r>   -0.1060    0.0000 </r>
       <r>    6.1988    0.0000 </r>
       <r>    6.1988    0.0000 </r>
      </set>
      <set comment="kpoint 238">
       <r>  -17.9481    1.0000 </r>
       <r>  -17.9481    1.0000 </r>
       <r>  -13.7002    1.0000 </r>
       <r>  -13.7002    1.0000 </r>
       <r>  -10.9668    1.0000 </r>
       <r>  -10.9668    1.0000 </r>
       <r>   -5.5868    1.0000 </r>
       <r>   -5.5868    1.0000 </r>
       <r>   -0.2036    0.0000 </r>
       <r>   -0.2036    0.0000 </r>
       <r>    6.2658    0.0000 </r>
       <r>    6.2658    0.0000 </r>
      </set>
      <set comment="kpoint 239">
       <r>  -17.8851    1.0000 </r>
       <r>  -17.8851    1.0000 </r>
       <r>  -14.0116    1.0000 </r>
       <r>  -14.0116    1.0000 </r>
       <r>  -10.6380    1.0000 </r>
       <r>  -10.6380    1.0000 </r>
       <r>   -5.5506    1.0000 </r>
       <r>   -5.5506    1.0000 </r>
       <r>   -0.3285    0.0000 </r>
       <r>   -0.3285    0.0000 </r>
       <r>    6.3561    0.0000 </r>
       <r>    6.3561    0.0000 </r>
      </set>
      <set comment="kpoint 240">
       <r>  -17.8056    1.0000 </r>
       <r>  -17.8056    1.0000 </r>
       <r>  -14.3252    1.0000 </r>
       <r>  -14.3252    1.0000 </r>
       <r>  -10.3078    1.0000 </r>
       <r>  -10.3078    1.0000 </r>
       <r>   -5.5070    1.0000 </r>
       <r>   -5.5070    1.0000 </r>
       <r>   -0.4713    0.0000 </r>
       <r>   -0.4713    0.0000 </r>
       <r>    6.4413    0.0000 </r>
       <r>    6.4413    0.0000 </r>
      </set>
      <set comment="kpoint 241">
       <r>  -17.7109    1.0000 </r>
       <r>  -17.7109    1.0000 </r>
       <r>  -14.6311    1.0000 </r>
       <r>  -14.6311    1.0000 </r>
       <r>   -9.9904    1.0000 </r>
       <r>   -9.9904    1.0000 </r>
       <r>   -5.4585    1.0000 </r>
       <r>   -5.4585    1.0000 </r>
       <r>   -0.6221    0.0000 </r>
       <r>   -0.6221    0.0000 </r>
       <r>    6.1682    0.0000 </r>
       <r>    6.1682    0.0000 </r>
      </set>
      <set comment="kpoint 242">
       <r>  -17.6032    1.0000 </r>
       <r>  -17.6032    1.0000 </r>
       <r>  -14.9221    1.0000 </r>
       <r>  -14.9221    1.0000 </r>
       <r>   -9.6971    1.0000 </r>
       <r>   -9.6971    1.0000 </r>
       <r>   -5.4078    1.0000 </r>
       <r>   -5.4078    1.0000 </r>
       <r>   -0.7708    0.0000 </r>
       <r>   -0.7708    0.0000 </r>
       <r>    5.7281    0.0000 </r>
       <r>    5.7281    0.0000 </r>
      </set>
      <set comment="kpoint 243">
       <r>  -17.4862    1.0000 </r>
       <r>  -17.4862    1.0000 </r>
       <r>  -15.1918    1.0000 </r>
       <r>  -15.1918    1.0000 </r>
       <r>   -9.4383    1.0000 </r>
       <r>   -9.4383    1.0000 </r>
       <r>   -5.3586    1.0000 </r>
       <r>   -5.3586    1.0000 </r>
       <r>   -0.9081    0.0000 </r>
       <r>   -0.9081    0.0000 </r>
       <r>    5.3377    0.0000 </r>
       <r>    5.3377    0.0000 </r>
      </set>
      <set comment="kpoint 244">
       <r>  -17.3665    1.0000 </r>
       <r>  -17.3665    1.0000 </r>
       <r>  -15.4318    1.0000 </r>
       <r>  -15.4318    1.0000 </r>
       <r>   -9.2241    1.0000 </r>
       <r>   -9.2241    1.0000 </r>
       <r>   -5.3147    1.0000 </r>
       <r>   -5.3147    1.0000 </r>
       <r>   -1.0254    0.0000 </r>
       <r>   -1.0254    0.0000 </r>
       <r>    5.0182    0.0000 </r>
       <r>    5.0182    0.0000 </r>
      </set>
      <set comment="kpoint 245">
       <r>  -17.2555    1.0000 </r>
       <r>  -17.2555    1.0000 </r>
       <r>  -15.6294    1.0000 </r>
       <r>  -15.6294    1.0000 </r>
       <r>   -9.0633    1.0000 </r>
       <r>   -9.0633    1.0000 </r>
       <r>   -5.2797    1.0000 </r>
       <r>   -5.2797    1.0000 </r>
       <r>   -1.1153    0.0000 </r>
       <r>   -1.1153    0.0000 </r>
       <r>    4.7813    0.0000 </r>
       <r>    4.7813    0.0000 </r>
      </set>
      <set comment="kpoint 246">
       <r>  -17.1721    1.0000 </r>
       <r>  -17.1721    1.0000 </r>
       <r>  -15.7650    1.0000 </r>
       <r>  -15.7650    1.0000 </r>
       <r>   -8.9635    1.0000 </r>
       <r>   -8.9635    1.0000 </r>
       <r>   -5.2571    1.0000 </r>
       <r>   -5.2571    1.0000 </r>
       <r>   -1.1717    0.0000 </r>
       <r>   -1.1717    0.0000 </r>
       <r>    4.6355    0.0000 </r>
       <r>    4.6355    0.0000 </r>
      </set>
      <set comment="kpoint 247">
       <r>  -17.1402    1.0000 </r>
       <r>  -17.1402    1.0000 </r>
       <r>  -15.8144    1.0000 </r>
       <r>  -15.8144    1.0000 </r>
       <r>   -8.9297    1.0000 </r>
       <r>   -8.9297    1.0000 </r>
       <r>   -5.2494    1.0000 </r>
       <r>   -5.2494    1.0000 </r>
       <r>   -1.1910    0.0000 </r>
       <r>   -1.1910    0.0000 </r>
       <r>    4.5862    0.0000 </r>
       <r>    4.5862    0.0000 </r>
      </set>
     </set>
    </set>
   </array>
  </eigenvalues>
  <separator name="orbital magnetization" >
   <v name="MAGDIPOLOUT">      0.00000000      0.00000000      0.00000000</v>
  </separator>
 </calculation>
 <structure name="finalpos" >
  <crystal>
   <varray name="basis" >
    <v>       4.25175484       0.00000000       0.00000000 </v>
    <v>       0.00000000       2.54169206       0.00000000 </v>
    <v>       0.00000000       0.00000000      19.51001208 </v>
   </varray>
   <i name="volume">    210.83790140 </i>
   <varray name="rec_basis" >
    <v>       0.23519700       0.00000000       0.00000000 </v>
    <v>       0.00000000       0.39343869       0.00000000 </v>
    <v>       0.00000000       0.00000000       0.05125573 </v>
   </varray>
  </crystal>
  <varray name="positions" >
   <v>       0.00074989      -0.00000000      -0.00000000 </v>
   <v>       0.16591678       0.50000000       0.00000000 </v>
   <v>       0.50074989       0.50000000      -0.00000000 </v>
   <v>       0.66591678       0.00000000       0.00000000 </v>
  </varray>
 </structure>
</modeling>
