gr                                      
           1
     4.251755    0.000000    0.000000
     0.000000    2.541692    0.000000
     0.000000    0.000000   19.510012
   C 
   4
Direct configuration=     1
   0.00074775  0.00000000  0.00000000
   0.16591892  0.50000000  0.00000000
   0.50074775  0.50000000  0.00000000
   0.66591892  0.00000000  0.00000000
Direct configuration=     2
   0.00075837  0.00000000  0.00000000
   0.16590830  0.50000000 -0.00000000
   0.50075837  0.50000000  0.00000000
   0.66590830 -0.00000000 -0.00000000
Direct configuration=     3
   0.00074990  0.00000000  0.00000000
   0.16591677  0.50000000 -0.00000000
   0.50074990  0.50000000  0.00000000
   0.66591677 -0.00000000 -0.00000000
Direct configuration=     4
   0.00074988 -0.00000000 -0.00000000
   0.16591679  0.50000000  0.00000000
   0.50074988  0.50000000 -0.00000000
   0.66591679  0.00000000  0.00000000
Direct configuration=     5
   0.00074989 -0.00000000 -0.00000000
   0.16591678  0.50000000  0.00000000
   0.50074989  0.50000000 -0.00000000
   0.66591678  0.00000000  0.00000000
