    4    4  400    1
  0.5270948E+02  0.4360011E-09  0.2458859E-09  0.1966652E-08  0.5000000E-15
  1.000000000000000E-004
  CAR 
 gr                                      
     16    247     12
 
  0.0000000E+00  0.0000000E+00  0.0000000E+00  0.1157407E-02
    1      -22.113230
    2      -17.215319
    3      -15.860724
    4      -10.250512
    5       -8.868584
    6       -5.967762
    7       -5.736815
    8       -5.294387
    9       -1.167022
   10        0.540773
   11        1.339462
   12        1.730853
 
  0.4166667E-01  0.0000000E+00  0.0000000E+00  0.2314815E-02
    1      -22.103383
    2      -17.340703
    3      -15.720306
    4      -10.238812
    5       -8.859002
    6       -6.011770
    7       -5.757338
    8       -5.354507
    9       -1.091123
   10        0.554100
   11        1.352979
   12        1.744539
 
  0.8333333E-01  0.0000000E+00  0.0000000E+00  0.2314815E-02
    1      -22.073844
    2      -17.625305
    3      -15.390681
    4      -10.203728
    5       -8.830306
    6       -6.141750
    7       -5.817829
    8       -5.522478
    9       -0.875973
   10        0.594089
   11        1.393527
   12        1.785599
 
  0.1250000E+00  0.0000000E+00  0.0000000E+00  0.2314815E-02
    1      -22.024633
    2      -17.964354
    3      -14.976852
    4      -10.145319
    5       -8.782649
    6       -6.351953
    7       -5.915218
    8       -5.769994
    9       -0.550358
   10        0.660756
   11        1.461092
   12        1.854037
 
  0.1666667E+00  0.0000000E+00  0.0000000E+00  0.2314815E-02
    1      -21.955786
    2      -18.315768
    3      -14.521301
    4      -10.063683
    5       -8.716291
    6       -6.633948
    7       -6.067801
    8       -6.044903
    9       -0.144347
   10        0.754121
   11        1.555647
   12        1.949856
 
  0.2083333E+00  0.0000000E+00  0.0000000E+00  0.2314815E-02
    1      -21.867353
    2      -18.663979
    3      -14.040173
    4       -9.958962
    5       -8.631607
    6       -6.977856
    7       -6.393185
    8       -6.201342
    9        0.318168
   10        0.874196
   11        1.677152
   12        2.073058
 
  0.2500000E+00  0.0000000E+00  0.0000000E+00  0.2314815E-02
    1      -21.759398
    2      -19.002307
    3      -13.540908
    4       -9.831346
    5       -8.529099
    6       -7.373462
    7       -6.730473
    8       -6.378626
    9        0.819932
   10        1.020981
   11        1.825543
   12        2.223644
 
  0.2916667E+00  0.0000000E+00  0.0000000E+00  0.2314815E-02
    1      -21.632005
    2      -19.327421
    3      -13.027813
    4       -9.681083
    5       -8.409410
    6       -7.811008
    7       -7.069232
    8       -6.570940
    9        1.194457
   10        1.348425
   11        2.000720
   12        2.401614
 
  0.3333333E+00  0.0000000E+00  0.0000000E+00  0.2314815E-02
    1      -21.485276
    2      -19.637437
    3      -12.503991
    4       -9.508487
    5       -8.281642
    6       -8.273348
    7       -7.402497
    8       -6.772870
    9        1.394595
   10        1.893847
   11        2.202514
   12        2.606963
 
  0.3750000E+00  0.0000000E+00  0.0000000E+00  0.2314815E-02
    1      -21.319331
    2      -19.931179
    3      -11.972115
    4       -9.313954
    5       -8.777593
    6       -8.121907
    7       -7.725523
    8       -6.979560
    9        1.621344
   10        2.430610
   11        2.446989
   12        2.839682
 
  0.4166667E+00  0.0000000E+00  0.0000000E+00  0.2314815E-02
    1      -21.134320
    2      -20.207851
    3      -11.434797
    4       -9.292170
    5       -9.097979
    6       -8.034993
    7       -7.956304
    8       -7.186776
    9        1.874640
   10        2.684315
   11        2.993285
   12        3.099760
 
  0.4583333E+00  0.0000000E+00  0.0000000E+00  0.2314815E-02
    1      -20.930421
    2      -20.466884
    3      -10.894816
    4       -9.819673
    5       -8.861184
    6       -8.328524
    7       -7.778015
    8       -7.390888
    9        2.154394
   10        2.792756
   11        2.961645
   12        3.387176
 
  0.5000000E+00  0.0000000E+00  0.0000000E+00  0.1157407E-02
    1      -20.707853
    2      -20.707853
    3      -10.355262
    4      -10.355262
    5       -8.604362
    6       -8.604362
    7       -7.588826
    8       -7.588826
    9        2.460489
   10        2.460489
   11        3.253292
   12        3.253292
 
  0.0000000E+00  0.2777778E-01  0.0000000E+00  0.2314815E-02
    1      -22.099430
    2      -17.203364
    3      -15.848969
    4      -10.234114
    5       -8.931594
    6       -5.994591
    7       -5.795479
    8       -5.277708
    9       -1.169724
   10        0.559475
   11        1.358362
   12        1.749989
 
  0.4166667E-01  0.2777778E-01  0.0000000E+00  0.4629630E-02
    1      -22.089583
    2      -17.328621
    3      -15.708724
    4      -10.222417
    5       -8.922000
    6       -6.039720
    7       -5.814264
    8       -5.337947
    9       -1.093810
   10        0.572802
   11        1.371879
   12        1.763676
 
  0.8333333E-01  0.2777778E-01  0.0000000E+00  0.4629630E-02
    1      -22.060048
    2      -17.612995
    3      -15.379465
    4      -10.187345
    5       -8.893266
    6       -6.171123
    7       -5.871591
    8       -5.506198
    9       -0.878694
   10        0.612791
   11        1.412425
   12        1.804736
 
  0.1250000E+00  0.2777778E-01  0.0000000E+00  0.4629630E-02
    1      -22.010845
    2      -17.951829
    3      -14.966087
    4      -10.128956
    5       -8.845544
    6       -6.380916
    7       -5.966817
    8       -5.754013
    9       -0.553306
   10        0.679459
   11        1.479986
   12        1.873174
 
  0.1666667E+00  0.2777778E-01  0.0000000E+00  0.4629630E-02
    1      -21.942009
    2      -18.303056
    3      -14.511062
    4      -10.047347
    5       -8.779088
    6       -6.660556
    7       -6.095815
    8       -6.052052
    9       -0.147802
   10        0.772827
   11        1.574537
   12        1.968994
 
  0.2083333E+00  0.2777778E-01  0.0000000E+00  0.4629630E-02
    1      -21.853591
    2      -18.651105
    3      -14.030548
    4       -9.942661
    5       -8.694266
    6       -7.000870
    7       -6.377578
    8       -6.252663
    9        0.313905
   10        0.892906
   11        1.696036
   12        2.092197
 
  0.2500000E+00  0.2777778E-01  0.0000000E+00  0.4629630E-02
    1      -21.745655
    2      -18.989294
    3      -13.532002
    4       -9.815088
    5       -8.591574
    6       -7.392347
    7       -6.714930
    8       -6.430992
    9        0.814577
   10        1.039696
   11        1.844422
   12        2.242786
 
  0.2916667E+00  0.2777778E-01  0.0000000E+00  0.4629630E-02
    1      -21.618285
    2      -19.314289
    3      -13.019754
    4       -9.664876
    5       -8.471644
    6       -7.825722
    7       -7.053696
    8       -6.624645
    9        1.213180
   10        1.341732
   11        2.019594
   12        2.420758
 
  0.3333333E+00  0.2777778E-01  0.0000000E+00  0.4629630E-02
    1      -21.471582
    2      -19.624200
    3      -12.496931
    4       -9.492338
    5       -8.335269
    6       -8.292427
    7       -7.386929
    8       -6.827982
    9        1.413326
   10        1.885638
   11        2.221386
   12        2.626110
 
  0.3750000E+00  0.2777778E-01  0.0000000E+00  0.4629630E-02
    1      -21.305670
    2      -19.917853
    3      -11.966235
    4       -9.297870
    5       -8.784831
    6       -8.183432
    7       -7.709898
    8       -7.036022
    9        1.640085
   10        2.437272
   11        2.449487
   12        2.858833
 
  0.4166667E+00  0.2777778E-01  0.0000000E+00  0.4629630E-02
    1      -21.120696
    2      -20.194447
    3      -11.430316
    4       -9.296292
    5       -9.081966
    6       -8.019297
    7       -8.017330
    8       -7.244460
    9        1.893392
   10        2.703208
   11        2.982955
   12        3.118917
 
  0.4583333E+00  0.2777778E-01  0.0000000E+00  0.4629630E-02
    1      -20.916840
    2      -20.453413
    3      -10.891989
    4       -9.821102
    5       -8.845248
    6       -8.312749
    7       -7.838424
    8       -7.449639
    9        2.173161
   10        2.811572
   11        2.980557
   12        3.406346
 
  0.5000000E+00  0.2777778E-01  0.0000000E+00  0.2314815E-02
    1      -20.694323
    2      -20.694323
    3      -10.354389
    4      -10.354389
    5       -8.588505
    6       -8.588505
    7       -7.648483
    8       -7.648483
    9        2.479275
   10        2.479275
   11        3.271910
   12        3.271910
 
  0.0000000E+00  0.5555556E-01  0.0000000E+00  0.2314815E-02
    1      -22.058038
    2      -17.167503
    3      -15.813848
    4      -10.184954
    5       -9.115532
    6       -6.074630
    7       -5.966672
    8       -5.227691
    9       -1.178640
   10        0.615581
   11        1.415055
   12        1.807400
 
  0.4166667E-01  0.5555556E-01  0.0000000E+00  0.4629630E-02
    1      -22.048195
    2      -17.292387
    3      -15.674115
    4      -10.173269
    5       -9.105896
    6       -6.127475
    7       -5.975927
    8       -5.288299
    9       -1.102677
   10        0.628908
   11        1.428570
   12        1.821087
 
  0.8333333E-01  0.5555556E-01  0.0000000E+00  0.4629630E-02
    1      -22.018673
    2      -17.576082
    3      -15.345959
    4      -10.138233
    5       -9.077035
    6       -6.266264
    7       -6.020739
    8       -5.457412
    9       -0.887660
   10        0.668897
   11        1.469109
   12        1.862147
 
  0.1250000E+00  0.5555556E-01  0.0000000E+00  0.4629630E-02
    1      -21.969494
    2      -17.914270
    3      -14.933947
    4      -10.079903
    5       -9.029092
    6       -6.475065
    7       -6.109340
    8       -5.706144
    9       -0.562960
   10        0.735566
   11        1.536660
   12        1.930586
 
  0.1666667E+00  0.5555556E-01  0.0000000E+00  0.4629630E-02
    1      -21.900692
    2      -18.264935
    3      -14.480525
    4       -9.998378
    5       -8.962308
    6       -6.747014
    7       -6.236974
    8       -6.004889
    9       -0.159004
   10        0.828937
   11        1.631196
   12        2.026407
 
  0.2083333E+00  0.5555556E-01  0.0000000E+00  0.4629630E-02
    1      -21.812318
    2      -18.612500
    3      -14.001889
    4       -9.893799
    5       -8.877031
    6       -7.075691
    7       -6.395947
    8       -6.330846
    9        0.300233
   10        0.949025
   11        1.752678
   12        2.149613
 
  0.2500000E+00  0.5555556E-01  0.0000000E+00  0.4629630E-02
    1      -21.704437
    2      -18.950273
    3      -13.505552
    4       -9.766357
    5       -8.773726
    6       -7.453864
    7       -6.668393
    8       -6.578345
    9        0.797563
   10        1.095827
   11        1.901046
   12        2.300206
 
  0.2916667E+00  0.5555556E-01  0.0000000E+00  0.4629630E-02
    1      -21.577136
    2      -19.274907
    3      -12.995910
    4       -9.616298
    5       -8.652994
    6       -7.873832
    7       -7.007177
    8       -6.776889
    9        1.269327
   10        1.320617
   11        2.076203
   12        2.478185
 
  0.3333333E+00  0.5555556E-01  0.0000000E+00  0.4629630E-02
    1      -21.430514
    2      -19.584507
    3      -12.476172
    4       -9.443937
    5       -8.515587
    6       -8.327950
    7       -7.340309
    8       -6.985225
    9        1.469492
   10        1.859859
   11        2.277989
   12        2.683545
 
  0.3750000E+00  0.5555556E-01  0.0000000E+00  0.4629630E-02
    1      -21.264698
    2      -19.877889
    3      -11.949136
    4       -9.249666
    5       -8.809037
    6       -8.362435
    7       -7.663101
    8       -7.197958
    9        1.696274
   10        2.406753
   11        2.506105
   12        2.916280
 
  0.4166667E+00  0.5555556E-01  0.0000000E+00  0.4629630E-02
    1      -21.079836
    2      -20.154250
    3      -11.417564
    4       -9.310594
    5       -9.033979
    6       -8.194682
    7       -7.972279
    8       -7.410584
    9        1.949607
   10        2.759875
   11        2.949831
   12        3.176379
 
  0.4583333E+00  0.5555556E-01  0.0000000E+00  0.4629630E-02
    1      -20.876111
    2      -20.413012
    3      -10.884401
    4       -9.826888
    5       -8.797494
    6       -8.265488
    7       -8.013725
    8       -7.619377
    9        2.229406
   10        2.867924
   11        3.037284
   12        3.425087
 
  0.5000000E+00  0.5555556E-01  0.0000000E+00  0.2314815E-02
    1      -20.653746
    2      -20.653746
    3      -10.352929
    4      -10.352929
    5       -8.540996
    6       -8.540996
    7       -7.821265
    8       -7.821265
    9        2.535562
   10        2.535562
   11        3.327589
   12        3.327589
 
  0.0000000E+00  0.8333333E-01  0.0000000E+00  0.2314815E-02
    1      -21.989088
    2      -17.107748
    3      -15.755811
    4      -10.103137
    5       -9.406541
    6       -6.237493
    7       -6.206537
    8       -5.144402
    9       -1.196201
   10        0.709092
   11        1.509520
   12        1.903086
 
  0.4166667E-01  0.8333333E-01  0.0000000E+00  0.4629630E-02
    1      -21.979253
    2      -17.232031
    3      -15.616925
    4      -10.091472
    5       -9.396822
    6       -6.312230
    7       -6.190986
    8       -5.205660
    9       -1.120140
   10        0.722417
   11        1.523030
   12        1.916772
 
  0.8333333E-01  0.8333333E-01  0.0000000E+00  0.4629630E-02
    1      -21.949754
    2      -17.514615
    3      -15.290621
    4      -10.056498
    5       -9.367705
    6       -6.457742
    7       -6.220809
    8       -5.376287
    9       -0.905265
   10        0.762401
   11        1.563557
   12        1.957833
 
  0.1250000E+00  0.8333333E-01  0.0000000E+00  0.4629630E-02
    1      -21.900615
    2      -17.851736
    3      -14.880939
    4       -9.998270
    5       -9.319317
    6       -6.660090
    7       -6.303514
    8       -5.626617
    9       -0.581736
   10        0.829066
   11        1.631087
   12        2.026271
 
  0.1666667E+00  0.8333333E-01  0.0000000E+00  0.4629630E-02
    1      -21.831870
    2      -18.201466
    3      -14.430281
    4       -9.916888
    5       -9.251872
    6       -6.916104
    7       -6.432281
    8       -5.926578
    9       -0.180449
   10        0.922434
   11        1.725595
   12        2.122092
 
  0.2083333E+00  0.8333333E-01  0.0000000E+00  0.4629630E-02
    1      -21.743569
    2      -18.548222
    3      -13.954909
    4       -9.812493
    5       -9.165677
    6       -7.222518
    7       -6.597836
    8       -6.253271
    9        0.274520
   10        1.042521
   11        1.847045
   12        2.245301
 
  0.2500000E+00  0.8333333E-01  0.0000000E+00  0.4629630E-02
    1      -21.635782
    2      -18.885296
    3      -13.462437
    4       -9.685275
    5       -9.061145
    6       -7.575357
    7       -6.790226
    8       -6.591140
    9        0.766076
   10        1.189330
   11        1.995378
   12        2.395899
 
  0.2916667E+00  0.8333333E-01  0.0000000E+00  0.4629630E-02
    1      -21.508594
    2      -19.209326
    3      -12.957388
    4       -9.535481
    5       -8.938806
    6       -7.969675
    7       -7.000190
    8       -6.929944
    9        1.282028
   10        1.362843
   11        2.170505
   12        2.573885
 
  0.3333333E+00  0.8333333E-01  0.0000000E+00  0.4629630E-02
    1      -21.362108
    2      -19.518403
    3      -12.443125
    4       -9.363424
    5       -8.799326
    6       -8.399688
    7       -7.262890
    8       -7.219895
    9        1.563025
   10        1.813129
   11        2.372277
   12        2.779255
 
  0.3750000E+00  0.8333333E-01  0.0000000E+00  0.4629630E-02
    1      -21.196452
    2      -19.811332
    3      -11.922632
    4       -9.169494
    5       -8.859186
    6       -8.643529
    7       -7.585369
    8       -7.443073
    9        1.789826
   10        2.351486
   11        2.600414
   12        3.012003
 
  0.4166667E+00  0.8333333E-01  0.0000000E+00  0.4629630E-02
    1      -21.011778
    2      -20.087301
    3      -11.398897
    4       -9.341997
    5       -8.954180
    6       -8.472432
    7       -7.894159
    8       -7.664827
    9        2.043180
   10        2.854277
   11        2.888153
   12        3.272120
 
  0.4583333E+00  0.8333333E-01  0.0000000E+00  0.4629630E-02
    1      -20.808272
    2      -20.345723
    3      -10.875128
    4       -9.842322
    5       -8.718098
    6       -8.287282
    7       -8.186947
    8       -7.881340
    9        2.323001
   10        2.961592
   11        3.131811
   12        3.392704
 
  0.5000000E+00  0.8333333E-01  0.0000000E+00  0.2314815E-02
    1      -20.586162
    2      -20.586162
    3      -10.354913
    4      -10.354913
    5       -8.462023
    6       -8.462023
    7       -8.089617
    8       -8.089617
    9        2.629184
   10        2.629184
   11        3.419469
   12        3.419469
 
  0.0000000E+00  0.1111111E+00  0.0000000E+00  0.2314815E-02
    1      -21.892641
    2      -17.024120
    3      -15.675708
    4       -9.988843
    5       -9.785404
    6       -6.590407
    7       -6.388059
    8       -5.027949
    9       -1.226458
   10        0.840006
   11        1.641716
   12        2.037048
 
  0.4166667E-01  0.1111111E+00  0.0000000E+00  0.4629630E-02
    1      -21.882817
    2      -17.147605
    3      -15.537991
    4       -9.977208
    5       -9.775535
    6       -6.641143
    7       -6.392662
    8       -5.090201
    9       -1.150211
   10        0.853327
   11        1.655219
   12        2.050734
 
  0.8333333E-01  0.1111111E+00  0.0000000E+00  0.4629630E-02
    1      -21.853352
    2      -17.428684
    3      -15.214316
    4       -9.942323
    5       -9.745960
    6       -6.772435
    7       -6.425739
    8       -5.263126
    9       -0.935471
   10        0.893298
   11        1.695725
   12        2.091792
 
  0.1250000E+00  0.1111111E+00  0.0000000E+00  0.4629630E-02
    1      -21.804268
    2      -17.764329
    3      -14.808033
    4       -9.884245
    5       -9.696775
    6       -6.960863
    7       -6.505812
    8       -5.515847
    9       -0.613610
   10        0.959944
   11        1.763221
   12        2.160228
 
  0.1666667E+00  0.1111111E+00  0.0000000E+00  0.4629630E-02
    1      -21.735602
    2      -18.112748
    3      -14.361474
    4       -9.803072
    5       -9.628146
    6       -7.195893
    7       -6.635485
    8       -5.817601
    9       -0.216225
   10        1.053290
   11        1.857684
   12        2.256047
 
  0.2083333E+00  0.1111111E+00  0.0000000E+00  0.4629630E-02
    1      -21.647406
    2      -18.458365
    3      -13.891008
    4       -9.698946
    5       -9.540305
    6       -7.472666
    7       -6.809143
    8       -6.145354
    9        0.232480
   10        1.173359
   11        1.979078
   12        2.379255
 
  0.2500000E+00  0.1111111E+00  0.0000000E+00  0.4629630E-02
    1      -21.539750
    2      -18.794454
    3      -13.404415
    4       -9.572057
    5       -9.433565
    6       -7.788857
    7       -7.016866
    8       -6.483668
    9        0.715555
   10        1.320155
   11        2.127350
   12        2.529854
 
  0.2916667E+00  0.1111111E+00  0.0000000E+00  0.4629630E-02
    1      -21.412721
    2      -19.117630
    3      -12.906436
    4       -9.422651
    5       -9.308320
    6       -8.143006
    7       -7.247047
    8       -6.822471
    9        1.221065
   10        1.493660
   11        2.302420
   12        2.707845
 
  0.3333333E+00  0.1111111E+00  0.0000000E+00  0.4629630E-02
    1      -21.266425
    2      -19.425969
    3      -12.400707
    4       -9.251039
    5       -9.165061
    6       -8.533118
    7       -7.488673
    8       -7.155121
    9        1.693840
   10        1.740118
   11        2.504157
   12        2.913224
 
  0.3750000E+00  0.1111111E+00  0.0000000E+00  0.4629630E-02
    1      -21.100994
    2      -19.718258
    3      -11.890557
    4       -9.057610
    5       -9.004386
    6       -8.955830
    7       -7.732839
    8       -7.477118
    9        1.920640
   10        2.265461
   11        2.732317
   12        3.145984
 
  0.4166667E+00  0.1111111E+00  0.0000000E+00  0.4629630E-02
    1      -20.916585
    2      -19.993673
    3      -11.379396
    4       -9.406441
    5       -8.842848
    6       -8.827031
    7       -7.973127
    8       -7.785323
    9        2.173988
   10        2.790140
   11        2.986326
   12        3.406116
 
  0.4583333E+00  0.1111111E+00  0.0000000E+00  0.4629630E-02
    1      -20.713389
    2      -20.251616
    3      -10.870950
    4       -9.879488
    5       -8.633898
    6       -8.607360
    7       -8.205194
    8       -8.077478
    9        2.453800
   10        3.092354
   11        3.264108
   12        3.301991
 
  0.5000000E+00  0.1111111E+00  0.0000000E+00  0.2314815E-02
    1      -20.491638
    2      -20.491638
    3      -10.369406
    4      -10.369406
    5       -8.426126
    6       -8.426126
    7       -8.351912
    8       -8.351912
    9        2.759966
   10        2.759966
   11        3.542786
   12        3.542786
 
  0.0000000E+00  0.1388889E+00  0.0000000E+00  0.2314815E-02
    1      -21.768786
    2      -16.916649
    3      -15.574972
    4      -10.231025
    5       -9.842330
    6       -7.006859
    7       -6.616062
    8       -4.878487
    9       -1.275004
   10        1.008315
   11        1.811584
   12        2.209288
 
  0.4166667E-01  0.1388889E+00  0.0000000E+00  0.4629630E-02
    1      -21.758975
    2      -17.039192
    3      -15.438733
    4      -10.220900
    5       -9.830736
    6       -7.053104
    7       -6.620588
    8       -4.942186
    9       -1.198410
   10        1.021627
   11        1.825076
   12        2.222972
 
  0.8333333E-01  0.1388889E+00  0.0000000E+00  0.4629630E-02
    1      -21.729553
    2      -17.318426
    3      -15.118536
    4      -10.190537
    5       -9.795972
    6       -7.177725
    7       -6.647224
    8       -5.118411
    9       -0.983673
   10        1.061574
   11        1.865549
   12        2.264026
 
  0.1250000E+00  0.1388889E+00  0.0000000E+00  0.4629630E-02
    1      -21.680540
    2      -17.652204
    3      -14.716920
    4      -10.139981
    5       -9.738098
    6       -7.358235
    7       -6.715196
    8       -5.374499
    9       -0.663950
   10        1.128181
   11        1.932991
   12        2.332455
 
  0.1666667E+00  0.1388889E+00  0.0000000E+00  0.4629630E-02
    1      -21.611977
    2      -17.998940
    3      -14.276142
    4      -10.069301
    5       -9.657210
    6       -7.579831
    7       -6.833655
    8       -5.678718
    9       -0.271810
   10        1.221480
   11        2.027378
   12        2.428267
 
  0.2083333E+00  0.1388889E+00  0.0000000E+00  0.4629630E-02
    1      -21.523916
    2      -18.343080
    3      -13.812733
    4       -9.978588
    5       -9.553452
    6       -7.834257
    7       -7.002788
    8       -6.007884
    9        0.168413
   10        1.341498
   11        2.148678
   12        2.551467
 
  0.2500000E+00  0.1388889E+00  0.0000000E+00  0.4629630E-02
    1      -21.416428
    2      -18.677886
    3      -13.334757
    4       -9.867953
    5       -9.427012
    6       -8.117420
    7       -7.216544
    8       -6.346749
    9        0.640010
   10        1.488245
   11        2.296842
   12        2.702063
 
  0.2916667E+00  0.1388889E+00  0.0000000E+00  0.4629630E-02
    1      -21.289605
    2      -18.999950
    3      -12.847344
    4       -9.737510
    5       -9.278138
    6       -8.428204
    7       -7.464493
    8       -6.685493
    9        1.131403
   10        1.661710
   11        2.471802
   12        2.880053
 
  0.3333333E+00  0.1388889E+00  0.0000000E+00  0.4629630E-02
    1      -21.143556
    2      -19.307326
    3      -12.354640
    4       -9.587371
    5       -9.107137
    6       -8.767496
    7       -7.733645
    8       -7.017683
    9        1.634119
   10        1.861853
   11        2.673451
   12        3.085435
 
  0.3750000E+00  0.1388889E+00  0.0000000E+00  0.4629630E-02
    1      -20.978417
    2      -19.598780
    3      -11.860636
    4       -9.417636
    5       -9.136751
    6       -8.914395
    7       -8.010662
    8       -7.338979
    9        2.088615
   10        2.141496
   11        2.901603
   12        3.318203
 
  0.4166667E+00  0.1388889E+00  0.0000000E+00  0.4629630E-02
    1      -20.794351
    2      -19.873473
    3      -11.369579
    4       -9.536261
    5       -9.228395
    6       -8.700392
    7       -8.284154
    8       -7.646351
    9        2.341921
   10        2.647815
   11        3.155822
   12        3.578346
 
  0.4583333E+00  0.1388889E+00  0.0000000E+00  0.4629630E-02
    1      -20.591557
    2      -20.130792
    3      -10.886206
    4       -9.964013
    5       -9.019771
    6       -8.546144
    7       -8.465727
    8       -7.937614
    9        2.621674
   10        3.147169
   11        3.260042
   12        3.434127
 
  0.5000000E+00  0.1388889E+00  0.0000000E+00  0.2314815E-02
    1      -20.370273
    2      -20.370273
    3      -10.415802
    4      -10.415802
    5       -8.792068
    6       -8.792068
    7       -8.211150
    8       -8.211150
    9        2.927761
   10        2.927761
   11        3.610657
   12        3.610657
 
  0.0000000E+00  0.1666667E+00  0.0000000E+00  0.2314815E-02
    1      -21.617635
    2      -16.785375
    3      -15.455994
    4      -10.722681
    5       -9.663943
    6       -7.469715
    7       -6.886592
    8       -4.696220
    9       -1.348759
   10        1.213997
   11        2.019040
   12        2.419807
 
  0.4166667E-01  0.1666667E+00  0.0000000E+00  0.4629630E-02
    1      -21.607842
    2      -16.906910
    3      -15.321543
    4      -10.712115
    5       -9.652402
    6       -7.515394
    7       -6.886630
    8       -4.762003
    9       -1.271505
   10        1.227297
   11        2.032515
   12        2.433489
 
  0.8333333E-01  0.1666667E+00  0.0000000E+00  0.4629630E-02
    1      -21.578472
    2      -17.184047
    3      -15.005828
    4      -10.680397
    5       -9.617800
    6       -7.639390
    7       -6.899278
    8       -4.942889
    9       -1.056371
   10        1.267207
   11        2.072934
   12        2.474535
 
  0.1250000E+00  0.1666667E+00  0.0000000E+00  0.4629630E-02
    1      -21.529549
    2      -17.515594
    3      -14.610566
    4      -10.627462
    5       -9.560193
    6       -7.818521
    7       -6.946027
    8       -5.203600
    9       -0.739122
   10        1.333753
   11        2.140285
   12        2.542952
 
  0.1666667E+00  0.1666667E+00  0.0000000E+00  0.4629630E-02
    1      -21.461111
    2      -17.860268
    3      -14.177946
    4      -10.553186
    5       -9.479681
    6       -8.035385
    7       -7.040906
    8       -5.511087
    9       -0.353615
   10        1.426970
   11        2.234545
   12        2.638747
 
  0.2083333E+00  0.1666667E+00  0.0000000E+00  0.4629630E-02
    1      -21.373215
    2      -18.202580
    3      -13.724799
    4      -10.457360
    5       -9.376407
    6       -8.279184
    7       -7.189218
    8       -5.842040
    9        0.075743
   10        1.546894
   11        2.355678
   12        2.761931
 
  0.2500000E+00  0.1666667E+00  0.0000000E+00  0.4629630E-02
    1      -21.265935
    2      -18.535788
    3      -13.259719
    4      -10.339655
    5       -9.250561
    6       -8.543493
    7       -7.389649
    8       -6.181523
    9        0.532657
   10        1.693546
   11        2.503640
   12        2.912510
 
  0.2916667E+00  0.1666667E+00  0.0000000E+00  0.4629630E-02
    1      -21.139364
    2      -18.856465
    3      -12.788596
    4      -10.199559
    5       -9.102389
    6       -8.825009
    7       -7.635858
    8       -6.520078
    9        1.006070
   10        1.866918
   11        2.678367
   12        3.090489
 
  0.3333333E+00  0.1666667E+00  0.0000000E+00  0.4629630E-02
    1      -20.993620
    2      -19.162640
    3      -12.316605
    4      -10.036328
    5       -9.123070
    6       -8.932198
    7       -7.917650
    8       -6.851566
    9        1.488059
   10        2.066975
   11        2.879776
   12        3.295867
 
  0.3750000E+00  0.1666667E+00  0.0000000E+00  0.4629630E-02
    1      -20.828842
    2      -19.453055
    3      -11.849070
    4       -9.848934
    5       -9.439391
    6       -8.740371
    7       -8.222060
    8       -7.171857
    9        1.972553
   10        2.293654
   11        3.107752
   12        3.528636
 
  0.4166667E+00  0.1666667E+00  0.0000000E+00  0.4629630E-02
    1      -20.645202
    2      -19.726848
    3      -11.391814
    4       -9.777483
    5       -9.636143
    6       -8.534647
    7       -8.527383
    8       -7.478064
    9        2.454611
   10        2.546867
   11        3.362106
   12        3.788785
 
  0.4583333E+00  0.1666667E+00  0.0000000E+00  0.4629630E-02
    1      -20.442906
    2      -19.983391
    3      -10.951078
    4      -10.141233
    5       -9.396863
    6       -8.841394
    7       -8.293820
    8       -7.768103
    9        2.826507
   10        2.929974
   11        3.464529
   12        3.641785
 
  0.5000000E+00  0.1666667E+00  0.0000000E+00  0.2314815E-02
    1      -20.222202
    2      -20.222202
    3      -10.532803
    4      -10.532803
    5       -9.131073
    6       -9.131073
    7       -8.040418
    8       -8.040418
    9        3.132446
   10        3.132446
   11        3.394673
   12        3.394673
 