       N       E                     dE             d eps       ncg     rms          rms(c)
DAV:   1     0.187931277561E+03    0.18793E+03   -0.10617E+04  5928   0.275E+03
DAV:   2    -0.942436143391E+01   -0.19736E+03   -0.17538E+03 10460   0.260E+02
DAV:   3    -0.381376516656E+02   -0.28713E+02   -0.28145E+02  7364   0.119E+02    0.713E+00
RMM:   4    -0.376025603782E+02    0.53509E+00   -0.95103E+00  5929   0.263E+01    0.414E+00
RMM:   5    -0.368902796659E+02    0.71228E+00   -0.27180E+00  5930   0.113E+01    0.712E-01
RMM:   6    -0.368921051807E+02   -0.18255E-02   -0.84025E-02  6399   0.203E+00    0.504E-01
RMM:   7    -0.368830998703E+02    0.90053E-02   -0.31413E-02  5942   0.154E+00    0.327E-01
RMM:   8    -0.368782840099E+02    0.48159E-02   -0.60026E-03  5928   0.517E-01    0.139E-01
RMM:   9    -0.368778766752E+02    0.40733E-03   -0.20277E-02  5928   0.842E-01    0.151E-01
RMM:  10    -0.368777868414E+02    0.89834E-04   -0.20220E-03  5928   0.327E-01    0.267E-02
RMM:  11    -0.368801592716E+02   -0.23724E-02   -0.75408E-04  5929   0.182E-01    0.430E-02
RMM:  12    -0.368806248028E+02   -0.46553E-03   -0.19648E-04  5950   0.931E-02    0.559E-03
RMM:  13    -0.368808915712E+02   -0.26677E-03   -0.48645E-05  6034   0.369E-02    0.280E-03
RMM:  14    -0.368809745248E+02   -0.82954E-04   -0.99411E-06  5979   0.141E-02    0.901E-04
RMM:  15    -0.368809876314E+02   -0.13107E-04   -0.18995E-06  5957   0.756E-03    0.215E-03
RMM:  16    -0.368810001439E+02   -0.12512E-04   -0.19032E-06  5928   0.915E-03    0.143E-03
RMM:  17    -0.368810058916E+02   -0.57478E-05   -0.20759E-07  5928   0.281E-03    0.512E-04
RMM:  18    -0.368810069614E+02   -0.10698E-05   -0.31690E-08  6011   0.147E-03    0.100E-04
RMM:  19    -0.368810077489E+02   -0.78751E-06   -0.10384E-08  5987   0.468E-04    0.213E-05
RMM:  20    -0.368810077918E+02   -0.42882E-07   -0.83537E-10  4583   0.151E-04    0.246E-05
RMM:  21    -0.368810078057E+02   -0.13896E-07   -0.20939E-10  4334   0.849E-05    0.749E-06
RMM:  22    -0.368810078058E+02   -0.15041E-09   -0.12960E-11  3895   0.486E-05    0.108E-06
RMM:  23    -0.368810078062E+02   -0.42701E-09   -0.16868E-11  3585   0.397E-05    0.193E-06
RMM:  24    -0.368810078064E+02   -0.10482E-09   -0.54596E-12  3116   0.297E-05    0.703E-07
RMM:  25    -0.368810078064E+02   -0.19327E-10   -0.45288E-12  2829   0.257E-05
   1 F= -.36881008E+02 E0= -.36881008E+02  d E =-.368810E+02
       N       E                     dE             d eps       ncg     rms          rms(c)
DAV:   1    -0.368810070721E+02    0.73427E-06   -0.69059E-05  6292   0.778E-02    0.158E-03
RMM:   2    -0.368810071091E+02   -0.37015E-07   -0.10966E-06  5959   0.928E-03    0.114E-03
RMM:   3    -0.368810070717E+02    0.37361E-07   -0.18668E-07  5969   0.348E-03    0.301E-04
RMM:   4    -0.368810070701E+02    0.16528E-08   -0.12565E-08  6109   0.888E-04    0.868E-05
RMM:   5    -0.368810070688E+02    0.12940E-08   -0.89164E-10  5159   0.211E-04    0.382E-05
RMM:   6    -0.368810070686E+02    0.21487E-09   -0.11791E-10  3812   0.930E-05    0.437E-06
RMM:   7    -0.368810070686E+02    0.93223E-11   -0.11359E-11  3756   0.513E-05
   2 F= -.36881007E+02 E0= -.36881007E+02  d E =0.737805E-06
       N       E                     dE             d eps       ncg     rms          rms(c)
DAV:   1    -0.368810078395E+02   -0.77091E-06   -0.43164E-05  6664   0.616E-02    0.125E-03
RMM:   2    -0.368810078719E+02   -0.32384E-07   -0.67449E-07  5956   0.734E-03    0.902E-04
RMM:   3    -0.368810078594E+02    0.12420E-07   -0.11652E-07  5967   0.275E-03    0.235E-04
RMM:   4    -0.368810078564E+02    0.30782E-08   -0.77430E-09  6089   0.700E-04    0.683E-05
RMM:   5    -0.368810078572E+02   -0.85049E-09   -0.56610E-10  4623   0.168E-04    0.304E-05
RMM:   6    -0.368810078571E+02    0.79240E-10   -0.72461E-11  3756   0.791E-05
   3 F= -.36881008E+02 E0= -.36881008E+02  d E =-.788573E-06
       N       E                     dE             d eps       ncg     rms          rms(c)
DAV:   1    -0.368810078566E+02    0.63199E-09    0.53424E-09  4840   0.922E-05    0.288E-06
RMM:   2    -0.368810078572E+02   -0.64290E-09   -0.10011E-12  3017   0.304E-05    0.179E-06
RMM:   3    -0.368810078573E+02   -0.10152E-09   -0.41400E-12  2911   0.321E-05    0.193E-07
RMM:   4    -0.368810078574E+02   -0.20123E-10   -0.39105E-12  2651   0.288E-05    0.199E-07
RMM:   5    -0.368810078572E+02    0.11801E-09   -0.13400E-12  2450   0.260E-05    0.847E-08
RMM:   6    -0.368810078572E+02    0.46725E-10   -0.19207E-12  2303   0.242E-05
   4 F= -.36881008E+02 E0= -.36881008E+02  d E =-.470664E-10
       N       E                     dE             d eps       ncg     rms          rms(c)
DAV:   1    -0.368810078568E+02    0.47078E-09    0.54079E-09  4776   0.543E-05    0.550E-07
RMM:   2    -0.368810078572E+02   -0.43951E-09    0.78244E-13  1607   0.156E-05    0.343E-07
RMM:   3    -0.368810078574E+02   -0.15348E-09   -0.37857E-13  1512   0.154E-05    0.230E-08
RMM:   4    -0.368810078572E+02    0.12278E-09    0.27141E-13  1469   0.152E-05    0.169E-08
RMM:   5    -0.368810078575E+02   -0.21976E-09    0.19634E-14  1445   0.150E-05    0.898E-09
RMM:   6    -0.368810078573E+02    0.13256E-09    0.29902E-13  1310   0.150E-05    0.111E-08
RMM:   7    -0.368810078569E+02    0.39643E-09   -0.28372E-14  1200   0.148E-05    0.149E-08
RMM:   8    -0.368810078574E+02   -0.42633E-09   -0.29230E-13  1204   0.147E-05    0.202E-08
RMM:   9    -0.368810078573E+02    0.47066E-10   -0.15695E-13  1090   0.145E-05
   5 F= -.36881008E+02 E0= -.36881008E+02  d E =-.116188E-09
       N       E                     dE             d eps       ncg     rms          rms(c)
DAV:   1    -0.368810078566E+02    0.74385E-09    0.54317E-09  4400   0.188E-05    0.457E-07
RMM:   2    -0.368810078574E+02   -0.76921E-09   -0.50824E-14  1193   0.623E-06    0.281E-07
RMM:   3    -0.368810078572E+02    0.13245E-09   -0.23027E-14  1238   0.615E-06    0.571E-09
RMM:   4    -0.368810078575E+02   -0.21157E-09    0.32895E-14  1218   0.613E-06    0.254E-09
RMM:   5    -0.368810078573E+02    0.15268E-09    0.73028E-14  1131   0.610E-06    0.920E-10
RMM:   6    -0.368810078572E+02    0.11369E-09    0.52633E-15  1141   0.609E-06    0.685E-10
RMM:   7    -0.368810078569E+02    0.27876E-09    0.00000E+00  1195   0.608E-06    0.480E-10
RMM:   8    -0.368810078572E+02   -0.26284E-09    0.00000E+00   922   0.608E-06    0.328E-10
RMM:   9    -0.368810078572E+02   -0.54342E-10    0.00000E+00   712   0.608E-06
   6 F= -.36881008E+02 E0= -.36881008E+02  d E =0.763976E-10
       N       E                     dE             d eps       ncg     rms          rms(c)
DAV:   1    -0.368810078568E+02    0.41109E-09    0.54079E-09  4428   0.492E-05    0.898E-07
RMM:   2    -0.368810078571E+02   -0.37903E-09    0.00000E+00   710   0.127E-05    0.556E-07
RMM:   3    -0.368810078572E+02   -0.20009E-10    0.00000E+00   721   0.126E-05    0.122E-08
RMM:   4    -0.368810078572E+02   -0.27740E-10    0.00000E+00   415   0.126E-05    0.442E-09
RMM:   5    -0.368810078573E+02   -0.11266E-09    0.00000E+00   483   0.126E-05    0.158E-09
RMM:   6    -0.368810078572E+02    0.15064E-09    0.00000E+00   658   0.126E-05    0.648E-10
RMM:   7    -0.368810078570E+02    0.10789E-09    0.00000E+00   591   0.126E-05    0.656E-10
RMM:   8    -0.368810078571E+02   -0.94474E-10    0.00000E+00   353   0.126E-05
   7 F= -.36881008E+02 E0= -.36881008E+02  d E =0.900400E-10
       N       E                     dE             d eps       ncg     rms          rms(c)
DAV:   1    -0.368810078568E+02    0.24363E-09    0.54251E-09  3956   0.313E-05    0.538E-07
RMM:   2    -0.368810078572E+02   -0.35391E-09    0.00000E+00   469   0.838E-06    0.333E-07
RMM:   3    -0.368810078571E+02    0.10380E-09    0.00000E+00   430   0.808E-06    0.884E-09
RMM:   4    -0.368810078572E+02   -0.15029E-09    0.00000E+00   304   0.808E-06    0.272E-09
RMM:   5    -0.368810078573E+02   -0.94815E-10    0.00000E+00   848   0.808E-06
   8 F= -.36881008E+02 E0= -.36881008E+02  d E =-.157115E-09
       N       E                     dE             d eps       ncg     rms          rms(c)
DAV:   1    -0.368810078566E+02    0.62471E-09    0.54306E-09  4096   0.107E-05    0.150E-07
RMM:   2    -0.368810078575E+02   -0.87846E-09    0.00000E+00   419   0.314E-06    0.917E-08
RMM:   3    -0.368810078570E+02    0.49795E-09    0.00000E+00   503   0.309E-06    0.276E-09
RMM:   4    -0.368810078571E+02   -0.15939E-09    0.00000E+00   801   0.308E-06    0.153E-09
RMM:   5    -0.368810078572E+02   -0.86175E-10    0.00000E+00   211   0.308E-06
   9 F= -.36881008E+02 E0= -.36881008E+02  d E =0.934506E-10
       N       E                     dE             d eps       ncg     rms          rms(c)
DAV:   1    -0.368810078568E+02    0.26807E-09    0.54365E-09  3648   0.464E-06    0.806E-08
RMM:   2    -0.368810078573E+02   -0.49158E-09    0.00000E+00   320   0.159E-06    0.496E-08
RMM:   3    -0.368810078572E+02    0.15950E-09    0.00000E+00   289   0.163E-06    0.111E-09
RMM:   4    -0.368810078572E+02    0.10459E-10    0.00000E+00   353   0.163E-06    0.367E-10
RMM:   5    -0.368810078571E+02    0.99931E-10    0.00000E+00    83   0.163E-06
  10 F= -.36881008E+02 E0= -.36881008E+02  d E =0.132559E-09
