gr                                      
           1
     4.360011    0.000000    0.000000
     0.000000    2.458859    0.000000
     0.000000    0.000000   19.666519
   C 
   4
Direct configuration=     1
   0.99954297  0.00000000  0.00000000
   0.16712369  0.50000000  0.00000000
   0.49954297  0.50000000  0.00000000
   0.66712369  0.00000000  0.00000000
Direct configuration=     2
   0.99952485 -0.00000000  0.00000000
   0.16714182  0.50000000 -0.00000000
   0.49952485  0.50000000  0.00000000
   0.66714182 -0.00000000 -0.00000000
Direct configuration=     3
   0.99953919 -0.00000000  0.00000000
   0.16712748  0.50000000 -0.00000000
   0.49953919  0.50000000  0.00000000
   0.66712748 -0.00000000 -0.00000000
Direct configuration=     4
   0.99953921 -0.00000000  0.00000000
   0.16712746  0.50000000 -0.00000000
   0.49953921  0.50000000  0.00000000
   0.66712746 -0.00000000 -0.00000000
Direct configuration=     5
   0.99953920 -0.00000000  0.00000000
   0.16712747  0.50000000 -0.00000000
   0.49953920  0.50000000  0.00000000
   0.66712747 -0.00000000 -0.00000000
Direct configuration=     6
   0.99953919  0.00000000  0.00000000
   0.16712747  0.50000000 -0.00000000
   0.49953919  0.50000000  0.00000000
   0.66712747 -0.00000000 -0.00000000
Direct configuration=     7
   0.99953918  0.00000000 -0.00000000
   0.16712748  0.50000000  0.00000000
   0.49953918  0.50000000 -0.00000000
   0.66712748 -0.00000000  0.00000000
Direct configuration=     8
   0.99953919  0.00000000 -0.00000000
   0.16712748  0.50000000  0.00000000
   0.49953919  0.50000000 -0.00000000
   0.66712748 -0.00000000  0.00000000
Direct configuration=     9
   0.99953919  0.00000000 -0.00000000
   0.16712748  0.50000000  0.00000000
   0.49953919  0.50000000 -0.00000000
   0.66712748 -0.00000000  0.00000000
Direct configuration=    10
   0.99953919  0.00000000 -0.00000000
   0.16712748  0.50000000  0.00000000
   0.49953919  0.50000000 -0.00000000
   0.66712748 -0.00000000  0.00000000
