 running on    8 total cores
 distrk:  each k-point on    8 cores,    1 groups
 distr:  one band on    2 cores,    4 groups
 using from now: INCAR     
 vasp.5.3.5 31Mar14 (build Mar 02 2015 18:14:16) complex                        
  
 POSCAR found type information on POSCAR  C 
 POSCAR found :  1 types and       4 ions
 LDA part: xc-table for Pade appr. of Perdew
 POSCAR, INCAR and KPOINTS ok, starting setup
 FFT: planning ...
 WAVECAR not read
 entering main loop
       N       E                     dE             d eps       ncg     rms          rms(c)
DAV:   1     0.189278594938E+03    0.18928E+03   -0.10607E+04  5928   0.274E+03
DAV:   2    -0.918058030774E+01   -0.19846E+03   -0.17684E+03 10416   0.261E+02
DAV:   3    -0.382946580465E+02   -0.29114E+02   -0.28477E+02  7368   0.120E+02    0.726E+00
RMM:   4    -0.376732377025E+02    0.62142E+00   -0.94429E+00  5928   0.264E+01    0.420E+00
RMM:   5    -0.369254470029E+02    0.74779E+00   -0.27824E+00  5933   0.114E+01    0.721E-01
RMM:   6    -0.369269054391E+02   -0.14584E-02   -0.81555E-02  6368   0.202E+00    0.515E-01
RMM:   7    -0.369175657714E+02    0.93397E-02   -0.32821E-02  5937   0.158E+00    0.341E-01
RMM:   8    -0.369120222516E+02    0.55435E-02   -0.73078E-03  5929   0.567E-01    0.136E-01
RMM:   9    -0.369117565895E+02    0.26566E-03   -0.20762E-02  5928   0.854E-01    0.160E-01
RMM:  10    -0.369115995564E+02    0.15703E-03   -0.25739E-03  5928   0.366E-01    0.293E-02
RMM:  11    -0.369140935500E+02   -0.24940E-02   -0.74338E-04  5930   0.179E-01    0.458E-02
RMM:  12    -0.369145578060E+02   -0.46426E-03   -0.22753E-04  5942   0.997E-02    0.543E-03
RMM:  13    -0.369148058070E+02   -0.24800E-03   -0.51563E-05  6008   0.404E-02    0.407E-03
RMM:  14    -0.369148893621E+02   -0.83555E-04   -0.10485E-05  5954   0.176E-02    0.158E-03
RMM:  15    -0.369148997563E+02   -0.10394E-04   -0.16481E-06  6011   0.735E-03    0.136E-03
RMM:  16    -0.369149113076E+02   -0.11551E-04   -0.90063E-07  5928   0.610E-03    0.947E-04
RMM:  17    -0.369149163136E+02   -0.50060E-05   -0.59359E-08  6085   0.153E-03    0.694E-04
RMM:  18    -0.369149174340E+02   -0.11203E-05   -0.60232E-08  5928   0.185E-03    0.115E-04
WARNING in EDDRMM: call to ZHEGV failed, returncode =   6  3  1
WARNING in EDDRMM: call to ZHEGV failed, returncode =   6  3  1
WARNING in EDDRMM: call to ZHEGV failed, returncode =   6  3  1
WARNING in EDDRMM: call to ZHEGV failed, returncode =   6  3  1
RMM:  19    -0.369149182039E+02   -0.76990E-06   -0.10210E-08  6050   0.491E-04    0.192E-05
RMM:  20    -0.369149182619E+02   -0.58038E-07   -0.81039E-10  4480   0.132E-04    0.249E-05
RMM:  21    -0.369149182808E+02   -0.18872E-07   -0.26433E-10  4393   0.949E-05    0.547E-06
RMM:  22    -0.369149182807E+02    0.51159E-10   -0.11246E-11  3899   0.483E-05
   1 F= -.36914918E+02 E0= -.36914904E+02  d E =-.369149E+02
 BRION: g(F)=  0.206E-04 g(S)=  0.000E+00
 bond charge predicted
       N       E                     dE             d eps       ncg     rms          rms(c)
DAV:   1    -0.369148875330E+02    0.30748E-04   -0.27700E-03  6732   0.494E-01    0.103E-02
RMM:   2    -0.369148891721E+02   -0.16390E-05   -0.44951E-05  5945   0.593E-02    0.741E-03
RMM:   3    -0.369148878617E+02    0.13104E-05   -0.77786E-06  5955   0.225E-02    0.194E-03
RMM:   4    -0.369148877213E+02    0.14034E-06   -0.50461E-07  6109   0.566E-03    0.548E-04
RMM:   5    -0.369148877213E+02    0.22737E-11   -0.36175E-08  6185   0.136E-03    0.256E-04
RMM:   6    -0.369148877196E+02    0.17683E-08   -0.58064E-09  6035   0.592E-04    0.216E-05
RMM:   7    -0.369148877194E+02    0.21032E-09   -0.32947E-10  4348   0.136E-04    0.127E-05
RMM:   8    -0.369148877198E+02   -0.40927E-09   -0.23838E-11  3774   0.555E-05    0.312E-06
RMM:   9    -0.369148877200E+02   -0.21271E-09   -0.12488E-11  3751   0.454E-05    0.225E-06
RMM:  10    -0.369148877202E+02   -0.25227E-09   -0.15074E-11  3437   0.376E-05    0.101E-06
RMM:  11    -0.369148877205E+02   -0.27626E-09   -0.11100E-11  3204   0.326E-05    0.120E-06
RMM:  12    -0.369148877207E+02   -0.15257E-09   -0.41991E-12  2926   0.276E-05    0.381E-07
RMM:  13    -0.369148877208E+02   -0.17008E-09   -0.42805E-12  2803   0.254E-05    0.117E-06
RMM:  14    -0.369148877204E+02    0.48453E-09   -0.30058E-12  2540   0.232E-05    0.634E-08
RMM:  15    -0.369148877203E+02    0.12278E-10   -0.17889E-12  2335   0.217E-05
   2 F= -.36914888E+02 E0= -.36914868E+02  d E =0.305604E-04
 BRION: g(F)=  0.323E-03 g(S)=  0.000E+00 retain N=  1 mean eig= 0.20
 eig:   0.202
 bond charge predicted
       N       E                     dE             d eps       ncg     rms          rms(c)
DAV:   1    -0.369149202771E+02   -0.32557E-04   -0.17626E-03  6636   0.395E-01    0.826E-03
RMM:   2    -0.369149212497E+02   -0.97263E-06   -0.27664E-05  5934   0.472E-02    0.591E-03
RMM:   3    -0.369149204351E+02    0.81470E-06   -0.48693E-06  5950   0.178E-02    0.149E-03
RMM:   4    -0.369149203473E+02    0.87770E-07   -0.30374E-07  6105   0.441E-03    0.433E-04
RMM:   5    -0.369149203523E+02   -0.50337E-08   -0.22941E-08  6168   0.107E-03    0.205E-04
 num prob  num prob  num prob  num prob  num prob  num prob RMM:   6    -0.369149203501E+02    0.22010E-08   -0.37320E-09  6003   0.476E-04    0.165E-05
RMM:   7    -0.369149203508E+02   -0.64529E-09   -0.19474E-10  4157   0.109E-04    0.965E-06
RMM:   8    -0.369149203507E+02    0.10118E-09   -0.20536E-11  3722   0.510E-05    0.272E-06
RMM:   9    -0.369149203506E+02    0.74579E-10   -0.12036E-11  3715   0.431E-05
   3 F= -.36914920E+02 E0= -.36914905E+02  d E =-.326302E-04
 BRION: g(F)=  0.106E-13 g(S)=  0.000E+00 retain N=  1 mean eig= 0.20
 eig:   0.202
 reached required accuracy - stopping structural energy minimisation
