    4    4  400    1
  0.5270948E+02  0.4315351E-09  0.2462923E-09  0.1983726E-08  0.5000000E-15
  1.000000000000000E-004
  CAR 
 gr                                      
     16    247     12
 
  0.0000000E+00  0.0000000E+00  0.0000000E+00  0.1157407E-02
    1      -22.185629
    2      -17.117750
    3      -15.920020
    4      -10.306407
    5       -9.015508
    6       -5.875954
    7       -5.761639
    8       -5.201566
    9       -1.120974
   10        0.531715
   11        1.330733
   12        1.716078
 
  0.4166667E-01  0.0000000E+00  0.0000000E+00  0.2314815E-02
    1      -22.175577
    2      -17.261558
    3      -15.761058
    4      -10.294430
    5       -9.005618
    6       -5.919336
    7       -5.783198
    8       -5.264892
    9       -1.041750
   10        0.545336
   11        1.344539
   12        1.730053
 
  0.8333333E-01  0.0000000E+00  0.0000000E+00  0.2314815E-02
    1      -22.145424
    2      -17.572315
    3      -15.404921
    4      -10.258516
    5       -8.975999
    6       -6.047580
    7       -5.846709
    8       -5.441212
    9       -0.817899
   10        0.586200
   11        1.385955
   12        1.771979
 
  0.1250000E+00  0.0000000E+00  0.0000000E+00  0.2314815E-02
    1      -22.095191
    2      -17.930679
    3      -14.971195
    4      -10.198723
    5       -8.926804
    6       -6.255334
    7       -5.948872
    8       -5.699738
    9       -0.480708
   10        0.654320
   11        1.454966
   12        1.841858
 
  0.1666667E+00  0.0000000E+00  0.0000000E+00  0.2314815E-02
    1      -22.024913
    2      -18.296512
    3      -14.500442
    4      -10.115148
    5       -8.858293
    6       -6.534673
    7       -6.084751
    8       -6.009313
    9       -0.062177
   10        0.749706
   11        1.551550
   12        1.939692
 
  0.2083333E+00  0.0000000E+00  0.0000000E+00  0.2314815E-02
    1      -21.934638
    2      -18.656282
    3      -14.006799
    4      -10.007934
    5       -8.770845
    6       -6.876220
    7       -6.346261
    8       -6.248432
    9        0.412805
   10        0.872364
   11        1.675669
   12        2.065485
 
  0.2500000E+00  0.0000000E+00  0.0000000E+00  0.2314815E-02
    1      -21.824430
    2      -19.004390
    3      -13.496666
    4       -9.877270
    5       -8.664962
    6       -7.270168
    7       -6.694534
    8       -6.433650
    9        0.926562
   10        1.022286
   11        1.827267
   12        2.219232
 
  0.2916667E+00  0.0000000E+00  0.0000000E+00  0.2314815E-02
    1      -21.694370
    2      -19.338072
    3      -12.973837
    4       -9.723402
    5       -8.541294
    6       -7.707031
    7       -7.043589
    8       -6.634272
    9        1.199453
   10        1.466417
   11        2.006256
   12        2.400935
 
  0.3333333E+00  0.0000000E+00  0.0000000E+00  0.2314815E-02
    1      -21.544558
    2      -19.655752
    3      -12.441163
    4       -9.546642
    5       -8.400654
    6       -8.178105
    7       -7.386451
    8       -6.844625
    9        1.403830
   10        2.022510
   11        2.212493
   12        2.610589
 
  0.3750000E+00  0.0000000E+00  0.0000000E+00  0.2314815E-02
    1      -21.375110
    2      -19.956437
    3      -11.901208
    4       -9.347381
    5       -8.675662
    6       -8.244044
    7       -7.718397
    8       -7.059653
    9        1.635366
   10        2.445719
   11        2.585550
   12        2.848184
 
  0.4166667E+00  0.0000000E+00  0.0000000E+00  0.2314815E-02
    1      -21.186167
    2      -20.239439
    3      -11.356561
    4       -9.192990
    5       -9.126112
    6       -8.072695
    7       -8.036136
    8       -7.274968
    9        1.893994
   10        2.705382
   11        3.114155
   12        3.139978
 
  0.4583333E+00  0.0000000E+00  0.0000000E+00  0.2314815E-02
    1      -20.977900
    2      -20.504260
    3      -10.810021
    4       -9.724323
    5       -8.883453
    6       -8.337310
    7       -7.888105
    8       -7.486829
    9        2.179620
   10        2.831305
   11        2.989982
   12        3.407257
 
  0.5000000E+00  0.0000000E+00  0.0000000E+00  0.1157407E-02
    1      -20.750515
    2      -20.750515
    3      -10.264736
    4      -10.264736
    5       -8.620184
    6       -8.620184
    7       -7.692086
    8       -7.692086
    9        2.492120
   10        2.492120
   11        3.293039
   12        3.293039
 
  0.0000000E+00  0.2777778E-01  0.0000000E+00  0.2314815E-02
    1      -22.171896
    2      -17.105911
    3      -15.908348
    4      -10.290044
    5       -9.077800
    6       -5.904480
    7       -5.819372
    8       -5.184909
    9       -1.124294
   10        0.550337
   11        1.349575
   12        1.735151
 
  0.4166667E-01  0.2777778E-01  0.0000000E+00  0.4629630E-02
    1      -22.161844
    2      -17.249572
    3      -15.749582
    4      -10.278070
    5       -9.067896
    6       -5.951371
    7       -5.836775
    8       -5.248367
    9       -1.045048
   10        0.563957
   11        1.363381
   12        1.749126
 
  0.8333333E-01  0.2777778E-01  0.0000000E+00  0.4629630E-02
    1      -22.131696
    2      -17.560084
    3      -15.393837
    4      -10.242169
    5       -9.038232
    6       -6.083196
    7       -5.894884
    8       -5.424994
    9       -0.821226
   10        0.604823
   11        1.404794
   12        1.791052
 
  0.1250000E+00  0.2777778E-01  0.0000000E+00  0.4629630E-02
    1      -22.081471
    2      -17.918225
    3      -14.960583
    4      -10.182396
    5       -8.988960
    6       -6.290725
    7       -5.994578
    8       -5.683841
    9       -0.484274
   10        0.672945
   11        1.473802
   12        1.860932
 
  0.1666667E+00  0.2777778E-01  0.0000000E+00  0.4629630E-02
    1      -22.011203
    2      -18.283867
    3      -14.490382
    4      -10.098850
    5       -8.920334
    6       -6.567018
    7       -6.130314
    8       -5.993659
    9       -0.066286
   10        0.768335
   11        1.570380
   12        1.958768
 
  0.2083333E+00  0.2777778E-01  0.0000000E+00  0.4629630E-02
    1      -21.920943
    2      -18.643473
    3      -13.997386
    4       -9.991673
    5       -8.832724
    6       -6.904060
    7       -6.330752
    8       -6.295165
    9        0.407827
   10        0.890999
   11        1.694493
   12        2.084560
 
  0.2500000E+00  0.2777778E-01  0.0000000E+00  0.4629630E-02
    1      -21.810753
    2      -18.991443
    3      -13.488017
    4       -9.861053
    5       -8.726625
    6       -7.292993
    7       -6.679087
    8       -6.482168
    9        0.920413
   10        1.040929
   11        1.846084
   12        2.238310
 
  0.2916667E+00  0.2777778E-01  0.0000000E+00  0.4629630E-02
    1      -21.680716
    2      -19.325003
    3      -12.966090
    4       -9.707237
    5       -8.602671
    6       -7.724906
    7       -7.028144
    8       -6.684776
    9        1.218105
   10        1.458835
   11        2.025067
   12        2.420017
 
  0.3333333E+00  0.2777778E-01  0.0000000E+00  0.4629630E-02
    1      -21.530930
    2      -19.642579
    3      -12.434488
    4       -9.530537
    5       -8.461660
    6       -8.191400
    7       -7.370967
    8       -6.897078
    9        1.422493
   10        2.013308
   11        2.231301
   12        2.629673
 
  0.3750000E+00  0.2777778E-01  0.0000000E+00  0.4629630E-02
    1      -21.361513
    2      -19.943174
    3      -11.895809
    4       -9.331344
    5       -8.684881
    6       -8.304578
    7       -7.702849
    8       -7.113892
    9        1.654041
   10        2.464528
   11        2.574747
   12        2.867274
 
  0.4166667E+00  0.2777778E-01  0.0000000E+00  0.4629630E-02
    1      -21.172608
    2      -20.226099
    3      -11.352682
    4       -9.198670
    5       -9.110150
    6       -8.132633
    7       -8.020510
    8       -7.330778
    9        1.912683
   10        2.724205
   11        3.128619
   12        3.132806
 
  0.4583333E+00  0.2777778E-01  0.0000000E+00  0.4629630E-02
    1      -20.964384
    2      -20.490852
    3      -10.807954
    4       -9.726977
    5       -8.867571
    6       -8.321599
    7       -7.947297
    8       -7.543981
    9        2.198328
   10        2.850077
   11        3.008833
   12        3.426271
 
  0.5000000E+00  0.2777778E-01  0.0000000E+00  0.2314815E-02
    1      -20.737049
    2      -20.737049
    3      -10.264827
    4      -10.264827
    5       -8.604387
    6       -8.604387
    7       -7.750358
    8       -7.750358
    9        2.510852
   10        2.510852
   11        3.311773
   12        3.311773
 
  0.0000000E+00  0.5555556E-01  0.0000000E+00  0.2314815E-02
    1      -22.130705
    2      -17.070398
    3      -15.873480
    4      -10.240988
    5       -9.259667
    6       -5.989473
    7       -5.987912
    8       -5.134959
    9       -1.135073
   10        0.606204
   11        1.406096
   12        1.792371
 
  0.4166667E-01  0.5555556E-01  0.0000000E+00  0.4629630E-02
    1      -22.120658
    2      -17.213627
    3      -15.715295
    4      -10.229027
    5       -9.249714
    6       -6.064171
    7       -5.975614
    8       -5.198825
    9       -1.055759
   10        0.619825
   11        1.419899
   12        1.806346
 
  0.8333333E-01  0.5555556E-01  0.0000000E+00  0.4629630E-02
    1      -22.090523
    2      -17.523409
    3      -15.360730
    4      -10.193162
    5       -9.219903
    6       -6.204113
    7       -6.020249
    8       -5.376397
    9       -0.832016
   10        0.660691
   11        1.461305
   12        1.848272
 
  0.1250000E+00  0.5555556E-01  0.0000000E+00  0.4629630E-02
    1      -22.040321
    2      -17.880885
    3      -14.928911
    4      -10.133451
    5       -9.170374
    6       -6.408121
    7       -6.115501
    8       -5.636228
    9       -0.495790
   10        0.728817
   11        1.530300
   12        1.918153
 
  0.1666667E+00  0.5555556E-01  0.0000000E+00  0.4629630E-02
    1      -21.970087
    2      -18.245953
    3      -14.460395
    4      -10.049992
    5       -9.101365
    6       -6.673505
    7       -6.252677
    8       -5.946786
    9       -0.079464
   10        0.824216
   11        1.626862
   12        2.015991
 
  0.2083333E+00  0.5555556E-01  0.0000000E+00  0.4629630E-02
    1      -21.879870
    2      -18.605069
    3      -13.969383
    4       -9.942925
    5       -9.013222
    6       -6.995567
    7       -6.422558
    8       -6.284318
    9        0.391997
   10        0.946893
   11        1.750955
   12        2.141787
 
  0.2500000E+00  0.5555556E-01  0.0000000E+00  0.4629630E-02
    1      -21.769734
    2      -18.952617
    3      -13.462360
    4       -9.812442
    5       -8.906406
    6       -7.368052
    7       -6.632838
    8       -6.616350
    9        0.901000
   10        1.096841
   11        1.902524
   12        2.295543
 
  0.2916667E+00  0.5555556E-01  0.0000000E+00  0.4629630E-02
    1      -21.639765
    2      -19.285814
    3      -12.943220
    4       -9.658786
    5       -8.781509
    6       -7.783804
    7       -6.981896
    8       -6.826222
    9        1.274040
   10        1.435034
   11        2.081487
   12        2.477256
 
  0.3333333E+00  0.5555556E-01  0.0000000E+00  0.4629630E-02
    1      -21.490058
    2      -19.603077
    3      -12.414939
    4       -9.482270
    5       -8.639276
    6       -8.235411
    7       -7.324599
    8       -7.045492
    9        1.478454
   10        1.984522
   11        2.287707
   12        2.686923
 
  0.3750000E+00  0.5555556E-01  0.0000000E+00  0.4629630E-02
    1      -21.320737
    2      -19.903401
    3      -11.880228
    4       -9.283283
    5       -8.715716
    6       -8.480629
    7       -7.656283
    8       -7.268584
    9        1.710033
   10        2.520940
   11        2.540908
   12        2.924536
 
  0.4166667E+00  0.5555556E-01  0.0000000E+00  0.4629630E-02
    1      -21.131942
    2      -20.186092
    3      -11.341849
    4       -9.218132
    5       -9.062317
    6       -8.306703
    7       -7.973704
    8       -7.490904
    9        1.968709
   10        2.780660
   11        3.092290
   12        3.190084
 
  0.4583333E+00  0.5555556E-01  0.0000000E+00  0.4629630E-02
    1      -20.923848
    2      -20.450642
    3      -10.802809
    4       -9.736776
    5       -8.819982
    6       -8.274534
    7       -8.118880
    8       -7.708688
    9        2.254395
   10        2.906287
   11        3.065377
   12        3.487506
 
  0.5000000E+00  0.5555556E-01  0.0000000E+00  0.2314815E-02
    1      -20.696664
    2      -20.696664
    3      -10.266493
    4      -10.266493
    5       -8.557057
    6       -8.557057
    7       -7.918854
    8       -7.918854
    9        2.566974
   10        2.566974
   11        3.367908
   12        3.367909
 
  0.0000000E+00  0.8333333E-01  0.0000000E+00  0.2314815E-02
    1      -22.062092
    2      -17.011224
    3      -15.815883
    4      -10.159343
    5       -9.547475
    6       -6.254713
    7       -6.129190
    8       -5.051777
    9       -1.155778
   10        0.699322
   11        1.500272
   12        1.887739
 
  0.4166667E-01  0.8333333E-01  0.0000000E+00  0.4629630E-02
    1      -22.052052
    2      -17.153758
    3      -15.658654
    4      -10.147403
    5       -9.537426
    6       -6.306478
    7       -6.136795
    8       -5.116366
    9       -1.076329
   10        0.712941
   11        1.514070
   12        1.901714
 
  0.8333333E-01  0.8333333E-01  0.0000000E+00  0.4629630E-02
    1      -22.021940
    2      -17.462349
    3      -15.306071
    4      -10.111602
    5       -9.507320
    6       -6.438878
    7       -6.180377
    8       -5.295597
    9       -0.852690
   10        0.753806
   11        1.555462
   12        1.943641
 
  0.1250000E+00  0.8333333E-01  0.0000000E+00  0.4629630E-02
    1      -21.971777
    2      -17.818721
    3      -14.876707
    4      -10.051997
    5       -9.457277
    6       -6.631935
    7       -6.273726
    8       -5.557144
    9       -0.517695
   10        0.821930
   11        1.624435
   12        2.013522
 
  0.1666667E+00  0.8333333E-01  0.0000000E+00  0.4629630E-02
    1      -21.901599
    2      -18.182834
    3      -14.411106
    4       -9.968686
    5       -9.387504
    6       -6.878369
    7       -6.414425
    8       -5.868976
    9       -0.104231
   10        0.917331
   11        1.720966
   12        2.111361
 
  0.2083333E+00  0.8333333E-01  0.0000000E+00  0.4629630E-02
    1      -21.811454
    2      -18.541127
    3      -13.923556
    4       -9.861810
    5       -9.298296
    6       -7.174387
    7       -6.593993
    8       -6.207253
    9        0.362650
   10        1.040017
   11        1.845021
   12        2.237161
 
  0.2500000E+00  0.8333333E-01  0.0000000E+00  0.4629630E-02
    1      -21.701411
    2      -18.887968
    3      -13.420660
    4       -9.731559
    5       -9.190047
    6       -7.516847
    7       -6.801802
    8       -6.556078
    9        0.865469
   10        1.189981
   11        1.996549
   12        2.390924
 
  0.2916667E+00  0.8333333E-01  0.0000000E+00  0.4629630E-02
    1      -21.571553
    2      -19.220556
    3      -12.906459
    4       -9.578178
    5       -9.063264
    6       -7.901964
    7       -7.027467
    8       -6.905125
    9        1.367203
   10        1.391912
   11        2.175471
   12        2.572645
 
  0.3333333E+00  0.8333333E-01  0.0000000E+00  0.4629630E-02
    1      -21.421980
    2      -19.537293
    3      -12.384112
    4       -9.401978
    5       -8.918581
    6       -8.324815
    7       -7.262218
    8       -7.247607
    9        1.571645
   10        1.932712
   11        2.381664
   12        2.782323
 
  0.3750000E+00  0.8333333E-01  0.0000000E+00  0.4629630E-02
    1      -21.252816
    2      -19.837163
    3      -11.856553
    4       -9.203348
    5       -8.779570
    6       -8.756781
    7       -7.578943
    8       -7.499265
    9        1.803255
   10        2.480000
   11        2.614901
   12        3.019951
 
  0.4166667E+00  0.8333333E-01  0.0000000E+00  0.4629630E-02
    1      -21.064207
    2      -20.119461
    3      -11.326819
    4       -9.260051
    5       -8.982773
    6       -8.578824
    7       -7.895943
    8       -7.733530
    9        2.061964
   10        2.874696
   11        3.024782
   12        3.285519
 
  0.4583333E+00  0.8333333E-01  0.0000000E+00  0.4629630E-02
    1      -20.856331
    2      -20.383672
    3      -10.798250
    4       -9.760244
    5       -8.740862
    6       -8.385887
    7       -8.196319
    8       -7.961213
    9        2.347686
   10        2.999700
   11        3.159590
   12        3.532444
 
  0.5000000E+00  0.8333333E-01  0.0000000E+00  0.2314815E-02
    1      -20.629400
    2      -20.629400
    3      -10.274620
    4      -10.274620
    5       -8.478384
    6       -8.478384
    7       -8.179418
    8       -8.179418
    9        2.660313
   10        2.660313
   11        3.461134
   12        3.461134
 
  0.0000000E+00  0.1111111E+00  0.0000000E+00  0.2314815E-02
    1      -21.966118
    2      -16.928408
    3      -15.736438
    4      -10.045285
    5       -9.922264
    6       -6.602667
    7       -6.320786
    8       -4.935471
    9       -1.190499
   10        0.829696
   11        1.632066
   12        2.021258
 
  0.4166667E-01  0.1111111E+00  0.0000000E+00  0.4629630E-02
    1      -21.956090
    2      -17.070030
    3      -15.580518
    4      -10.033376
    5       -9.912044
    6       -6.649825
    7       -6.329024
    8       -5.001166
    9       -1.110805
   10        0.843312
   11        1.645856
   12        2.035233
 
  0.8333333E-01  0.1111111E+00  0.0000000E+00  0.4629630E-02
    1      -21.926010
    2      -17.377008
    3      -15.230755
    4       -9.997667
    5       -9.881414
    6       -6.776506
    7       -6.366986
    8       -5.182917
    9       -0.887231
   10        0.884165
   11        1.687226
   12        2.077158
 
  0.1250000E+00  0.1111111E+00  0.0000000E+00  0.4629630E-02
    1      -21.875901
    2      -17.731849
    3      -14.804987
    4       -9.938217
    5       -9.830458
    6       -6.961417
    7       -6.451341
    8       -5.447031
    9       -0.553985
   10        0.952274
   11        1.756161
   12        2.147037
 
  0.1666667E+00  0.1111111E+00  0.0000000E+00  0.4629630E-02
    1      -21.805800
    2      -18.094620
    3      -14.343738
    4       -9.855122
    5       -9.759322
    6       -7.192065
    7       -6.587004
    8       -5.760737
    9       -0.144699
   10        1.047661
   11        1.852641
   12        2.244876
 
  0.2083333E+00  0.1111111E+00  0.0000000E+00  0.4629630E-02
    1      -21.715758
    2      -18.451753
    3      -13.861428
    4       -9.748526
    5       -9.668209
    6       -7.462093
    7       -6.770191
    8       -6.100085
    9        0.315470
   10        1.170336
   11        1.976632
   12        2.370677
 
  0.2500000E+00  0.1111111E+00  0.0000000E+00  0.4629630E-02
    1      -21.605844
    2      -18.797593
    3      -13.364859
    4       -9.618616
    5       -9.557388
    6       -7.768737
    7       -6.991654
    8       -6.449326
    9        0.809224
   10        1.320299
   11        2.128088
   12        2.524443
 
  0.2916667E+00  0.1111111E+00  0.0000000E+00  0.4629630E-02
    1      -21.476142
    2      -19.129319
    3      -12.858335
    4       -9.465638
    5       -9.427191
    6       -8.111279
    7       -7.239139
    8       -6.798323
    9        1.324532
   10        1.497527
   11        2.306936
   12        2.706172
 
  0.3333333E+00  0.1111111E+00  0.0000000E+00  0.4629630E-02
    1      -21.326758
    2      -19.445312
    3      -12.345344
    4       -9.289902
    5       -9.278024
    6       -8.489378
    7       -7.499944
    8       -7.140453
    9        1.701981
   10        1.852505
   11        2.513069
   12        2.915860
 
  0.3750000E+00  0.1111111E+00  0.0000000E+00  0.4629630E-02
    1      -21.157817
    2      -19.744538
    3      -11.829246
    4       -9.110371
    5       -9.091795
    6       -8.901491
    7       -7.763214
    8       -7.471253
    9        1.933603
   10        2.385947
   11        2.746295
   12        3.153501
 
  0.4166667E+00  0.1111111E+00  0.0000000E+00  0.4629630E-02
    1      -20.969469
    2      -20.026282
    3      -11.313614
    4       -9.344149
    5       -8.924807
    6       -8.871797
    7       -8.021117
    8       -7.787617
    9        2.192324
   10        2.918029
   11        3.006198
   12        3.419089
 
  0.4583333E+00  0.1111111E+00  0.0000000E+00  0.4629630E-02
    1      -20.761900
    2      -20.290013
    3      -10.802445
    4       -9.812319
    5       -8.722030
    6       -8.630512
    7       -8.268678
    8       -8.087314
    9        2.478054
   10        3.130080
   11        3.291416
   12        3.436203
 
  0.5000000E+00  0.1111111E+00  0.0000000E+00  0.2314815E-02
    1      -20.535326
    2      -20.535326
    3      -10.300295
    4      -10.300295
    5       -8.502920
    6       -8.502920
    7       -8.368696
    8       -8.368696
    9        2.790685
   10        2.790685
   11        3.589935
   12        3.589955
 
  0.0000000E+00  0.1388889E+00  0.0000000E+00  0.2314815E-02
    1      -21.842871
    2      -16.821980
    3      -15.636636
    4      -10.363149
    5       -9.899067
    6       -7.013599
    7       -6.560420
    8       -4.786189
    9       -1.244857
   10        0.997326
   11        1.801419
   12        2.192931
 
  0.4166667E-01  0.1388889E+00  0.0000000E+00  0.4629630E-02
    1      -21.832856
    2      -16.962541
    3      -15.482355
    4      -10.352637
    5       -9.887200
    6       -7.060338
    7       -6.564390
    8       -4.853499
    9       -1.164717
   10        1.010933
   11        1.815198
   12        2.206904
 
  0.8333333E-01  0.1388889E+00  0.0000000E+00  0.4629630E-02
    1      -21.802818
    2      -17.267548
    3      -15.136328
    4      -10.321108
    5       -9.851618
    6       -7.186768
    7       -6.589137
    8       -5.038875
    9       -0.941022
   10        1.051763
   11        1.856531
   12        2.248825
 
  0.1250000E+00  0.1388889E+00  0.0000000E+00  0.4629630E-02
    1      -21.752780
    2      -17.620445
    3      -14.715541
    4      -10.268581
    5       -9.792378
    6       -7.369862
    7       -6.654714
    8       -5.306601
    9       -0.610006
   10        1.119836
   11        1.925407
   12        2.318699
 
  0.1666667E+00  0.1388889E+00  0.0000000E+00  0.4629630E-02
    1      -21.682780
    2      -17.981483
    3      -14.260482
    4      -10.195084
    5       -9.709579
    6       -7.593529
    7       -6.771945
    8       -5.622878
    9       -0.206325
   10        1.215180
   11        2.021802
   12        2.416532
 
  0.2083333E+00  0.1388889E+00  0.0000000E+00  0.4629630E-02
    1      -21.592871
    2      -18.337105
    3      -13.785792
    4      -10.100642
    5       -9.603362
    6       -7.848301
    7       -6.942620
    8       -5.963643
    9        0.244775
   10        1.337815
   11        2.145687
   12        2.542329
 
  0.2500000E+00  0.1388889E+00  0.0000000E+00  0.4629630E-02
    1      -21.483122
    2      -18.681639
    3      -13.298617
    4       -9.985263
    5       -9.473919
    6       -8.129055
    7       -7.162028
    8       -6.313384
    9        0.726294
   10        1.487742
   11        2.297016
   12        2.696092
 
  0.2916667E+00  0.1388889E+00  0.0000000E+00  0.4629630E-02
    1      -21.353624
    2      -19.012237
    3      -12.803737
    4       -9.848922
    5       -9.321493
    6       -8.433921
    7       -7.420658
    8       -6.662249
    9        1.226600
   10        1.664944
   11        2.475727
   12        2.877823
 
  0.3333333E+00  0.1388889E+00  0.0000000E+00  0.4629630E-02
    1      -21.204482
    2      -19.327258
    3      -12.305279
    4       -9.691525
    5       -9.146393
    6       -8.763648
    7       -7.705678
    8       -7.003839
    9        1.737256
   10        1.869377
   11        2.681730
   12        3.087518
 
  0.3750000E+00  0.1388889E+00  0.0000000E+00  0.4629630E-02
    1      -21.035829
    2      -19.625644
    3      -11.807438
    4       -9.512892
    5       -9.120623
    6       -8.949004
    7       -8.002719
    8       -7.333859
    9        2.100981
   10        2.251678
   11        2.914881
   12        3.325170
 
  0.4166667E+00  0.1388889E+00  0.0000000E+00  0.4629630E-02
    1      -20.847823
    2      -19.906663
    3      -11.314850
    4       -9.507147
    5       -9.312738
    6       -8.729802
    7       -8.298211
    8       -7.649316
    9        2.359676
   10        2.764290
   11        3.174894
   12        3.590786
 
  0.4583333E+00  0.1388889E+00  0.0000000E+00  0.4629630E-02
    1      -20.640652
    2      -20.169770
    3      -10.832770
    4       -9.923496
    5       -9.090742
    6       -8.581681
    7       -8.489381
    8       -7.948058
    9        2.645368
   10        3.269509
   11        3.297257
   12        3.460716
 
  0.5000000E+00  0.1388889E+00  0.0000000E+00  0.2314815E-02
    1      -20.414543
    2      -20.414543
    3      -10.367018
    4      -10.367018
    5       -8.846802
    6       -8.846802
    7       -8.228485
    8       -8.228485
    9        2.957941
   10        2.957941
   11        3.719514
   12        3.719744
 
  0.0000000E+00  0.1666667E+00  0.0000000E+00  0.2314815E-02
    1      -21.692467
    2      -16.691979
    3      -15.518976
    4      -10.849503
    5       -9.721029
    6       -7.470660
    7       -6.843414
    8       -4.604133
    9       -1.325749
   10        1.202197
   11        2.008250
   12        2.402759
 
  0.4166667E-01  0.1666667E+00  0.0000000E+00  0.4629630E-02
    1      -21.682469
    2      -16.831442
    3      -15.366644
    4      -10.838489
    5       -9.709217
    6       -7.518368
    7       -6.841265
    8       -4.673775
    9       -1.244783
   10        1.215791
   11        2.022010
   12        2.416729
 
  0.8333333E-01  0.1666667E+00  0.0000000E+00  0.4629630E-02
    1      -21.652483
    2      -17.134213
    3      -15.025458
    4      -10.805409
    5       -9.673801
    6       -7.647335
    7       -6.848574
    8       -4.864281
    9       -1.020471
   10        1.256583
   11        2.063285
   12        2.458644
 
  0.1250000E+00  0.1666667E+00  0.0000000E+00  0.4629630E-02
    1      -21.602532
    2      -17.484773
    3      -14.611528
    4      -10.750150
    5       -9.614837
    6       -7.832534
    7       -6.888950
    8       -5.136961
    9       -0.692008
   10        1.324597
   11        2.132062
   12        2.528508
 
  0.1666667E+00  0.1666667E+00  0.0000000E+00  0.4629630E-02
    1      -21.532655
    2      -17.843674
    3      -14.165330
    4      -10.672494
    5       -9.532427
    6       -8.055300
    7       -6.978076
    8       -5.456631
    9       -0.295398
   10        1.419863
   11        2.228317
   12        2.626327
 
  0.2083333E+00  0.1666667E+00  0.0000000E+00  0.4629630E-02
    1      -21.442908
    2      -18.197415
    3      -13.701895
    4      -10.572084
    5       -9.426712
    6       -8.304028
    7       -7.122491
    8       -5.799169
    9        0.144120
   10        1.542412
   11        2.352017
   12        2.752109
 
  0.2500000E+00  0.1666667E+00  0.0000000E+00  0.4629630E-02
    1      -21.333364
    2      -18.540315
    3      -13.229034
    4      -10.448366
    5       -9.297883
    6       -8.571632
    7       -7.321907
    8       -6.149446
    9        0.610046
   10        1.692257
   11        2.503113
   12        2.905861
 
  0.2916667E+00  0.1666667E+00  0.0000000E+00  0.4629630E-02
    1      -21.204115
    2      -18.869503
    3      -12.752482
    4      -10.300503
    5       -9.146187
    6       -8.854130
    7       -7.570904
    8       -6.498011
    9        1.091338
   10        1.869383
   11        2.681543
   12        3.087586
 
  0.3333333E+00  0.1666667E+00  0.0000000E+00  0.4629630E-02
    1      -21.055275
    2      -19.183305
    3      -12.277659
    4      -10.127290
    5       -9.150117
    6       -8.971931
    7       -7.860122
    8       -6.838783
    9        1.580154
   10        2.073751
   11        2.887226
   12        3.297280
 
  0.3750000E+00  0.1666667E+00  0.0000000E+00  0.4629630E-02
    1      -20.886979
    2      -19.480643
    3      -11.810404
    4       -9.927119
    5       -9.460636
    6       -8.775496
    7       -8.177212
    8       -7.167687
    9        2.070536
   10        2.305291
   11        3.120057
   12        3.534936
 
  0.4166667E+00  0.1666667E+00  0.0000000E+00  0.4629630E-02
    1      -20.699395
    2      -19.760756
    3      -11.357168
    4       -9.789011
    5       -9.698151
    6       -8.557355
    7       -8.507774
    8       -7.481881
    9        2.557676
   10        2.563915
   11        3.379896
   12        3.800547
 
  0.4583333E+00  0.1666667E+00  0.0000000E+00  0.4629630E-02
    1      -20.492719
    2      -20.023084
    3      -10.924563
    4      -10.140028
    5       -9.439017
    6       -8.836691
    7       -8.318094
    8       -7.779310
    9        2.849516
   10        3.037484
   11        3.501109
   12        3.666546
 
  0.5000000E+00  0.1666667E+00  0.0000000E+00  0.2314815E-02
    1      -20.267188
    2      -20.267188
    3      -10.518037
    4      -10.518037
    5       -9.150328
    6       -9.150328
    7       -8.058439
    8       -8.058439
    9        3.161965
   10        3.161965
   11        3.506307
   12        3.506327
 