<?xml version="1.0" encoding="ISO-8859-1"?>
<modeling>
 <generator>
  <i name="program" type="string">vasp </i>
  <i name="version" type="string">5.3.5  </i>
  <i name="subversion" type="string">31Mar14 (build Mar 02 2015 18:14:16) complex                          parallel </i>
  <i name="platform" type="string">LinuxIFC </i>
  <i name="date" type="string">2018 08 10 </i>
  <i name="time" type="string">15:45:31 </i>
 </generator>
 <incar>
  <i type="string" name="SYSTEM">  gr</i>
  <i type="string" name="PREC">accurate : accuracy</i>
  <i type="string" name="ALGO"> FAST.</i>
  <i type="int" name="NELM">   100</i>
  <i type="int" name="NELMDL">    -3</i>
  <i type="int" name="NELMIN">     5</i>
  <i type="int" name="IBRION">     1</i>
  <i name="EDIFF">      0.00000000</i>
  <i name="EDIFFG">     -0.00000100</i>
  <i type="int" name="NSW">   400</i>
  <i type="int" name="ISIF">     2</i>
  <i name="ENCUT">   2000.00000000</i>
  <i type="int" name="ISMEAR">     0</i>
  <i name="SIGMA">      0.05000000</i>
  <i type="int" name="NWRITE">     2</i>
  <i type="logical" name="LWAVE"> F  </i>
  <i type="logical" name="LCHARG"> F  </i>
  <i type="int" name="NELM">   100</i>
 </incar>
 <kpoints>
  <generation param="Gamma">
   <v type="int" name="divisions">      24       36        1 </v>
   <v name="usershift">      0.00000000       0.00000000       0.00000000 </v>
   <v name="genvec1">      0.04166667       0.00000000       0.00000000 </v>
   <v name="genvec2">      0.00000000       0.02777778       0.00000000 </v>
   <v name="genvec3">      0.00000000       0.00000000       1.00000000 </v>
   <v name="shift">      0.00000000       0.00000000       0.00000000 </v>
  </generation>
  <varray name="kpointlist" >
   <v>       0.00000000       0.00000000       0.00000000 </v>
   <v>       0.04166667       0.00000000       0.00000000 </v>
   <v>       0.08333333       0.00000000       0.00000000 </v>
   <v>       0.12500000       0.00000000       0.00000000 </v>
   <v>       0.16666667       0.00000000       0.00000000 </v>
   <v>       0.20833333       0.00000000       0.00000000 </v>
   <v>       0.25000000       0.00000000       0.00000000 </v>
   <v>       0.29166667       0.00000000       0.00000000 </v>
   <v>       0.33333333       0.00000000       0.00000000 </v>
   <v>       0.37500000       0.00000000       0.00000000 </v>
   <v>       0.41666667       0.00000000       0.00000000 </v>
   <v>       0.45833333       0.00000000       0.00000000 </v>
   <v>       0.50000000       0.00000000       0.00000000 </v>
   <v>       0.00000000       0.02777778       0.00000000 </v>
   <v>       0.04166667       0.02777778       0.00000000 </v>
   <v>       0.08333333       0.02777778       0.00000000 </v>
   <v>       0.12500000       0.02777778       0.00000000 </v>
   <v>       0.16666667       0.02777778       0.00000000 </v>
   <v>       0.20833333       0.02777778       0.00000000 </v>
   <v>       0.25000000       0.02777778       0.00000000 </v>
   <v>       0.29166667       0.02777778       0.00000000 </v>
   <v>       0.33333333       0.02777778       0.00000000 </v>
   <v>       0.37500000       0.02777778       0.00000000 </v>
   <v>       0.41666667       0.02777778       0.00000000 </v>
   <v>       0.45833333       0.02777778       0.00000000 </v>
   <v>       0.50000000       0.02777778       0.00000000 </v>
   <v>       0.00000000       0.05555556       0.00000000 </v>
   <v>       0.04166667       0.05555556       0.00000000 </v>
   <v>       0.08333333       0.05555556       0.00000000 </v>
   <v>       0.12500000       0.05555556       0.00000000 </v>
   <v>       0.16666667       0.05555556       0.00000000 </v>
   <v>       0.20833333       0.05555556       0.00000000 </v>
   <v>       0.25000000       0.05555556       0.00000000 </v>
   <v>       0.29166667       0.05555556       0.00000000 </v>
   <v>       0.33333333       0.05555556       0.00000000 </v>
   <v>       0.37500000       0.05555556       0.00000000 </v>
   <v>       0.41666667       0.05555556       0.00000000 </v>
   <v>       0.45833333       0.05555556       0.00000000 </v>
   <v>       0.50000000       0.05555556       0.00000000 </v>
   <v>       0.00000000       0.08333333       0.00000000 </v>
   <v>       0.04166667       0.08333333       0.00000000 </v>
   <v>       0.08333333       0.08333333       0.00000000 </v>
   <v>       0.12500000       0.08333333       0.00000000 </v>
   <v>       0.16666667       0.08333333       0.00000000 </v>
   <v>       0.20833333       0.08333333       0.00000000 </v>
   <v>       0.25000000       0.08333333       0.00000000 </v>
   <v>       0.29166667       0.08333333       0.00000000 </v>
   <v>       0.33333333       0.08333333       0.00000000 </v>
   <v>       0.37500000       0.08333333       0.00000000 </v>
   <v>       0.41666667       0.08333333       0.00000000 </v>
   <v>       0.45833333       0.08333333       0.00000000 </v>
   <v>       0.50000000       0.08333333       0.00000000 </v>
   <v>       0.00000000       0.11111111       0.00000000 </v>
   <v>       0.04166667       0.11111111       0.00000000 </v>
   <v>       0.08333333       0.11111111       0.00000000 </v>
   <v>       0.12500000       0.11111111       0.00000000 </v>
   <v>       0.16666667       0.11111111       0.00000000 </v>
   <v>       0.20833333       0.11111111       0.00000000 </v>
   <v>       0.25000000       0.11111111       0.00000000 </v>
   <v>       0.29166667       0.11111111       0.00000000 </v>
   <v>       0.33333333       0.11111111       0.00000000 </v>
   <v>       0.37500000       0.11111111       0.00000000 </v>
   <v>       0.41666667       0.11111111       0.00000000 </v>
   <v>       0.45833333       0.11111111       0.00000000 </v>
   <v>       0.50000000       0.11111111       0.00000000 </v>
   <v>       0.00000000       0.13888889       0.00000000 </v>
   <v>       0.04166667       0.13888889       0.00000000 </v>
   <v>       0.08333333       0.13888889       0.00000000 </v>
   <v>       0.12500000       0.13888889       0.00000000 </v>
   <v>       0.16666667       0.13888889       0.00000000 </v>
   <v>       0.20833333       0.13888889       0.00000000 </v>
   <v>       0.25000000       0.13888889       0.00000000 </v>
   <v>       0.29166667       0.13888889       0.00000000 </v>
   <v>       0.33333333       0.13888889       0.00000000 </v>
   <v>       0.37500000       0.13888889       0.00000000 </v>
   <v>       0.41666667       0.13888889       0.00000000 </v>
   <v>       0.45833333       0.13888889       0.00000000 </v>
   <v>       0.50000000       0.13888889       0.00000000 </v>
   <v>       0.00000000       0.16666667       0.00000000 </v>
   <v>       0.04166667       0.16666667       0.00000000 </v>
   <v>       0.08333333       0.16666667       0.00000000 </v>
   <v>       0.12500000       0.16666667       0.00000000 </v>
   <v>       0.16666667       0.16666667       0.00000000 </v>
   <v>       0.20833333       0.16666667       0.00000000 </v>
   <v>       0.25000000       0.16666667       0.00000000 </v>
   <v>       0.29166667       0.16666667       0.00000000 </v>
   <v>       0.33333333       0.16666667       0.00000000 </v>
   <v>       0.37500000       0.16666667       0.00000000 </v>
   <v>       0.41666667       0.16666667       0.00000000 </v>
   <v>       0.45833333       0.16666667       0.00000000 </v>
   <v>       0.50000000       0.16666667       0.00000000 </v>
   <v>       0.00000000       0.19444444       0.00000000 </v>
   <v>       0.04166667       0.19444444       0.00000000 </v>
   <v>       0.08333333       0.19444444       0.00000000 </v>
   <v>       0.12500000       0.19444444       0.00000000 </v>
   <v>       0.16666667       0.19444444       0.00000000 </v>
   <v>       0.20833333       0.19444444       0.00000000 </v>
   <v>       0.25000000       0.19444444       0.00000000 </v>
   <v>       0.29166667       0.19444444       0.00000000 </v>
   <v>       0.33333333       0.19444444       0.00000000 </v>
   <v>       0.37500000       0.19444444       0.00000000 </v>
   <v>       0.41666667       0.19444444       0.00000000 </v>
   <v>       0.45833333       0.19444444       0.00000000 </v>
   <v>       0.50000000       0.19444444       0.00000000 </v>
   <v>       0.00000000       0.22222222       0.00000000 </v>
   <v>       0.04166667       0.22222222       0.00000000 </v>
   <v>       0.08333333       0.22222222       0.00000000 </v>
   <v>       0.12500000       0.22222222       0.00000000 </v>
   <v>       0.16666667       0.22222222       0.00000000 </v>
   <v>       0.20833333       0.22222222       0.00000000 </v>
   <v>       0.25000000       0.22222222       0.00000000 </v>
   <v>       0.29166667       0.22222222       0.00000000 </v>
   <v>       0.33333333       0.22222222       0.00000000 </v>
   <v>       0.37500000       0.22222222       0.00000000 </v>
   <v>       0.41666667       0.22222222       0.00000000 </v>
   <v>       0.45833333       0.22222222       0.00000000 </v>
   <v>       0.50000000       0.22222222       0.00000000 </v>
   <v>       0.00000000       0.25000000       0.00000000 </v>
   <v>       0.04166667       0.25000000       0.00000000 </v>
   <v>       0.08333333       0.25000000       0.00000000 </v>
   <v>       0.12500000       0.25000000       0.00000000 </v>
   <v>       0.16666667       0.25000000       0.00000000 </v>
   <v>       0.20833333       0.25000000       0.00000000 </v>
   <v>       0.25000000       0.25000000       0.00000000 </v>
   <v>       0.29166667       0.25000000       0.00000000 </v>
   <v>       0.33333333       0.25000000       0.00000000 </v>
   <v>       0.37500000       0.25000000       0.00000000 </v>
   <v>       0.41666667       0.25000000       0.00000000 </v>
   <v>       0.45833333       0.25000000       0.00000000 </v>
   <v>       0.50000000       0.25000000       0.00000000 </v>
   <v>       0.00000000       0.27777778       0.00000000 </v>
   <v>       0.04166667       0.27777778       0.00000000 </v>
   <v>       0.08333333       0.27777778       0.00000000 </v>
   <v>       0.12500000       0.27777778       0.00000000 </v>
   <v>       0.16666667       0.27777778       0.00000000 </v>
   <v>       0.20833333       0.27777778       0.00000000 </v>
   <v>       0.25000000       0.27777778       0.00000000 </v>
   <v>       0.29166667       0.27777778       0.00000000 </v>
   <v>       0.33333333       0.27777778       0.00000000 </v>
   <v>       0.37500000       0.27777778       0.00000000 </v>
   <v>       0.41666667       0.27777778       0.00000000 </v>
   <v>       0.45833333       0.27777778       0.00000000 </v>
   <v>       0.50000000       0.27777778       0.00000000 </v>
   <v>       0.00000000       0.30555556       0.00000000 </v>
   <v>       0.04166667       0.30555556       0.00000000 </v>
   <v>       0.08333333       0.30555556       0.00000000 </v>
   <v>       0.12500000       0.30555556       0.00000000 </v>
   <v>       0.16666667       0.30555556       0.00000000 </v>
   <v>       0.20833333       0.30555556       0.00000000 </v>
   <v>       0.25000000       0.30555556       0.00000000 </v>
   <v>       0.29166667       0.30555556       0.00000000 </v>
   <v>       0.33333333       0.30555556       0.00000000 </v>
   <v>       0.37500000       0.30555556       0.00000000 </v>
   <v>       0.41666667       0.30555556       0.00000000 </v>
   <v>       0.45833333       0.30555556       0.00000000 </v>
   <v>       0.50000000       0.30555556       0.00000000 </v>
   <v>       0.00000000       0.33333333       0.00000000 </v>
   <v>       0.04166667       0.33333333       0.00000000 </v>
   <v>       0.08333333       0.33333333       0.00000000 </v>
   <v>       0.12500000       0.33333333       0.00000000 </v>
   <v>       0.16666667       0.33333333       0.00000000 </v>
   <v>       0.20833333       0.33333333       0.00000000 </v>
   <v>       0.25000000       0.33333333       0.00000000 </v>
   <v>       0.29166667       0.33333333       0.00000000 </v>
   <v>       0.33333333       0.33333333       0.00000000 </v>
   <v>       0.37500000       0.33333333       0.00000000 </v>
   <v>       0.41666667       0.33333333       0.00000000 </v>
   <v>       0.45833333       0.33333333       0.00000000 </v>
   <v>       0.50000000       0.33333333       0.00000000 </v>
   <v>       0.00000000       0.36111111       0.00000000 </v>
   <v>       0.04166667       0.36111111       0.00000000 </v>
   <v>       0.08333333       0.36111111       0.00000000 </v>
   <v>       0.12500000       0.36111111       0.00000000 </v>
   <v>       0.16666667       0.36111111       0.00000000 </v>
   <v>       0.20833333       0.36111111       0.00000000 </v>
   <v>       0.25000000       0.36111111       0.00000000 </v>
   <v>       0.29166667       0.36111111       0.00000000 </v>
   <v>       0.33333333       0.36111111       0.00000000 </v>
   <v>       0.37500000       0.36111111       0.00000000 </v>
   <v>       0.41666667       0.36111111       0.00000000 </v>
   <v>       0.45833333       0.36111111       0.00000000 </v>
   <v>       0.50000000       0.36111111       0.00000000 </v>
   <v>       0.00000000       0.38888889       0.00000000 </v>
   <v>       0.04166667       0.38888889       0.00000000 </v>
   <v>       0.08333333       0.38888889       0.00000000 </v>
   <v>       0.12500000       0.38888889       0.00000000 </v>
   <v>       0.16666667       0.38888889       0.00000000 </v>
   <v>       0.20833333       0.38888889       0.00000000 </v>
   <v>       0.25000000       0.38888889       0.00000000 </v>
   <v>       0.29166667       0.38888889       0.00000000 </v>
   <v>       0.33333333       0.38888889       0.00000000 </v>
   <v>       0.37500000       0.38888889       0.00000000 </v>
   <v>       0.41666667       0.38888889       0.00000000 </v>
   <v>       0.45833333       0.38888889       0.00000000 </v>
   <v>       0.50000000       0.38888889       0.00000000 </v>
   <v>       0.00000000       0.41666667       0.00000000 </v>
   <v>       0.04166667       0.41666667       0.00000000 </v>
   <v>       0.08333333       0.41666667       0.00000000 </v>
   <v>       0.12500000       0.41666667       0.00000000 </v>
   <v>       0.16666667       0.41666667       0.00000000 </v>
   <v>       0.20833333       0.41666667       0.00000000 </v>
   <v>       0.25000000       0.41666667       0.00000000 </v>
   <v>       0.29166667       0.41666667       0.00000000 </v>
   <v>       0.33333333       0.41666667       0.00000000 </v>
   <v>       0.37500000       0.41666667       0.00000000 </v>
   <v>       0.41666667       0.41666667       0.00000000 </v>
   <v>       0.45833333       0.41666667       0.00000000 </v>
   <v>       0.50000000       0.41666667       0.00000000 </v>
   <v>       0.00000000       0.44444444       0.00000000 </v>
   <v>       0.04166667       0.44444444       0.00000000 </v>
   <v>       0.08333333       0.44444444       0.00000000 </v>
   <v>       0.12500000       0.44444444       0.00000000 </v>
   <v>       0.16666667       0.44444444       0.00000000 </v>
   <v>       0.20833333       0.44444444       0.00000000 </v>
   <v>       0.25000000       0.44444444       0.00000000 </v>
   <v>       0.29166667       0.44444444       0.00000000 </v>
   <v>       0.33333333       0.44444444       0.00000000 </v>
   <v>       0.37500000       0.44444444       0.00000000 </v>
   <v>       0.41666667       0.44444444       0.00000000 </v>
   <v>       0.45833333       0.44444444       0.00000000 </v>
   <v>       0.50000000       0.44444444       0.00000000 </v>
   <v>       0.00000000       0.47222222       0.00000000 </v>
   <v>       0.04166667       0.47222222       0.00000000 </v>
   <v>       0.08333333       0.47222222       0.00000000 </v>
   <v>       0.12500000       0.47222222       0.00000000 </v>
   <v>       0.16666667       0.47222222       0.00000000 </v>
   <v>       0.20833333       0.47222222       0.00000000 </v>
   <v>       0.25000000       0.47222222       0.00000000 </v>
   <v>       0.29166667       0.47222222       0.00000000 </v>
   <v>       0.33333333       0.47222222       0.00000000 </v>
   <v>       0.37500000       0.47222222       0.00000000 </v>
   <v>       0.41666667       0.47222222       0.00000000 </v>
   <v>       0.45833333       0.47222222       0.00000000 </v>
   <v>       0.50000000       0.47222222       0.00000000 </v>
   <v>       0.00000000       0.50000000       0.00000000 </v>
   <v>       0.04166667       0.50000000       0.00000000 </v>
   <v>       0.08333333       0.50000000       0.00000000 </v>
   <v>       0.12500000       0.50000000       0.00000000 </v>
   <v>       0.16666667       0.50000000       0.00000000 </v>
   <v>       0.20833333       0.50000000       0.00000000 </v>
   <v>       0.25000000       0.50000000       0.00000000 </v>
   <v>       0.29166667       0.50000000       0.00000000 </v>
   <v>       0.33333333       0.50000000       0.00000000 </v>
   <v>       0.37500000       0.50000000       0.00000000 </v>
   <v>       0.41666667       0.50000000       0.00000000 </v>
   <v>       0.45833333       0.50000000       0.00000000 </v>
   <v>       0.50000000       0.50000000       0.00000000 </v>
  </varray>
  <varray name="weights" >
   <v>       0.00115741 </v>
   <v>       0.00231481 </v>
   <v>       0.00231481 </v>
   <v>       0.00231481 </v>
   <v>       0.00231481 </v>
   <v>       0.00231481 </v>
   <v>       0.00231481 </v>
   <v>       0.00231481 </v>
   <v>       0.00231481 </v>
   <v>       0.00231481 </v>
   <v>       0.00231481 </v>
   <v>       0.00231481 </v>
   <v>       0.00115741 </v>
   <v>       0.00231481 </v>
   <v>       0.00462963 </v>
   <v>       0.00462963 </v>
   <v>       0.00462963 </v>
   <v>       0.00462963 </v>
   <v>       0.00462963 </v>
   <v>       0.00462963 </v>
   <v>       0.00462963 </v>
   <v>       0.00462963 </v>
   <v>       0.00462963 </v>
   <v>       0.00462963 </v>
   <v>       0.00462963 </v>
   <v>       0.00231481 </v>
   <v>       0.00231481 </v>
   <v>       0.00462963 </v>
   <v>       0.00462963 </v>
   <v>       0.00462963 </v>
   <v>       0.00462963 </v>
   <v>       0.00462963 </v>
   <v>       0.00462963 </v>
   <v>       0.00462963 </v>
   <v>       0.00462963 </v>
   <v>       0.00462963 </v>
   <v>       0.00462963 </v>
   <v>       0.00462963 </v>
   <v>       0.00231481 </v>
   <v>       0.00231481 </v>
   <v>       0.00462963 </v>
   <v>       0.00462963 </v>
   <v>       0.00462963 </v>
   <v>       0.00462963 </v>
   <v>       0.00462963 </v>
   <v>       0.00462963 </v>
   <v>       0.00462963 </v>
   <v>       0.00462963 </v>
   <v>       0.00462963 </v>
   <v>       0.00462963 </v>
   <v>       0.00462963 </v>
   <v>       0.00231481 </v>
   <v>       0.00231481 </v>
   <v>       0.00462963 </v>
   <v>       0.00462963 </v>
   <v>       0.00462963 </v>
   <v>       0.00462963 </v>
   <v>       0.00462963 </v>
   <v>       0.00462963 </v>
   <v>       0.00462963 </v>
   <v>       0.00462963 </v>
   <v>       0.00462963 </v>
   <v>       0.00462963 </v>
   <v>       0.00462963 </v>
   <v>       0.00231481 </v>
   <v>       0.00231481 </v>
   <v>       0.00462963 </v>
   <v>       0.00462963 </v>
   <v>       0.00462963 </v>
   <v>       0.00462963 </v>
   <v>       0.00462963 </v>
   <v>       0.00462963 </v>
   <v>       0.00462963 </v>
   <v>       0.00462963 </v>
   <v>       0.00462963 </v>
   <v>       0.00462963 </v>
   <v>       0.00462963 </v>
   <v>       0.00231481 </v>
   <v>       0.00231481 </v>
   <v>       0.00462963 </v>
   <v>       0.00462963 </v>
   <v>       0.00462963 </v>
   <v>       0.00462963 </v>
   <v>       0.00462963 </v>
   <v>       0.00462963 </v>
   <v>       0.00462963 </v>
   <v>       0.00462963 </v>
   <v>       0.00462963 </v>
   <v>       0.00462963 </v>
   <v>       0.00462963 </v>
   <v>       0.00231481 </v>
   <v>       0.00231481 </v>
   <v>       0.00462963 </v>
   <v>       0.00462963 </v>
   <v>       0.00462963 </v>
   <v>       0.00462963 </v>
   <v>       0.00462963 </v>
   <v>       0.00462963 </v>
   <v>       0.00462963 </v>
   <v>       0.00462963 </v>
   <v>       0.00462963 </v>
   <v>       0.00462963 </v>
   <v>       0.00462963 </v>
   <v>       0.00231481 </v>
   <v>       0.00231481 </v>
   <v>       0.00462963 </v>
   <v>       0.00462963 </v>
   <v>       0.00462963 </v>
   <v>       0.00462963 </v>
   <v>       0.00462963 </v>
   <v>       0.00462963 </v>
   <v>       0.00462963 </v>
   <v>       0.00462963 </v>
   <v>       0.00462963 </v>
   <v>       0.00462963 </v>
   <v>       0.00462963 </v>
   <v>       0.00231481 </v>
   <v>       0.00231481 </v>
   <v>       0.00462963 </v>
   <v>       0.00462963 </v>
   <v>       0.00462963 </v>
   <v>       0.00462963 </v>
   <v>       0.00462963 </v>
   <v>       0.00462963 </v>
   <v>       0.00462963 </v>
   <v>       0.00462963 </v>
   <v>       0.00462963 </v>
   <v>       0.00462963 </v>
   <v>       0.00462963 </v>
   <v>       0.00231481 </v>
   <v>       0.00231481 </v>
   <v>       0.00462963 </v>
   <v>       0.00462963 </v>
   <v>       0.00462963 </v>
   <v>       0.00462963 </v>
   <v>       0.00462963 </v>
   <v>       0.00462963 </v>
   <v>       0.00462963 </v>
   <v>       0.00462963 </v>
   <v>       0.00462963 </v>
   <v>       0.00462963 </v>
   <v>       0.00462963 </v>
   <v>       0.00231481 </v>
   <v>       0.00231481 </v>
   <v>       0.00462963 </v>
   <v>       0.00462963 </v>
   <v>       0.00462963 </v>
   <v>       0.00462963 </v>
   <v>       0.00462963 </v>
   <v>       0.00462963 </v>
   <v>       0.00462963 </v>
   <v>       0.00462963 </v>
   <v>       0.00462963 </v>
   <v>       0.00462963 </v>
   <v>       0.00462963 </v>
   <v>       0.00231481 </v>
   <v>       0.00231481 </v>
   <v>       0.00462963 </v>
   <v>       0.00462963 </v>
   <v>       0.00462963 </v>
   <v>       0.00462963 </v>
   <v>       0.00462963 </v>
   <v>       0.00462963 </v>
   <v>       0.00462963 </v>
   <v>       0.00462963 </v>
   <v>       0.00462963 </v>
   <v>       0.00462963 </v>
   <v>       0.00462963 </v>
   <v>       0.00231481 </v>
   <v>       0.00231481 </v>
   <v>       0.00462963 </v>
   <v>       0.00462963 </v>
   <v>       0.00462963 </v>
   <v>       0.00462963 </v>
   <v>       0.00462963 </v>
   <v>       0.00462963 </v>
   <v>       0.00462963 </v>
   <v>       0.00462963 </v>
   <v>       0.00462963 </v>
   <v>       0.00462963 </v>
   <v>       0.00462963 </v>
   <v>       0.00231481 </v>
   <v>       0.00231481 </v>
   <v>       0.00462963 </v>
   <v>       0.00462963 </v>
   <v>       0.00462963 </v>
   <v>       0.00462963 </v>
   <v>       0.00462963 </v>
   <v>       0.00462963 </v>
   <v>       0.00462963 </v>
   <v>       0.00462963 </v>
   <v>       0.00462963 </v>
   <v>       0.00462963 </v>
   <v>       0.00462963 </v>
   <v>       0.00231481 </v>
   <v>       0.00231481 </v>
   <v>       0.00462963 </v>
   <v>       0.00462963 </v>
   <v>       0.00462963 </v>
   <v>       0.00462963 </v>
   <v>       0.00462963 </v>
   <v>       0.00462963 </v>
   <v>       0.00462963 </v>
   <v>       0.00462963 </v>
   <v>       0.00462963 </v>
   <v>       0.00462963 </v>
   <v>       0.00462963 </v>
   <v>       0.00231481 </v>
   <v>       0.00231481 </v>
   <v>       0.00462963 </v>
   <v>       0.00462963 </v>
   <v>       0.00462963 </v>
   <v>       0.00462963 </v>
   <v>       0.00462963 </v>
   <v>       0.00462963 </v>
   <v>       0.00462963 </v>
   <v>       0.00462963 </v>
   <v>       0.00462963 </v>
   <v>       0.00462963 </v>
   <v>       0.00462963 </v>
   <v>       0.00231481 </v>
   <v>       0.00231481 </v>
   <v>       0.00462963 </v>
   <v>       0.00462963 </v>
   <v>       0.00462963 </v>
   <v>       0.00462963 </v>
   <v>       0.00462963 </v>
   <v>       0.00462963 </v>
   <v>       0.00462963 </v>
   <v>       0.00462963 </v>
   <v>       0.00462963 </v>
   <v>       0.00462963 </v>
   <v>       0.00462963 </v>
   <v>       0.00231481 </v>
   <v>       0.00115741 </v>
   <v>       0.00231481 </v>
   <v>       0.00231481 </v>
   <v>       0.00231481 </v>
   <v>       0.00231481 </v>
   <v>       0.00231481 </v>
   <v>       0.00231481 </v>
   <v>       0.00231481 </v>
   <v>       0.00231481 </v>
   <v>       0.00231481 </v>
   <v>       0.00231481 </v>
   <v>       0.00231481 </v>
   <v>       0.00115741 </v>
  </varray>
 </kpoints>
 <parameters>
  <separator name="general" >
   <i type="string" name="SYSTEM">gr</i>
   <i type="logical" name="LCOMPAT"> F  </i>
  </separator>
  <separator name="electronic" >
   <i type="string" name="PREC">accura</i>
   <i name="ENMAX">   2000.00000000</i>
   <i name="ENAUG">    644.87300000</i>
   <i name="EDIFF">      0.00000000</i>
   <i type="int" name="IALGO">    68</i>
   <i type="int" name="IWAVPR">    11</i>
   <i type="int" name="NBANDS">    12</i>
   <i name="NELECT">     16.00000000</i>
   <i type="int" name="TURBO">     0</i>
   <i type="int" name="IRESTART">     0</i>
   <i type="int" name="NREBOOT">     0</i>
   <i type="int" name="NMIN">     0</i>
   <i name="EREF">      0.00000000</i>
   <separator name="electronic smearing" >
    <i type="int" name="ISMEAR">     0</i>
    <i name="SIGMA">      0.05000000</i>
    <i name="KSPACING">      0.50000000</i>
    <i type="logical" name="KGAMMA"> T  </i>
   </separator>
   <separator name="electronic projectors" >
    <i type="logical" name="LREAL"> F  </i>
    <v name="ROPT">      0.00000000</v>
    <i type="int" name="LMAXPAW">  -100</i>
    <i type="int" name="LMAXMIX">     2</i>
    <i type="logical" name="NLSPLINE"> F  </i>
   </separator>
   <separator name="electronic startup" >
    <i type="int" name="ISTART">     0</i>
    <i type="int" name="ICHARG">     2</i>
    <i type="int" name="INIWAV">     1</i>
   </separator>
   <separator name="electronic spin" >
    <i type="int" name="ISPIN">     1</i>
    <i type="logical" name="LNONCOLLINEAR"> F  </i>
    <v name="MAGMOM">      1.00000000      1.00000000      1.00000000      1.00000000</v>
    <i name="NUPDOWN">     -1.00000000</i>
    <i type="logical" name="LSORBIT"> F  </i>
    <v name="SAXIS">      0.00000000      0.00000000      1.00000000</v>
    <i type="logical" name="LSPIRAL"> F  </i>
    <v name="QSPIRAL">      0.00000000      0.00000000      0.00000000</v>
    <i type="logical" name="LZEROZ"> F  </i>
   </separator>
   <separator name="electronic exchange-correlation" >
    <i type="logical" name="LASPH"> F  </i>
    <i type="logical" name="LMETAGGA"> F  </i>
   </separator>
   <separator name="electronic convergence" >
    <i type="int" name="NELM">   100</i>
    <i type="int" name="NELMDL">    -3</i>
    <i type="int" name="NELMIN">     5</i>
    <i name="ENINI">   2000.00000000</i>
    <separator name="electronic convergence detail" >
     <i type="logical" name="LDIAG"> T  </i>
     <i type="logical" name="LSUBROT"> F  </i>
     <i name="WEIMIN">      0.00100000</i>
     <i name="EBREAK">      0.00000000</i>
     <i name="DEPER">      0.30000000</i>
     <i type="int" name="NRMM">     4</i>
     <i name="TIME">      0.40000000</i>
    </separator>
   </separator>
   <separator name="electronic mixer" >
    <i name="AMIX">      0.40000000</i>
    <i name="BMIX">      1.00000000</i>
    <i name="AMIN">      0.10000000</i>
    <i name="AMIX_MAG">      1.60000000</i>
    <i name="BMIX_MAG">      1.00000000</i>
    <separator name="electronic mixer details" >
     <i type="int" name="IMIX">     4</i>
     <i type="int" name="MAXMIX">   -45</i>
     <i name="WC">    100.00000000</i>
     <i type="int" name="INIMIX">     1</i>
     <i type="int" name="MIXPRE">     1</i>
     <i type="int" name="MREMOVE">     5</i>
    </separator>
   </separator>
   <separator name="electronic dipolcorrection" >
    <i type="logical" name="LDIPOL"> F  </i>
    <i type="logical" name="LMONO"> F  </i>
    <i type="int" name="IDIPOL">     0</i>
    <i name="EPSILON">      1.00000000</i>
    <v name="DIPOL">   -100.00000000   -100.00000000   -100.00000000</v>
    <i name="EFIELD">      0.00000000</i>
   </separator>
  </separator>
  <separator name="grids" >
   <i type="int" name="NGX">    64</i>
   <i type="int" name="NGY">    36</i>
   <i type="int" name="NGZ">   294</i>
   <i type="int" name="NGXF">   128</i>
   <i type="int" name="NGYF">    72</i>
   <i type="int" name="NGZF">   588</i>
   <i type="logical" name="ADDGRID"> F  </i>
  </separator>
  <separator name="ionic" >
   <i type="int" name="NSW">   400</i>
   <i type="int" name="IBRION">     1</i>
   <i type="int" name="ISIF">     2</i>
   <i name="PSTRESS">      0.00000000</i>
   <i name="EDIFFG">     -0.00000100</i>
   <i type="int" name="NFREE">     0</i>
   <i name="POTIM">      0.50000000</i>
   <i name="SMASS">     -3.00000000</i>
   <i name="SCALEE">      1.00000000</i>
  </separator>
  <separator name="ionic md" >
   <i name="TEBEG">      0.00010000</i>
   <i name="TEEND">      0.00010000</i>
   <i type="int" name="NBLOCK">     1</i>
   <i type="int" name="KBLOCK">   400</i>
   <i type="int" name="NPACO">   256</i>
   <i name="APACO">     16.00000000</i>
  </separator>
  <separator name="symmetry" >
   <i type="int" name="ISYM">     2</i>
   <i name="SYMPREC">      0.00001000</i>
  </separator>
  <separator name="dos" >
   <i type="logical" name="LORBIT"> F  </i>
   <v name="RWIGS">     -1.00000000</v>
   <i type="int" name="NEDOS">   301</i>
   <i name="EMIN">     10.00000000</i>
   <i name="EMAX">    -10.00000000</i>
   <i name="EFERMI">      0.00000000</i>
  </separator>
  <separator name="writing" >
   <i type="int" name="NWRITE">     2</i>
   <i type="logical" name="LWAVE"> F  </i>
   <i type="logical" name="LCHARG"> F  </i>
   <i type="logical" name="LPARD"> F  </i>
   <i type="logical" name="LVTOT"> F  </i>
   <i type="logical" name="LVHAR"> F  </i>
   <i type="logical" name="LELF"> F  </i>
   <i type="logical" name="LOPTICS"> F  </i>
   <v name="STM">      0.00000000      0.00000000      0.00000000      0.00000000      0.00000000      0.00000000      0.00000000</v>
  </separator>
  <separator name="performance" >
   <i type="int" name="NPAR">     4</i>
   <i type="int" name="NSIM">     4</i>
   <i type="int" name="NBLK">    -1</i>
   <i type="logical" name="LPLANE"> T  </i>
   <i type="logical" name="LSCALAPACK"> F  </i>
   <i type="logical" name="LSCAAWARE"> F  </i>
   <i type="logical" name="LSCALU"> F  </i>
   <i type="logical" name="LASYNC"> F  </i>
   <i type="logical" name="LORBITALREAL"> F  </i>
  </separator>
  <separator name="miscellaneous" >
   <i type="int" name="IDIOT">     3</i>
   <i type="logical" name="LMUSIC"> F  </i>
   <v name="POMASS">     12.01100000</v>
   <v name="DARWINR">      0.00000000</v>
   <v name="DARWINV">      1.00000000</v>
   <i type="logical" name="LCORR"> T  </i>
  </separator>
  <i type="logical" name="GGA_COMPAT"> T  </i>
  <i type="logical" name="LBERRY"> F  </i>
  <i type="int" name="ICORELEVEL">     0</i>
  <i type="logical" name="LDAU"> F  </i>
  <i type="int" name="I_CONSTRAINED_M">     0</i>
  <separator name="electronic exchange-correlation" >
   <i type="string" name="GGA">--</i>
   <i type="int" name="VOSKOWN">     0</i>
   <i type="logical" name="LHFCALC"> F  </i>
   <i type="string" name="PRECFOCK"></i>
   <i type="logical" name="LSYMGRAD"> F  </i>
   <i type="logical" name="LHFONE"> F  </i>
   <i type="logical" name="LRHFCALC"> F  </i>
   <i type="logical" name="LTHOMAS"> F  </i>
   <i type="logical" name="LMODELHF"> F  </i>
   <i name="ENCUT4O">     -1.00000000</i>
   <i type="int" name="EXXOEP">     0</i>
   <i type="int" name="FOURORBIT">     0</i>
   <i name="AEXX">      0.00000000</i>
   <i name="HFALPHA">      0.00000000</i>
   <i name="MCALPHA">      0.00000000</i>
   <i name="ALDAX">      1.00000000</i>
   <i name="AGGAX">      1.00000000</i>
   <i name="ALDAC">      1.00000000</i>
   <i name="AGGAC">      1.00000000</i>
   <i type="int" name="NKREDX">     1</i>
   <i type="int" name="NKREDY">     1</i>
   <i type="int" name="NKREDZ">     1</i>
   <i type="logical" name="SHIFTRED"> F  </i>
   <i type="logical" name="ODDONLY"> F  </i>
   <i type="logical" name="EVENONLY"> F  </i>
   <i type="int" name="LMAXFOCK">     0</i>
   <i type="int" name="NMAXFOCKAE">     0</i>
   <i type="logical" name="LFOCKAEDFT"> F  </i>
   <i name="HFSCREEN">      0.00000000</i>
   <i name="HFSCREENC">      0.00000000</i>
   <i type="int" name="NBANDSGWLOW">     0</i>
  </separator>
  <separator name="vdW DFT" >
   <i type="logical" name="LUSE_VDW"> F  </i>
   <i name="Zab_VDW">     -0.84910000</i>
   <i name="PARAM1">      0.12340000</i>
   <i name="PARAM2">      1.00000000</i>
   <i name="PARAM3">      0.00000000</i>
  </separator>
  <separator name="model GW" >
   <i type="int" name="MODEL_GW">     0</i>
   <i name="MODEL_EPS0">     31.62568521</i>
   <i name="MODEL_ALPHA">      1.00000000</i>
  </separator>
  <separator name="linear response parameters" >
   <i type="logical" name="LEPSILON"> F  </i>
   <i type="logical" name="LRPA"> F  </i>
   <i type="logical" name="LNABLA"> F  </i>
   <i type="logical" name="LVEL"> F  </i>
   <i type="int" name="KINTER">     0</i>
   <i name="CSHIFT">      0.10000000</i>
   <i name="OMEGAMAX">     -1.00000000</i>
   <i name="DEG_THRESHOLD">      0.00200000</i>
  </separator>
  <separator name="orbital magnetization" >
   <i type="logical" name="NUCIND"> F  </i>
   <v name="MAGPOS">      0.00000000      0.00000000      0.00000000</v>
   <i type="logical" name="LNICSALL"> T  </i>
   <i type="logical" name="ORBITALMAG"> F  </i>
   <i type="logical" name="LMAGBLOCH"> F  </i>
   <i type="logical" name="LCHIMAG"> F  </i>
   <i type="logical" name="LGAUGE"> T  </i>
   <i type="int" name="MAGATOM">     0</i>
   <v name="MAGDIPOL">      0.00000000      0.00000000      0.00000000</v>
   <v name="AVECCONST">      0.00000000      0.00000000      0.00000000</v>
  </separator>
  <separator name="response functions" >
   <i type="logical" name="LADDER"> F  </i>
   <i type="logical" name="LFXC"> F  </i>
   <i type="logical" name="LHARTREE"> T  </i>
   <i type="int" name="IBSE">     0</i>
   <i type="logical" name="LTCTE"> F  </i>
   <i type="logical" name="LTETE"> F  </i>
   <i type="logical" name="LTRIPLET"> F  </i>
   <i type="logical" name="LFXCEPS"> F  </i>
   <i type="logical" name="LFXHEG"> F  </i>
   <i type="logical" name="L2ORDER"> F  </i>
   <i type="logical" name="LUSEW"> F  </i>
   <i name="ENCUTGW">     -2.00000000</i>
   <i name="ENCUTGWSOFT">     -2.00000000</i>
   <i name="ENCUTLF">     -1.00000000</i>
   <i type="int" name="LMAXMP2">    -1</i>
   <i name="SCISSOR">      0.00000000</i>
   <i type="int" name="NOMEGA">     0</i>
   <i type="int" name="NOMEGAR">     0</i>
   <i type="int" name="NBANDSGW">    -1</i>
   <i type="int" name="NBANDSO">    -1</i>
   <i type="int" name="NBANDSV">    -1</i>
   <i type="int" name="NELM">   100</i>
   <i type="int" name="DIM">     3</i>
   <i type="int" name="ANTIRES">     0</i>
   <i name="OMEGAMAX">    -30.00000000</i>
   <i name="OMEGAMIN">    -30.00000000</i>
   <i name="OMEGATL">   -200.00000000</i>
   <i type="int" name="OMEGAGRID">     0</i>
   <i name="CSHIFT">     -0.10000000</i>
   <i type="logical" name="SELFENERGY"> F  </i>
   <i type="logical" name="LSPECTRAL"> F  </i>
   <i type="logical" name="ODDONLYGW"> F  </i>
   <i type="logical" name="EVENONLYGW"> F  </i>
   <i type="int" name="NKREDLFX">     1</i>
   <i type="int" name="NKREDLFY">     1</i>
   <i type="int" name="NKREDLFZ">     1</i>
   <i type="int" name="MAXMEM">  1800</i>
   <i type="int" name="TELESCOPE">     0</i>
   <i type="int" name="TAUPAR">     1</i>
  </separator>
  <separator name="External order field" >
   <i name="OFIELD_KAPPA">      0.00000000</i>
   <v name="OFIELD_K">      0.00000000      0.00000000      0.00000000</v>
   <i name="OFIELD_Q6_NEAR">      0.00000000</i>
   <i name="OFIELD_Q6_FAR">      0.00000000</i>
   <i name="OFIELD_A">      0.00000000</i>
  </separator>
 </parameters>
 <atominfo>
  <atoms>       4 </atoms>
  <types>       1 </types>
  <array name="atoms" >
   <dimension dim="1">ion</dimension>
   <field type="string">element</field>
   <field type="int">atomtype</field>
   <set>
    <rc><c>C </c><c>   1</c></rc>
    <rc><c>C </c><c>   1</c></rc>
    <rc><c>C </c><c>   1</c></rc>
    <rc><c>C </c><c>   1</c></rc>
   </set>
  </array>
  <array name="atomtypes" >
   <dimension dim="1">type</dimension>
   <field type="int">atomspertype</field>
   <field type="string">element</field>
   <field>mass</field>
   <field>valence</field>
   <field type="string">pseudopotential</field>
   <set>
    <rc><c>   4</c><c>C </c><c>     12.01100000</c><c>      4.00000000</c><c> PAW_PBE C 08Apr2002                    </c></rc>
   </set>
  </array>
 </atominfo>
 <structure name="initialpos" >
  <crystal>
   <varray name="basis" >
    <v>       4.31535068       0.00000000       0.00000000 </v>
    <v>       0.00000000       2.46292318       0.00000000 </v>
    <v>       0.00000000       0.00000000      19.83726178 </v>
   </varray>
   <i name="volume">    210.83790140 </i>
   <varray name="rec_basis" >
    <v>       0.23173088       0.00000000       0.00000000 </v>
    <v>       0.00000000       0.40602160       0.00000000 </v>
    <v>       0.00000000       0.00000000       0.05041018 </v>
   </varray>
  </crystal>
  <varray name="positions" >
   <v>       0.99978330       0.00000000       0.00000000 </v>
   <v>       0.16688336       0.50000000       0.00000000 </v>
   <v>       0.49978330       0.50000000       0.00000000 </v>
   <v>       0.66688336       0.00000000       0.00000000 </v>
  </varray>
 </structure>
 <calculation>
  <scstep>
   <time name="dav">  295.81  298.24</time>
   <time name="total">  298.37  301.08</time>
   <energy>
    <i name="alphaZ">      6.18334092 </i>
    <i name="ewald">   2531.89723831 </i>
    <i name="hartreedc">  -2958.92094727 </i>
    <i name="XCdc">     54.98650068 </i>
    <i name="pawpsdc">    151.32577238 </i>
    <i name="pawaedc">   -155.92769107 </i>
    <i name="eentropy">     -0.00115273 </i>
    <i name="bandstr">    -28.88799319 </i>
    <i name="atom">    588.62352690 </i>
    <i name="e_fr_energy">    189.27859494 </i>
    <i name="e_wo_entrp">    189.27974767 </i>
    <i name="e_0_energy">    189.27917131 </i>
   </energy>
  </scstep>
  <scstep>
   <time name="dav">  447.88  449.39</time>
   <time name="total">  447.88  449.41</time>
   <energy>
    <i name="e_fr_energy">     -9.18058031 </i>
    <i name="e_wo_entrp">     -9.18009950 </i>
    <i name="e_0_energy">     -9.18033991 </i>
   </energy>
  </scstep>
  <scstep>
   <time name="dav">  344.90  345.71</time>
   <time name="total">  375.37  376.66</time>
   <energy>
    <i name="e_fr_energy">    -38.29465805 </i>
    <i name="e_wo_entrp">    -38.29465802 </i>
    <i name="e_0_energy">    -38.29465803 </i>
   </energy>
  </scstep>
  <scstep>
   <time name="diag">   79.47   79.90</time>
   <time name="diis">  359.26  359.67</time>
   <time name="orth">    3.09    3.09</time>
   <time name="total">  474.61  475.75</time>
   <energy>
    <i name="e_fr_energy">    -37.67323770 </i>
    <i name="e_wo_entrp">    -37.67322485 </i>
    <i name="e_0_energy">    -37.67323128 </i>
   </energy>
  </scstep>
  <scstep>
   <time name="diag">   79.39   79.79</time>
   <time name="diis">  347.67  350.62</time>
   <time name="orth">    3.06    3.09</time>
   <time name="total">  462.66  466.46</time>
   <energy>
    <i name="e_fr_energy">    -36.92544700 </i>
    <i name="e_wo_entrp">    -36.92541461 </i>
    <i name="e_0_energy">    -36.92543081 </i>
   </energy>
  </scstep>
  <scstep>
   <time name="diag">   79.19   79.80</time>
   <time name="diis">  372.56  375.49</time>
   <time name="orth">    3.07    3.08</time>
   <time name="total">  487.50  491.34</time>
   <energy>
    <i name="e_fr_energy">    -36.92690544 </i>
    <i name="e_wo_entrp">    -36.92687507 </i>
    <i name="e_0_energy">    -36.92689025 </i>
   </energy>
  </scstep>
  <scstep>
   <time name="diag">   79.23   79.82</time>
   <time name="diis">  351.37  354.54</time>
   <time name="orth">    3.07    3.07</time>
   <time name="total">  466.09  470.38</time>
   <energy>
    <i name="e_fr_energy">    -36.91756577 </i>
    <i name="e_wo_entrp">    -36.91753769 </i>
    <i name="e_0_energy">    -36.91755173 </i>
   </energy>
  </scstep>
  <scstep>
   <time name="diag">   79.29   79.83</time>
   <time name="diis">  354.56  357.99</time>
   <time name="orth">    3.07    3.09</time>
   <time name="total">  469.53  473.84</time>
   <energy>
    <i name="e_fr_energy">    -36.91202225 </i>
    <i name="e_wo_entrp">    -36.91199357 </i>
    <i name="e_0_energy">    -36.91200791 </i>
   </energy>
  </scstep>
  <scstep>
   <time name="diag">   78.95   79.84</time>
   <time name="diis">  320.10  323.68</time>
   <time name="orth">    3.06    3.09</time>
   <time name="total">  434.63  439.62</time>
   <energy>
    <i name="e_fr_energy">    -36.91175659 </i>
    <i name="e_wo_entrp">    -36.91172682 </i>
    <i name="e_0_energy">    -36.91174170 </i>
   </energy>
  </scstep>
  <scstep>
   <time name="diag">   79.06   79.77</time>
   <time name="diis">  320.94  323.99</time>
   <time name="orth">    3.07    3.09</time>
   <time name="total">  435.79  439.83</time>
   <energy>
    <i name="e_fr_energy">    -36.91159956 </i>
    <i name="e_wo_entrp">    -36.91157044 </i>
    <i name="e_0_energy">    -36.91158500 </i>
   </energy>
  </scstep>
  <scstep>
   <time name="diag">   79.18   79.83</time>
   <time name="diis">  323.03  326.01</time>
   <time name="orth">    3.07    3.07</time>
   <time name="total">  437.75  441.87</time>
   <energy>
    <i name="e_fr_energy">    -36.91409355 </i>
    <i name="e_wo_entrp">    -36.91406473 </i>
    <i name="e_0_energy">    -36.91407914 </i>
   </energy>
  </scstep>
  <scstep>
   <time name="diag">   79.01   79.80</time>
   <time name="diis">  322.90  325.55</time>
   <time name="orth">    3.06    3.09</time>
   <time name="total">  437.56  441.40</time>
   <energy>
    <i name="e_fr_energy">    -36.91455781 </i>
    <i name="e_wo_entrp">    -36.91452872 </i>
    <i name="e_0_energy">    -36.91454326 </i>
   </energy>
  </scstep>
  <scstep>
   <time name="diag">   79.17   79.79</time>
   <time name="diis">  329.01  331.85</time>
   <time name="orth">    3.07    3.09</time>
   <time name="total">  444.00  447.75</time>
   <energy>
    <i name="e_fr_energy">    -36.91480581 </i>
    <i name="e_wo_entrp">    -36.91477668 </i>
    <i name="e_0_energy">    -36.91479124 </i>
   </energy>
  </scstep>
  <scstep>
   <time name="diag">   79.47   79.63</time>
   <time name="diis">  323.70  327.44</time>
   <time name="orth">    3.07    3.10</time>
   <time name="total">  438.77  443.10</time>
   <energy>
    <i name="e_fr_energy">    -36.91488936 </i>
    <i name="e_wo_entrp">    -36.91486030 </i>
    <i name="e_0_energy">    -36.91487483 </i>
   </energy>
  </scstep>
  <scstep>
   <time name="diag">   78.97   79.63</time>
   <time name="diis">  330.17  331.50</time>
   <time name="orth">    3.06    3.09</time>
   <time name="total">  444.80  447.18</time>
   <energy>
    <i name="e_fr_energy">    -36.91489976 </i>
    <i name="e_wo_entrp">    -36.91487068 </i>
    <i name="e_0_energy">    -36.91488522 </i>
   </energy>
  </scstep>
  <scstep>
   <time name="diag">   78.69   79.63</time>
   <time name="diis">  320.33  324.01</time>
   <time name="orth">    3.07    3.09</time>
   <time name="total">  434.65  439.70</time>
   <energy>
    <i name="e_fr_energy">    -36.91491131 </i>
    <i name="e_wo_entrp">    -36.91488221 </i>
    <i name="e_0_energy">    -36.91489676 </i>
   </energy>
  </scstep>
  <scstep>
   <time name="diag">   79.10   79.60</time>
   <time name="diis">  337.11  337.54</time>
   <time name="orth">    3.09    3.11</time>
   <time name="total">  452.11  453.55</time>
   <energy>
    <i name="e_fr_energy">    -36.91491631 </i>
    <i name="e_wo_entrp">    -36.91488723 </i>
    <i name="e_0_energy">    -36.91490177 </i>
   </energy>
  </scstep>
  <scstep>
   <time name="diag">   79.42   79.59</time>
   <time name="diis">  320.24  323.33</time>
   <time name="orth">    3.09    3.09</time>
   <time name="total">  435.56  439.08</time>
   <energy>
    <i name="e_fr_energy">    -36.91491743 </i>
    <i name="e_wo_entrp">    -36.91488835 </i>
    <i name="e_0_energy">    -36.91490289 </i>
   </energy>
  </scstep>
  <scstep>
   <time name="diag">   79.42   79.57</time>
   <time name="diis">  333.70  334.49</time>
   <time name="orth">    3.09    3.17</time>
   <time name="total">  448.94  450.21</time>
   <energy>
    <i name="e_fr_energy">    -36.91491820 </i>
    <i name="e_wo_entrp">    -36.91488912 </i>
    <i name="e_0_energy">    -36.91490366 </i>
   </energy>
  </scstep>
  <scstep>
   <time name="diag">   79.19   79.66</time>
   <time name="diis">  258.13  260.46</time>
   <time name="orth">    3.05    3.09</time>
   <time name="total">  372.98  376.31</time>
   <energy>
    <i name="e_fr_energy">    -36.91491826 </i>
    <i name="e_wo_entrp">    -36.91488918 </i>
    <i name="e_0_energy">    -36.91490372 </i>
   </energy>
  </scstep>
  <scstep>
   <time name="diag">   78.80   79.56</time>
   <time name="diis">  252.78  255.80</time>
   <time name="orth">    3.07    3.07</time>
   <time name="total">  367.26  371.72</time>
   <energy>
    <i name="e_fr_energy">    -36.91491828 </i>
    <i name="e_wo_entrp">    -36.91488919 </i>
    <i name="e_0_energy">    -36.91490374 </i>
   </energy>
  </scstep>
  <scstep>
   <time name="diag">   79.15   79.59</time>
   <time name="diis">  222.91  225.30</time>
   <time name="orth">    3.07    3.07</time>
   <time name="total">  307.43  310.49</time>
   <energy>
    <i name="alphaZ">      6.18334092 </i>
    <i name="ewald">   2531.89723831 </i>
    <i name="hartreedc">  -3025.97890072 </i>
    <i name="XCdc">     57.37175357 </i>
    <i name="pawpsdc">    273.77571222 </i>
    <i name="pawaedc">   -278.90955562 </i>
    <i name="eentropy">     -0.00002909 </i>
    <i name="bandstr">   -189.87800477 </i>
    <i name="atom">    588.62352690 </i>
    <i name="e_fr_energy">    -36.91491828 </i>
    <i name="e_wo_entrp">    -36.91488919 </i>
    <i name="e_0_energy">    -36.91490374 </i>
   </energy>
  </scstep>
  <structure>
   <crystal>
    <varray name="basis" >
     <v>       4.31535068       0.00000000       0.00000000 </v>
     <v>       0.00000000       2.46292318       0.00000000 </v>
     <v>       0.00000000       0.00000000      19.83726178 </v>
    </varray>
    <i name="volume">    210.83790140 </i>
    <varray name="rec_basis" >
     <v>       0.23173088       0.00000000       0.00000000 </v>
     <v>       0.00000000       0.40602160       0.00000000 </v>
     <v>       0.00000000       0.00000000       0.05041018 </v>
    </varray>
   </crystal>
   <varray name="positions" >
    <v>       0.99978330       0.00000000       0.00000000 </v>
    <v>       0.16688336       0.50000000       0.00000000 </v>
    <v>       0.49978330       0.50000000       0.00000000 </v>
    <v>       0.66688336       0.00000000       0.00000000 </v>
   </varray>
  </structure>
  <varray name="forces" >
   <v>      -0.01033864       0.00000000       0.00000000 </v>
   <v>       0.01033864       0.00000000      -0.00000000 </v>
   <v>      -0.01033864      -0.00000000       0.00000000 </v>
   <v>       0.01033864       0.00000000      -0.00000000 </v>
  </varray>
  <varray name="stress" >
   <v>     -16.45294098       0.00000000       0.00000000 </v>
   <v>       0.00000000       0.02253675       0.00000000 </v>
   <v>       0.00000000       0.00000000      -0.01020694 </v>
  </varray>
  <energy>
   <i name="e_fr_energy">    -36.91491828 </i>
   <i name="e_wo_entrp">    -36.91490374 </i>
   <i name="e_0_energy">     -0.00002909 </i>
  </energy>
  <time name="totalsc"> 9478.01 9550.98</time>
 </calculation>
 <calculation>
  <scstep>
   <time name="dav">  322.34  323.48</time>
   <time name="total">  355.00  356.30</time>
   <energy>
    <i name="alphaZ">      6.18334092 </i>
    <i name="ewald">   2531.89307317 </i>
    <i name="hartreedc">  -3025.97707463 </i>
    <i name="XCdc">     57.37163373 </i>
    <i name="pawpsdc">    273.77574275 </i>
    <i name="pawaedc">   -278.90958643 </i>
    <i name="eentropy">     -0.00004052 </i>
    <i name="bandstr">   -189.87550342 </i>
    <i name="atom">    588.62352690 </i>
    <i name="e_fr_energy">    -36.91488753 </i>
    <i name="e_wo_entrp">    -36.91484701 </i>
    <i name="e_0_energy">    -36.91486727 </i>
   </energy>
  </scstep>
  <scstep>
   <time name="diag">   79.49   79.56</time>
   <time name="diis">  325.12  325.99</time>
   <time name="orth">    3.08    3.09</time>
   <time name="total">  440.30  441.39</time>
   <energy>
    <i name="e_fr_energy">    -36.91488917 </i>
    <i name="e_wo_entrp">    -36.91484906 </i>
    <i name="e_0_energy">    -36.91486912 </i>
   </energy>
  </scstep>
  <scstep>
   <time name="diag">   79.37   79.49</time>
   <time name="diis">  325.52  328.06</time>
   <time name="orth">    3.07    3.08</time>
   <time name="total">  440.37  443.46</time>
   <energy>
    <i name="e_fr_energy">    -36.91488786 </i>
    <i name="e_wo_entrp">    -36.91484850 </i>
    <i name="e_0_energy">    -36.91486818 </i>
   </energy>
  </scstep>
  <scstep>
   <time name="diag">   79.04   79.55</time>
   <time name="diis">  334.58  337.41</time>
   <time name="orth">    3.07    3.09</time>
   <time name="total">  449.14  452.82</time>
   <energy>
    <i name="e_fr_energy">    -36.91488772 </i>
    <i name="e_wo_entrp">    -36.91484817 </i>
    <i name="e_0_energy">    -36.91486794 </i>
   </energy>
  </scstep>
  <scstep>
   <time name="diag">   78.93   79.46</time>
   <time name="diis">  339.59  343.22</time>
   <time name="orth">    3.06    3.09</time>
   <time name="total">  453.95  458.55</time>
   <energy>
    <i name="e_fr_energy">    -36.91488772 </i>
    <i name="e_wo_entrp">    -36.91484815 </i>
    <i name="e_0_energy">    -36.91486793 </i>
   </energy>
  </scstep>
  <scstep>
   <time name="diag">   78.77   79.50</time>
   <time name="diis">  329.43  333.12</time>
   <time name="orth">    3.07    3.07</time>
   <time name="total">  443.74  448.62</time>
   <energy>
    <i name="e_fr_energy">    -36.91488772 </i>
    <i name="e_wo_entrp">    -36.91484817 </i>
    <i name="e_0_energy">    -36.91486794 </i>
   </energy>
  </scstep>
  <scstep>
   <time name="diag">   78.80   79.55</time>
   <time name="diis">  244.35  246.75</time>
   <time name="orth">    3.07    3.09</time>
   <time name="total">  358.80  362.17</time>
   <energy>
    <i name="e_fr_energy">    -36.91488772 </i>
    <i name="e_wo_entrp">    -36.91484817 </i>
    <i name="e_0_energy">    -36.91486795 </i>
   </energy>
  </scstep>
  <scstep>
   <time name="diag">   79.35   79.63</time>
   <time name="diis">  221.14  222.25</time>
   <time name="orth">    3.07    3.07</time>
   <time name="total">  336.12  337.81</time>
   <energy>
    <i name="e_fr_energy">    -36.91488772 </i>
    <i name="e_wo_entrp">    -36.91484817 </i>
    <i name="e_0_energy">    -36.91486795 </i>
   </energy>
  </scstep>
  <scstep>
   <time name="diag">   79.16   79.58</time>
   <time name="diis">  222.24  222.47</time>
   <time name="orth">    3.10    3.10</time>
   <time name="total">  337.20  337.90</time>
   <energy>
    <i name="e_fr_energy">    -36.91488772 </i>
    <i name="e_wo_entrp">    -36.91484817 </i>
    <i name="e_0_energy">    -36.91486795 </i>
   </energy>
  </scstep>
  <scstep>
   <time name="diag">   79.52   79.56</time>
   <time name="diis">  212.80  212.98</time>
   <time name="orth">    3.07    3.09</time>
   <time name="total">  328.01  328.42</time>
   <energy>
    <i name="e_fr_energy">    -36.91488772 </i>
    <i name="e_wo_entrp">    -36.91484817 </i>
    <i name="e_0_energy">    -36.91486795 </i>
   </energy>
  </scstep>
  <scstep>
   <time name="diag">   79.18   79.58</time>
   <time name="diis">  206.12  206.30</time>
   <time name="orth">    3.09    3.09</time>
   <time name="total">  321.09  321.71</time>
   <energy>
    <i name="e_fr_energy">    -36.91488772 </i>
    <i name="e_wo_entrp">    -36.91484817 </i>
    <i name="e_0_energy">    -36.91486795 </i>
   </energy>
  </scstep>
  <scstep>
   <time name="diag">   79.43   79.47</time>
   <time name="diis">  198.90  199.04</time>
   <time name="orth">    3.09    3.09</time>
   <time name="total">  314.12  320.22</time>
   <energy>
    <i name="e_fr_energy">    -36.91488772 </i>
    <i name="e_wo_entrp">    -36.91484817 </i>
    <i name="e_0_energy">    -36.91486795 </i>
   </energy>
  </scstep>
  <scstep>
   <time name="diag">   79.47   79.50</time>
   <time name="diis">  195.86  195.96</time>
   <time name="orth">    3.07    3.07</time>
   <time name="total">  311.18  311.33</time>
   <energy>
    <i name="e_fr_energy">    -36.91488772 </i>
    <i name="e_wo_entrp">    -36.91484817 </i>
    <i name="e_0_energy">    -36.91486795 </i>
   </energy>
  </scstep>
  <scstep>
   <time name="diag">   79.44   79.46</time>
   <time name="diis">  187.97  188.01</time>
   <time name="orth">    3.09    3.09</time>
   <time name="total">  303.18  303.27</time>
   <energy>
    <i name="e_fr_energy">    -36.91488772 </i>
    <i name="e_wo_entrp">    -36.91484817 </i>
    <i name="e_0_energy">    -36.91486795 </i>
   </energy>
  </scstep>
  <scstep>
   <time name="diag">   79.47   79.49</time>
   <time name="diis">  182.06  182.15</time>
   <time name="orth">    3.08    3.08</time>
   <time name="total">  267.03  267.14</time>
   <energy>
    <i name="alphaZ">      6.18334092 </i>
    <i name="ewald">   2531.89307317 </i>
    <i name="hartreedc">  -3025.97534868 </i>
    <i name="XCdc">     57.37156512 </i>
    <i name="pawpsdc">    273.76854537 </i>
    <i name="pawaedc">   -278.90235857 </i>
    <i name="eentropy">     -0.00003955 </i>
    <i name="bandstr">   -189.87719240 </i>
    <i name="atom">    588.62352690 </i>
    <i name="e_fr_energy">    -36.91488772 </i>
    <i name="e_wo_entrp">    -36.91484817 </i>
    <i name="e_0_energy">    -36.91486795 </i>
   </energy>
  </scstep>
  <structure>
   <crystal>
    <varray name="basis" >
     <v>       4.31535068       0.00000000       0.00000000 </v>
     <v>       0.00000000       2.46292318       0.00000000 </v>
     <v>       0.00000000       0.00000000      19.83726178 </v>
    </varray>
    <i name="volume">    210.83790140 </i>
    <varray name="rec_basis" >
     <v>       0.23173088       0.00000000       0.00000000 </v>
     <v>       0.00000000       0.40602160       0.00000000 </v>
     <v>       0.00000000       0.00000000       0.05041018 </v>
    </varray>
   </crystal>
   <varray name="positions" >
    <v>       0.99966772       0.00000000       0.00000000 </v>
    <v>       0.16699894       0.50000000      -0.00000000 </v>
    <v>       0.49966772       0.50000000       0.00000000 </v>
    <v>       0.66699894       0.00000000      -0.00000000 </v>
   </varray>
  </structure>
  <varray name="forces" >
   <v>       0.04091954       0.00000000       0.00000000 </v>
   <v>      -0.04091954       0.00000000       0.00000000 </v>
   <v>       0.04091954      -0.00000000       0.00000000 </v>
   <v>      -0.04091954       0.00000000       0.00000000 </v>
  </varray>
  <varray name="stress" >
   <v>     -16.32115302       0.00000000       0.00000000 </v>
   <v>       0.00000000      -0.14089425       0.00000000 </v>
   <v>       0.00000000       0.00000000      -0.01013305 </v>
  </varray>
  <energy>
   <i name="e_fr_energy">    -36.91488772 </i>
   <i name="e_wo_entrp">    -36.91486795 </i>
   <i name="e_0_energy">     -0.00003955 </i>
  </energy>
  <time name="totalsc"> 5561.25 5605.97</time>
 </calculation>
 <calculation>
  <scstep>
   <time name="dav">  314.30  315.02</time>
   <time name="total">  346.98  347.74</time>
   <energy>
    <i name="alphaZ">      6.18334092 </i>
    <i name="ewald">   2531.89637012 </i>
    <i name="hartreedc">  -3025.97678512 </i>
    <i name="XCdc">     57.37165899 </i>
    <i name="pawpsdc">    273.76854572 </i>
    <i name="pawaedc">   -278.90235893 </i>
    <i name="eentropy">     -0.00003037 </i>
    <i name="bandstr">   -189.87918852 </i>
    <i name="atom">    588.62352690 </i>
    <i name="e_fr_energy">    -36.91492028 </i>
    <i name="e_wo_entrp">    -36.91488991 </i>
    <i name="e_0_energy">    -36.91490509 </i>
   </energy>
  </scstep>
  <scstep>
   <time name="diag">   79.54   79.62</time>
   <time name="diis">  326.78  326.86</time>
   <time name="orth">    3.07    3.07</time>
   <time name="total">  442.17  442.36</time>
   <energy>
    <i name="e_fr_energy">    -36.91492125 </i>
    <i name="e_wo_entrp">    -36.91489060 </i>
    <i name="e_0_energy">    -36.91490592 </i>
   </energy>
  </scstep>
  <scstep>
   <time name="diag">   79.42   79.44</time>
   <time name="diis">  328.61  328.72</time>
   <time name="orth">    3.07    3.07</time>
   <time name="total">  443.79  444.09</time>
   <energy>
    <i name="e_fr_energy">    -36.91492044 </i>
    <i name="e_wo_entrp">    -36.91488928 </i>
    <i name="e_0_energy">    -36.91490486 </i>
   </energy>
  </scstep>
  <scstep>
   <time name="diag">   79.44   79.46</time>
   <time name="diis">  336.15  336.27</time>
   <time name="orth">    3.09    3.09</time>
   <time name="total">  451.40  451.59</time>
   <energy>
    <i name="e_fr_energy">    -36.91492035 </i>
    <i name="e_wo_entrp">    -36.91488932 </i>
    <i name="e_0_energy">    -36.91490483 </i>
   </energy>
  </scstep>
  <scstep>
   <time name="diag">   79.43   79.46</time>
   <time name="diis">  340.15  341.66</time>
   <time name="orth">    3.07    3.10</time>
   <time name="total">  455.29  457.06</time>
   <energy>
    <i name="e_fr_energy">    -36.91492035 </i>
    <i name="e_wo_entrp">    -36.91488934 </i>
    <i name="e_0_energy">    -36.91490484 </i>
   </energy>
  </scstep>
  <scstep>
   <time name="diag">   79.17   79.56</time>
   <time name="diis">  329.15  331.49</time>
   <time name="orth">    3.07    3.07</time>
   <time name="total">  443.91  446.95</time>
   <energy>
    <i name="e_fr_energy">    -36.91492035 </i>
    <i name="e_wo_entrp">    -36.91488932 </i>
    <i name="e_0_energy">    -36.91490483 </i>
   </energy>
  </scstep>
  <scstep>
   <time name="diag">   78.85   79.43</time>
   <time name="diis">  233.11  235.26</time>
   <time name="orth">    3.07    3.07</time>
   <time name="total">  347.41  350.65</time>
   <energy>
    <i name="e_fr_energy">    -36.91492035 </i>
    <i name="e_wo_entrp">    -36.91488932 </i>
    <i name="e_0_energy">    -36.91490483 </i>
   </energy>
  </scstep>
  <scstep>
   <time name="diag">   78.88   79.46</time>
   <time name="diis">  215.96  217.62</time>
   <time name="orth">    3.08    3.10</time>
   <time name="total">  330.45  332.95</time>
   <energy>
    <i name="e_fr_energy">    -36.91492035 </i>
    <i name="e_wo_entrp">    -36.91488932 </i>
    <i name="e_0_energy">    -36.91490483 </i>
   </energy>
  </scstep>
  <scstep>
   <time name="diag">   78.84   79.44</time>
   <time name="diis">  217.45  218.20</time>
   <time name="orth">    3.07    3.09</time>
   <time name="total">  301.69  303.58</time>
   <energy>
    <i name="alphaZ">      6.18334092 </i>
    <i name="ewald">   2531.89637012 </i>
    <i name="hartreedc">  -3025.97814121 </i>
    <i name="XCdc">     57.37171541 </i>
    <i name="pawpsdc">    273.77426300 </i>
    <i name="pawaedc">   -278.90810062 </i>
    <i name="eentropy">     -0.00003103 </i>
    <i name="bandstr">   -189.87786384 </i>
    <i name="atom">    588.62352690 </i>
    <i name="e_fr_energy">    -36.91492035 </i>
    <i name="e_wo_entrp">    -36.91488932 </i>
    <i name="e_0_energy">    -36.91490483 </i>
   </energy>
  </scstep>
  <structure>
   <crystal>
    <varray name="basis" >
     <v>       4.31535068       0.00000000       0.00000000 </v>
     <v>       0.00000000       2.46292318       0.00000000 </v>
     <v>       0.00000000       0.00000000      19.83726178 </v>
    </varray>
    <i name="volume">    210.83790140 </i>
    <varray name="rec_basis" >
     <v>       0.23173088       0.00000000       0.00000000 </v>
     <v>       0.00000000       0.40602160       0.00000000 </v>
     <v>       0.00000000       0.00000000       0.05041018 </v>
    </varray>
   </crystal>
   <varray name="positions" >
    <v>       0.99975999       0.00000000       0.00000000 </v>
    <v>       0.16690668       0.50000000      -0.00000000 </v>
    <v>       0.49975999       0.50000000       0.00000000 </v>
    <v>       0.66690668       0.00000000      -0.00000000 </v>
   </varray>
  </structure>
  <varray name="forces" >
   <v>      -0.00000023       0.00000000       0.00000000 </v>
   <v>       0.00000023      -0.00000000       0.00000000 </v>
   <v>      -0.00000023      -0.00000000       0.00000000 </v>
   <v>       0.00000023       0.00000000       0.00000000 </v>
  </varray>
  <varray name="stress" >
   <v>     -16.42633225       0.00000000       0.00000000 </v>
   <v>       0.00000000      -0.01078799       0.00000000 </v>
   <v>       0.00000000       0.00000000      -0.01004669 </v>
  </varray>
  <energy>
   <i name="e_fr_energy">    -36.91492035 </i>
   <i name="e_wo_entrp">    -36.91490483 </i>
   <i name="e_0_energy">     -0.00003103 </i>
  </energy>
  <time name="totalsc"> 3657.92 3671.91</time>
  <eigenvalues>
   <array>
    <dimension dim="1">band</dimension>
    <dimension dim="2">kpoint</dimension>
    <dimension dim="3">spin</dimension>
    <field>eigene</field>
    <field>occ</field>
    <set>
     <set comment="spin 1">
      <set comment="kpoint 1">
       <r>  -22.1856    1.0000 </r>
       <r>  -17.1177    1.0000 </r>
       <r>  -15.9200    1.0000 </r>
       <r>  -10.3064    1.0000 </r>
       <r>   -9.0155    1.0000 </r>
       <r>   -5.8760    1.0000 </r>
       <r>   -5.7616    1.0000 </r>
       <r>   -5.2016    1.0000 </r>
       <r>   -1.1210    0.0000 </r>
       <r>    0.5317    0.0000 </r>
       <r>    1.3307    0.0000 </r>
       <r>    1.7161    0.0000 </r>
      </set>
      <set comment="kpoint 2">
       <r>  -22.1756    1.0000 </r>
       <r>  -17.2616    1.0000 </r>
       <r>  -15.7611    1.0000 </r>
       <r>  -10.2944    1.0000 </r>
       <r>   -9.0056    1.0000 </r>
       <r>   -5.9193    1.0000 </r>
       <r>   -5.7832    1.0000 </r>
       <r>   -5.2649    1.0000 </r>
       <r>   -1.0417    0.0000 </r>
       <r>    0.5453    0.0000 </r>
       <r>    1.3445    0.0000 </r>
       <r>    1.7301    0.0000 </r>
      </set>
      <set comment="kpoint 3">
       <r>  -22.1454    1.0000 </r>
       <r>  -17.5723    1.0000 </r>
       <r>  -15.4049    1.0000 </r>
       <r>  -10.2585    1.0000 </r>
       <r>   -8.9760    1.0000 </r>
       <r>   -6.0476    1.0000 </r>
       <r>   -5.8467    1.0000 </r>
       <r>   -5.4412    1.0000 </r>
       <r>   -0.8179    0.0000 </r>
       <r>    0.5862    0.0000 </r>
       <r>    1.3860    0.0000 </r>
       <r>    1.7720    0.0000 </r>
      </set>
      <set comment="kpoint 4">
       <r>  -22.0952    1.0000 </r>
       <r>  -17.9307    1.0000 </r>
       <r>  -14.9712    1.0000 </r>
       <r>  -10.1987    1.0000 </r>
       <r>   -8.9268    1.0000 </r>
       <r>   -6.2553    1.0000 </r>
       <r>   -5.9489    1.0000 </r>
       <r>   -5.6997    1.0000 </r>
       <r>   -0.4807    0.0000 </r>
       <r>    0.6543    0.0000 </r>
       <r>    1.4550    0.0000 </r>
       <r>    1.8419    0.0000 </r>
      </set>
      <set comment="kpoint 5">
       <r>  -22.0249    1.0000 </r>
       <r>  -18.2965    1.0000 </r>
       <r>  -14.5004    1.0000 </r>
       <r>  -10.1151    1.0000 </r>
       <r>   -8.8583    1.0000 </r>
       <r>   -6.5347    1.0000 </r>
       <r>   -6.0848    1.0000 </r>
       <r>   -6.0093    1.0000 </r>
       <r>   -0.0622    0.0000 </r>
       <r>    0.7497    0.0000 </r>
       <r>    1.5516    0.0000 </r>
       <r>    1.9397    0.0000 </r>
      </set>
      <set comment="kpoint 6">
       <r>  -21.9346    1.0000 </r>
       <r>  -18.6563    1.0000 </r>
       <r>  -14.0068    1.0000 </r>
       <r>  -10.0079    1.0000 </r>
       <r>   -8.7708    1.0000 </r>
       <r>   -6.8762    1.0000 </r>
       <r>   -6.3463    1.0000 </r>
       <r>   -6.2484    1.0000 </r>
       <r>    0.4128    0.0000 </r>
       <r>    0.8724    0.0000 </r>
       <r>    1.6757    0.0000 </r>
       <r>    2.0655    0.0000 </r>
      </set>
      <set comment="kpoint 7">
       <r>  -21.8244    1.0000 </r>
       <r>  -19.0044    1.0000 </r>
       <r>  -13.4967    1.0000 </r>
       <r>   -9.8773    1.0000 </r>
       <r>   -8.6650    1.0000 </r>
       <r>   -7.2702    1.0000 </r>
       <r>   -6.6945    1.0000 </r>
       <r>   -6.4336    1.0000 </r>
       <r>    0.9266    0.0000 </r>
       <r>    1.0223    0.0000 </r>
       <r>    1.8273    0.0000 </r>
       <r>    2.2192    0.0000 </r>
      </set>
      <set comment="kpoint 8">
       <r>  -21.6944    1.0000 </r>
       <r>  -19.3381    1.0000 </r>
       <r>  -12.9738    1.0000 </r>
       <r>   -9.7234    1.0000 </r>
       <r>   -8.5413    1.0000 </r>
       <r>   -7.7070    1.0000 </r>
       <r>   -7.0436    1.0000 </r>
       <r>   -6.6343    1.0000 </r>
       <r>    1.1995    0.0000 </r>
       <r>    1.4664    0.0000 </r>
       <r>    2.0063    0.0000 </r>
       <r>    2.4009    0.0000 </r>
      </set>
      <set comment="kpoint 9">
       <r>  -21.5446    1.0000 </r>
       <r>  -19.6558    1.0000 </r>
       <r>  -12.4412    1.0000 </r>
       <r>   -9.5466    1.0000 </r>
       <r>   -8.4007    1.0000 </r>
       <r>   -8.1781    1.0000 </r>
       <r>   -7.3865    1.0000 </r>
       <r>   -6.8446    1.0000 </r>
       <r>    1.4038    0.0000 </r>
       <r>    2.0225    0.0000 </r>
       <r>    2.2125    0.0000 </r>
       <r>    2.6106    0.0000 </r>
      </set>
      <set comment="kpoint 10">
       <r>  -21.3751    1.0000 </r>
       <r>  -19.9564    1.0000 </r>
       <r>  -11.9012    1.0000 </r>
       <r>   -9.3474    1.0000 </r>
       <r>   -8.6757    1.0000 </r>
       <r>   -8.2440    1.0000 </r>
       <r>   -7.7184    1.0000 </r>
       <r>   -7.0597    1.0000 </r>
       <r>    1.6354    0.0000 </r>
       <r>    2.4457    0.0000 </r>
       <r>    2.5855    0.0000 </r>
       <r>    2.8482    0.0000 </r>
      </set>
      <set comment="kpoint 11">
       <r>  -21.1862    1.0000 </r>
       <r>  -20.2394    1.0000 </r>
       <r>  -11.3566    1.0000 </r>
       <r>   -9.1930    1.0000 </r>
       <r>   -9.1261    1.0000 </r>
       <r>   -8.0727    1.0000 </r>
       <r>   -8.0361    1.0000 </r>
       <r>   -7.2750    1.0000 </r>
       <r>    1.8940    0.0000 </r>
       <r>    2.7054    0.0000 </r>
       <r>    3.1142    0.0000 </r>
       <r>    3.1400    0.0000 </r>
      </set>
      <set comment="kpoint 12">
       <r>  -20.9779    1.0000 </r>
       <r>  -20.5043    1.0000 </r>
       <r>  -10.8100    1.0000 </r>
       <r>   -9.7243    1.0000 </r>
       <r>   -8.8835    1.0000 </r>
       <r>   -8.3373    1.0000 </r>
       <r>   -7.8881    1.0000 </r>
       <r>   -7.4868    1.0000 </r>
       <r>    2.1796    0.0000 </r>
       <r>    2.8313    0.0000 </r>
       <r>    2.9900    0.0000 </r>
       <r>    3.4073    0.0000 </r>
      </set>
      <set comment="kpoint 13">
       <r>  -20.7505    1.0000 </r>
       <r>  -20.7505    1.0000 </r>
       <r>  -10.2647    1.0000 </r>
       <r>  -10.2647    1.0000 </r>
       <r>   -8.6202    1.0000 </r>
       <r>   -8.6202    1.0000 </r>
       <r>   -7.6921    1.0000 </r>
       <r>   -7.6921    1.0000 </r>
       <r>    2.4921    0.0000 </r>
       <r>    2.4921    0.0000 </r>
       <r>    3.2930    0.0000 </r>
       <r>    3.2930    0.0000 </r>
      </set>
      <set comment="kpoint 14">
       <r>  -22.1719    1.0000 </r>
       <r>  -17.1059    1.0000 </r>
       <r>  -15.9083    1.0000 </r>
       <r>  -10.2900    1.0000 </r>
       <r>   -9.0778    1.0000 </r>
       <r>   -5.9045    1.0000 </r>
       <r>   -5.8194    1.0000 </r>
       <r>   -5.1849    1.0000 </r>
       <r>   -1.1243    0.0000 </r>
       <r>    0.5503    0.0000 </r>
       <r>    1.3496    0.0000 </r>
       <r>    1.7352    0.0000 </r>
      </set>
      <set comment="kpoint 15">
       <r>  -22.1618    1.0000 </r>
       <r>  -17.2496    1.0000 </r>
       <r>  -15.7496    1.0000 </r>
       <r>  -10.2781    1.0000 </r>
       <r>   -9.0679    1.0000 </r>
       <r>   -5.9514    1.0000 </r>
       <r>   -5.8368    1.0000 </r>
       <r>   -5.2484    1.0000 </r>
       <r>   -1.0450    0.0000 </r>
       <r>    0.5640    0.0000 </r>
       <r>    1.3634    0.0000 </r>
       <r>    1.7491    0.0000 </r>
      </set>
      <set comment="kpoint 16">
       <r>  -22.1317    1.0000 </r>
       <r>  -17.5601    1.0000 </r>
       <r>  -15.3938    1.0000 </r>
       <r>  -10.2422    1.0000 </r>
       <r>   -9.0382    1.0000 </r>
       <r>   -6.0832    1.0000 </r>
       <r>   -5.8949    1.0000 </r>
       <r>   -5.4250    1.0000 </r>
       <r>   -0.8212    0.0000 </r>
       <r>    0.6048    0.0000 </r>
       <r>    1.4048    0.0000 </r>
       <r>    1.7911    0.0000 </r>
      </set>
      <set comment="kpoint 17">
       <r>  -22.0815    1.0000 </r>
       <r>  -17.9182    1.0000 </r>
       <r>  -14.9606    1.0000 </r>
       <r>  -10.1824    1.0000 </r>
       <r>   -8.9890    1.0000 </r>
       <r>   -6.2907    1.0000 </r>
       <r>   -5.9946    1.0000 </r>
       <r>   -5.6838    1.0000 </r>
       <r>   -0.4843    0.0000 </r>
       <r>    0.6729    0.0000 </r>
       <r>    1.4738    0.0000 </r>
       <r>    1.8609    0.0000 </r>
      </set>
      <set comment="kpoint 18">
       <r>  -22.0112    1.0000 </r>
       <r>  -18.2839    1.0000 </r>
       <r>  -14.4904    1.0000 </r>
       <r>  -10.0989    1.0000 </r>
       <r>   -8.9203    1.0000 </r>
       <r>   -6.5670    1.0000 </r>
       <r>   -6.1303    1.0000 </r>
       <r>   -5.9937    1.0000 </r>
       <r>   -0.0663    0.0000 </r>
       <r>    0.7683    0.0000 </r>
       <r>    1.5704    0.0000 </r>
       <r>    1.9588    0.0000 </r>
      </set>
      <set comment="kpoint 19">
       <r>  -21.9209    1.0000 </r>
       <r>  -18.6435    1.0000 </r>
       <r>  -13.9974    1.0000 </r>
       <r>   -9.9917    1.0000 </r>
       <r>   -8.8327    1.0000 </r>
       <r>   -6.9041    1.0000 </r>
       <r>   -6.3308    1.0000 </r>
       <r>   -6.2952    1.0000 </r>
       <r>    0.4078    0.0000 </r>
       <r>    0.8910    0.0000 </r>
       <r>    1.6945    0.0000 </r>
       <r>    2.0846    0.0000 </r>
      </set>
      <set comment="kpoint 20">
       <r>  -21.8108    1.0000 </r>
       <r>  -18.9914    1.0000 </r>
       <r>  -13.4880    1.0000 </r>
       <r>   -9.8611    1.0000 </r>
       <r>   -8.7266    1.0000 </r>
       <r>   -7.2930    1.0000 </r>
       <r>   -6.6791    1.0000 </r>
       <r>   -6.4822    1.0000 </r>
       <r>    0.9204    0.0000 </r>
       <r>    1.0409    0.0000 </r>
       <r>    1.8461    0.0000 </r>
       <r>    2.2383    0.0000 </r>
      </set>
      <set comment="kpoint 21">
       <r>  -21.6807    1.0000 </r>
       <r>  -19.3250    1.0000 </r>
       <r>  -12.9661    1.0000 </r>
       <r>   -9.7072    1.0000 </r>
       <r>   -8.6027    1.0000 </r>
       <r>   -7.7249    1.0000 </r>
       <r>   -7.0281    1.0000 </r>
       <r>   -6.6848    1.0000 </r>
       <r>    1.2181    0.0000 </r>
       <r>    1.4588    0.0000 </r>
       <r>    2.0251    0.0000 </r>
       <r>    2.4200    0.0000 </r>
      </set>
      <set comment="kpoint 22">
       <r>  -21.5309    1.0000 </r>
       <r>  -19.6426    1.0000 </r>
       <r>  -12.4345    1.0000 </r>
       <r>   -9.5305    1.0000 </r>
       <r>   -8.4617    1.0000 </r>
       <r>   -8.1914    1.0000 </r>
       <r>   -7.3710    1.0000 </r>
       <r>   -6.8971    1.0000 </r>
       <r>    1.4225    0.0000 </r>
       <r>    2.0133    0.0000 </r>
       <r>    2.2313    0.0000 </r>
       <r>    2.6297    0.0000 </r>
      </set>
      <set comment="kpoint 23">
       <r>  -21.3615    1.0000 </r>
       <r>  -19.9432    1.0000 </r>
       <r>  -11.8958    1.0000 </r>
       <r>   -9.3313    1.0000 </r>
       <r>   -8.6849    1.0000 </r>
       <r>   -8.3046    1.0000 </r>
       <r>   -7.7028    1.0000 </r>
       <r>   -7.1139    1.0000 </r>
       <r>    1.6540    0.0000 </r>
       <r>    2.4645    0.0000 </r>
       <r>    2.5747    0.0000 </r>
       <r>    2.8673    0.0000 </r>
      </set>
      <set comment="kpoint 24">
       <r>  -21.1726    1.0000 </r>
       <r>  -20.2261    1.0000 </r>
       <r>  -11.3527    1.0000 </r>
       <r>   -9.1987    1.0000 </r>
       <r>   -9.1102    1.0000 </r>
       <r>   -8.1326    1.0000 </r>
       <r>   -8.0205    1.0000 </r>
       <r>   -7.3308    1.0000 </r>
       <r>    1.9127    0.0000 </r>
       <r>    2.7242    0.0000 </r>
       <r>    3.1286    0.0000 </r>
       <r>    3.1328    0.0000 </r>
      </set>
      <set comment="kpoint 25">
       <r>  -20.9644    1.0000 </r>
       <r>  -20.4909    1.0000 </r>
       <r>  -10.8080    1.0000 </r>
       <r>   -9.7270    1.0000 </r>
       <r>   -8.8676    1.0000 </r>
       <r>   -8.3216    1.0000 </r>
       <r>   -7.9473    1.0000 </r>
       <r>   -7.5440    1.0000 </r>
       <r>    2.1983    0.0000 </r>
       <r>    2.8501    0.0000 </r>
       <r>    3.0088    0.0000 </r>
       <r>    3.4263    0.0000 </r>
      </set>
      <set comment="kpoint 26">
       <r>  -20.7370    1.0000 </r>
       <r>  -20.7370    1.0000 </r>
       <r>  -10.2648    1.0000 </r>
       <r>  -10.2648    1.0000 </r>
       <r>   -8.6044    1.0000 </r>
       <r>   -8.6044    1.0000 </r>
       <r>   -7.7504    1.0000 </r>
       <r>   -7.7504    1.0000 </r>
       <r>    2.5109    0.0000 </r>
       <r>    2.5109    0.0000 </r>
       <r>    3.3118    0.0000 </r>
       <r>    3.3118    0.0000 </r>
      </set>
      <set comment="kpoint 27">
       <r>  -22.1307    1.0000 </r>
       <r>  -17.0704    1.0000 </r>
       <r>  -15.8735    1.0000 </r>
       <r>  -10.2410    1.0000 </r>
       <r>   -9.2597    1.0000 </r>
       <r>   -5.9895    1.0000 </r>
       <r>   -5.9879    1.0000 </r>
       <r>   -5.1350    1.0000 </r>
       <r>   -1.1351    0.0000 </r>
       <r>    0.6062    0.0000 </r>
       <r>    1.4061    0.0000 </r>
       <r>    1.7924    0.0000 </r>
      </set>
      <set comment="kpoint 28">
       <r>  -22.1207    1.0000 </r>
       <r>  -17.2136    1.0000 </r>
       <r>  -15.7153    1.0000 </r>
       <r>  -10.2290    1.0000 </r>
       <r>   -9.2497    1.0000 </r>
       <r>   -6.0642    1.0000 </r>
       <r>   -5.9756    1.0000 </r>
       <r>   -5.1988    1.0000 </r>
       <r>   -1.0558    0.0000 </r>
       <r>    0.6198    0.0000 </r>
       <r>    1.4199    0.0000 </r>
       <r>    1.8063    0.0000 </r>
      </set>
      <set comment="kpoint 29">
       <r>  -22.0905    1.0000 </r>
       <r>  -17.5234    1.0000 </r>
       <r>  -15.3607    1.0000 </r>
       <r>  -10.1932    1.0000 </r>
       <r>   -9.2199    1.0000 </r>
       <r>   -6.2041    1.0000 </r>
       <r>   -6.0202    1.0000 </r>
       <r>   -5.3764    1.0000 </r>
       <r>   -0.8320    0.0000 </r>
       <r>    0.6607    0.0000 </r>
       <r>    1.4613    0.0000 </r>
       <r>    1.8483    0.0000 </r>
      </set>
      <set comment="kpoint 30">
       <r>  -22.0403    1.0000 </r>
       <r>  -17.8809    1.0000 </r>
       <r>  -14.9289    1.0000 </r>
       <r>  -10.1335    1.0000 </r>
       <r>   -9.1704    1.0000 </r>
       <r>   -6.4081    1.0000 </r>
       <r>   -6.1155    1.0000 </r>
       <r>   -5.6362    1.0000 </r>
       <r>   -0.4958    0.0000 </r>
       <r>    0.7288    0.0000 </r>
       <r>    1.5303    0.0000 </r>
       <r>    1.9182    0.0000 </r>
      </set>
      <set comment="kpoint 31">
       <r>  -21.9701    1.0000 </r>
       <r>  -18.2460    1.0000 </r>
       <r>  -14.4604    1.0000 </r>
       <r>  -10.0500    1.0000 </r>
       <r>   -9.1014    1.0000 </r>
       <r>   -6.6735    1.0000 </r>
       <r>   -6.2527    1.0000 </r>
       <r>   -5.9468    1.0000 </r>
       <r>   -0.0795    0.0000 </r>
       <r>    0.8242    0.0000 </r>
       <r>    1.6269    0.0000 </r>
       <r>    2.0160    0.0000 </r>
      </set>
      <set comment="kpoint 32">
       <r>  -21.8799    1.0000 </r>
       <r>  -18.6051    1.0000 </r>
       <r>  -13.9694    1.0000 </r>
       <r>   -9.9429    1.0000 </r>
       <r>   -9.0132    1.0000 </r>
       <r>   -6.9956    1.0000 </r>
       <r>   -6.4226    1.0000 </r>
       <r>   -6.2843    1.0000 </r>
       <r>    0.3920    0.0000 </r>
       <r>    0.9469    0.0000 </r>
       <r>    1.7510    0.0000 </r>
       <r>    2.1418    0.0000 </r>
      </set>
      <set comment="kpoint 33">
       <r>  -21.7697    1.0000 </r>
       <r>  -18.9526    1.0000 </r>
       <r>  -13.4624    1.0000 </r>
       <r>   -9.8124    1.0000 </r>
       <r>   -8.9064    1.0000 </r>
       <r>   -7.3681    1.0000 </r>
       <r>   -6.6328    1.0000 </r>
       <r>   -6.6163    1.0000 </r>
       <r>    0.9010    0.0000 </r>
       <r>    1.0968    0.0000 </r>
       <r>    1.9025    0.0000 </r>
       <r>    2.2955    0.0000 </r>
      </set>
      <set comment="kpoint 34">
       <r>  -21.6398    1.0000 </r>
       <r>  -19.2858    1.0000 </r>
       <r>  -12.9432    1.0000 </r>
       <r>   -9.6588    1.0000 </r>
       <r>   -8.7815    1.0000 </r>
       <r>   -7.7838    1.0000 </r>
       <r>   -6.9819    1.0000 </r>
       <r>   -6.8262    1.0000 </r>
       <r>    1.2740    0.0000 </r>
       <r>    1.4350    0.0000 </r>
       <r>    2.0815    0.0000 </r>
       <r>    2.4773    0.0000 </r>
      </set>
      <set comment="kpoint 35">
       <r>  -21.4901    1.0000 </r>
       <r>  -19.6031    1.0000 </r>
       <r>  -12.4149    1.0000 </r>
       <r>   -9.4823    1.0000 </r>
       <r>   -8.6393    1.0000 </r>
       <r>   -8.2354    1.0000 </r>
       <r>   -7.3246    1.0000 </r>
       <r>   -7.0455    1.0000 </r>
       <r>    1.4785    0.0000 </r>
       <r>    1.9845    0.0000 </r>
       <r>    2.2877    0.0000 </r>
       <r>    2.6869    0.0000 </r>
      </set>
      <set comment="kpoint 36">
       <r>  -21.3207    1.0000 </r>
       <r>  -19.9034    1.0000 </r>
       <r>  -11.8802    1.0000 </r>
       <r>   -9.2833    1.0000 </r>
       <r>   -8.7157    1.0000 </r>
       <r>   -8.4806    1.0000 </r>
       <r>   -7.6563    1.0000 </r>
       <r>   -7.2686    1.0000 </r>
       <r>    1.7100    0.0000 </r>
       <r>    2.5209    0.0000 </r>
       <r>    2.5409    0.0000 </r>
       <r>    2.9245    0.0000 </r>
      </set>
      <set comment="kpoint 37">
       <r>  -21.1319    1.0000 </r>
       <r>  -20.1861    1.0000 </r>
       <r>  -11.3418    1.0000 </r>
       <r>   -9.2181    1.0000 </r>
       <r>   -9.0623    1.0000 </r>
       <r>   -8.3067    1.0000 </r>
       <r>   -7.9737    1.0000 </r>
       <r>   -7.4909    1.0000 </r>
       <r>    1.9687    0.0000 </r>
       <r>    2.7807    0.0000 </r>
       <r>    3.0923    0.0000 </r>
       <r>    3.1901    0.0000 </r>
      </set>
      <set comment="kpoint 38">
       <r>  -20.9238    1.0000 </r>
       <r>  -20.4506    1.0000 </r>
       <r>  -10.8028    1.0000 </r>
       <r>   -9.7368    1.0000 </r>
       <r>   -8.8200    1.0000 </r>
       <r>   -8.2745    1.0000 </r>
       <r>   -8.1189    1.0000 </r>
       <r>   -7.7087    1.0000 </r>
       <r>    2.2544    0.0000 </r>
       <r>    2.9063    0.0000 </r>
       <r>    3.0654    0.0000 </r>
       <r>    3.4875    0.0000 </r>
      </set>
      <set comment="kpoint 39">
[...]
       <r>   -9.2692    1.0000 </r>
       <r>   -5.5632    1.0000 </r>
       <r>   -5.5632    1.0000 </r>
       <r>   -0.4483    0.0000 </r>
       <r>   -0.4483    0.0000 </r>
       <r>    4.5588    0.0000 </r>
       <r>    4.5588    0.0000 </r>
      </set>
      <set comment="kpoint 209">
       <r>  -18.7534    1.0000 </r>
       <r>  -16.9520    1.0000 </r>
       <r>  -14.1172    1.0000 </r>
       <r>  -12.4734    1.0000 </r>
       <r>  -12.3736    1.0000 </r>
       <r>  -10.8487    1.0000 </r>
       <r>   -6.3623    1.0000 </r>
       <r>   -4.4766    1.0000 </r>
       <r>   -1.0720    0.0000 </r>
       <r>    1.0930    0.0000 </r>
       <r>    5.2757    0.0000 </r>
       <r>    6.0561    0.0000 </r>
      </set>
      <set comment="kpoint 210">
       <r>  -18.7439    1.0000 </r>
       <r>  -16.9445    1.0000 </r>
       <r>  -14.1951    1.0000 </r>
       <r>  -12.5458    1.0000 </r>
       <r>  -12.2880    1.0000 </r>
       <r>  -10.7787    1.0000 </r>
       <r>   -6.3537    1.0000 </r>
       <r>   -4.4800    1.0000 </r>
       <r>   -1.0803    0.0000 </r>
       <r>    1.0687    0.0000 </r>
       <r>    5.2890    0.0000 </r>
       <r>    6.0718    0.0000 </r>
      </set>
      <set comment="kpoint 211">
       <r>  -18.7154    1.0000 </r>
       <r>  -16.9222    1.0000 </r>
       <r>  -14.3929    1.0000 </r>
       <r>  -12.7325    1.0000 </r>
       <r>  -12.0672    1.0000 </r>
       <r>  -10.5998    1.0000 </r>
       <r>   -6.3280    1.0000 </r>
       <r>   -4.4905    1.0000 </r>
       <r>   -1.1035    0.0000 </r>
       <r>    0.9973    0.0000 </r>
       <r>    5.3289    0.0000 </r>
       <r>    6.1185    0.0000 </r>
      </set>
      <set comment="kpoint 212">
       <r>  -18.6679    1.0000 </r>
       <r>  -16.8866    1.0000 </r>
       <r>  -14.6506    1.0000 </r>
       <r>  -12.9824    1.0000 </r>
       <r>  -11.7711    1.0000 </r>
       <r>  -10.3651    1.0000 </r>
       <r>   -6.2854    1.0000 </r>
       <r>   -4.5097    1.0000 </r>
       <r>   -1.1369    0.0000 </r>
       <r>    0.8838    0.0000 </r>
       <r>    5.3948    0.0000 </r>
       <r>    6.1952    0.0000 </r>
      </set>
      <set comment="kpoint 213">
       <r>  -18.6017    1.0000 </r>
       <r>  -16.8402    1.0000 </r>
       <r>  -14.9283    1.0000 </r>
       <r>  -13.2613    1.0000 </r>
       <r>  -11.4392    1.0000 </r>
       <r>  -10.1121    1.0000 </r>
       <r>   -6.2264    1.0000 </r>
       <r>   -4.5397    1.0000 </r>
       <r>   -1.1734    0.0000 </r>
       <r>    0.7353    0.0000 </r>
       <r>    5.4848    0.0000 </r>
       <r>    6.3075    0.0000 </r>
      </set>
      <set comment="kpoint 214">
       <r>  -18.5169    1.0000 </r>
       <r>  -16.7885    1.0000 </r>
       <r>  -15.2013    1.0000 </r>
       <r>  -13.5508    1.0000 </r>
       <r>  -11.0940    1.0000 </r>
       <r>   -9.8637    1.0000 </r>
       <r>   -6.1518    1.0000 </r>
       <r>   -4.5829    1.0000 </r>
       <r>   -1.2047    0.0000 </r>
       <r>    0.5599    0.0000 </r>
       <r>    5.5817    0.0000 </r>
       <r>    5.8744    0.0000 </r>
      </set>
      <set comment="kpoint 215">
       <r>  -18.4137    1.0000 </r>
       <r>  -16.7427    1.0000 </r>
       <r>  -15.4488    1.0000 </r>
       <r>  -13.8407    1.0000 </r>
       <r>  -10.7495    1.0000 </r>
       <r>   -9.6356    1.0000 </r>
       <r>   -6.0624    1.0000 </r>
       <r>   -4.6417    1.0000 </r>
       <r>   -1.2227    0.0000 </r>
       <r>    0.3661    0.0000 </r>
       <r>    5.3769    0.0000 </r>
       <r>    5.7888    0.0000 </r>
      </set>
      <set comment="kpoint 216">
       <r>  -18.2927    1.0000 </r>
       <r>  -16.7245    1.0000 </r>
       <r>  -15.6433    1.0000 </r>
       <r>  -14.1251    1.0000 </r>
       <r>  -10.4165    1.0000 </r>
       <r>   -9.4401    1.0000 </r>
       <r>   -5.9596    1.0000 </r>
       <r>   -4.7174    1.0000 </r>
       <r>   -1.2200    0.0000 </r>
       <r>    0.1618    0.0000 </r>
       <r>    5.0175    0.0000 </r>
       <r>    5.9938    0.0000 </r>
      </set>
      <set comment="kpoint 217">
       <r>  -18.1543    1.0000 </r>
       <r>  -16.7661    1.0000 </r>
       <r>  -15.7498    1.0000 </r>
       <r>  -14.3998    1.0000 </r>
       <r>  -10.1044    1.0000 </r>
       <r>   -9.2874    1.0000 </r>
       <r>   -5.8448    1.0000 </r>
       <r>   -4.8103    1.0000 </r>
       <r>   -1.1915    0.0000 </r>
       <r>   -0.0459    0.0000 </r>
       <r>    4.7236    0.0000 </r>
       <r>    5.5435    0.0000 </r>
      </set>
      <set comment="kpoint 218">
       <r>  -17.9993    1.0000 </r>
       <r>  -16.8833    1.0000 </r>
       <r>  -15.7501    1.0000 </r>
       <r>  -14.6617    1.0000 </r>
       <r>   -9.8224    1.0000 </r>
       <r>   -9.1862    1.0000 </r>
       <r>   -5.7199    1.0000 </r>
       <r>   -4.9190    1.0000 </r>
       <r>   -1.1342    0.0000 </r>
       <r>   -0.2505    0.0000 </r>
       <r>    4.5118    0.0000 </r>
       <r>    5.1521    0.0000 </r>
      </set>
      <set comment="kpoint 219">
       <r>  -17.8290    1.0000 </r>
       <r>  -17.0549    1.0000 </r>
       <r>  -15.6644    1.0000 </r>
       <r>  -14.9083    1.0000 </r>
       <r>   -9.5794    1.0000 </r>
       <r>   -9.1430    1.0000 </r>
       <r>   -5.5872    1.0000 </r>
       <r>   -5.0410    1.0000 </r>
       <r>   -1.0475    0.0000 </r>
       <r>   -0.4463    0.0000 </r>
       <r>    4.3897    0.0000 </r>
       <r>    4.8298    0.0000 </r>
      </set>
      <set comment="kpoint 220">
       <r>  -17.6450    1.0000 </r>
       <r>  -17.2504    1.0000 </r>
       <r>  -15.5224    1.0000 </r>
       <r>  -15.1366    1.0000 </r>
       <r>   -9.3838    1.0000 </r>
       <r>   -9.1617    1.0000 </r>
       <r>   -5.4496    1.0000 </r>
       <r>   -5.1727    1.0000 </r>
       <r>   -0.9324    0.0000 </r>
       <r>   -0.6281    0.0000 </r>
       <r>    4.3615    0.0000 </r>
       <r>    4.5858    0.0000 </r>
      </set>
      <set comment="kpoint 221">
       <r>  -17.4504    1.0000 </r>
       <r>  -17.4504    1.0000 </r>
       <r>  -15.3432    1.0000 </r>
       <r>  -15.3432    1.0000 </r>
       <r>   -9.2428    1.0000 </r>
       <r>   -9.2428    1.0000 </r>
       <r>   -5.3102    1.0000 </r>
       <r>   -5.3102    1.0000 </r>
       <r>   -0.7915    0.0000 </r>
       <r>   -0.7915    0.0000 </r>
       <r>    4.4278    0.0000 </r>
       <r>    4.4278    0.0000 </r>
      </set>
      <set comment="kpoint 222">
       <r>  -18.3283    1.0000 </r>
       <r>  -17.4238    1.0000 </r>
       <r>  -13.7368    1.0000 </r>
       <r>  -12.9141    1.0000 </r>
       <r>  -12.0244    1.0000 </r>
       <r>  -11.2572    1.0000 </r>
       <r>   -5.9024    1.0000 </r>
       <r>   -4.9540    1.0000 </r>
       <r>   -0.5637    0.0000 </r>
       <r>    0.5210    0.0000 </r>
       <r>    5.8785    0.0000 </r>
       <r>    6.6189    0.0000 </r>
      </set>
      <set comment="kpoint 223">
       <r>  -18.3189    1.0000 </r>
       <r>  -17.4152    1.0000 </r>
       <r>  -13.8148    1.0000 </r>
       <r>  -12.9888    1.0000 </r>
       <r>  -11.9414    1.0000 </r>
       <r>  -11.1822    1.0000 </r>
       <r>   -5.8951    1.0000 </r>
       <r>   -4.9519    1.0000 </r>
       <r>   -0.5788    0.0000 </r>
       <r>    0.4987    0.0000 </r>
       <r>    5.8918    0.0000 </r>
       <r>    6.6355    0.0000 </r>
      </set>
      <set comment="kpoint 224">
       <r>  -18.2909    1.0000 </r>
       <r>  -17.3896    1.0000 </r>
       <r>  -14.0136    1.0000 </r>
       <r>  -13.1808    1.0000 </r>
       <r>  -11.7280    1.0000 </r>
       <r>  -10.9902    1.0000 </r>
       <r>   -5.8734    1.0000 </r>
       <r>   -4.9460    1.0000 </r>
       <r>   -0.6224    0.0000 </r>
       <r>    0.4334    0.0000 </r>
       <r>    5.9314    0.0000 </r>
       <r>    6.6847    0.0000 </r>
      </set>
      <set comment="kpoint 225">
       <r>  -18.2443    1.0000 </r>
       <r>  -17.3473    1.0000 </r>
       <r>  -14.2750    1.0000 </r>
       <r>  -13.4363    1.0000 </r>
       <r>  -11.4433    1.0000 </r>
       <r>  -10.7366    1.0000 </r>
       <r>   -5.8376    1.0000 </r>
       <r>   -4.9373    1.0000 </r>
       <r>   -0.6898    0.0000 </r>
       <r>    0.3301    0.0000 </r>
       <r>    5.9966    0.0000 </r>
       <r>    6.7653    0.0000 </r>
      </set>
      <set comment="kpoint 226">
       <r>  -18.1794    1.0000 </r>
       <r>  -17.2894    1.0000 </r>
       <r>  -14.5613    1.0000 </r>
       <r>  -13.7198    1.0000 </r>
       <r>  -11.1270    1.0000 </r>
       <r>  -10.4599    1.0000 </r>
       <r>   -5.7886    1.0000 </r>
       <r>   -4.9276    1.0000 </r>
       <r>   -0.7735    0.0000 </r>
       <r>    0.1956    0.0000 </r>
       <r>    6.0827    0.0000 </r>
       <r>    6.6328    0.0000 </r>
      </set>
      <set comment="kpoint 227">
       <r>  -18.0964    1.0000 </r>
       <r>  -17.2173    1.0000 </r>
       <r>  -14.8518    1.0000 </r>
       <r>  -14.0126    1.0000 </r>
       <r>  -10.8013    1.0000 </r>
       <r>  -10.1827    1.0000 </r>
       <r>   -5.7274    1.0000 </r>
       <r>   -4.9195    1.0000 </r>
       <r>   -0.8648    0.0000 </r>
       <r>    0.0385    0.0000 </r>
       <r>    6.0481    0.0000 </r>
       <r>    6.2666    0.0000 </r>
      </set>
      <set comment="kpoint 228">
       <r>  -17.9960    1.0000 </r>
       <r>  -17.1340    1.0000 </r>
       <r>  -15.1341    1.0000 </r>
       <r>  -14.3044    1.0000 </r>
       <r>  -10.4808    1.0000 </r>
       <r>   -9.9204    1.0000 </r>
       <r>   -5.6554    1.0000 </r>
       <r>   -4.9158    1.0000 </r>
       <r>   -0.9543    0.0000 </r>
       <r>   -0.1328    0.0000 </r>
       <r>    5.6125    0.0000 </r>
       <r>    6.1698    0.0000 </r>
      </set>
      <set comment="kpoint 229">
       <r>  -17.8786    1.0000 </r>
       <r>  -17.0449    1.0000 </r>
       <r>  -15.3971    1.0000 </r>
       <r>  -14.5889    1.0000 </r>
       <r>  -10.1766    1.0000 </r>
       <r>   -9.6851    1.0000 </r>
       <r>   -5.5746    1.0000 </r>
       <r>   -4.9198    1.0000 </r>
       <r>   -1.0324    0.0000 </r>
       <r>   -0.3096    0.0000 </r>
       <r>    5.2049    0.0000 </r>
       <r>    5.6952    0.0000 </r>
      </set>
      <set comment="kpoint 230">
       <r>  -17.7456    1.0000 </r>
       <r>  -16.9609    1.0000 </r>
       <r>  -15.6267    1.0000 </r>
       <r>  -14.8616    1.0000 </r>
       <r>   -9.8987    1.0000 </r>
       <r>   -9.4871    1.0000 </r>
       <r>   -5.4873    1.0000 </r>
       <r>   -4.9347    1.0000 </r>
       <r>   -1.0907    0.0000 </r>
       <r>   -0.4841    0.0000 </r>
       <r>    4.8639    0.0000 </r>
       <r>    5.2763    0.0000 </r>
      </set>
      <set comment="kpoint 231">
       <r>  -17.5986    1.0000 </r>
       <r>  -16.9034    1.0000 </r>
       <r>  -15.7995    1.0000 </r>
       <r>  -15.1186    1.0000 </r>
       <r>   -9.6565    1.0000 </r>
       <r>   -9.3357    1.0000 </r>
       <r>   -5.3962    1.0000 </r>
       <r>   -4.9631    1.0000 </r>
       <r>   -1.1224    0.0000 </r>
       <r>   -0.6490    0.0000 </r>
       <r>    4.6008    0.0000 </r>
       <r>    4.9232    0.0000 </r>
      </set>
      <set comment="kpoint 232">
       <r>  -17.4405    1.0000 </r>
       <r>  -16.9047    1.0000 </r>
       <r>  -15.8820    1.0000 </r>
       <r>  -15.3555    1.0000 </r>
       <r>   -9.4587    1.0000 </r>
       <r>   -9.2386    1.0000 </r>
       <r>   -5.3048    1.0000 </r>
       <r>   -5.0062    1.0000 </r>
       <r>   -1.1227    0.0000 </r>
       <r>   -0.7974    0.0000 </r>
       <r>    4.4238    0.0000 </r>
       <r>    4.6456    0.0000 </r>
      </set>
      <set comment="kpoint 233">
       <r>  -17.2766    1.0000 </r>
       <r>  -16.9829    1.0000 </r>
       <r>  -15.8553    1.0000 </r>
       <r>  -15.5661    1.0000 </r>
       <r>   -9.3133    1.0000 </r>
       <r>   -9.2012    1.0000 </r>
       <r>   -5.2165    1.0000 </r>
       <r>   -5.0641    1.0000 </r>
       <r>   -1.0892    0.0000 </r>
       <r>   -0.9234    0.0000 </r>
       <r>    4.3387    0.0000 </r>
       <r>    4.4517    0.0000 </r>
      </set>
      <set comment="kpoint 234">
       <r>  -17.1174    1.0000 </r>
       <r>  -17.1174    1.0000 </r>
       <r>  -15.7395    1.0000 </r>
       <r>  -15.7395    1.0000 </r>
       <r>   -9.2263    1.0000 </r>
       <r>   -9.2263    1.0000 </r>
       <r>   -5.1351    1.0000 </r>
       <r>   -5.1351    1.0000 </r>
       <r>   -1.0220    0.0000 </r>
       <r>   -1.0220    0.0000 </r>
       <r>    4.3482    0.0000 </r>
       <r>    4.3482    0.0000 </r>
      </set>
      <set comment="kpoint 235">
       <r>  -17.8841    1.0000 </r>
       <r>  -17.8841    1.0000 </r>
       <r>  -13.3355    1.0000 </r>
       <r>  -13.3355    1.0000 </r>
       <r>  -11.6505    1.0000 </r>
       <r>  -11.6505    1.0000 </r>
       <r>   -5.4313    1.0000 </r>
       <r>   -5.4313    1.0000 </r>
       <r>   -0.0320    0.0000 </r>
       <r>   -0.0320    0.0000 </r>
       <r>    6.5131    0.0000 </r>
       <r>    6.5131    0.0000 </r>
      </set>
      <set comment="kpoint 236">
       <r>  -17.8750    1.0000 </r>
       <r>  -17.8750    1.0000 </r>
       <r>  -13.4122    1.0000 </r>
       <r>  -13.4122    1.0000 </r>
       <r>  -11.5711    1.0000 </r>
       <r>  -11.5711    1.0000 </r>
       <r>   -5.4260    1.0000 </r>
       <r>   -5.4260    1.0000 </r>
       <r>   -0.0514    0.0000 </r>
       <r>   -0.0514    0.0000 </r>
       <r>    6.5263    0.0000 </r>
       <r>    6.5263    0.0000 </r>
      </set>
      <set comment="kpoint 237">
       <r>  -17.8478    1.0000 </r>
       <r>  -17.8478    1.0000 </r>
       <r>  -13.6085    1.0000 </r>
       <r>  -13.6085    1.0000 </r>
       <r>  -11.3675    1.0000 </r>
       <r>  -11.3675    1.0000 </r>
       <r>   -5.4104    1.0000 </r>
       <r>   -5.4104    1.0000 </r>
       <r>   -0.1080    0.0000 </r>
       <r>   -0.1080    0.0000 </r>
       <r>    6.5655    0.0000 </r>
       <r>    6.5655    0.0000 </r>
      </set>
      <set comment="kpoint 238">
       <r>  -17.8027    1.0000 </r>
       <r>  -17.8027    1.0000 </r>
       <r>  -13.8682    1.0000 </r>
       <r>  -13.8682    1.0000 </r>
       <r>  -11.0972    1.0000 </r>
       <r>  -11.0972    1.0000 </r>
       <r>   -5.3850    1.0000 </r>
       <r>   -5.3850    1.0000 </r>
       <r>   -0.1969    0.0000 </r>
       <r>   -0.1969    0.0000 </r>
       <r>    6.6294    0.0000 </r>
       <r>    6.6294    0.0000 </r>
      </set>
      <set comment="kpoint 239">
       <r>  -17.7401    1.0000 </r>
       <r>  -17.7401    1.0000 </r>
       <r>  -14.1547    1.0000 </r>
       <r>  -14.1547    1.0000 </r>
       <r>  -10.7993    1.0000 </r>
       <r>  -10.7993    1.0000 </r>
       <r>   -5.3512    1.0000 </r>
       <r>   -5.3512    1.0000 </r>
       <r>   -0.3111    0.0000 </r>
       <r>   -0.3111    0.0000 </r>
       <r>    6.6997    0.0000 </r>
       <r>    6.7001    0.0000 </r>
      </set>
      <set comment="kpoint 240">
       <r>  -17.6606    1.0000 </r>
       <r>  -17.6606    1.0000 </r>
       <r>  -14.4488    1.0000 </r>
       <r>  -14.4488    1.0000 </r>
       <r>  -10.4963    1.0000 </r>
       <r>  -10.4963    1.0000 </r>
       <r>   -5.3105    1.0000 </r>
       <r>   -5.3105    1.0000 </r>
       <r>   -0.4419    0.0000 </r>
       <r>   -0.4419    0.0000 </r>
       <r>    6.3668    0.0000 </r>
       <r>    6.3668    0.0000 </r>
      </set>
      <set comment="kpoint 241">
       <r>  -17.5652    1.0000 </r>
       <r>  -17.5652    1.0000 </r>
       <r>  -14.7395    1.0000 </r>
       <r>  -14.7395    1.0000 </r>
       <r>  -10.2033    1.0000 </r>
       <r>  -10.2033    1.0000 </r>
       <r>   -5.2653    1.0000 </r>
       <r>   -5.2653    1.0000 </r>
       <r>   -0.5802    0.0000 </r>
       <r>   -0.5802    0.0000 </r>
       <r>    5.8757    0.0000 </r>
       <r>    5.8757    0.0000 </r>
      </set>
      <set comment="kpoint 242">
       <r>  -17.4556    1.0000 </r>
       <r>  -17.4556    1.0000 </r>
       <r>  -15.0199    1.0000 </r>
       <r>  -15.0199    1.0000 </r>
       <r>   -9.9317    1.0000 </r>
       <r>   -9.9317    1.0000 </r>
       <r>   -5.2183    1.0000 </r>
       <r>   -5.2183    1.0000 </r>
       <r>   -0.7170    0.0000 </r>
       <r>   -0.7170    0.0000 </r>
       <r>    5.4314    0.0000 </r>
       <r>    5.4314    0.0000 </r>
      </set>
      <set comment="kpoint 243">
       <r>  -17.3347    1.0000 </r>
       <r>  -17.3347    1.0000 </r>
       <r>  -15.2836    1.0000 </r>
       <r>  -15.2836    1.0000 </r>
       <r>   -9.6919    1.0000 </r>
       <r>   -9.6919    1.0000 </r>
       <r>   -5.1727    1.0000 </r>
       <r>   -5.1727    1.0000 </r>
       <r>   -0.8434    0.0000 </r>
       <r>   -0.8434    0.0000 </r>
       <r>    5.0489    0.0000 </r>
       <r>    5.0489    0.0000 </r>
      </set>
      <set comment="kpoint 244">
       <r>  -17.2080    1.0000 </r>
       <r>  -17.2080    1.0000 </r>
       <r>  -15.5231    1.0000 </r>
       <r>  -15.5231    1.0000 </r>
       <r>   -9.4933    1.0000 </r>
       <r>   -9.4933    1.0000 </r>
       <r>   -5.1319    1.0000 </r>
       <r>   -5.1319    1.0000 </r>
       <r>   -0.9515    0.0000 </r>
       <r>   -0.9515    0.0000 </r>
       <r>    4.7386    0.0000 </r>
       <r>    4.7386    0.0000 </r>
      </set>
      <set comment="kpoint 245">
       <r>  -17.0860    1.0000 </r>
       <r>  -17.0860    1.0000 </r>
       <r>  -15.7264    1.0000 </r>
       <r>  -15.7264    1.0000 </r>
       <r>   -9.3444    1.0000 </r>
       <r>   -9.3444    1.0000 </r>
       <r>   -5.0996    1.0000 </r>
       <r>   -5.0996    1.0000 </r>
       <r>   -1.0343    0.0000 </r>
       <r>   -1.0343    0.0000 </r>
       <r>    4.5095    0.0000 </r>
       <r>    4.5095    0.0000 </r>
      </set>
      <set comment="kpoint 246">
       <r>  -16.9896    1.0000 </r>
       <r>  -16.9896    1.0000 </r>
       <r>  -15.8720    1.0000 </r>
       <r>  -15.8720    1.0000 </r>
       <r>   -9.2520    1.0000 </r>
       <r>   -9.2520    1.0000 </r>
       <r>   -5.0788    1.0000 </r>
       <r>   -5.0788    1.0000 </r>
       <r>   -1.0863    0.0000 </r>
       <r>   -1.0863    0.0000 </r>
       <r>    4.3689    0.0000 </r>
       <r>    4.3689    0.0000 </r>
      </set>
      <set comment="kpoint 247">
       <r>  -16.9510    1.0000 </r>
       <r>  -16.9510    1.0000 </r>
       <r>  -15.9270    1.0000 </r>
       <r>  -15.9270    1.0000 </r>
       <r>   -9.2207    1.0000 </r>
       <r>   -9.2207    1.0000 </r>
       <r>   -5.0716    1.0000 </r>
       <r>   -5.0716    1.0000 </r>
       <r>   -1.1041    0.0000 </r>
       <r>   -1.1041    0.0000 </r>
       <r>    4.3215    0.0000 </r>
       <r>    4.3215    0.0000 </r>
      </set>
     </set>
    </set>
   </array>
  </eigenvalues>
  <separator name="orbital magnetization" >
   <v name="MAGDIPOLOUT">      0.00000000      0.00000000      0.00000000</v>
  </separator>
 </calculation>
 <structure name="finalpos" >
  <crystal>
   <varray name="basis" >
    <v>       4.31535068       0.00000000       0.00000000 </v>
    <v>       0.00000000       2.46292318       0.00000000 </v>
    <v>       0.00000000       0.00000000      19.83726178 </v>
   </varray>
   <i name="volume">    210.83790140 </i>
   <varray name="rec_basis" >
    <v>       0.23173088       0.00000000       0.00000000 </v>
    <v>       0.00000000       0.40602160       0.00000000 </v>
    <v>       0.00000000       0.00000000       0.05041018 </v>
   </varray>
  </crystal>
  <varray name="positions" >
   <v>       0.99975999       0.00000000       0.00000000 </v>
   <v>       0.16690668       0.50000000      -0.00000000 </v>
   <v>       0.49975999       0.50000000       0.00000000 </v>
   <v>       0.66690668       0.00000000      -0.00000000 </v>
  </varray>
 </structure>
</modeling>
