gr                                      
           1
     4.315351    0.000000    0.000000
     0.000000    2.462923    0.000000
     0.000000    0.000000   19.837262
   C 
   4
Direct configuration=     1
   0.99978330  0.00000000  0.00000000
   0.16688336  0.50000000  0.00000000
   0.49978330  0.50000000  0.00000000
   0.66688336  0.00000000  0.00000000
Direct configuration=     2
   0.99966772  0.00000000  0.00000000
   0.16699894  0.50000000 -0.00000000
   0.49966772  0.50000000  0.00000000
   0.66699894  0.00000000 -0.00000000
Direct configuration=     3
   0.99975999  0.00000000  0.00000000
   0.16690668  0.50000000 -0.00000000
   0.49975999  0.50000000  0.00000000
   0.66690668  0.00000000 -0.00000000
