    4    4  400    1
  0.5270948E+02  0.4294837E-09  0.2464941E-09  0.1991570E-08  0.5000000E-15
  1.000000000000000E-004
  CAR 
 gr                                      
     16    247     12
 
  0.0000000E+00  0.0000000E+00  0.0000000E+00  0.1157407E-02
    1      -22.218802
    2      -17.070995
    3      -15.946095
    4      -10.332026
    5       -9.084731
    6       -5.832198
    7       -5.773599
    8       -5.157726
    9       -1.098753
   10        0.528004
   11        1.328525
   12        1.713538
 
  0.4166667E-01  0.0000000E+00  0.0000000E+00  0.2314815E-02
    1      -22.208655
    2      -17.224612
    3      -15.777270
    4      -10.319919
    5       -9.074698
    6       -5.875281
    7       -5.795648
    8       -5.222578
    9       -1.017957
   10        0.541760
   11        1.342466
   12        1.727649
 
  0.8333333E-01  0.0000000E+00  0.0000000E+00  0.2314815E-02
    1      -22.178216
    2      -17.547996
    3      -15.408344
    4      -10.283617
    5       -9.044647
    6       -6.002696
    7       -5.860589
    8       -5.402852
    9       -0.790020
   10        0.583033
   11        1.384286
   12        1.769982
 
  0.1250000E+00  0.0000000E+00  0.0000000E+00  0.2314815E-02
    1      -22.127507
    2      -17.915194
    3      -14.965522
    4      -10.223177
    5       -8.994733
    6       -6.209267
    7       -5.965007
    8       -5.666555
    9       -0.447440
   10        0.651830
   11        1.453971
   12        1.840539
 
  0.1666667E+00  0.0000000E+00  0.0000000E+00  0.2314815E-02
    1      -22.056560
    2      -18.287535
    3      -14.487908
    4      -10.138697
    5       -8.925217
    6       -6.487304
    7       -6.103809
    8       -5.981635
    9       -0.023127
   10        0.748159
   11        1.551500
   12        1.939323
 
  0.2083333E+00  0.0000000E+00  0.0000000E+00  0.2314815E-02
    1      -21.965426
    2      -18.652527
    3      -13.988615
    4      -10.030318
    5       -8.836477
    6       -6.827668
    7       -6.323974
    8       -6.270904
    9        0.457570
   10        0.872024
   11        1.676836
   12        2.066332
 
  0.2500000E+00  0.0000000E+00  0.0000000E+00  0.2314815E-02
    1      -21.854167
    2      -19.005074
    3      -13.473559
    4       -9.898230
    5       -8.729019
    6       -7.220741
    7       -6.677359
    8       -6.459855
    9        0.976790
   10        1.023414
   11        1.829925
   12        2.221569
 
  0.2916667E+00  0.0000000E+00  0.0000000E+00  0.2314815E-02
    1      -21.722865
    2      -19.342663
    3      -12.946307
    4       -9.742678
    5       -8.603492
    6       -7.657176
    7       -7.031203
    8       -6.664381
    9        1.202308
   10        1.521791
   11        2.010685
   12        2.405030
 
  0.3333333E+00  0.0000000E+00  0.0000000E+00  0.2314815E-02
    1      -21.571616
    2      -19.663854
    3      -12.409604
    4       -9.563973
    5       -8.460712
    6       -8.128339
    7       -7.378528
    8       -6.878687
    9        1.408669
   10        2.082690
   11        2.218982
   12        2.616711
 
  0.3750000E+00  0.0000000E+00  0.0000000E+00  0.2314815E-02
    1      -21.400537
    2      -19.967730
    3      -11.865972
    4       -9.362506
    5       -8.626531
    6       -8.301687
    7       -7.714624
    8       -7.097624
    9        1.642447
   10        2.454578
   11        2.650166
   12        2.856603
 
  0.4166667E+00  0.0000000E+00  0.0000000E+00  0.2314815E-02
    1      -21.209767
    2      -20.253652
    3      -11.317992
    4       -9.145031
    5       -9.138768
    6       -8.127653
    7       -8.036212
    8       -7.316733
    9        1.903571
   10        2.716974
   11        3.124692
   12        3.208457
 
  0.4583333E+00  0.0000000E+00  0.0000000E+00  0.2314815E-02
    1      -20.999470
    2      -20.521147
    3      -10.768480
    4       -9.678046
    5       -8.893372
    6       -8.340946
    7       -7.940116
    8       -7.532222
    9        2.191948
   10        2.849865
   11        3.004843
   12        3.420957
 
  0.5000000E+00  0.0000000E+00  0.0000000E+00  0.1157407E-02
    1      -20.769851
    2      -20.769851
    3      -10.220613
    4      -10.220613
    5       -8.627099
    6       -8.627099
    7       -7.740903
    8       -7.740903
    9        2.507444
   10        2.507444
   11        3.312654
   12        3.312654
 
  0.0000000E+00  0.2777778E-01  0.0000000E+00  0.2314815E-02
    1      -22.205101
    2      -17.059211
    3      -15.934463
    4      -10.315680
    5       -9.146682
    6       -5.861527
    7       -5.830886
    8       -5.141081
    9       -1.102371
   10        0.546585
   11        1.347338
   12        1.732580
 
  0.4166667E-01  0.2777778E-01  0.0000000E+00  0.4629630E-02
    1      -22.194955
    2      -17.212671
    3      -15.765845
    4      -10.303577
    5       -9.136633
    6       -5.912274
    7       -5.844612
    8       -5.206072
    9       -1.021551
   10        0.560341
   11        1.361278
   12        1.746691
 
  0.8333333E-01  0.2777778E-01  0.0000000E+00  0.4629630E-02
    1      -22.164520
    2      -17.535802
    3      -15.397323
    4      -10.267287
    5       -9.106535
    6       -6.044087
    7       -5.903292
    8       -5.386665
    9       -0.793640
   10        0.601615
   11        1.403095
   12        1.789024
 
  0.1250000E+00  0.2777778E-01  0.0000000E+00  0.4629630E-02
    1      -22.113818
    2      -17.902775
    3      -14.954984
    4      -10.206868
    5       -9.056537
    6       -6.249548
    7       -6.006068
    8       -5.650701
    9       -0.451305
   10        0.670415
   11        1.472777
   12        1.859582
 
  0.1666667E+00  0.2777778E-01  0.0000000E+00  0.4629630E-02
    1      -22.042883
    2      -18.274923
    3      -14.477934
    4      -10.122417
    5       -8.986897
    6       -6.523527
    7       -6.145671
    8       -5.966028
    9       -0.027555
   10        0.766750
   11        1.570299
   12        1.958367
 
  0.2083333E+00  0.2777778E-01  0.0000000E+00  0.4629630E-02
    1      -21.951763
    2      -18.639751
    3      -13.979305
    4      -10.014076
    5       -8.897983
    6       -6.858529
    7       -6.314717
    8       -6.308513
    9        0.452244
   10        0.890621
   11        1.695628
   12        2.085378
 
  0.2500000E+00  0.2777778E-01  0.0000000E+00  0.4629630E-02
    1      -21.840522
    2      -18.992158
    3      -13.465034
    4       -9.882033
    5       -8.790291
    6       -7.245909
    7       -6.661958
    8       -6.506064
    9        0.970253
   10        1.042020
   11        1.848710
   12        2.240617
 
  0.2916667E+00  0.2777778E-01  0.0000000E+00  0.4629630E-02
    1      -21.709242
    2      -19.329625
    3      -12.938714
    4       -9.726534
    5       -8.664454
    6       -7.676861
    7       -7.015801
    8       -6.713047
    9        1.220924
   10        1.513774
   11        2.029464
   12        2.424081
 
  0.3333333E+00  0.2777778E-01  0.0000000E+00  0.4629630E-02
    1      -21.558020
    2      -19.650712
    3      -12.403120
    4       -9.547891
    5       -8.521273
    6       -8.143032
    7       -7.363085
    8       -6.929663
    9        1.427298
   10        2.073001
   11        2.237756
   12        2.635765
 
  0.3750000E+00  0.2777778E-01  0.0000000E+00  0.4629630E-02
    1      -21.386972
    2      -19.954498
    3      -11.860813
    4       -9.346493
    5       -8.636828
    6       -8.361735
    7       -7.699113
    8       -7.150663
    9        1.661089
   10        2.473352
   11        2.638825
   12        2.875662
 
  0.4166667E+00  0.2777778E-01  0.0000000E+00  0.4629630E-02
    1      -21.196238
    2      -20.240342
    3      -11.314418
    4       -9.151544
    5       -9.122831
    6       -8.187050
    7       -8.020621
    8       -7.371555
    9        1.922230
   10        2.735761
   11        3.143759
   12        3.200795
 
  0.4583333E+00  0.2777778E-01  0.0000000E+00  0.4629630E-02
    1      -20.985985
    2      -20.507769
    3      -10.766802
    4       -9.681345
    5       -8.877518
    6       -8.325267
    7       -7.998697
    8       -7.588546
    9        2.210626
   10        2.868615
   11        3.023659
   12        3.440088
 
  0.5000000E+00  0.2777778E-01  0.0000000E+00  0.2314815E-02
    1      -20.756416
    2      -20.756416
    3      -10.221204
    4      -10.221204
    5       -8.611331
    6       -8.611331
    7       -7.798470
    8       -7.798470
    9        2.526150
   10        2.526150
   11        3.331406
   12        3.331406
 
  0.0000000E+00  0.5555556E-01  0.0000000E+00  0.2314815E-02
    1      -22.164009
    2      -17.023865
    3      -15.899716
    4      -10.266677
    5       -9.327565
    6       -5.998157
    7       -5.948858
    8       -5.091167
    9       -1.114052
   10        0.602330
   11        1.403769
   12        1.789707
 
  0.4166667E-01  0.5555556E-01  0.0000000E+00  0.4629630E-02
    1      -22.153866
    2      -17.176860
    3      -15.731715
    4      -10.254586
    5       -9.317464
    6       -6.051951
    7       -5.957602
    8       -5.156586
    9       -1.033155
   10        0.616087
   11        1.417706
   12        1.803818
 
  0.8333333E-01  0.5555556E-01  0.0000000E+00  0.4629630E-02
    1      -22.123445
    2      -17.499240
    3      -15.364409
    4      -10.218334
    5       -9.287207
    6       -6.184318
    7       -6.010260
    8       -5.338164
    9       -0.805313
   10        0.657364
   11        1.459516
   12        1.846152
 
  0.1250000E+00  0.5555556E-01  0.0000000E+00  0.4629630E-02
    1      -22.072766
    2      -17.865538
    3      -14.923537
    4      -10.157978
    5       -9.236934
    6       -6.382562
    7       -6.112126
    8       -5.603217
    9       -0.463723
   10        0.726170
   11        1.529184
   12        1.916711
 
  0.1666667E+00  0.5555556E-01  0.0000000E+00  0.4629630E-02
    1      -22.001863
    2      -18.237108
    3      -14.448213
    4      -10.073615
    5       -9.166883
    6       -6.642757
    7       -6.255845
    8       -5.919299
    9       -0.041692
   10        0.822515
   11        1.626689
   12        2.015498
 
  0.2083333E+00  0.5555556E-01  0.0000000E+00  0.4629630E-02
    1      -21.910786
    2      -18.601442
    3      -13.951620
    4       -9.965386
    5       -9.077395
    6       -6.960245
    7       -6.432247
    8       -6.262225
    9        0.435362
   10        0.946403
   11        1.751997
   12        2.142513
 
  0.2500000E+00  0.5555556E-01  0.0000000E+00  0.4629630E-02
    1      -21.799600
    2      -18.953425
    3      -13.439766
    4       -9.833482
    5       -8.968929
    6       -7.328987
    7       -6.632371
    8       -6.615851
    9        0.949670
   10        1.097823
   11        1.905055
   12        2.297758
 
  0.2916667E+00  0.5555556E-01  0.0000000E+00  0.4629630E-02
    1      -21.668387
    2      -19.290529
    3      -12.916325
    4       -9.678146
    5       -8.842074
    6       -7.741968
    7       -6.969687
    8       -6.848247
    9        1.276753
   10        1.488660
   11        2.085786
   12        2.481229
 
  0.3333333E+00  0.5555556E-01  0.0000000E+00  0.4629630E-02
    1      -21.517243
    2      -19.611302
    3      -12.384174
    4       -9.499690
    5       -8.697569
    6       -8.191807
    7       -7.316840
    8       -7.073121
    9        1.483157
   10        2.042743
   11        2.294062
   12        2.692923
 
  0.3750000E+00  0.5555556E-01  0.0000000E+00  0.4629630E-02
    1      -21.346290
    2      -19.914817
    3      -11.845995
    4       -9.298503
    5       -8.671304
    6       -8.536331
    7       -7.652661
    8       -7.301394
    9        1.716982
   10        2.529659
   11        2.603364
   12        2.932833
 
  0.4166667E+00  0.5555556E-01  0.0000000E+00  0.4629630E-02
    1      -21.155666
    2      -20.200427
    3      -11.304562
    4       -9.173787
    5       -9.075073
    6       -8.359484
    7       -7.973919
    8       -7.528478
    9        1.978161
   10        2.792106
   11        3.158438
   12        3.200946
 
  0.4583333E+00  0.5555556E-01  0.0000000E+00  0.4629630E-02
    1      -20.945542
    2      -20.467652
    3      -10.762916
    4       -9.693270
    5       -8.830010
    6       -8.278297
    7       -8.168402
    8       -7.750622
    9        2.266604
   10        2.924757
   11        3.080100
   12        3.497246
 
  0.5000000E+00  0.5555556E-01  0.0000000E+00  0.2314815E-02
    1      -20.716123
    2      -20.716123
    3      -10.224501
    4      -10.224501
    5       -8.564089
    6       -8.564089
    7       -7.964765
    8       -7.964765
    9        2.582192
   10        2.582192
   11        3.387620
   12        3.387620
 
  0.0000000E+00  0.8333333E-01  0.0000000E+00  0.2314815E-02
    1      -22.095560
    2      -16.964967
    3      -15.842328
    4      -10.185119
    5       -9.613850
    6       -6.263030
    7       -6.092253
    8       -5.008046
    9       -1.136277
   10        0.695249
   11        1.497796
   12        1.884920
 
  0.4166667E-01  0.8333333E-01  0.0000000E+00  0.4629630E-02
    1      -22.085424
    2      -17.117220
    3      -15.675340
    4      -10.173050
    5       -9.603646
    6       -6.310035
    7       -6.104701
    8       -5.074222
    9       -1.055227
   10        0.709006
   11        1.511728
   12        1.899031
 
  0.8333333E-01  0.8333333E-01  0.0000000E+00  0.4629630E-02
    1      -22.055026
    2      -17.438372
    3      -15.310078
    4      -10.136862
    5       -9.573074
    6       -6.436433
    7       -6.154576
    8       -5.257531
    9       -0.827472
   10        0.750281
   11        1.553523
   12        1.941365
 
  0.1250000E+00  0.8333333E-01  0.0000000E+00  0.4629630E-02
    1      -22.004385
    2      -17.803551
    3      -14.871720
    4      -10.076614
    5       -9.522252
    6       -6.624612
    7       -6.253407
    8       -5.524354
    9       -0.487145
   10        0.819088
   11        1.623168
   12        2.011926
 
  0.1666667E+00  0.8333333E-01  0.0000000E+00  0.4629630E-02
    1      -21.933537
    2      -18.174156
    3      -14.399386
    4       -9.992401
    5       -9.451381
    6       -6.866022
    7       -6.400188
    8       -5.841738
    9       -0.068073
   10        0.915440
   11        1.720641
   12        2.110714
 
  0.2083333E+00  0.8333333E-01  0.0000000E+00  0.4629630E-02
    1      -21.842532
    2      -18.537662
    3      -13.906356
    4       -9.884366
    5       -9.360750
    6       -7.156422
    7       -6.587000
    8       -6.185412
    9        0.404246
   10        1.039340
   11        1.845908
   12        2.237734
 
  0.2500000E+00  0.8333333E-01  0.0000000E+00  0.4629630E-02
    1      -21.731437
    2      -18.888935
    3      -13.398762
    4       -9.752699
    5       -9.250742
    6       -7.493012
    7       -6.802954
    8       -6.539333
    9        0.912168
   10        1.190781
   11        1.998922
   12        2.392985
 
  0.2916667E+00  0.8333333E-01  0.0000000E+00  0.4629630E-02
    1      -21.600334
    2      -19.225426
    3      -12.880439
    4       -9.597643
    5       -9.121852
    6       -7.872689
    7       -7.037003
    8       -6.893142
    9        1.369740
   10        1.443326
   11        2.179607
   12        2.576466
 
  0.3333333E+00  0.8333333E-01  0.0000000E+00  0.4629630E-02
    1      -21.449324
    2      -19.545672
    3      -12.354462
    4       -9.419509
    5       -8.974693
    6       -8.291118
    7       -7.279760
    8       -7.240057
    9        1.576177
   10        1.988451
   11        2.387848
   12        2.788172
 
  0.3750000E+00  0.8333333E-01  0.0000000E+00  0.4629630E-02
    1      -21.278527
    2      -19.848732
    3      -11.823757
    4       -9.218685
    5       -8.810022
    6       -8.742758
    7       -7.575512
    8       -7.524085
    9        1.810039
   10        2.539694
   11        2.623441
   12        3.028097
 
  0.4166667E+00  0.8333333E-01  0.0000000E+00  0.4629630E-02
    1      -21.088088
    2      -20.133950
    3      -11.291404
    4       -9.221451
    5       -8.995655
    6       -8.628765
    7       -7.896332
    8       -7.764794
    9        2.071257
   10        2.885952
   11        3.088067
   12        3.296232
 
  0.4583333E+00  0.8333333E-01  0.0000000E+00  0.4629630E-02
    1      -20.878181
    2      -20.400836
    3      -10.760816
    4       -9.721061
    5       -8.751026
    6       -8.432050
    7       -8.200242
    8       -7.998123
    9        2.359744
   10        3.018043
   11        3.174131
   12        3.592485
 
  0.5000000E+00  0.8333333E-01  0.0000000E+00  0.2314815E-02
    1      -20.649014
    2      -20.649014
    3      -10.235881
    4      -10.235881
    5       -8.485563
    6       -8.485563
    7       -8.221264
    8       -8.221264
    9        2.675389
   10        2.675389
   11        3.481114
   12        3.481114
 
  0.0000000E+00  0.1111111E+00  0.0000000E+00  0.2314815E-02
    1      -21.999815
    2      -16.882539
    3      -15.763199
    4      -10.071180
    5       -9.986695
    6       -6.608602
    7       -6.288574
    8       -4.891821
    9       -1.173155
   10        0.825352
   11        1.629381
   12        2.018223
 
  0.4166667E-01  0.1111111E+00  0.0000000E+00  0.4629630E-02
    1      -21.989690
    2      -17.033820
    3      -15.597591
    4      -10.059143
    5       -9.976309
    6       -6.654792
    7       -6.297803
    8       -4.959160
    9       -1.091829
   10        0.839105
   11        1.643306
   12        2.032334
 
  0.8333333E-01  0.1111111E+00  0.0000000E+00  0.4629630E-02
    1      -21.959324
    2      -17.353311
    3      -15.235238
    4      -10.023050
    5       -9.945178
    6       -6.780114
    7       -6.337236
    8       -5.145097
    9       -0.864105
   10        0.880370
   11        1.685077
   12        2.074667
 
  0.1250000E+00  0.1111111E+00  0.0000000E+00  0.4629630E-02
    1      -21.908737
    2      -17.716934
    3      -14.800575
    4       -9.962958
    5       -9.893382
    6       -6.963982
    7       -6.422962
    8       -5.414571
    9       -0.525571
   10        0.949164
   11        1.754683
   12        2.145225
 
  0.1666667E+00  0.1111111E+00  0.0000000E+00  0.4629630E-02
    1      -21.837966
    2      -18.086183
    3      -14.332719
    4       -9.878965
    5       -9.821054
    6       -7.193201
    7       -6.560758
    8       -5.733865
    9       -0.110817
   10        1.045504
   11        1.852101
   12        2.244014
 
  0.2083333E+00  0.1111111E+00  0.0000000E+00  0.4629630E-02
    1      -21.747063
    2      -18.448519
    3      -13.845099
    4       -9.771214
    5       -9.728381
    6       -7.460681
    7       -6.747727
    8       -6.078613
    9        0.354568
   10        1.169400
   11        1.977301
   12        2.371036
 
  0.2500000E+00  0.1111111E+00  0.0000000E+00  0.4629630E-02
    1      -21.636096
    2      -18.798785
    3      -13.344065
    4       -9.639893
    5       -9.615607
    6       -7.763260
    7       -6.975131
    8       -6.432933
    9        0.853137
   10        1.320845
   11        2.130237
   12        2.526292
 
  0.2916667E+00  0.1111111E+00  0.0000000E+00  0.4629630E-02
    1      -21.505148
    2      -19.134410
    3      -12.833735
    4       -9.485248
    5       -9.483028
    6       -8.100322
    7       -7.230663
    8       -6.786668
    9        1.372821
   10        1.499816
   11        2.310840
   12        2.709780
 
  0.3333333E+00  0.1111111E+00  0.0000000E+00  0.4629630E-02
    1      -21.354325
    2      -19.453909
    3      -12.317552
    4       -9.331001
    5       -9.307587
    6       -8.472215
    7       -7.500923
    8       -7.133203
    9        1.706272
   10        1.904737
   11        2.519011
   12        2.921498
 
  0.3750000E+00  0.1111111E+00  0.0000000E+00  0.4629630E-02
    1      -21.183749
    2      -19.756324
    3      -11.798912
    4       -9.159939
    5       -9.107296
    6       -8.878409
    7       -7.773986
    8       -7.468096
    9        1.940155
   10        2.441726
   11        2.754575
   12        3.161437
 
  0.4166667E+00  0.1111111E+00  0.0000000E+00  0.4629630E-02
    1      -20.993571
    2      -20.040987
    3      -11.281492
    4       -9.316292
    5       -8.970321
    6       -8.884856
    7       -8.041081
    8       -7.788255
    9        2.201392
   10        2.977032
   11        3.017173
   12        3.429591
 
  0.4583333E+00  0.1111111E+00  0.0000000E+00  0.4629630E-02
    1      -20.783969
    2      -20.307394
    3      -10.769457
    4       -9.781246
    5       -8.762715
    6       -8.640866
    7       -8.296726
    8       -8.091465
    9        2.489895
   10        3.148233
   11        3.305680
   12        3.497783
 
  0.5000000E+00  0.1111111E+00  0.0000000E+00  0.2314815E-02
    1      -20.555158
    2      -20.555158
    3      -10.267575
    4      -10.267575
    5       -8.537839
    6       -8.537839
    7       -8.376083
    8       -8.376083
    9        2.805555
   10        2.805555
   11        3.611056
   12        3.611057
 
  0.0000000E+00  0.1388889E+00  0.0000000E+00  0.2314815E-02
    1      -21.876863
    2      -16.776608
    3      -15.663846
    4      -10.425314
    5       -9.925113
    6       -7.016879
    7       -6.533640
    8       -4.742642
    9       -1.230316
   10        0.992640
   11        1.798467
   12        2.189619
 
  0.4166667E-01  0.1388889E+00  0.0000000E+00  0.4629630E-02
    1      -21.866752
    2      -16.926771
    3      -15.499957
    4      -10.414617
    5       -9.913118
    6       -7.063932
    7       -6.537263
    8       -4.811678
    9       -1.148494
   10        1.006385
   11        1.812380
   12        2.203728
 
  0.8333333E-01  0.1388889E+00  0.0000000E+00  0.4629630E-02
    1      -21.836427
    2      -17.244232
    3      -15.141466
    4      -10.382530
    5       -9.877153
    6       -7.191384
    7       -6.560934
    8       -5.001400
    9       -0.920590
   10        1.047627
   11        1.854114
   12        2.246057
 
  0.1250000E+00  0.1388889E+00  0.0000000E+00  0.4629630E-02
    1      -21.785909
    2      -17.605875
    3      -14.711939
    4      -10.329058
    5       -9.817275
    6       -7.375931
    7       -6.625115
    8       -5.274601
    9       -0.584333
   10        1.116387
   11        1.923657
   12        2.316611
 
  0.1666667E+00  0.1388889E+00  0.0000000E+00  0.4629630E-02
    1      -21.715239
    2      -17.973368
    3      -14.250485
    4      -10.254204
    5       -9.733582
    6       -7.600916
    7       -6.741372
    8       -5.596512
    9       -0.175365
   10        1.212688
   11        2.020987
   12        2.415395
 
  0.2083333E+00  0.1388889E+00  0.0000000E+00  0.4629630E-02
    1      -21.624467
    2      -18.334177
    3      -13.770775
    4      -10.157957
    5       -9.626218
    6       -7.856335
    7       -6.912217
    8       -5.942675
    9        0.280661
   10        1.336547
   11        2.146074
   12        2.542413
 
  0.2500000E+00  0.1388889E+00  0.0000000E+00  0.4629630E-02
    1      -21.513664
    2      -18.683126
    3      -13.279543
    4      -10.040270
    5       -9.495371
    6       -8.136581
    7       -7.133565
    8       -6.297470
    9        0.766624
   10        1.487964
   11        2.298874
   12        2.697668
 
  0.2916667E+00  0.1388889E+00  0.0000000E+00  0.4629630E-02
    1      -21.382918
    2      -19.017616
    3      -12.781432
    4       -9.901031
    5       -9.341287
    6       -8.439356
    7       -7.396418
    8       -6.651034
    9        1.270876
   10        1.666916
   11        2.479326
   12        2.881160
 
  0.3333333E+00  0.1388889E+00  0.0000000E+00  0.4629630E-02
    1      -21.232336
    2      -19.336138
    3      -12.280596
    4       -9.740031
    5       -9.164274
    6       -8.765153
    7       -7.688215
    8       -6.996991
    9        1.785002
   10        1.873360
   11        2.687346
   12        3.092885
 
  0.3750000E+00  0.1388889E+00  0.0000000E+00  0.4629630E-02
    1      -21.062048
    2      -19.637712
    3      -11.781367
    4       -9.556919
    5       -9.116519
    6       -8.964715
    7       -7.994385
    8       -7.331065
    9        2.107232
   10        2.302461
   11        2.922804
   12        3.332836
 
  0.4166667E+00  0.1388889E+00  0.0000000E+00  0.4629630E-02
    1      -20.872208
    2      -19.921649
    3      -11.288613
    4       -9.496529
    5       -9.351195
    6       -8.743087
    7       -8.300509
    8       -7.650284
    9        2.368453
   10        2.817749
   11        3.185460
   12        3.601005
 
  0.4583333E+00  0.1388889E+00  0.0000000E+00  0.4629630E-02
    1      -20.663004
    2      -20.187431
    3      -10.807883
    4       -9.906646
    5       -9.122284
    6       -8.594830
    7       -8.499983
    8       -7.952506
    9        2.656928
   10        3.315153
   11        3.325446
   12        3.474530
 
  0.5000000E+00  0.1388889E+00  0.0000000E+00  0.2314815E-02
    1      -20.434656
    2      -20.434656
    3      -10.345253
    4      -10.345253
    5       -8.869888
    6       -8.869888
    7       -8.236142
    8       -8.236142
    9        2.972541
   10        2.972541
   11        3.759945
   12        3.759966
 
  0.0000000E+00  0.1666667E+00  0.0000000E+00  0.2314815E-02
    1      -21.726820
    2      -16.647214
    3      -15.546824
    4      -10.909121
    5       -9.747253
    6       -7.471152
    7       -6.822429
    8       -4.560706
    9       -1.314642
   10        1.197104
   11        2.004974
   12        2.399109
 
  0.4166667E-01  0.1666667E+00  0.0000000E+00  0.4629630E-02
    1      -21.716726
    2      -16.796240
    3      -15.384959
    4      -10.897890
    5       -9.735314
    6       -7.519806
    7       -6.819255
    8       -4.632199
    9       -1.231910
   10        1.210836
   11        2.018866
   12        2.413216
 
  0.8333333E-01  0.1666667E+00  0.0000000E+00  0.4629630E-02
    1      -21.686452
    2      -17.111400
    3      -15.031488
    4      -10.864150
    5       -9.699516
    6       -7.651113
    7       -6.824036
    8       -4.827281
    9       -1.003280
   10        1.252041
   11        2.060540
   12        2.455539
 
  0.1250000E+00  0.1666667E+00  0.0000000E+00  0.4629630E-02
    1      -21.636022
    2      -17.470655
    3      -14.609076
    4      -10.807758
    5       -9.639919
    6       -7.839209
    7       -6.861341
    8       -5.105592
    9       -0.669620
   10        1.320741
   11        2.129980
   12        2.526083
 
  0.1666667E+00  0.1666667E+00  0.0000000E+00  0.4629630E-02
    1      -21.565474
    2      -17.835974
    3      -14.156848
    4      -10.728445
    5       -9.556621
    6       -8.064855
    7       -6.947610
    8       -5.430950
    9       -0.267942
   10        1.416967
   11        2.227164
   12        2.624854
 
  0.2083333E+00  0.1666667E+00  0.0000000E+00  0.4629630E-02
    1      -21.474863
    2      -18.194876
    3      -13.688917
    4      -10.625772
    5       -9.449766
    6       -8.316085
    7       -7.089941
    8       -5.778874
    9        0.176151
   10        1.540745
   11        2.352056
   12        2.751859
 
  0.2500000E+00  0.1666667E+00  0.0000000E+00  0.4629630E-02
    1      -21.364263
    2      -18.542174
    3      -13.212756
    4      -10.499054
    5       -9.319544
    6       -8.585526
    7       -7.288507
    8       -6.134160
    9        0.646079
   10        1.692085
   11        2.504608
   12        2.907105
 
  0.2916667E+00  0.1666667E+00  0.0000000E+00  0.4629630E-02
    1      -21.233765
    2      -18.875242
    3      -12.734076
    4      -10.347268
    5       -9.166202
    6       -8.868900
    7       -7.538301
    8       -6.487370
    9        1.130819
   10        1.870970
   11        2.684757
   12        3.090592
 
  0.3333333E+00  0.1666667E+00  0.0000000E+00  0.4629630E-02
    1      -21.083481
    2      -19.192539
    3      -12.258468
    4      -10.168946
    5       -9.164461
    6       -8.990048
    7       -7.830351
    8       -6.832452
    9        1.622575
   10        2.077357
   11        2.892419
   12        3.302318
 
  0.3750000E+00  0.1666667E+00  0.0000000E+00  0.4629630E-02
    1      -20.913548
    2      -19.493059
    3      -11.792074
    4       -9.962155
    5       -9.472887
    6       -8.791463
    7       -8.152654
    8       -7.165357
    9        2.115446
   10        2.311176
   11        3.127487
   12        3.542275
 
  0.4166667E+00  0.1666667E+00  0.0000000E+00  0.4629630E-02
    1      -20.724130
    2      -19.776088
    3      -11.341654
    4       -9.797249
    5       -9.724766
    6       -8.570919
    7       -8.490995
    8       -7.483264
    9        2.572336
   10        2.604691
   11        3.389819
   12        3.810453
 
  0.4583333E+00  0.1666667E+00  0.0000000E+00  0.4629630E-02
    1      -20.515419
    2      -20.041092
    3      -10.913897
    4      -10.142481
    5       -9.455379
    6       -8.830022
    7       -8.329000
    8       -7.784130
    9        2.860730
   10        3.086290
   11        3.518683
   12        3.679216
 
  0.5000000E+00  0.1666667E+00  0.0000000E+00  0.2314815E-02
    1      -20.287647
    2      -20.287647
    3      -10.513748
    4      -10.513748
    5       -9.155180
    6       -9.155180
    7       -8.066433
    8       -8.066433
    9        3.176230
   10        3.176230
   11        3.556658
   12        3.556658
 