<?xml version="1.0" encoding="ISO-8859-1"?>
<modeling>
 <generator>
  <i name="program" type="string">vasp </i>
  <i name="version" type="string">5.3.5  </i>
  <i name="subversion" type="string">31Mar14 (build Mar 02 2015 18:14:16) complex                          parallel </i>
  <i name="platform" type="string">LinuxIFC </i>
  <i name="date" type="string">2018 08 07 </i>
  <i name="time" type="string">16:11:57 </i>
 </generator>
 <incar>
  <i type="string" name="SYSTEM">  gr</i>
  <i type="string" name="PREC">accurate : accuracy</i>
  <i type="string" name="ALGO"> FAST.</i>
  <i type="int" name="NELM">   100</i>
  <i type="int" name="NELMDL">    -3</i>
  <i type="int" name="NELMIN">     5</i>
  <i type="int" name="IBRION">     1</i>
  <i name="EDIFF">      0.00000000</i>
  <i name="EDIFFG">     -0.00000100</i>
  <i type="int" name="NSW">   400</i>
  <i type="int" name="ISIF">     2</i>
  <i name="ENCUT">   2000.00000000</i>
  <i type="int" name="ISMEAR">     0</i>
  <i name="SIGMA">      0.05000000</i>
  <i type="int" name="NWRITE">     2</i>
  <i type="logical" name="LWAVE"> F  </i>
  <i type="logical" name="LCHARG"> F  </i>
  <i type="int" name="NELM">   100</i>
 </incar>
 <kpoints>
  <generation param="Gamma">
   <v type="int" name="divisions">      24       36        1 </v>
   <v name="usershift">      0.00000000       0.00000000       0.00000000 </v>
   <v name="genvec1">      0.04166667       0.00000000       0.00000000 </v>
   <v name="genvec2">      0.00000000       0.02777778       0.00000000 </v>
   <v name="genvec3">      0.00000000       0.00000000       1.00000000 </v>
   <v name="shift">      0.00000000       0.00000000       0.00000000 </v>
  </generation>
  <varray name="kpointlist" >
   <v>       0.00000000       0.00000000       0.00000000 </v>
   <v>       0.04166667       0.00000000       0.00000000 </v>
   <v>       0.08333333       0.00000000       0.00000000 </v>
   <v>       0.12500000       0.00000000       0.00000000 </v>
   <v>       0.16666667       0.00000000       0.00000000 </v>
   <v>       0.20833333       0.00000000       0.00000000 </v>
   <v>       0.25000000       0.00000000       0.00000000 </v>
   <v>       0.29166667       0.00000000       0.00000000 </v>
   <v>       0.33333333       0.00000000       0.00000000 </v>
   <v>       0.37500000       0.00000000       0.00000000 </v>
   <v>       0.41666667       0.00000000       0.00000000 </v>
   <v>       0.45833333       0.00000000       0.00000000 </v>
   <v>       0.50000000       0.00000000       0.00000000 </v>
   <v>       0.00000000       0.02777778       0.00000000 </v>
   <v>       0.04166667       0.02777778       0.00000000 </v>
   <v>       0.08333333       0.02777778       0.00000000 </v>
   <v>       0.12500000       0.02777778       0.00000000 </v>
   <v>       0.16666667       0.02777778       0.00000000 </v>
   <v>       0.20833333       0.02777778       0.00000000 </v>
   <v>       0.25000000       0.02777778       0.00000000 </v>
   <v>       0.29166667       0.02777778       0.00000000 </v>
   <v>       0.33333333       0.02777778       0.00000000 </v>
   <v>       0.37500000       0.02777778       0.00000000 </v>
   <v>       0.41666667       0.02777778       0.00000000 </v>
   <v>       0.45833333       0.02777778       0.00000000 </v>
   <v>       0.50000000       0.02777778       0.00000000 </v>
   <v>       0.00000000       0.05555556       0.00000000 </v>
   <v>       0.04166667       0.05555556       0.00000000 </v>
   <v>       0.08333333       0.05555556       0.00000000 </v>
   <v>       0.12500000       0.05555556       0.00000000 </v>
   <v>       0.16666667       0.05555556       0.00000000 </v>
   <v>       0.20833333       0.05555556       0.00000000 </v>
   <v>       0.25000000       0.05555556       0.00000000 </v>
   <v>       0.29166667       0.05555556       0.00000000 </v>
   <v>       0.33333333       0.05555556       0.00000000 </v>
   <v>       0.37500000       0.05555556       0.00000000 </v>
   <v>       0.41666667       0.05555556       0.00000000 </v>
   <v>       0.45833333       0.05555556       0.00000000 </v>
   <v>       0.50000000       0.05555556       0.00000000 </v>
   <v>       0.00000000       0.08333333       0.00000000 </v>
   <v>       0.04166667       0.08333333       0.00000000 </v>
   <v>       0.08333333       0.08333333       0.00000000 </v>
   <v>       0.12500000       0.08333333       0.00000000 </v>
   <v>       0.16666667       0.08333333       0.00000000 </v>
   <v>       0.20833333       0.08333333       0.00000000 </v>
   <v>       0.25000000       0.08333333       0.00000000 </v>
   <v>       0.29166667       0.08333333       0.00000000 </v>
   <v>       0.33333333       0.08333333       0.00000000 </v>
   <v>       0.37500000       0.08333333       0.00000000 </v>
   <v>       0.41666667       0.08333333       0.00000000 </v>
   <v>       0.45833333       0.08333333       0.00000000 </v>
   <v>       0.50000000       0.08333333       0.00000000 </v>
   <v>       0.00000000       0.11111111       0.00000000 </v>
   <v>       0.04166667       0.11111111       0.00000000 </v>
   <v>       0.08333333       0.11111111       0.00000000 </v>
   <v>       0.12500000       0.11111111       0.00000000 </v>
   <v>       0.16666667       0.11111111       0.00000000 </v>
   <v>       0.20833333       0.11111111       0.00000000 </v>
   <v>       0.25000000       0.11111111       0.00000000 </v>
   <v>       0.29166667       0.11111111       0.00000000 </v>
   <v>       0.33333333       0.11111111       0.00000000 </v>
   <v>       0.37500000       0.11111111       0.00000000 </v>
   <v>       0.41666667       0.11111111       0.00000000 </v>
   <v>       0.45833333       0.11111111       0.00000000 </v>
   <v>       0.50000000       0.11111111       0.00000000 </v>
   <v>       0.00000000       0.13888889       0.00000000 </v>
   <v>       0.04166667       0.13888889       0.00000000 </v>
   <v>       0.08333333       0.13888889       0.00000000 </v>
   <v>       0.12500000       0.13888889       0.00000000 </v>
   <v>       0.16666667       0.13888889       0.00000000 </v>
   <v>       0.20833333       0.13888889       0.00000000 </v>
   <v>       0.25000000       0.13888889       0.00000000 </v>
   <v>       0.29166667       0.13888889       0.00000000 </v>
   <v>       0.33333333       0.13888889       0.00000000 </v>
   <v>       0.37500000       0.13888889       0.00000000 </v>
   <v>       0.41666667       0.13888889       0.00000000 </v>
   <v>       0.45833333       0.13888889       0.00000000 </v>
   <v>       0.50000000       0.13888889       0.00000000 </v>
   <v>       0.00000000       0.16666667       0.00000000 </v>
   <v>       0.04166667       0.16666667       0.00000000 </v>
   <v>       0.08333333       0.16666667       0.00000000 </v>
   <v>       0.12500000       0.16666667       0.00000000 </v>
   <v>       0.16666667       0.16666667       0.00000000 </v>
   <v>       0.20833333       0.16666667       0.00000000 </v>
   <v>       0.25000000       0.16666667       0.00000000 </v>
   <v>       0.29166667       0.16666667       0.00000000 </v>
   <v>       0.33333333       0.16666667       0.00000000 </v>
   <v>       0.37500000       0.16666667       0.00000000 </v>
   <v>       0.41666667       0.16666667       0.00000000 </v>
   <v>       0.45833333       0.16666667       0.00000000 </v>
   <v>       0.50000000       0.16666667       0.00000000 </v>
   <v>       0.00000000       0.19444444       0.00000000 </v>
   <v>       0.04166667       0.19444444       0.00000000 </v>
   <v>       0.08333333       0.19444444       0.00000000 </v>
   <v>       0.12500000       0.19444444       0.00000000 </v>
   <v>       0.16666667       0.19444444       0.00000000 </v>
   <v>       0.20833333       0.19444444       0.00000000 </v>
   <v>       0.25000000       0.19444444       0.00000000 </v>
   <v>       0.29166667       0.19444444       0.00000000 </v>
   <v>       0.33333333       0.19444444       0.00000000 </v>
   <v>       0.37500000       0.19444444       0.00000000 </v>
   <v>       0.41666667       0.19444444       0.00000000 </v>
   <v>       0.45833333       0.19444444       0.00000000 </v>
   <v>       0.50000000       0.19444444       0.00000000 </v>
   <v>       0.00000000       0.22222222       0.00000000 </v>
   <v>       0.04166667       0.22222222       0.00000000 </v>
   <v>       0.08333333       0.22222222       0.00000000 </v>
   <v>       0.12500000       0.22222222       0.00000000 </v>
   <v>       0.16666667       0.22222222       0.00000000 </v>
   <v>       0.20833333       0.22222222       0.00000000 </v>
   <v>       0.25000000       0.22222222       0.00000000 </v>
   <v>       0.29166667       0.22222222       0.00000000 </v>
   <v>       0.33333333       0.22222222       0.00000000 </v>
   <v>       0.37500000       0.22222222       0.00000000 </v>
   <v>       0.41666667       0.22222222       0.00000000 </v>
   <v>       0.45833333       0.22222222       0.00000000 </v>
   <v>       0.50000000       0.22222222       0.00000000 </v>
   <v>       0.00000000       0.25000000       0.00000000 </v>
   <v>       0.04166667       0.25000000       0.00000000 </v>
   <v>       0.08333333       0.25000000       0.00000000 </v>
   <v>       0.12500000       0.25000000       0.00000000 </v>
   <v>       0.16666667       0.25000000       0.00000000 </v>
   <v>       0.20833333       0.25000000       0.00000000 </v>
   <v>       0.25000000       0.25000000       0.00000000 </v>
   <v>       0.29166667       0.25000000       0.00000000 </v>
   <v>       0.33333333       0.25000000       0.00000000 </v>
   <v>       0.37500000       0.25000000       0.00000000 </v>
   <v>       0.41666667       0.25000000       0.00000000 </v>
   <v>       0.45833333       0.25000000       0.00000000 </v>
   <v>       0.50000000       0.25000000       0.00000000 </v>
   <v>       0.00000000       0.27777778       0.00000000 </v>
   <v>       0.04166667       0.27777778       0.00000000 </v>
   <v>       0.08333333       0.27777778       0.00000000 </v>
   <v>       0.12500000       0.27777778       0.00000000 </v>
   <v>       0.16666667       0.27777778       0.00000000 </v>
   <v>       0.20833333       0.27777778       0.00000000 </v>
   <v>       0.25000000       0.27777778       0.00000000 </v>
   <v>       0.29166667       0.27777778       0.00000000 </v>
   <v>       0.33333333       0.27777778       0.00000000 </v>
   <v>       0.37500000       0.27777778       0.00000000 </v>
   <v>       0.41666667       0.27777778       0.00000000 </v>
   <v>       0.45833333       0.27777778       0.00000000 </v>
   <v>       0.50000000       0.27777778       0.00000000 </v>
   <v>       0.00000000       0.30555556       0.00000000 </v>
   <v>       0.04166667       0.30555556       0.00000000 </v>
   <v>       0.08333333       0.30555556       0.00000000 </v>
   <v>       0.12500000       0.30555556       0.00000000 </v>
   <v>       0.16666667       0.30555556       0.00000000 </v>
   <v>       0.20833333       0.30555556       0.00000000 </v>
   <v>       0.25000000       0.30555556       0.00000000 </v>
   <v>       0.29166667       0.30555556       0.00000000 </v>
   <v>       0.33333333       0.30555556       0.00000000 </v>
   <v>       0.37500000       0.30555556       0.00000000 </v>
   <v>       0.41666667       0.30555556       0.00000000 </v>
   <v>       0.45833333       0.30555556       0.00000000 </v>
   <v>       0.50000000       0.30555556       0.00000000 </v>
   <v>       0.00000000       0.33333333       0.00000000 </v>
   <v>       0.04166667       0.33333333       0.00000000 </v>
   <v>       0.08333333       0.33333333       0.00000000 </v>
   <v>       0.12500000       0.33333333       0.00000000 </v>
   <v>       0.16666667       0.33333333       0.00000000 </v>
   <v>       0.20833333       0.33333333       0.00000000 </v>
   <v>       0.25000000       0.33333333       0.00000000 </v>
   <v>       0.29166667       0.33333333       0.00000000 </v>
   <v>       0.33333333       0.33333333       0.00000000 </v>
   <v>       0.37500000       0.33333333       0.00000000 </v>
   <v>       0.41666667       0.33333333       0.00000000 </v>
   <v>       0.45833333       0.33333333       0.00000000 </v>
   <v>       0.50000000       0.33333333       0.00000000 </v>
   <v>       0.00000000       0.36111111       0.00000000 </v>
   <v>       0.04166667       0.36111111       0.00000000 </v>
   <v>       0.08333333       0.36111111       0.00000000 </v>
   <v>       0.12500000       0.36111111       0.00000000 </v>
   <v>       0.16666667       0.36111111       0.00000000 </v>
   <v>       0.20833333       0.36111111       0.00000000 </v>
   <v>       0.25000000       0.36111111       0.00000000 </v>
   <v>       0.29166667       0.36111111       0.00000000 </v>
   <v>       0.33333333       0.36111111       0.00000000 </v>
   <v>       0.37500000       0.36111111       0.00000000 </v>
   <v>       0.41666667       0.36111111       0.00000000 </v>
   <v>       0.45833333       0.36111111       0.00000000 </v>
   <v>       0.50000000       0.36111111       0.00000000 </v>
   <v>       0.00000000       0.38888889       0.00000000 </v>
   <v>       0.04166667       0.38888889       0.00000000 </v>
   <v>       0.08333333       0.38888889       0.00000000 </v>
   <v>       0.12500000       0.38888889       0.00000000 </v>
   <v>       0.16666667       0.38888889       0.00000000 </v>
   <v>       0.20833333       0.38888889       0.00000000 </v>
   <v>       0.25000000       0.38888889       0.00000000 </v>
   <v>       0.29166667       0.38888889       0.00000000 </v>
   <v>       0.33333333       0.38888889       0.00000000 </v>
   <v>       0.37500000       0.38888889       0.00000000 </v>
   <v>       0.41666667       0.38888889       0.00000000 </v>
   <v>       0.45833333       0.38888889       0.00000000 </v>
   <v>       0.50000000       0.38888889       0.00000000 </v>
   <v>       0.00000000       0.41666667       0.00000000 </v>
   <v>       0.04166667       0.41666667       0.00000000 </v>
   <v>       0.08333333       0.41666667       0.00000000 </v>
   <v>       0.12500000       0.41666667       0.00000000 </v>
   <v>       0.16666667       0.41666667       0.00000000 </v>
   <v>       0.20833333       0.41666667       0.00000000 </v>
   <v>       0.25000000       0.41666667       0.00000000 </v>
   <v>       0.29166667       0.41666667       0.00000000 </v>
   <v>       0.33333333       0.41666667       0.00000000 </v>
   <v>       0.37500000       0.41666667       0.00000000 </v>
   <v>       0.41666667       0.41666667       0.00000000 </v>
   <v>       0.45833333       0.41666667       0.00000000 </v>
   <v>       0.50000000       0.41666667       0.00000000 </v>
   <v>       0.00000000       0.44444444       0.00000000 </v>
   <v>       0.04166667       0.44444444       0.00000000 </v>
   <v>       0.08333333       0.44444444       0.00000000 </v>
   <v>       0.12500000       0.44444444       0.00000000 </v>
   <v>       0.16666667       0.44444444       0.00000000 </v>
   <v>       0.20833333       0.44444444       0.00000000 </v>
   <v>       0.25000000       0.44444444       0.00000000 </v>
   <v>       0.29166667       0.44444444       0.00000000 </v>
   <v>       0.33333333       0.44444444       0.00000000 </v>
   <v>       0.37500000       0.44444444       0.00000000 </v>
   <v>       0.41666667       0.44444444       0.00000000 </v>
   <v>       0.45833333       0.44444444       0.00000000 </v>
   <v>       0.50000000       0.44444444       0.00000000 </v>
   <v>       0.00000000       0.47222222       0.00000000 </v>
   <v>       0.04166667       0.47222222       0.00000000 </v>
   <v>       0.08333333       0.47222222       0.00000000 </v>
   <v>       0.12500000       0.47222222       0.00000000 </v>
   <v>       0.16666667       0.47222222       0.00000000 </v>
   <v>       0.20833333       0.47222222       0.00000000 </v>
   <v>       0.25000000       0.47222222       0.00000000 </v>
   <v>       0.29166667       0.47222222       0.00000000 </v>
   <v>       0.33333333       0.47222222       0.00000000 </v>
   <v>       0.37500000       0.47222222       0.00000000 </v>
   <v>       0.41666667       0.47222222       0.00000000 </v>
   <v>       0.45833333       0.47222222       0.00000000 </v>
   <v>       0.50000000       0.47222222       0.00000000 </v>
   <v>       0.00000000       0.50000000       0.00000000 </v>
   <v>       0.04166667       0.50000000       0.00000000 </v>
   <v>       0.08333333       0.50000000       0.00000000 </v>
   <v>       0.12500000       0.50000000       0.00000000 </v>
   <v>       0.16666667       0.50000000       0.00000000 </v>
   <v>       0.20833333       0.50000000       0.00000000 </v>
   <v>       0.25000000       0.50000000       0.00000000 </v>
   <v>       0.29166667       0.50000000       0.00000000 </v>
   <v>       0.33333333       0.50000000       0.00000000 </v>
   <v>       0.37500000       0.50000000       0.00000000 </v>
   <v>       0.41666667       0.50000000       0.00000000 </v>
   <v>       0.45833333       0.50000000       0.00000000 </v>
   <v>       0.50000000       0.50000000       0.00000000 </v>
  </varray>
  <varray name="weights" >
   <v>       0.00115741 </v>
   <v>       0.00231481 </v>
   <v>       0.00231481 </v>
   <v>       0.00231481 </v>
   <v>       0.00231481 </v>
   <v>       0.00231481 </v>
   <v>       0.00231481 </v>
   <v>       0.00231481 </v>
   <v>       0.00231481 </v>
   <v>       0.00231481 </v>
   <v>       0.00231481 </v>
   <v>       0.00231481 </v>
   <v>       0.00115741 </v>
   <v>       0.00231481 </v>
   <v>       0.00462963 </v>
   <v>       0.00462963 </v>
   <v>       0.00462963 </v>
   <v>       0.00462963 </v>
   <v>       0.00462963 </v>
   <v>       0.00462963 </v>
   <v>       0.00462963 </v>
   <v>       0.00462963 </v>
   <v>       0.00462963 </v>
   <v>       0.00462963 </v>
   <v>       0.00462963 </v>
   <v>       0.00231481 </v>
   <v>       0.00231481 </v>
   <v>       0.00462963 </v>
   <v>       0.00462963 </v>
   <v>       0.00462963 </v>
   <v>       0.00462963 </v>
   <v>       0.00462963 </v>
   <v>       0.00462963 </v>
   <v>       0.00462963 </v>
   <v>       0.00462963 </v>
   <v>       0.00462963 </v>
   <v>       0.00462963 </v>
   <v>       0.00462963 </v>
   <v>       0.00231481 </v>
   <v>       0.00231481 </v>
   <v>       0.00462963 </v>
   <v>       0.00462963 </v>
   <v>       0.00462963 </v>
   <v>       0.00462963 </v>
   <v>       0.00462963 </v>
   <v>       0.00462963 </v>
   <v>       0.00462963 </v>
   <v>       0.00462963 </v>
   <v>       0.00462963 </v>
   <v>       0.00462963 </v>
   <v>       0.00462963 </v>
   <v>       0.00231481 </v>
   <v>       0.00231481 </v>
   <v>       0.00462963 </v>
   <v>       0.00462963 </v>
   <v>       0.00462963 </v>
   <v>       0.00462963 </v>
   <v>       0.00462963 </v>
   <v>       0.00462963 </v>
   <v>       0.00462963 </v>
   <v>       0.00462963 </v>
   <v>       0.00462963 </v>
   <v>       0.00462963 </v>
   <v>       0.00462963 </v>
   <v>       0.00231481 </v>
   <v>       0.00231481 </v>
   <v>       0.00462963 </v>
   <v>       0.00462963 </v>
   <v>       0.00462963 </v>
   <v>       0.00462963 </v>
   <v>       0.00462963 </v>
   <v>       0.00462963 </v>
   <v>       0.00462963 </v>
   <v>       0.00462963 </v>
   <v>       0.00462963 </v>
   <v>       0.00462963 </v>
   <v>       0.00462963 </v>
   <v>       0.00231481 </v>
   <v>       0.00231481 </v>
   <v>       0.00462963 </v>
   <v>       0.00462963 </v>
   <v>       0.00462963 </v>
   <v>       0.00462963 </v>
   <v>       0.00462963 </v>
   <v>       0.00462963 </v>
   <v>       0.00462963 </v>
   <v>       0.00462963 </v>
   <v>       0.00462963 </v>
   <v>       0.00462963 </v>
   <v>       0.00462963 </v>
   <v>       0.00231481 </v>
   <v>       0.00231481 </v>
   <v>       0.00462963 </v>
   <v>       0.00462963 </v>
   <v>       0.00462963 </v>
   <v>       0.00462963 </v>
   <v>       0.00462963 </v>
   <v>       0.00462963 </v>
   <v>       0.00462963 </v>
   <v>       0.00462963 </v>
   <v>       0.00462963 </v>
   <v>       0.00462963 </v>
   <v>       0.00462963 </v>
   <v>       0.00231481 </v>
   <v>       0.00231481 </v>
   <v>       0.00462963 </v>
   <v>       0.00462963 </v>
   <v>       0.00462963 </v>
   <v>       0.00462963 </v>
   <v>       0.00462963 </v>
   <v>       0.00462963 </v>
   <v>       0.00462963 </v>
   <v>       0.00462963 </v>
   <v>       0.00462963 </v>
   <v>       0.00462963 </v>
   <v>       0.00462963 </v>
   <v>       0.00231481 </v>
   <v>       0.00231481 </v>
   <v>       0.00462963 </v>
   <v>       0.00462963 </v>
   <v>       0.00462963 </v>
   <v>       0.00462963 </v>
   <v>       0.00462963 </v>
   <v>       0.00462963 </v>
   <v>       0.00462963 </v>
   <v>       0.00462963 </v>
   <v>       0.00462963 </v>
   <v>       0.00462963 </v>
   <v>       0.00462963 </v>
   <v>       0.00231481 </v>
   <v>       0.00231481 </v>
   <v>       0.00462963 </v>
   <v>       0.00462963 </v>
   <v>       0.00462963 </v>
   <v>       0.00462963 </v>
   <v>       0.00462963 </v>
   <v>       0.00462963 </v>
   <v>       0.00462963 </v>
   <v>       0.00462963 </v>
   <v>       0.00462963 </v>
   <v>       0.00462963 </v>
   <v>       0.00462963 </v>
   <v>       0.00231481 </v>
   <v>       0.00231481 </v>
   <v>       0.00462963 </v>
   <v>       0.00462963 </v>
   <v>       0.00462963 </v>
   <v>       0.00462963 </v>
   <v>       0.00462963 </v>
   <v>       0.00462963 </v>
   <v>       0.00462963 </v>
   <v>       0.00462963 </v>
   <v>       0.00462963 </v>
   <v>       0.00462963 </v>
   <v>       0.00462963 </v>
   <v>       0.00231481 </v>
   <v>       0.00231481 </v>
   <v>       0.00462963 </v>
   <v>       0.00462963 </v>
   <v>       0.00462963 </v>
   <v>       0.00462963 </v>
   <v>       0.00462963 </v>
   <v>       0.00462963 </v>
   <v>       0.00462963 </v>
   <v>       0.00462963 </v>
   <v>       0.00462963 </v>
   <v>       0.00462963 </v>
   <v>       0.00462963 </v>
   <v>       0.00231481 </v>
   <v>       0.00231481 </v>
   <v>       0.00462963 </v>
   <v>       0.00462963 </v>
   <v>       0.00462963 </v>
   <v>       0.00462963 </v>
   <v>       0.00462963 </v>
   <v>       0.00462963 </v>
   <v>       0.00462963 </v>
   <v>       0.00462963 </v>
   <v>       0.00462963 </v>
   <v>       0.00462963 </v>
   <v>       0.00462963 </v>
   <v>       0.00231481 </v>
   <v>       0.00231481 </v>
   <v>       0.00462963 </v>
   <v>       0.00462963 </v>
   <v>       0.00462963 </v>
   <v>       0.00462963 </v>
   <v>       0.00462963 </v>
   <v>       0.00462963 </v>
   <v>       0.00462963 </v>
   <v>       0.00462963 </v>
   <v>       0.00462963 </v>
   <v>       0.00462963 </v>
   <v>       0.00462963 </v>
   <v>       0.00231481 </v>
   <v>       0.00231481 </v>
   <v>       0.00462963 </v>
   <v>       0.00462963 </v>
   <v>       0.00462963 </v>
   <v>       0.00462963 </v>
   <v>       0.00462963 </v>
   <v>       0.00462963 </v>
   <v>       0.00462963 </v>
   <v>       0.00462963 </v>
   <v>       0.00462963 </v>
   <v>       0.00462963 </v>
   <v>       0.00462963 </v>
   <v>       0.00231481 </v>
   <v>       0.00231481 </v>
   <v>       0.00462963 </v>
   <v>       0.00462963 </v>
   <v>       0.00462963 </v>
   <v>       0.00462963 </v>
   <v>       0.00462963 </v>
   <v>       0.00462963 </v>
   <v>       0.00462963 </v>
   <v>       0.00462963 </v>
   <v>       0.00462963 </v>
   <v>       0.00462963 </v>
   <v>       0.00462963 </v>
   <v>       0.00231481 </v>
   <v>       0.00231481 </v>
   <v>       0.00462963 </v>
   <v>       0.00462963 </v>
   <v>       0.00462963 </v>
   <v>       0.00462963 </v>
   <v>       0.00462963 </v>
   <v>       0.00462963 </v>
   <v>       0.00462963 </v>
   <v>       0.00462963 </v>
   <v>       0.00462963 </v>
   <v>       0.00462963 </v>
   <v>       0.00462963 </v>
   <v>       0.00231481 </v>
   <v>       0.00115741 </v>
   <v>       0.00231481 </v>
   <v>       0.00231481 </v>
   <v>       0.00231481 </v>
   <v>       0.00231481 </v>
   <v>       0.00231481 </v>
   <v>       0.00231481 </v>
   <v>       0.00231481 </v>
   <v>       0.00231481 </v>
   <v>       0.00231481 </v>
   <v>       0.00231481 </v>
   <v>       0.00231481 </v>
   <v>       0.00115741 </v>
  </varray>
 </kpoints>
 <parameters>
  <separator name="general" >
   <i type="string" name="SYSTEM">gr</i>
   <i type="logical" name="LCOMPAT"> F  </i>
  </separator>
  <separator name="electronic" >
   <i type="string" name="PREC">accura</i>
   <i name="ENMAX">   2000.00000000</i>
   <i name="ENAUG">    644.87300000</i>
   <i name="EDIFF">      0.00000000</i>
   <i type="int" name="IALGO">    68</i>
   <i type="int" name="IWAVPR">    11</i>
   <i type="int" name="NBANDS">    12</i>
   <i name="NELECT">     16.00000000</i>
   <i type="int" name="TURBO">     0</i>
   <i type="int" name="IRESTART">     0</i>
   <i type="int" name="NREBOOT">     0</i>
   <i type="int" name="NMIN">     0</i>
   <i name="EREF">      0.00000000</i>
   <separator name="electronic smearing" >
    <i type="int" name="ISMEAR">     0</i>
    <i name="SIGMA">      0.05000000</i>
    <i name="KSPACING">      0.50000000</i>
    <i type="logical" name="KGAMMA"> T  </i>
   </separator>
   <separator name="electronic projectors" >
    <i type="logical" name="LREAL"> F  </i>
    <v name="ROPT">      0.00000000</v>
    <i type="int" name="LMAXPAW">  -100</i>
    <i type="int" name="LMAXMIX">     2</i>
    <i type="logical" name="NLSPLINE"> F  </i>
   </separator>
   <separator name="electronic startup" >
    <i type="int" name="ISTART">     0</i>
    <i type="int" name="ICHARG">     2</i>
    <i type="int" name="INIWAV">     1</i>
   </separator>
   <separator name="electronic spin" >
    <i type="int" name="ISPIN">     1</i>
    <i type="logical" name="LNONCOLLINEAR"> F  </i>
    <v name="MAGMOM">      1.00000000      1.00000000      1.00000000      1.00000000</v>
    <i name="NUPDOWN">     -1.00000000</i>
    <i type="logical" name="LSORBIT"> F  </i>
    <v name="SAXIS">      0.00000000      0.00000000      1.00000000</v>
    <i type="logical" name="LSPIRAL"> F  </i>
    <v name="QSPIRAL">      0.00000000      0.00000000      0.00000000</v>
    <i type="logical" name="LZEROZ"> F  </i>
   </separator>
   <separator name="electronic exchange-correlation" >
    <i type="logical" name="LASPH"> F  </i>
    <i type="logical" name="LMETAGGA"> F  </i>
   </separator>
   <separator name="electronic convergence" >
    <i type="int" name="NELM">   100</i>
    <i type="int" name="NELMDL">    -3</i>
    <i type="int" name="NELMIN">     5</i>
    <i name="ENINI">   2000.00000000</i>
    <separator name="electronic convergence detail" >
     <i type="logical" name="LDIAG"> T  </i>
     <i type="logical" name="LSUBROT"> F  </i>
     <i name="WEIMIN">      0.00100000</i>
     <i name="EBREAK">      0.00000000</i>
     <i name="DEPER">      0.30000000</i>
     <i type="int" name="NRMM">     4</i>
     <i name="TIME">      0.40000000</i>
    </separator>
   </separator>
   <separator name="electronic mixer" >
    <i name="AMIX">      0.40000000</i>
    <i name="BMIX">      1.00000000</i>
    <i name="AMIN">      0.10000000</i>
    <i name="AMIX_MAG">      1.60000000</i>
    <i name="BMIX_MAG">      1.00000000</i>
    <separator name="electronic mixer details" >
     <i type="int" name="IMIX">     4</i>
     <i type="int" name="MAXMIX">   -45</i>
     <i name="WC">    100.00000000</i>
     <i type="int" name="INIMIX">     1</i>
     <i type="int" name="MIXPRE">     1</i>
     <i type="int" name="MREMOVE">     5</i>
    </separator>
   </separator>
   <separator name="electronic dipolcorrection" >
    <i type="logical" name="LDIPOL"> F  </i>
    <i type="logical" name="LMONO"> F  </i>
    <i type="int" name="IDIPOL">     0</i>
    <i name="EPSILON">      1.00000000</i>
    <v name="DIPOL">   -100.00000000   -100.00000000   -100.00000000</v>
    <i name="EFIELD">      0.00000000</i>
   </separator>
  </separator>
  <separator name="grids" >
   <i type="int" name="NGX">    64</i>
   <i type="int" name="NGY">    36</i>
   <i type="int" name="NGZ">   294</i>
   <i type="int" name="NGXF">   128</i>
   <i type="int" name="NGYF">    72</i>
   <i type="int" name="NGZF">   588</i>
   <i type="logical" name="ADDGRID"> F  </i>
  </separator>
  <separator name="ionic" >
   <i type="int" name="NSW">   400</i>
   <i type="int" name="IBRION">     1</i>
   <i type="int" name="ISIF">     2</i>
   <i name="PSTRESS">      0.00000000</i>
   <i name="EDIFFG">     -0.00000100</i>
   <i type="int" name="NFREE">     0</i>
   <i name="POTIM">      0.50000000</i>
   <i name="SMASS">     -3.00000000</i>
   <i name="SCALEE">      1.00000000</i>
  </separator>
  <separator name="ionic md" >
   <i name="TEBEG">      0.00010000</i>
   <i name="TEEND">      0.00010000</i>
   <i type="int" name="NBLOCK">     1</i>
   <i type="int" name="KBLOCK">   400</i>
   <i type="int" name="NPACO">   256</i>
   <i name="APACO">     16.00000000</i>
  </separator>
  <separator name="symmetry" >
   <i type="int" name="ISYM">     2</i>
   <i name="SYMPREC">      0.00001000</i>
  </separator>
  <separator name="dos" >
   <i type="logical" name="LORBIT"> F  </i>
   <v name="RWIGS">     -1.00000000</v>
   <i type="int" name="NEDOS">   301</i>
   <i name="EMIN">     10.00000000</i>
   <i name="EMAX">    -10.00000000</i>
   <i name="EFERMI">      0.00000000</i>
  </separator>
  <separator name="writing" >
   <i type="int" name="NWRITE">     2</i>
   <i type="logical" name="LWAVE"> F  </i>
   <i type="logical" name="LCHARG"> F  </i>
   <i type="logical" name="LPARD"> F  </i>
   <i type="logical" name="LVTOT"> F  </i>
   <i type="logical" name="LVHAR"> F  </i>
   <i type="logical" name="LELF"> F  </i>
   <i type="logical" name="LOPTICS"> F  </i>
   <v name="STM">      0.00000000      0.00000000      0.00000000      0.00000000      0.00000000      0.00000000      0.00000000</v>
  </separator>
  <separator name="performance" >
   <i type="int" name="NPAR">     4</i>
   <i type="int" name="NSIM">     4</i>
   <i type="int" name="NBLK">    -1</i>
   <i type="logical" name="LPLANE"> T  </i>
   <i type="logical" name="LSCALAPACK"> F  </i>
   <i type="logical" name="LSCAAWARE"> F  </i>
   <i type="logical" name="LSCALU"> F  </i>
   <i type="logical" name="LASYNC"> F  </i>
   <i type="logical" name="LORBITALREAL"> F  </i>
  </separator>
  <separator name="miscellaneous" >
   <i type="int" name="IDIOT">     3</i>
   <i type="logical" name="LMUSIC"> F  </i>
   <v name="POMASS">     12.01100000</v>
   <v name="DARWINR">      0.00000000</v>
   <v name="DARWINV">      1.00000000</v>
   <i type="logical" name="LCORR"> T  </i>
  </separator>
  <i type="logical" name="GGA_COMPAT"> T  </i>
  <i type="logical" name="LBERRY"> F  </i>
  <i type="int" name="ICORELEVEL">     0</i>
  <i type="logical" name="LDAU"> F  </i>
  <i type="int" name="I_CONSTRAINED_M">     0</i>
  <separator name="electronic exchange-correlation" >
   <i type="string" name="GGA">--</i>
   <i type="int" name="VOSKOWN">     0</i>
   <i type="logical" name="LHFCALC"> F  </i>
   <i type="string" name="PRECFOCK"></i>
   <i type="logical" name="LSYMGRAD"> F  </i>
   <i type="logical" name="LHFONE"> F  </i>
   <i type="logical" name="LRHFCALC"> F  </i>
   <i type="logical" name="LTHOMAS"> F  </i>
   <i type="logical" name="LMODELHF"> F  </i>
   <i name="ENCUT4O">     -1.00000000</i>
   <i type="int" name="EXXOEP">     0</i>
   <i type="int" name="FOURORBIT">     0</i>
   <i name="AEXX">      0.00000000</i>
   <i name="HFALPHA">      0.00000000</i>
   <i name="MCALPHA">      0.00000000</i>
   <i name="ALDAX">      1.00000000</i>
   <i name="AGGAX">      1.00000000</i>
   <i name="ALDAC">      1.00000000</i>
   <i name="AGGAC">      1.00000000</i>
   <i type="int" name="NKREDX">     1</i>
   <i type="int" name="NKREDY">     1</i>
   <i type="int" name="NKREDZ">     1</i>
   <i type="logical" name="SHIFTRED"> F  </i>
   <i type="logical" name="ODDONLY"> F  </i>
   <i type="logical" name="EVENONLY"> F  </i>
   <i type="int" name="LMAXFOCK">     0</i>
   <i type="int" name="NMAXFOCKAE">     0</i>
   <i type="logical" name="LFOCKAEDFT"> F  </i>
   <i name="HFSCREEN">      0.00000000</i>
   <i name="HFSCREENC">      0.00000000</i>
   <i type="int" name="NBANDSGWLOW">     0</i>
  </separator>
  <separator name="vdW DFT" >
   <i type="logical" name="LUSE_VDW"> F  </i>
   <i name="Zab_VDW">     -0.84910000</i>
   <i name="PARAM1">      0.12340000</i>
   <i name="PARAM2">      1.00000000</i>
   <i name="PARAM3">      0.00000000</i>
  </separator>
  <separator name="model GW" >
   <i type="int" name="MODEL_GW">     0</i>
   <i name="MODEL_EPS0">     31.62568521</i>
   <i name="MODEL_ALPHA">      1.00000000</i>
  </separator>
  <separator name="linear response parameters" >
   <i type="logical" name="LEPSILON"> F  </i>
   <i type="logical" name="LRPA"> F  </i>
   <i type="logical" name="LNABLA"> F  </i>
   <i type="logical" name="LVEL"> F  </i>
   <i type="int" name="KINTER">     0</i>
   <i name="CSHIFT">      0.10000000</i>
   <i name="OMEGAMAX">     -1.00000000</i>
   <i name="DEG_THRESHOLD">      0.00200000</i>
  </separator>
  <separator name="orbital magnetization" >
   <i type="logical" name="NUCIND"> F  </i>
   <v name="MAGPOS">      0.00000000      0.00000000      0.00000000</v>
   <i type="logical" name="LNICSALL"> T  </i>
   <i type="logical" name="ORBITALMAG"> F  </i>
   <i type="logical" name="LMAGBLOCH"> F  </i>
   <i type="logical" name="LCHIMAG"> F  </i>
   <i type="logical" name="LGAUGE"> T  </i>
   <i type="int" name="MAGATOM">     0</i>
   <v name="MAGDIPOL">      0.00000000      0.00000000      0.00000000</v>
   <v name="AVECCONST">      0.00000000      0.00000000      0.00000000</v>
  </separator>
  <separator name="response functions" >
   <i type="logical" name="LADDER"> F  </i>
   <i type="logical" name="LFXC"> F  </i>
   <i type="logical" name="LHARTREE"> T  </i>
   <i type="int" name="IBSE">     0</i>
   <i type="logical" name="LTCTE"> F  </i>
   <i type="logical" name="LTETE"> F  </i>
   <i type="logical" name="LTRIPLET"> F  </i>
   <i type="logical" name="LFXCEPS"> F  </i>
   <i type="logical" name="LFXHEG"> F  </i>
   <i type="logical" name="L2ORDER"> F  </i>
   <i type="logical" name="LUSEW"> F  </i>
   <i name="ENCUTGW">     -2.00000000</i>
   <i name="ENCUTGWSOFT">     -2.00000000</i>
   <i name="ENCUTLF">     -1.00000000</i>
   <i type="int" name="LMAXMP2">    -1</i>
   <i name="SCISSOR">      0.00000000</i>
   <i type="int" name="NOMEGA">     0</i>
   <i type="int" name="NOMEGAR">     0</i>
   <i type="int" name="NBANDSGW">    -1</i>
   <i type="int" name="NBANDSO">    -1</i>
   <i type="int" name="NBANDSV">    -1</i>
   <i type="int" name="NELM">   100</i>
   <i type="int" name="DIM">     3</i>
   <i type="int" name="ANTIRES">     0</i>
   <i name="OMEGAMAX">    -30.00000000</i>
   <i name="OMEGAMIN">    -30.00000000</i>
   <i name="OMEGATL">   -200.00000000</i>
   <i type="int" name="OMEGAGRID">     0</i>
   <i name="CSHIFT">     -0.10000000</i>
   <i type="logical" name="SELFENERGY"> F  </i>
   <i type="logical" name="LSPECTRAL"> F  </i>
   <i type="logical" name="ODDONLYGW"> F  </i>
   <i type="logical" name="EVENONLYGW"> F  </i>
   <i type="int" name="NKREDLFX">     1</i>
   <i type="int" name="NKREDLFY">     1</i>
   <i type="int" name="NKREDLFZ">     1</i>
   <i type="int" name="MAXMEM">  1800</i>
   <i type="int" name="TELESCOPE">     0</i>
   <i type="int" name="TAUPAR">     1</i>
  </separator>
  <separator name="External order field" >
   <i name="OFIELD_KAPPA">      0.00000000</i>
   <v name="OFIELD_K">      0.00000000      0.00000000      0.00000000</v>
   <i name="OFIELD_Q6_NEAR">      0.00000000</i>
   <i name="OFIELD_Q6_FAR">      0.00000000</i>
   <i name="OFIELD_A">      0.00000000</i>
  </separator>
 </parameters>
 <atominfo>
  <atoms>       4 </atoms>
  <types>       1 </types>
  <array name="atoms" >
   <dimension dim="1">ion</dimension>
   <field type="string">element</field>
   <field type="int">atomtype</field>
   <set>
    <rc><c>C </c><c>   1</c></rc>
    <rc><c>C </c><c>   1</c></rc>
    <rc><c>C </c><c>   1</c></rc>
    <rc><c>C </c><c>   1</c></rc>
   </set>
  </array>
  <array name="atomtypes" >
   <dimension dim="1">type</dimension>
   <field type="int">atomspertype</field>
   <field type="string">element</field>
   <field>mass</field>
   <field>valence</field>
   <field type="string">pseudopotential</field>
   <set>
    <rc><c>   4</c><c>C </c><c>     12.01100000</c><c>      4.00000000</c><c> PAW_PBE C 08Apr2002                    </c></rc>
   </set>
  </array>
 </atominfo>
 <structure name="initialpos" >
  <crystal>
   <varray name="basis" >
    <v>       4.29483700       0.00000000       0.00000000 </v>
    <v>       0.00000000       2.46494068       0.00000000 </v>
    <v>       0.00000000       0.00000000      19.91569773 </v>
   </varray>
   <i name="volume">    210.83790140 </i>
   <varray name="rec_basis" >
    <v>       0.23283771       0.00000000       0.00000000 </v>
    <v>       0.00000000       0.40568928       0.00000000 </v>
    <v>       0.00000000       0.00000000       0.05021165 </v>
   </varray>
  </crystal>
  <varray name="positions" >
   <v>       0.99987391       0.00000000       0.00000000 </v>
   <v>       0.16679275       0.50000000       0.00000000 </v>
   <v>       0.49987391       0.50000000       0.00000000 </v>
   <v>       0.66679275       0.00000000       0.00000000 </v>
  </varray>
 </structure>
 <calculation>
  <scstep>
   <time name="dav">  293.54  613.41</time>
   <time name="total">  296.56  617.00</time>
   <energy>
    <i name="alphaZ">      6.18334092 </i>
    <i name="ewald">   2558.32736752 </i>
    <i name="hartreedc">  -2984.56085539 </i>
    <i name="XCdc">     55.04011517 </i>
    <i name="pawpsdc">    151.32577238 </i>
    <i name="pawaedc">   -155.92769107 </i>
    <i name="eentropy">     -0.00109717 </i>
    <i name="bandstr">    -29.20410170 </i>
    <i name="atom">    588.62352690 </i>
    <i name="e_fr_energy">    189.80637756 </i>
    <i name="e_wo_entrp">    189.80747473 </i>
    <i name="e_0_energy">    189.80692615 </i>
   </energy>
  </scstep>
  <scstep>
   <time name="dav">  442.26  461.85</time>
   <time name="total">  442.27  461.89</time>
   <energy>
    <i name="e_fr_energy">     -8.67736651 </i>
    <i name="e_wo_entrp">     -8.67691432 </i>
    <i name="e_0_energy">     -8.67714041 </i>
   </energy>
  </scstep>
  <scstep>
   <time name="dav">  336.62  338.72</time>
   <time name="total">  366.82  369.44</time>
   <energy>
    <i name="e_fr_energy">    -38.29568309 </i>
    <i name="e_wo_entrp">    -38.29561442 </i>
    <i name="e_0_energy">    -38.29564875 </i>
   </energy>
  </scstep>
  <scstep>
   <time name="diag">   79.18   79.59</time>
   <time name="diis">  334.34  336.80</time>
   <time name="orth">    3.09    3.11</time>
   <time name="total">  448.89  593.41</time>
   <energy>
    <i name="e_fr_energy">    -37.69428031 </i>
    <i name="e_wo_entrp">    -37.69418573 </i>
    <i name="e_0_energy">    -37.69423302 </i>
   </energy>
  </scstep>
  <scstep>
   <time name="diag">   79.15   79.64</time>
   <time name="diis">  334.99  335.12</time>
   <time name="orth">    3.08    3.09</time>
   <time name="total">  450.03  471.24</time>
   <energy>
    <i name="e_fr_energy">    -36.93350776 </i>
    <i name="e_wo_entrp">    -36.93341726 </i>
    <i name="e_0_energy">    -36.93346251 </i>
   </energy>
  </scstep>
  <scstep>
   <time name="diag">   78.88   79.66</time>
   <time name="diis">  365.28  368.42</time>
   <time name="orth">    3.08    3.08</time>
   <time name="total">  479.42  494.10</time>
   <energy>
    <i name="e_fr_energy">    -36.93498717 </i>
    <i name="e_wo_entrp">    -36.93489737 </i>
    <i name="e_0_energy">    -36.93494227 </i>
   </energy>
  </scstep>
  <scstep>
   <time name="diag">   79.47   79.66</time>
   <time name="diis">  332.00  334.65</time>
   <time name="orth">    3.08    3.08</time>
   <time name="total">  447.07  450.05</time>
   <energy>
    <i name="e_fr_energy">    -36.92545122 </i>
    <i name="e_wo_entrp">    -36.92536314 </i>
    <i name="e_0_energy">    -36.92540718 </i>
   </energy>
  </scstep>
  <scstep>
   <time name="diag">   79.51   79.67</time>
   <time name="diis">  334.66  335.96</time>
   <time name="orth">    3.09    3.10</time>
   <time name="total">  449.72  451.29</time>
   <energy>
    <i name="e_fr_energy">    -36.91983765 </i>
    <i name="e_wo_entrp">    -36.91974907 </i>
    <i name="e_0_energy">    -36.91979336 </i>
   </energy>
  </scstep>
  <scstep>
   <time name="diag">   79.15   79.80</time>
   <time name="diis">  322.91  325.18</time>
   <time name="orth">    3.10    3.10</time>
   <time name="total">  437.43  440.87</time>
   <energy>
    <i name="e_fr_energy">    -36.91946656 </i>
    <i name="e_wo_entrp">    -36.91937715 </i>
    <i name="e_0_energy">    -36.91942186 </i>
   </energy>
  </scstep>
  <scstep>
   <time name="diag">   79.26   79.70</time>
   <time name="diis">  322.58  325.94</time>
   <time name="orth">    3.07    3.10</time>
   <time name="total">  437.14  443.66</time>
   <energy>
    <i name="e_fr_energy">    -36.91934024 </i>
    <i name="e_wo_entrp">    -36.91925133 </i>
    <i name="e_0_energy">    -36.91929579 </i>
   </energy>
  </scstep>
  <scstep>
   <time name="diag">   78.79   79.71</time>
   <time name="diis">  324.29  327.82</time>
   <time name="orth">    3.09    3.10</time>
   <time name="total">  438.45  443.23</time>
   <energy>
    <i name="e_fr_energy">    -36.92189180 </i>
    <i name="e_wo_entrp">    -36.92180312 </i>
    <i name="e_0_energy">    -36.92184746 </i>
   </energy>
  </scstep>
  <scstep>
   <time name="diag">   79.15   79.72</time>
   <time name="diis">  324.59  326.73</time>
   <time name="orth">    3.10    3.10</time>
   <time name="total">  439.44  442.32</time>
   <energy>
    <i name="e_fr_energy">    -36.92234548 </i>
    <i name="e_wo_entrp">    -36.92225659 </i>
    <i name="e_0_energy">    -36.92230104 </i>
   </energy>
  </scstep>
  <scstep>
   <time name="diag">   79.43   79.74</time>
   <time name="diis">  332.23  333.04</time>
   <time name="orth">    3.08    3.08</time>
   <time name="total">  447.36  448.57</time>
   <energy>
    <i name="e_fr_energy">    -36.92259895 </i>
    <i name="e_wo_entrp">    -36.92251003 </i>
    <i name="e_0_energy">    -36.92255449 </i>
   </energy>
  </scstep>
  <scstep>
   <time name="diag">   79.49   79.68</time>
   <time name="diis">  323.94  327.30</time>
   <time name="orth">    3.08    3.10</time>
   <time name="total">  438.84  449.43</time>
   <energy>
    <i name="e_fr_energy">    -36.92268411 </i>
    <i name="e_wo_entrp">    -36.92259525 </i>
    <i name="e_0_energy">    -36.92263968 </i>
   </energy>
  </scstep>
  <scstep>
   <time name="diag">   79.22   79.67</time>
   <time name="diis">  326.50  329.46</time>
   <time name="orth">    3.08    3.08</time>
   <time name="total">  441.14  444.89</time>
   <energy>
    <i name="e_fr_energy">    -36.92269249 </i>
    <i name="e_wo_entrp">    -36.92260361 </i>
    <i name="e_0_energy">    -36.92264805 </i>
   </energy>
  </scstep>
  <scstep>
   <time name="diag">   79.07   79.70</time>
   <time name="diis">  325.96  327.44</time>
   <time name="orth">    3.09    3.11</time>
   <time name="total">  440.32  442.58</time>
   <energy>
    <i name="e_fr_energy">    -36.92270409 </i>
    <i name="e_wo_entrp">    -36.92261519 </i>
    <i name="e_0_energy">    -36.92265964 </i>
   </energy>
  </scstep>
  <scstep>
   <time name="diag">   79.64   79.70</time>
   <time name="diis">  337.97  338.53</time>
   <time name="orth">    3.08    3.10</time>
   <time name="total">  453.22  454.02</time>
   <energy>
    <i name="e_fr_energy">    -36.92270801 </i>
    <i name="e_wo_entrp">    -36.92261913 </i>
    <i name="e_0_energy">    -36.92266357 </i>
   </energy>
  </scstep>
  <scstep>
   <time name="diag">   79.32   79.69</time>
   <time name="diis">  320.70  324.23</time>
   <time name="orth">    3.09    3.10</time>
   <time name="total">  435.26  439.48</time>
   <energy>
    <i name="e_fr_energy">    -36.92270961 </i>
    <i name="e_wo_entrp">    -36.92262073 </i>
    <i name="e_0_energy">    -36.92266517 </i>
   </energy>
  </scstep>
  <scstep>
   <time name="diag">   79.24   79.82</time>
   <time name="diis">  330.16  333.07</time>
   <time name="orth">    3.08    3.08</time>
   <time name="total">  444.68  448.58</time>
   <energy>
    <i name="e_fr_energy">    -36.92271015 </i>
    <i name="e_wo_entrp">    -36.92262126 </i>
    <i name="e_0_energy">    -36.92266571 </i>
   </energy>
  </scstep>
  <scstep>
   <time name="diag">   79.21   79.81</time>
   <time name="diis">  253.46  255.90</time>
   <time name="orth">    3.08    3.08</time>
   <time name="total">  367.95  373.10</time>
   <energy>
    <i name="e_fr_energy">    -36.92271020 </i>
    <i name="e_wo_entrp">    -36.92262131 </i>
    <i name="e_0_energy">    -36.92266576 </i>
   </energy>
  </scstep>
  <scstep>
   <time name="diag">   79.40   79.81</time>
   <time name="diis">  251.57  253.16</time>
   <time name="orth">    3.08    3.10</time>
   <time name="total">  366.21  368.45</time>
   <energy>
    <i name="e_fr_energy">    -36.92271022 </i>
    <i name="e_wo_entrp">    -36.92262134 </i>
    <i name="e_0_energy">    -36.92266578 </i>
   </energy>
  </scstep>
  <scstep>
   <time name="diag">   79.43   79.82</time>
   <time name="diis">  223.61  224.68</time>
   <time name="orth">    3.08    3.10</time>
   <time name="total">  308.46  310.05</time>
   <energy>
    <i name="alphaZ">      6.18334092 </i>
    <i name="ewald">   2558.32736752 </i>
    <i name="hartreedc">  -3052.34351856 </i>
    <i name="XCdc">     57.44453407 </i>
    <i name="pawpsdc">    275.36434445 </i>
    <i name="pawaedc">   -280.50539811 </i>
    <i name="eentropy">     -0.00008889 </i>
    <i name="bandstr">   -190.01681852 </i>
    <i name="atom">    588.62352690 </i>
    <i name="e_fr_energy">    -36.92271022 </i>
    <i name="e_wo_entrp">    -36.92262134 </i>
    <i name="e_0_energy">    -36.92266578 </i>
   </energy>
  </scstep>
  <structure>
   <crystal>
    <varray name="basis" >
     <v>       4.29483700       0.00000000       0.00000000 </v>
     <v>       0.00000000       2.46494068       0.00000000 </v>
     <v>       0.00000000       0.00000000      19.91569773 </v>
    </varray>
    <i name="volume">    210.83790140 </i>
    <varray name="rec_basis" >
     <v>       0.23283771       0.00000000       0.00000000 </v>
     <v>       0.00000000       0.40568928       0.00000000 </v>
     <v>       0.00000000       0.00000000       0.05021165 </v>
    </varray>
   </crystal>
   <varray name="positions" >
    <v>       0.99987391       0.00000000       0.00000000 </v>
    <v>       0.16679275       0.50000000       0.00000000 </v>
    <v>       0.49987391       0.50000000       0.00000000 </v>
    <v>       0.66679275       0.00000000       0.00000000 </v>
   </varray>
  </structure>
  <varray name="forces" >
   <v>       0.00054151       0.00000000       0.00000000 </v>
   <v>      -0.00054151      -0.00000000       0.00000000 </v>
   <v>       0.00054151       0.00000000       0.00000000 </v>
   <v>      -0.00054151      -0.00000000       0.00000000 </v>
  </varray>
  <varray name="stress" >
   <v>      -8.42052345       0.00000000       0.00000000 </v>
   <v>       0.00000000      -0.00492011       0.00000000 </v>
   <v>       0.00000000       0.00000000      -0.01009332 </v>
  </varray>
  <energy>
   <i name="e_fr_energy">    -36.92271022 </i>
   <i name="e_wo_entrp">    -36.92266578 </i>
   <i name="e_0_energy">     -0.00008889 </i>
  </energy>
  <time name="totalsc"> 9378.47 9963.89</time>
 </calculation>
 <calculation>
  <scstep>
   <time name="dav">  316.10  317.63</time>
   <time name="total">  348.74  350.52</time>
   <energy>
    <i name="alphaZ">      6.18334092 </i>
    <i name="ewald">   2558.32748344 </i>
    <i name="hartreedc">  -3052.34358181 </i>
    <i name="XCdc">     57.44453785 </i>
    <i name="pawpsdc">    275.36437338 </i>
    <i name="pawaedc">   -280.50542734 </i>
    <i name="eentropy">     -0.00008805 </i>
    <i name="bandstr">   -190.01687542 </i>
    <i name="atom">    588.62352690 </i>
    <i name="e_fr_energy">    -36.92271014 </i>
    <i name="e_wo_entrp">    -36.92262209 </i>
    <i name="e_0_energy">    -36.92266611 </i>
   </energy>
  </scstep>
  <scstep>
   <time name="diag">   79.11   79.60</time>
   <time name="diis">  324.77  325.77</time>
   <time name="orth">    3.10    3.10</time>
   <time name="total">  439.60  441.20</time>
   <energy>
    <i name="e_fr_energy">    -36.92271014 </i>
    <i name="e_wo_entrp">    -36.92262206 </i>
    <i name="e_0_energy">    -36.92266610 </i>
   </energy>
  </scstep>
  <scstep>
   <time name="diag">   79.59   79.65</time>
   <time name="diis">  328.05  328.27</time>
   <time name="orth">    3.18    3.21</time>
   <time name="total">  443.42  443.76</time>
   <energy>
    <i name="e_fr_energy">    -36.92271014 </i>
    <i name="e_wo_entrp">    -36.92262201 </i>
    <i name="e_0_energy">    -36.92266608 </i>
   </energy>
  </scstep>
  <scstep>
   <time name="diag">   79.69   79.71</time>
   <time name="diis">  328.47  328.55</time>
   <time name="orth">    3.10    3.10</time>
   <time name="total">  444.20  444.33</time>
   <energy>
    <i name="e_fr_energy">    -36.92271014 </i>
    <i name="e_wo_entrp">    -36.92262202 </i>
    <i name="e_0_energy">    -36.92266608 </i>
   </energy>
  </scstep>
  <scstep>
   <time name="diag">   79.68   79.70</time>
   <time name="diis">  224.37  224.46</time>
   <time name="orth">    3.11    3.11</time>
   <time name="total">  309.54  309.66</time>
   <energy>
    <i name="alphaZ">      6.18334092 </i>
    <i name="ewald">   2558.32748344 </i>
    <i name="hartreedc">  -3052.34363703 </i>
    <i name="XCdc">     57.44454039 </i>
    <i name="pawpsdc">    275.36461273 </i>
    <i name="pawaedc">   -280.50566788 </i>
    <i name="eentropy">     -0.00008812 </i>
    <i name="bandstr">   -190.01682150 </i>
    <i name="atom">    588.62352690 </i>
    <i name="e_fr_energy">    -36.92271014 </i>
    <i name="e_wo_entrp">    -36.92262202 </i>
    <i name="e_0_energy">    -36.92266608 </i>
   </energy>
  </scstep>
  <structure>
   <crystal>
    <varray name="basis" >
     <v>       4.29483700       0.00000000       0.00000000 </v>
     <v>       0.00000000       2.46494068       0.00000000 </v>
     <v>       0.00000000       0.00000000      19.91569773 </v>
    </varray>
    <i name="volume">    210.83790140 </i>
    <varray name="rec_basis" >
     <v>       0.23283771       0.00000000       0.00000000 </v>
     <v>       0.00000000       0.40568928       0.00000000 </v>
     <v>       0.00000000       0.00000000       0.05021165 </v>
    </varray>
   </crystal>
   <varray name="positions" >
    <v>       0.99987999       0.00000000       0.00000000 </v>
    <v>       0.16678667       0.50000000       0.00000000 </v>
    <v>       0.49987999       0.50000000       0.00000000 </v>
    <v>       0.66678667      -0.00000000       0.00000000 </v>
   </varray>
  </structure>
  <varray name="forces" >
   <v>      -0.00215335      -0.00000000      -0.00000000 </v>
   <v>       0.00215335       0.00000000       0.00000000 </v>
   <v>      -0.00215335       0.00000000      -0.00000000 </v>
   <v>       0.00215335      -0.00000000       0.00000000 </v>
  </varray>
  <varray name="stress" >
   <v>      -8.42756601       0.00000000       0.00000000 </v>
   <v>       0.00000000       0.00305828       0.00000000 </v>
   <v>       0.00000000       0.00000000      -0.01000864 </v>
  </varray>
  <energy>
   <i name="e_fr_energy">    -36.92271014 </i>
   <i name="e_wo_entrp">    -36.92266608 </i>
   <i name="e_0_energy">     -0.00008812 </i>
  </energy>
  <time name="totalsc"> 2091.95 2096.10</time>
 </calculation>
 <calculation>
  <scstep>
   <time name="dav">  319.24  319.70</time>
   <time name="total">  352.20  352.68</time>
   <energy>
    <i name="alphaZ">      6.18334092 </i>
    <i name="ewald">   2558.32739073 </i>
    <i name="hartreedc">  -3052.34359706 </i>
    <i name="XCdc">     57.44453782 </i>
    <i name="pawpsdc">    275.36459473 </i>
    <i name="pawaedc">   -280.50564995 </i>
    <i name="eentropy">     -0.00008879 </i>
    <i name="bandstr">   -190.01676554 </i>
    <i name="atom">    588.62352690 </i>
    <i name="e_fr_energy">    -36.92271023 </i>
    <i name="e_wo_entrp">    -36.92262144 </i>
    <i name="e_0_energy">    -36.92266584 </i>
   </energy>
  </scstep>
  <scstep>
   <time name="diag">   79.69   79.71</time>
   <time name="diis">  328.78  328.86</time>
   <time name="orth">    3.09    3.09</time>
   <time name="total">  444.51  444.63</time>
   <energy>
    <i name="e_fr_energy">    -36.92271023 </i>
    <i name="e_wo_entrp">    -36.92262147 </i>
    <i name="e_0_energy">    -36.92266585 </i>
   </energy>
  </scstep>
  <scstep>
   <time name="diag">   79.72   79.77</time>
   <time name="diis">  331.73  331.83</time>
   <time name="orth">    3.10    3.10</time>
   <time name="total">  447.51  447.69</time>
   <energy>
    <i name="e_fr_energy">    -36.92271023 </i>
    <i name="e_wo_entrp">    -36.92262150 </i>
    <i name="e_0_energy">    -36.92266587 </i>
   </energy>
  </scstep>
  <scstep>
   <time name="diag">   79.68   79.70</time>
   <time name="diis">  315.49  315.61</time>
   <time name="orth">    3.08    3.08</time>
   <time name="total">  431.25  431.39</time>
   <energy>
    <i name="e_fr_energy">    -36.92271023 </i>
    <i name="e_wo_entrp">    -36.92262150 </i>
    <i name="e_0_energy">    -36.92266586 </i>
   </energy>
  </scstep>
  <scstep>
   <time name="diag">   79.74   79.76</time>
   <time name="diis">  220.47  221.23</time>
   <time name="orth">    3.10    3.10</time>
   <time name="total">  305.73  306.53</time>
   <energy>
    <i name="alphaZ">      6.18334092 </i>
    <i name="ewald">   2558.32739073 </i>
    <i name="hartreedc">  -3052.34356872 </i>
    <i name="XCdc">     57.44453642 </i>
    <i name="pawpsdc">    275.36442425 </i>
    <i name="pawaedc">   -280.50547880 </i>
    <i name="eentropy">     -0.00008873 </i>
    <i name="bandstr">   -190.01679319 </i>
    <i name="atom">    588.62352690 </i>
    <i name="e_fr_energy">    -36.92271023 </i>
    <i name="e_wo_entrp">    -36.92262149 </i>
    <i name="e_0_energy">    -36.92266586 </i>
   </energy>
  </scstep>
  <structure>
   <crystal>
    <varray name="basis" >
     <v>       4.29483700       0.00000000       0.00000000 </v>
     <v>       0.00000000       2.46494068       0.00000000 </v>
     <v>       0.00000000       0.00000000      19.91569773 </v>
    </varray>
    <i name="volume">    210.83790140 </i>
    <varray name="rec_basis" >
     <v>       0.23283771       0.00000000       0.00000000 </v>
     <v>       0.00000000       0.40568928       0.00000000 </v>
     <v>       0.00000000       0.00000000       0.05021165 </v>
    </varray>
   </crystal>
   <varray name="positions" >
    <v>       0.99987513       0.00000000      -0.00000000 </v>
    <v>       0.16679153       0.50000000       0.00000000 </v>
    <v>       0.49987513       0.50000000      -0.00000000 </v>
    <v>       0.66679153      -0.00000000       0.00000000 </v>
   </varray>
  </structure>
  <varray name="forces" >
   <v>       0.00000797      -0.00000000      -0.00000000 </v>
   <v>      -0.00000797       0.00000000       0.00000000 </v>
   <v>       0.00000797       0.00000000      -0.00000000 </v>
   <v>      -0.00000797      -0.00000000       0.00000000 </v>
  </varray>
  <varray name="stress" >
   <v>      -8.42202362       0.00000000       0.00000000 </v>
   <v>       0.00000000      -0.00319394       0.00000000 </v>
   <v>       0.00000000       0.00000000      -0.01003415 </v>
  </varray>
  <energy>
   <i name="e_fr_energy">    -36.92271023 </i>
   <i name="e_wo_entrp">    -36.92266586 </i>
   <i name="e_0_energy">     -0.00008873 </i>
  </energy>
  <time name="totalsc"> 2087.48 2090.08</time>
 </calculation>
 <calculation>
  <scstep>
   <time name="dav">  260.08  260.36</time>
   <time name="total">  293.05  293.33</time>
   <energy>
    <i name="alphaZ">      6.18334092 </i>
    <i name="ewald">   2558.32739107 </i>
    <i name="hartreedc">  -3052.34356877 </i>
    <i name="XCdc">     57.44453638 </i>
    <i name="pawpsdc">    275.36443914 </i>
    <i name="pawaedc">   -280.50549365 </i>
    <i name="eentropy">     -0.00008873 </i>
    <i name="bandstr">   -190.01679349 </i>
    <i name="atom">    588.62352690 </i>
    <i name="e_fr_energy">    -36.92271023 </i>
    <i name="e_wo_entrp">    -36.92262150 </i>
    <i name="e_0_energy">    -36.92266586 </i>
   </energy>
  </scstep>
  <scstep>
   <time name="diag">   79.68   79.75</time>
   <time name="diis">  204.00  204.04</time>
   <time name="orth">    3.10    3.10</time>
   <time name="total">  319.75  319.89</time>
   <energy>
    <i name="e_fr_energy">    -36.92271023 </i>
    <i name="e_wo_entrp">    -36.92262150 </i>
    <i name="e_0_energy">    -36.92266586 </i>
   </energy>
  </scstep>
  <scstep>
   <time name="diag">   79.67   79.71</time>
   <time name="diis">  194.30  194.36</time>
   <time name="orth">    3.10    3.10</time>
   <time name="total">  310.01  310.18</time>
   <energy>
    <i name="e_fr_energy">    -36.92271023 </i>
    <i name="e_wo_entrp">    -36.92262150 </i>
    <i name="e_0_energy">    -36.92266586 </i>
   </energy>
  </scstep>
  <scstep>
   <time name="diag">   79.67   79.70</time>
   <time name="diis">  185.99  186.04</time>
   <time name="orth">    3.10    3.10</time>
   <time name="total">  301.78  301.89</time>
   <energy>
    <i name="e_fr_energy">    -36.92271023 </i>
    <i name="e_wo_entrp">    -36.92262150 </i>
    <i name="e_0_energy">    -36.92266586 </i>
   </energy>
  </scstep>
  <scstep>
   <time name="diag">   79.69   79.72</time>
   <time name="diis">  178.98  179.07</time>
   <time name="orth">    3.10    3.10</time>
   <time name="total">  294.72  294.91</time>
   <energy>
    <i name="e_fr_energy">    -36.92271023 </i>
    <i name="e_wo_entrp">    -36.92262150 </i>
    <i name="e_0_energy">    -36.92266586 </i>
   </energy>
  </scstep>
  <scstep>
   <time name="diag">   79.66   79.70</time>
   <time name="diis">  160.62  160.75</time>
   <time name="orth">    3.08    3.09</time>
   <time name="total">  245.79  245.98</time>
   <energy>
    <i name="alphaZ">      6.18334092 </i>
    <i name="ewald">   2558.32739107 </i>
    <i name="hartreedc">  -3052.34356553 </i>
    <i name="XCdc">     57.44453632 </i>
    <i name="pawpsdc">    275.36443532 </i>
    <i name="pawaedc">   -280.50548984 </i>
    <i name="eentropy">     -0.00008873 </i>
    <i name="bandstr">   -190.01679667 </i>
    <i name="atom">    588.62352690 </i>
    <i name="e_fr_energy">    -36.92271023 </i>
    <i name="e_wo_entrp">    -36.92262150 </i>
    <i name="e_0_energy">    -36.92266586 </i>
   </energy>
  </scstep>
  <structure>
   <crystal>
    <varray name="basis" >
     <v>       4.29483700       0.00000000       0.00000000 </v>
     <v>       0.00000000       2.46494068       0.00000000 </v>
     <v>       0.00000000       0.00000000      19.91569773 </v>
    </varray>
    <i name="volume">    210.83790140 </i>
    <varray name="rec_basis" >
     <v>       0.23283771       0.00000000       0.00000000 </v>
     <v>       0.00000000       0.40568928       0.00000000 </v>
     <v>       0.00000000       0.00000000       0.05021165 </v>
    </varray>
   </crystal>
   <varray name="positions" >
    <v>       0.99987515       0.00000000      -0.00000000 </v>
    <v>       0.16679151       0.50000000       0.00000000 </v>
    <v>       0.49987515       0.50000000      -0.00000000 </v>
    <v>       0.66679151      -0.00000000       0.00000000 </v>
   </varray>
  </structure>
  <varray name="forces" >
   <v>      -0.00000985       0.00000000      -0.00000000 </v>
   <v>       0.00000985      -0.00000000       0.00000000 </v>
   <v>      -0.00000985       0.00000000      -0.00000000 </v>
   <v>       0.00000985      -0.00000000       0.00000000 </v>
  </varray>
  <varray name="stress" >
   <v>      -8.42198463       0.00000000       0.00000000 </v>
   <v>       0.00000000      -0.00322852       0.00000000 </v>
   <v>       0.00000000       0.00000000      -0.01002691 </v>
  </varray>
  <energy>
   <i name="e_fr_energy">    -36.92271023 </i>
   <i name="e_wo_entrp">    -36.92266586 </i>
   <i name="e_0_energy">     -0.00008873 </i>
  </energy>
  <time name="totalsc"> 1871.41 1872.89</time>
 </calculation>
 <calculation>
  <scstep>
   <time name="dav">  249.30  249.52</time>
   <time name="total">  282.28  282.50</time>
   <energy>
    <i name="alphaZ">      6.18334092 </i>
    <i name="ewald">   2558.32739089 </i>
    <i name="hartreedc">  -3052.34356518 </i>
    <i name="XCdc">     57.44453631 </i>
    <i name="pawpsdc">    275.36443541 </i>
    <i name="pawaedc">   -280.50548993 </i>
    <i name="eentropy">     -0.00008873 </i>
    <i name="bandstr">   -190.01679682 </i>
    <i name="atom">    588.62352690 </i>
    <i name="e_fr_energy">    -36.92271023 </i>
    <i name="e_wo_entrp">    -36.92262150 </i>
    <i name="e_0_energy">    -36.92266586 </i>
   </energy>
  </scstep>
  <scstep>
   <time name="diag">   79.69   79.74</time>
   <time name="diis">  153.94  154.05</time>
   <time name="orth">    3.10    3.11</time>
   <time name="total">  269.70  269.91</time>
   <energy>
    <i name="e_fr_energy">    -36.92271023 </i>
    <i name="e_wo_entrp">    -36.92262150 </i>
    <i name="e_0_energy">    -36.92266586 </i>
   </energy>
  </scstep>
  <scstep>
   <time name="diag">   79.70   79.73</time>
   <time name="diis">  156.15  156.18</time>
   <time name="orth">    3.09    3.09</time>
   <time name="total">  271.95  272.05</time>
   <energy>
    <i name="e_fr_energy">    -36.92271023 </i>
    <i name="e_wo_entrp">    -36.92262150 </i>
    <i name="e_0_energy">    -36.92266586 </i>
   </energy>
  </scstep>
  <scstep>
   <time name="diag">   79.74   79.81</time>
   <time name="diis">  143.78  143.86</time>
   <time name="orth">    3.08    3.08</time>
   <time name="total">  259.61  259.80</time>
   <energy>
    <i name="e_fr_energy">    -36.92271023 </i>
    <i name="e_wo_entrp">    -36.92262150 </i>
    <i name="e_0_energy">    -36.92266586 </i>
   </energy>
  </scstep>
  <scstep>
   <time name="diag">   79.43   79.84</time>
   <time name="diis">  153.94  154.42</time>
   <time name="orth">    3.08    3.08</time>
   <time name="total">  269.46  270.39</time>
   <energy>
    <i name="e_fr_energy">    -36.92271023 </i>
    <i name="e_wo_entrp">    -36.92262150 </i>
    <i name="e_0_energy">    -36.92266586 </i>
   </energy>
  </scstep>
  <scstep>
   <time name="diag">   79.74   79.75</time>
   <time name="diis">  148.61  148.64</time>
   <time name="orth">    3.08    3.08</time>
   <time name="total">  264.42  264.49</time>
   <energy>
    <i name="e_fr_energy">    -36.92271023 </i>
    <i name="e_wo_entrp">    -36.92262150 </i>
    <i name="e_0_energy">    -36.92266586 </i>
   </energy>
  </scstep>
  <scstep>
   <time name="diag">   79.71   79.73</time>
   <time name="diis">  134.00  134.06</time>
   <time name="orth">    3.10    3.10</time>
   <time name="total">  249.78  258.11</time>
   <energy>
    <i name="e_fr_energy">    -36.92271023 </i>
    <i name="e_wo_entrp">    -36.92262150 </i>
    <i name="e_0_energy">    -36.92266586 </i>
   </energy>
  </scstep>
  <scstep>
   <time name="diag">   79.70   79.72</time>
   <time name="diis">  135.32  135.43</time>
   <time name="orth">    3.08    3.08</time>
   <time name="total">  251.07  251.23</time>
   <energy>
    <i name="e_fr_energy">    -36.92271023 </i>
    <i name="e_wo_entrp">    -36.92262150 </i>
    <i name="e_0_energy">    -36.92266586 </i>
   </energy>
  </scstep>
  <scstep>
   <time name="diag">   79.68   79.70</time>
   <time name="diis">  125.06  125.09</time>
   <time name="orth">    3.08    3.08</time>
   <time name="total">  210.22  210.32</time>
   <energy>
    <i name="alphaZ">      6.18334092 </i>
    <i name="ewald">   2558.32739089 </i>
    <i name="hartreedc">  -3052.34356544 </i>
    <i name="XCdc">     57.44453632 </i>
    <i name="pawpsdc">    275.36443623 </i>
    <i name="pawaedc">   -280.50549075 </i>
    <i name="eentropy">     -0.00008873 </i>
    <i name="bandstr">   -190.01679658 </i>
    <i name="atom">    588.62352690 </i>
    <i name="e_fr_energy">    -36.92271023 </i>
    <i name="e_wo_entrp">    -36.92262150 </i>
    <i name="e_0_energy">    -36.92266586 </i>
   </energy>
  </scstep>
  <structure>
   <crystal>
    <varray name="basis" >
     <v>       4.29483700       0.00000000       0.00000000 </v>
     <v>       0.00000000       2.46494068       0.00000000 </v>
     <v>       0.00000000       0.00000000      19.91569773 </v>
    </varray>
    <i name="volume">    210.83790140 </i>
    <varray name="rec_basis" >
     <v>       0.23283771       0.00000000       0.00000000 </v>
     <v>       0.00000000       0.40568928       0.00000000 </v>
     <v>       0.00000000       0.00000000       0.05021165 </v>
    </varray>
   </crystal>
   <varray name="positions" >
    <v>       0.99987514       0.00000000      -0.00000000 </v>
    <v>       0.16679152       0.50000000       0.00000000 </v>
    <v>       0.49987514       0.50000000      -0.00000000 </v>
    <v>       0.66679152      -0.00000000       0.00000000 </v>
   </varray>
  </structure>
  <varray name="forces" >
   <v>      -0.00000089       0.00000000      -0.00000000 </v>
   <v>       0.00000089      -0.00000000       0.00000000 </v>
   <v>      -0.00000089       0.00000000      -0.00000000 </v>
   <v>       0.00000089      -0.00000000       0.00000000 </v>
  </varray>
  <varray name="stress" >
   <v>      -8.42195483       0.00000000       0.00000000 </v>
   <v>       0.00000000      -0.00326709       0.00000000 </v>
   <v>       0.00000000       0.00000000      -0.01002158 </v>
  </varray>
  <energy>
   <i name="e_fr_energy">    -36.92271023 </i>
   <i name="e_wo_entrp">    -36.92266586 </i>
   <i name="e_0_energy">     -0.00008873 </i>
  </energy>
  <time name="totalsc"> 2426.24 2436.63</time>
  <eigenvalues>
   <array>
    <dimension dim="1">band</dimension>
    <dimension dim="2">kpoint</dimension>
    <dimension dim="3">spin</dimension>
    <field>eigene</field>
    <field>occ</field>
    <set>
     <set comment="spin 1">
      <set comment="kpoint 1">
       <r>  -22.2188    1.0000 </r>
       <r>  -17.0710    1.0000 </r>
       <r>  -15.9461    1.0000 </r>
       <r>  -10.3320    1.0000 </r>
       <r>   -9.0847    1.0000 </r>
       <r>   -5.8322    1.0000 </r>
       <r>   -5.7736    1.0000 </r>
       <r>   -5.1577    1.0000 </r>
       <r>   -1.0988    0.0000 </r>
       <r>    0.5280    0.0000 </r>
       <r>    1.3285    0.0000 </r>
       <r>    1.7135    0.0000 </r>
      </set>
      <set comment="kpoint 2">
       <r>  -22.2087    1.0000 </r>
       <r>  -17.2246    1.0000 </r>
       <r>  -15.7773    1.0000 </r>
       <r>  -10.3199    1.0000 </r>
       <r>   -9.0747    1.0000 </r>
       <r>   -5.8753    1.0000 </r>
       <r>   -5.7956    1.0000 </r>
       <r>   -5.2226    1.0000 </r>
       <r>   -1.0180    0.0000 </r>
       <r>    0.5418    0.0000 </r>
       <r>    1.3425    0.0000 </r>
       <r>    1.7276    0.0000 </r>
      </set>
      <set comment="kpoint 3">
       <r>  -22.1782    1.0000 </r>
       <r>  -17.5480    1.0000 </r>
       <r>  -15.4083    1.0000 </r>
       <r>  -10.2836    1.0000 </r>
       <r>   -9.0446    1.0000 </r>
       <r>   -6.0027    1.0000 </r>
       <r>   -5.8606    1.0000 </r>
       <r>   -5.4029    1.0000 </r>
       <r>   -0.7900    0.0000 </r>
       <r>    0.5830    0.0000 </r>
       <r>    1.3843    0.0000 </r>
       <r>    1.7700    0.0000 </r>
      </set>
      <set comment="kpoint 4">
       <r>  -22.1275    1.0000 </r>
       <r>  -17.9152    1.0000 </r>
       <r>  -14.9655    1.0000 </r>
       <r>  -10.2232    1.0000 </r>
       <r>   -8.9947    1.0000 </r>
       <r>   -6.2093    1.0000 </r>
       <r>   -5.9650    1.0000 </r>
       <r>   -5.6666    1.0000 </r>
       <r>   -0.4474    0.0000 </r>
       <r>    0.6518    0.0000 </r>
       <r>    1.4540    0.0000 </r>
       <r>    1.8405    0.0000 </r>
      </set>
      <set comment="kpoint 5">
       <r>  -22.0566    1.0000 </r>
       <r>  -18.2875    1.0000 </r>
       <r>  -14.4879    1.0000 </r>
       <r>  -10.1387    1.0000 </r>
       <r>   -8.9252    1.0000 </r>
       <r>   -6.4873    1.0000 </r>
       <r>   -6.1038    1.0000 </r>
       <r>   -5.9816    1.0000 </r>
       <r>   -0.0231    0.0000 </r>
       <r>    0.7482    0.0000 </r>
       <r>    1.5515    0.0000 </r>
       <r>    1.9393    0.0000 </r>
      </set>
      <set comment="kpoint 6">
       <r>  -21.9654    1.0000 </r>
       <r>  -18.6525    1.0000 </r>
       <r>  -13.9886    1.0000 </r>
       <r>  -10.0303    1.0000 </r>
       <r>   -8.8365    1.0000 </r>
       <r>   -6.8277    1.0000 </r>
       <r>   -6.3240    1.0000 </r>
       <r>   -6.2709    1.0000 </r>
       <r>    0.4576    0.0000 </r>
       <r>    0.8720    0.0000 </r>
       <r>    1.6768    0.0000 </r>
       <r>    2.0663    0.0000 </r>
      </set>
      <set comment="kpoint 7">
       <r>  -21.8542    1.0000 </r>
       <r>  -19.0051    1.0000 </r>
       <r>  -13.4736    1.0000 </r>
       <r>   -9.8982    1.0000 </r>
       <r>   -8.7290    1.0000 </r>
       <r>   -7.2207    1.0000 </r>
       <r>   -6.6774    1.0000 </r>
       <r>   -6.4599    1.0000 </r>
       <r>    0.9768    0.0000 </r>
       <r>    1.0234    0.0000 </r>
       <r>    1.8299    0.0000 </r>
       <r>    2.2216    0.0000 </r>
      </set>
      <set comment="kpoint 8">
       <r>  -21.7229    1.0000 </r>
       <r>  -19.3427    1.0000 </r>
       <r>  -12.9463    1.0000 </r>
       <r>   -9.7427    1.0000 </r>
       <r>   -8.6035    1.0000 </r>
       <r>   -7.6572    1.0000 </r>
       <r>   -7.0312    1.0000 </r>
       <r>   -6.6644    1.0000 </r>
       <r>    1.2023    0.0000 </r>
       <r>    1.5218    0.0000 </r>
       <r>    2.0107    0.0000 </r>
       <r>    2.4050    0.0000 </r>
      </set>
      <set comment="kpoint 9">
       <r>  -21.5716    1.0000 </r>
       <r>  -19.6639    1.0000 </r>
       <r>  -12.4096    1.0000 </r>
       <r>   -9.5640    1.0000 </r>
       <r>   -8.4607    1.0000 </r>
       <r>   -8.1283    1.0000 </r>
       <r>   -7.3785    1.0000 </r>
       <r>   -6.8787    1.0000 </r>
       <r>    1.4087    0.0000 </r>
       <r>    2.0827    0.0000 </r>
       <r>    2.2190    0.0000 </r>
       <r>    2.6167    0.0000 </r>
      </set>
      <set comment="kpoint 10">
       <r>  -21.4005    1.0000 </r>
       <r>  -19.9677    1.0000 </r>
       <r>  -11.8660    1.0000 </r>
       <r>   -9.3625    1.0000 </r>
       <r>   -8.6265    1.0000 </r>
       <r>   -8.3017    1.0000 </r>
       <r>   -7.7146    1.0000 </r>
       <r>   -7.0976    1.0000 </r>
       <r>    1.6424    0.0000 </r>
       <r>    2.4546    0.0000 </r>
       <r>    2.6502    0.0000 </r>
       <r>    2.8566    0.0000 </r>
      </set>
      <set comment="kpoint 11">
       <r>  -21.2098    1.0000 </r>
       <r>  -20.2537    1.0000 </r>
       <r>  -11.3180    1.0000 </r>
       <r>   -9.1450    1.0000 </r>
       <r>   -9.1388    1.0000 </r>
       <r>   -8.1277    1.0000 </r>
       <r>   -8.0362    1.0000 </r>
       <r>   -7.3167    1.0000 </r>
       <r>    1.9036    0.0000 </r>
       <r>    2.7170    0.0000 </r>
       <r>    3.1247    0.0000 </r>
       <r>    3.2085    0.0000 </r>
      </set>
      <set comment="kpoint 12">
       <r>  -20.9995    1.0000 </r>
       <r>  -20.5211    1.0000 </r>
       <r>  -10.7685    1.0000 </r>
       <r>   -9.6780    1.0000 </r>
       <r>   -8.8934    1.0000 </r>
       <r>   -8.3409    1.0000 </r>
       <r>   -7.9401    1.0000 </r>
       <r>   -7.5322    1.0000 </r>
       <r>    2.1919    0.0000 </r>
       <r>    2.8499    0.0000 </r>
       <r>    3.0048    0.0000 </r>
       <r>    3.4210    0.0000 </r>
      </set>
      <set comment="kpoint 13">
       <r>  -20.7699    1.0000 </r>
       <r>  -20.7699    1.0000 </r>
       <r>  -10.2206    1.0000 </r>
       <r>  -10.2206    1.0000 </r>
       <r>   -8.6271    1.0000 </r>
       <r>   -8.6271    1.0000 </r>
       <r>   -7.7409    1.0000 </r>
       <r>   -7.7409    1.0000 </r>
       <r>    2.5074    0.0000 </r>
       <r>    2.5074    0.0000 </r>
       <r>    3.3127    0.0000 </r>
       <r>    3.3127    0.0000 </r>
      </set>
      <set comment="kpoint 14">
       <r>  -22.2051    1.0000 </r>
       <r>  -17.0592    1.0000 </r>
       <r>  -15.9345    1.0000 </r>
       <r>  -10.3157    1.0000 </r>
       <r>   -9.1467    1.0000 </r>
       <r>   -5.8615    1.0000 </r>
       <r>   -5.8309    1.0000 </r>
       <r>   -5.1411    1.0000 </r>
       <r>   -1.1024    0.0000 </r>
       <r>    0.5466    0.0000 </r>
       <r>    1.3473    0.0000 </r>
       <r>    1.7326    0.0000 </r>
      </set>
      <set comment="kpoint 15">
       <r>  -22.1950    1.0000 </r>
       <r>  -17.2127    1.0000 </r>
       <r>  -15.7658    1.0000 </r>
       <r>  -10.3036    1.0000 </r>
       <r>   -9.1366    1.0000 </r>
       <r>   -5.9123    1.0000 </r>
       <r>   -5.8446    1.0000 </r>
       <r>   -5.2061    1.0000 </r>
       <r>   -1.0216    0.0000 </r>
       <r>    0.5603    0.0000 </r>
       <r>    1.3613    0.0000 </r>
       <r>    1.7467    0.0000 </r>
      </set>
      <set comment="kpoint 16">
       <r>  -22.1645    1.0000 </r>
       <r>  -17.5358    1.0000 </r>
       <r>  -15.3973    1.0000 </r>
       <r>  -10.2673    1.0000 </r>
       <r>   -9.1065    1.0000 </r>
       <r>   -6.0441    1.0000 </r>
       <r>   -5.9033    1.0000 </r>
       <r>   -5.3867    1.0000 </r>
       <r>   -0.7936    0.0000 </r>
       <r>    0.6016    0.0000 </r>
       <r>    1.4031    0.0000 </r>
       <r>    1.7890    0.0000 </r>
      </set>
      <set comment="kpoint 17">
       <r>  -22.1138    1.0000 </r>
       <r>  -17.9028    1.0000 </r>
       <r>  -14.9550    1.0000 </r>
       <r>  -10.2069    1.0000 </r>
       <r>   -9.0565    1.0000 </r>
       <r>   -6.2495    1.0000 </r>
       <r>   -6.0061    1.0000 </r>
       <r>   -5.6507    1.0000 </r>
       <r>   -0.4513    0.0000 </r>
       <r>    0.6704    0.0000 </r>
       <r>    1.4728    0.0000 </r>
       <r>    1.8596    0.0000 </r>
      </set>
      <set comment="kpoint 18">
       <r>  -22.0429    1.0000 </r>
       <r>  -18.2749    1.0000 </r>
       <r>  -14.4779    1.0000 </r>
       <r>  -10.1224    1.0000 </r>
       <r>   -8.9869    1.0000 </r>
       <r>   -6.5235    1.0000 </r>
       <r>   -6.1457    1.0000 </r>
       <r>   -5.9660    1.0000 </r>
       <r>   -0.0276    0.0000 </r>
       <r>    0.7667    0.0000 </r>
       <r>    1.5703    0.0000 </r>
       <r>    1.9584    0.0000 </r>
      </set>
      <set comment="kpoint 19">
       <r>  -21.9518    1.0000 </r>
       <r>  -18.6398    1.0000 </r>
       <r>  -13.9793    1.0000 </r>
       <r>  -10.0141    1.0000 </r>
       <r>   -8.8980    1.0000 </r>
       <r>   -6.8585    1.0000 </r>
       <r>   -6.3147    1.0000 </r>
       <r>   -6.3085    1.0000 </r>
       <r>    0.4522    0.0000 </r>
       <r>    0.8906    0.0000 </r>
       <r>    1.6956    0.0000 </r>
       <r>    2.0854    0.0000 </r>
      </set>
      <set comment="kpoint 20">
       <r>  -21.8405    1.0000 </r>
       <r>  -18.9922    1.0000 </r>
       <r>  -13.4650    1.0000 </r>
       <r>   -9.8820    1.0000 </r>
       <r>   -8.7903    1.0000 </r>
       <r>   -7.2459    1.0000 </r>
       <r>   -6.6620    1.0000 </r>
       <r>   -6.5061    1.0000 </r>
       <r>    0.9703    0.0000 </r>
       <r>    1.0420    0.0000 </r>
       <r>    1.8487    0.0000 </r>
       <r>    2.2406    0.0000 </r>
      </set>
      <set comment="kpoint 21">
       <r>  -21.7092    1.0000 </r>
       <r>  -19.3296    1.0000 </r>
       <r>  -12.9387    1.0000 </r>
       <r>   -9.7265    1.0000 </r>
       <r>   -8.6645    1.0000 </r>
       <r>   -7.6769    1.0000 </r>
       <r>   -7.0158    1.0000 </r>
       <r>   -6.7130    1.0000 </r>
       <r>    1.2209    0.0000 </r>
       <r>    1.5138    0.0000 </r>
       <r>    2.0295    0.0000 </r>
       <r>    2.4241    0.0000 </r>
      </set>
      <set comment="kpoint 22">
       <r>  -21.5580    1.0000 </r>
       <r>  -19.6507    1.0000 </r>
       <r>  -12.4031    1.0000 </r>
       <r>   -9.5479    1.0000 </r>
       <r>   -8.5213    1.0000 </r>
       <r>   -8.1430    1.0000 </r>
       <r>   -7.3631    1.0000 </r>
       <r>   -6.9297    1.0000 </r>
       <r>    1.4273    0.0000 </r>
       <r>    2.0730    0.0000 </r>
       <r>    2.2378    0.0000 </r>
       <r>    2.6358    0.0000 </r>
      </set>
      <set comment="kpoint 23">
       <r>  -21.3870    1.0000 </r>
       <r>  -19.9545    1.0000 </r>
       <r>  -11.8608    1.0000 </r>
       <r>   -9.3465    1.0000 </r>
       <r>   -8.6368    1.0000 </r>
       <r>   -8.3617    1.0000 </r>
       <r>   -7.6991    1.0000 </r>
       <r>   -7.1507    1.0000 </r>
       <r>    1.6611    0.0000 </r>
       <r>    2.4734    0.0000 </r>
       <r>    2.6388    0.0000 </r>
       <r>    2.8757    0.0000 </r>
      </set>
      <set comment="kpoint 24">
       <r>  -21.1962    1.0000 </r>
       <r>  -20.2403    1.0000 </r>
       <r>  -11.3144    1.0000 </r>
       <r>   -9.1515    1.0000 </r>
       <r>   -9.1228    1.0000 </r>
       <r>   -8.1871    1.0000 </r>
       <r>   -8.0206    1.0000 </r>
       <r>   -7.3716    1.0000 </r>
       <r>    1.9222    0.0000 </r>
       <r>    2.7358    0.0000 </r>
       <r>    3.1438    0.0000 </r>
       <r>    3.2008    0.0000 </r>
      </set>
      <set comment="kpoint 25">
       <r>  -20.9860    1.0000 </r>
       <r>  -20.5078    1.0000 </r>
       <r>  -10.7668    1.0000 </r>
       <r>   -9.6813    1.0000 </r>
       <r>   -8.8775    1.0000 </r>
       <r>   -8.3253    1.0000 </r>
       <r>   -7.9987    1.0000 </r>
       <r>   -7.5885    1.0000 </r>
       <r>    2.2106    0.0000 </r>
       <r>    2.8686    0.0000 </r>
       <r>    3.0237    0.0000 </r>
       <r>    3.4401    0.0000 </r>
      </set>
      <set comment="kpoint 26">
       <r>  -20.7564    1.0000 </r>
       <r>  -20.7564    1.0000 </r>
       <r>  -10.2212    1.0000 </r>
       <r>  -10.2212    1.0000 </r>
       <r>   -8.6113    1.0000 </r>
       <r>   -8.6113    1.0000 </r>
       <r>   -7.7985    1.0000 </r>
       <r>   -7.7985    1.0000 </r>
       <r>    2.5262    0.0000 </r>
       <r>    2.5262    0.0000 </r>
       <r>    3.3314    0.0000 </r>
       <r>    3.3314    0.0000 </r>
      </set>
      <set comment="kpoint 27">
       <r>  -22.1640    1.0000 </r>
       <r>  -17.0239    1.0000 </r>
       <r>  -15.8997    1.0000 </r>
       <r>  -10.2667    1.0000 </r>
       <r>   -9.3276    1.0000 </r>
       <r>   -5.9982    1.0000 </r>
       <r>   -5.9489    1.0000 </r>
       <r>   -5.0912    1.0000 </r>
       <r>   -1.1141    0.0000 </r>
       <r>    0.6023    0.0000 </r>
       <r>    1.4038    0.0000 </r>
       <r>    1.7897    0.0000 </r>
      </set>
      <set comment="kpoint 28">
       <r>  -22.1539    1.0000 </r>
       <r>  -17.1769    1.0000 </r>
       <r>  -15.7317    1.0000 </r>
       <r>  -10.2546    1.0000 </r>
       <r>   -9.3175    1.0000 </r>
       <r>   -6.0520    1.0000 </r>
       <r>   -5.9576    1.0000 </r>
[...]
       <r>   -9.2383    1.0000 </r>
       <r>   -5.5788    1.0000 </r>
       <r>   -5.5788    1.0000 </r>
       <r>   -0.4352    0.0000 </r>
       <r>   -0.4352    0.0000 </r>
       <r>    4.6949    0.0000 </r>
       <r>    4.6949    0.0000 </r>
      </set>
      <set comment="kpoint 209">
       <r>  -18.7953    1.0000 </r>
       <r>  -16.9988    1.0000 </r>
       <r>  -14.0845    1.0000 </r>
       <r>  -12.4484    1.0000 </r>
       <r>  -12.3958    1.0000 </r>
       <r>  -10.8668    1.0000 </r>
       <r>   -6.3900    1.0000 </r>
       <r>   -4.5016    1.0000 </r>
       <r>   -1.0295    0.0000 </r>
       <r>    1.1370    0.0000 </r>
       <r>    5.2629    0.0000 </r>
       <r>    6.0476    0.0000 </r>
      </set>
      <set comment="kpoint 210">
       <r>  -18.7857    1.0000 </r>
       <r>  -16.9912    1.0000 </r>
       <r>  -14.1664    1.0000 </r>
       <r>  -12.5240    1.0000 </r>
       <r>  -12.3062    1.0000 </r>
       <r>  -10.7935    1.0000 </r>
       <r>   -6.3813    1.0000 </r>
       <r>   -4.5048    1.0000 </r>
       <r>   -1.0384    0.0000 </r>
       <r>    1.1120    0.0000 </r>
       <r>    5.2763    0.0000 </r>
       <r>    6.0635    0.0000 </r>
      </set>
      <set comment="kpoint 211">
       <r>  -18.7568    1.0000 </r>
       <r>  -16.9685    1.0000 </r>
       <r>  -14.3721    1.0000 </r>
       <r>  -12.7177    1.0000 </r>
       <r>  -12.0773    1.0000 </r>
       <r>  -10.6075    1.0000 </r>
       <r>   -6.3553    1.0000 </r>
       <r>   -4.5147    1.0000 </r>
       <r>   -1.0635    0.0000 </r>
       <r>    1.0390    0.0000 </r>
       <r>    5.3166    0.0000 </r>
       <r>    6.1107    0.0000 </r>
      </set>
      <set comment="kpoint 212">
       <r>  -18.7089    1.0000 </r>
       <r>  -16.9322    1.0000 </r>
       <r>  -14.6378    1.0000 </r>
       <r>  -12.9747    1.0000 </r>
       <r>  -11.7733    1.0000 </r>
       <r>  -10.3656    1.0000 </r>
       <r>   -6.3122    1.0000 </r>
       <r>   -4.5329    1.0000 </r>
       <r>   -1.0999    0.0000 </r>
       <r>    0.9229    0.0000 </r>
       <r>    5.3833    0.0000 </r>
       <r>    6.1882    0.0000 </r>
      </set>
      <set comment="kpoint 213">
       <r>  -18.6420    1.0000 </r>
       <r>  -16.8848    1.0000 </r>
       <r>  -14.9224    1.0000 </r>
       <r>  -13.2598    1.0000 </r>
       <r>  -11.4346    1.0000 </r>
       <r>  -10.1062    1.0000 </r>
       <r>   -6.2525    1.0000 </r>
       <r>   -4.5616    1.0000 </r>
       <r>   -1.1401    0.0000 </r>
       <r>    0.7712    0.0000 </r>
       <r>    5.4749    0.0000 </r>
       <r>    6.2948    0.0000 </r>
      </set>
      <set comment="kpoint 214">
       <r>  -18.5563    1.0000 </r>
       <r>  -16.8316    1.0000 </r>
       <r>  -15.2017    1.0000 </r>
       <r>  -13.5547    1.0000 </r>
       <r>  -11.0836    1.0000 </r>
       <r>   -9.8522    1.0000 </r>
       <r>   -6.1770    1.0000 </r>
       <r>   -4.6034    1.0000 </r>
       <r>   -1.1755    0.0000 </r>
       <r>    0.5923    0.0000 </r>
       <r>    5.5825    0.0000 </r>
       <r>    6.0153    0.0000 </r>
      </set>
      <set comment="kpoint 215">
       <r>  -18.4521    1.0000 </r>
       <r>  -16.7835    1.0000 </r>
       <r>  -15.4552    1.0000 </r>
       <r>  -13.8493    1.0000 </r>
       <r>  -10.7342    1.0000 </r>
       <r>   -9.6193    1.0000 </r>
       <r>   -6.0866    1.0000 </r>
       <r>   -4.6607    1.0000 </r>
       <r>   -1.1976    0.0000 </r>
       <r>    0.3948    0.0000 </r>
       <r>    5.5071    0.0000 </r>
       <r>    5.7989    0.0000 </r>
      </set>
      <set comment="kpoint 216">
       <r>  -18.3298    1.0000 </r>
       <r>  -16.7616    1.0000 </r>
       <r>  -15.6564    1.0000 </r>
       <r>  -14.1378    1.0000 </r>
       <r>  -10.3969    1.0000 </r>
       <r>   -9.4196    1.0000 </r>
       <r>   -5.9826    1.0000 </r>
       <r>   -4.7351    1.0000 </r>
       <r>   -1.1988    0.0000 </r>
       <r>    0.1868    0.0000 </r>
       <r>    5.1593    0.0000 </r>
       <r>    5.9476    0.0000 </r>
      </set>
      <set comment="kpoint 217">
       <r>  -18.1900    1.0000 </r>
       <r>  -16.7984    1.0000 </r>
       <r>  -15.7700    1.0000 </r>
       <r>  -14.4163    1.0000 </r>
       <r>  -10.0812    1.0000 </r>
       <r>   -9.2634    1.0000 </r>
       <r>   -5.8665    1.0000 </r>
       <r>   -4.8270    1.0000 </r>
       <r>   -1.1736    0.0000 </r>
       <r>   -0.0242    0.0000 </r>
       <r>    4.8645    0.0000 </r>
       <r>    5.6889    0.0000 </r>
      </set>
      <set comment="kpoint 218">
       <r>  -18.0335    1.0000 </r>
       <r>  -16.9118    1.0000 </r>
       <r>  -15.7758    1.0000 </r>
       <r>  -14.6816    1.0000 </r>
       <r>   -9.7964    1.0000 </r>
       <r>   -9.1594    1.0000 </r>
       <r>   -5.7404    1.0000 </r>
       <r>   -4.9351    1.0000 </r>
       <r>   -1.1189    0.0000 </r>
       <r>   -0.2318    0.0000 </r>
       <r>    4.6511    0.0000 </r>
       <r>    5.2946    0.0000 </r>
      </set>
      <set comment="kpoint 219">
       <r>  -17.8615    1.0000 </r>
       <r>  -17.0822    1.0000 </r>
       <r>  -15.6925    1.0000 </r>
       <r>  -14.9310    1.0000 </r>
       <r>   -9.5512    1.0000 </r>
       <r>   -9.1143    1.0000 </r>
       <r>   -5.6065    1.0000 </r>
       <r>   -5.0570    1.0000 </r>
       <r>   -1.0337    0.0000 </r>
       <r>   -0.4300    0.0000 </r>
       <r>    4.5278    0.0000 </r>
       <r>    4.9700    0.0000 </r>
      </set>
      <set comment="kpoint 220">
       <r>  -17.6758    1.0000 </r>
       <r>  -17.2782    1.0000 </r>
       <r>  -15.5507    1.0000 </r>
       <r>  -15.1619    1.0000 </r>
       <r>   -9.3542    1.0000 </r>
       <r>   -9.1318    1.0000 </r>
       <r>   -5.4676    1.0000 </r>
       <r>   -5.1890    1.0000 </r>
       <r>   -0.9193    0.0000 </r>
       <r>   -0.6137    0.0000 </r>
       <r>    4.4990    0.0000 </r>
       <r>    4.7243    0.0000 </r>
      </set>
      <set comment="kpoint 221">
       <r>  -17.4796    1.0000 </r>
       <r>  -17.4796    1.0000 </r>
       <r>  -15.3704    1.0000 </r>
       <r>  -15.3704    1.0000 </r>
       <r>   -9.2127    1.0000 </r>
       <r>   -9.2127    1.0000 </r>
       <r>   -5.3273    1.0000 </r>
       <r>   -5.3273    1.0000 </r>
       <r>   -0.7781    0.0000 </r>
       <r>   -0.7781    0.0000 </r>
       <r>    4.5654    0.0000 </r>
       <r>    4.5654    0.0000 </r>
      </set>
      <set comment="kpoint 222">
       <r>  -18.3713    1.0000 </r>
       <r>  -17.4693    1.0000 </r>
       <r>  -13.7058    1.0000 </r>
       <r>  -12.8869    1.0000 </r>
       <r>  -12.0460    1.0000 </r>
       <r>  -11.2767    1.0000 </r>
       <r>   -5.9299    1.0000 </r>
       <r>   -4.9802    1.0000 </r>
       <r>   -0.5210    0.0000 </r>
       <r>    0.5644    0.0000 </r>
       <r>    5.8644    0.0000 </r>
       <r>    6.6106    0.0000 </r>
      </set>
      <set comment="kpoint 223">
       <r>  -18.3618    1.0000 </r>
       <r>  -17.4606    1.0000 </r>
       <r>  -13.7877    1.0000 </r>
       <r>  -12.9652    1.0000 </r>
       <r>  -11.9590    1.0000 </r>
       <r>  -11.1982    1.0000 </r>
       <r>   -5.9224    1.0000 </r>
       <r>   -4.9779    1.0000 </r>
       <r>   -0.5367    0.0000 </r>
       <r>    0.5415    0.0000 </r>
       <r>    5.8778    0.0000 </r>
       <r>    6.6273    0.0000 </r>
      </set>
      <set comment="kpoint 224">
       <r>  -18.3335    1.0000 </r>
       <r>  -17.4347    1.0000 </r>
       <r>  -13.9943    1.0000 </r>
       <r>  -13.1645    1.0000 </r>
       <r>  -11.7377    1.0000 </r>
       <r>  -10.9988    1.0000 </r>
       <r>   -5.9004    1.0000 </r>
       <r>   -4.9716    1.0000 </r>
       <r>   -0.5820    0.0000 </r>
       <r>    0.4746    0.0000 </r>
       <r>    5.9179    0.0000 </r>
       <r>    6.6771    0.0000 </r>
      </set>
      <set comment="kpoint 225">
       <r>  -18.2864    1.0000 </r>
       <r>  -17.3919    1.0000 </r>
       <r>  -14.2633    1.0000 </r>
       <r>  -13.4272    1.0000 </r>
       <r>  -11.4453    1.0000 </r>
       <r>  -10.7378    1.0000 </r>
       <r>   -5.8641    1.0000 </r>
       <r>   -4.9623    1.0000 </r>
       <r>   -0.6520    0.0000 </r>
       <r>    0.3686    0.0000 </r>
       <r>    5.9839    0.0000 </r>
       <r>    6.7584    0.0000 </r>
      </set>
      <set comment="kpoint 226">
       <r>  -18.2208    1.0000 </r>
       <r>  -17.3332    1.0000 </r>
       <r>  -14.5561    1.0000 </r>
       <r>  -13.7170    1.0000 </r>
       <r>  -11.1222    1.0000 </r>
       <r>  -10.4546    1.0000 </r>
       <r>   -5.8144    1.0000 </r>
       <r>   -4.9517    1.0000 </r>
       <r>   -0.7391    0.0000 </r>
       <r>    0.2310    0.0000 </r>
       <r>    6.0730    0.0000 </r>
       <r>    6.7849    0.0000 </r>
      </set>
      <set comment="kpoint 227">
       <r>  -18.1370    1.0000 </r>
       <r>  -17.2602    1.0000 </r>
       <r>  -14.8523    1.0000 </r>
       <r>  -14.0152    1.0000 </r>
       <r>  -10.7909    1.0000 </r>
       <r>  -10.1718    1.0000 </r>
       <r>   -5.7523    1.0000 </r>
       <r>   -4.9425    1.0000 </r>
       <r>   -0.8342    0.0000 </r>
       <r>    0.0703    0.0000 </r>
       <r>    6.1303    0.0000 </r>
       <r>    6.3265    0.0000 </r>
      </set>
      <set comment="kpoint 228">
       <r>  -18.0355    1.0000 </r>
       <r>  -17.1757    1.0000 </r>
       <r>  -15.1394    1.0000 </r>
       <r>  -14.3117    1.0000 </r>
       <r>  -10.4655    1.0000 </r>
       <r>   -9.9047    1.0000 </r>
       <r>   -5.6794    1.0000 </r>
       <r>   -4.9377    1.0000 </r>
       <r>   -0.9274    0.0000 </r>
       <r>   -0.1046    0.0000 </r>
       <r>    5.7579    0.0000 </r>
       <r>    6.3207    0.0000 </r>
      </set>
      <set comment="kpoint 229">
       <r>  -17.9169    1.0000 </r>
       <r>  -17.0851    1.0000 </r>
       <r>  -15.4069    1.0000 </r>
       <r>  -14.6004    1.0000 </r>
       <r>  -10.1571    1.0000 </r>
       <r>   -9.6652    1.0000 </r>
       <r>   -5.5975    1.0000 </r>
       <r>   -4.9406    1.0000 </r>
       <r>   -1.0093    0.0000 </r>
       <r>   -0.2850    0.0000 </r>
       <r>    5.3502    0.0000 </r>
       <r>    5.8434    0.0000 </r>
      </set>
      <set comment="kpoint 230">
       <r>  -17.7825    1.0000 </r>
       <r>  -16.9993    1.0000 </r>
       <r>  -15.6406    1.0000 </r>
       <r>  -14.8768    1.0000 </r>
       <r>   -9.8757    1.0000 </r>
       <r>   -9.4638    1.0000 </r>
       <r>   -5.5091    1.0000 </r>
       <r>   -4.9545    1.0000 </r>
       <r>   -1.0709    0.0000 </r>
       <r>   -0.4628    0.0000 </r>
       <r>    5.0071    0.0000 </r>
       <r>    5.4215    0.0000 </r>
      </set>
      <set comment="kpoint 231">
       <r>  -17.6340    1.0000 </r>
       <r>  -16.9394    1.0000 </r>
       <r>  -15.8176    1.0000 </r>
       <r>  -15.1370    1.0000 </r>
       <r>   -9.6307    1.0000 </r>
       <r>   -9.3096    1.0000 </r>
       <r>   -5.4170    1.0000 </r>
       <r>   -4.9819    1.0000 </r>
       <r>   -1.1054    0.0000 </r>
       <r>   -0.6305    0.0000 </r>
       <r>    4.7419    0.0000 </r>
       <r>    5.0658    0.0000 </r>
      </set>
      <set comment="kpoint 232">
       <r>  -17.4744    1.0000 </r>
       <r>  -16.9381    1.0000 </r>
       <r>  -15.9039    1.0000 </r>
       <r>  -15.3767    1.0000 </r>
       <r>   -9.4308    1.0000 </r>
       <r>   -9.2105    1.0000 </r>
       <r>   -5.3245    1.0000 </r>
       <r>   -5.0245    1.0000 </r>
       <r>   -1.1076    0.0000 </r>
       <r>   -0.7812    0.0000 </r>
       <r>    4.5633    0.0000 </r>
       <r>    4.7861    0.0000 </r>
      </set>
      <set comment="kpoint 233">
       <r>  -17.3092    1.0000 </r>
       <r>  -17.0146    1.0000 </r>
       <r>  -15.8795    1.0000 </r>
       <r>  -15.5894    1.0000 </r>
       <r>   -9.2841    1.0000 </r>
       <r>   -9.1719    1.0000 </r>
       <r>   -5.2354    1.0000 </r>
       <r>   -5.0822    1.0000 </r>
       <r>   -1.0751    0.0000 </r>
       <r>   -0.9088    0.0000 </r>
       <r>    4.4773    0.0000 </r>
       <r>    4.5908    0.0000 </r>
      </set>
      <set comment="kpoint 234">
       <r>  -17.1490    1.0000 </r>
       <r>  -17.1490    1.0000 </r>
       <r>  -15.7640    1.0000 </r>
       <r>  -15.7640    1.0000 </r>
       <r>   -9.1966    1.0000 </r>
       <r>   -9.1966    1.0000 </r>
       <r>   -5.1534    1.0000 </r>
       <r>   -5.1534    1.0000 </r>
       <r>   -1.0081    0.0000 </r>
       <r>   -1.0081    0.0000 </r>
       <r>    4.4866    0.0000 </r>
       <r>    4.4866    0.0000 </r>
      </set>
      <set comment="kpoint 235">
       <r>  -17.9283    1.0000 </r>
       <r>  -17.9283    1.0000 </r>
       <r>  -13.3063    1.0000 </r>
       <r>  -13.3063    1.0000 </r>
       <r>  -11.6712    1.0000 </r>
       <r>  -11.6712    1.0000 </r>
       <r>   -5.4582    1.0000 </r>
       <r>   -5.4582    1.0000 </r>
       <r>    0.0109    0.0000 </r>
       <r>    0.0109    0.0000 </r>
       <r>    6.4976    0.0000 </r>
       <r>    6.4976    0.0000 </r>
      </set>
      <set comment="kpoint 236">
       <r>  -17.9191    1.0000 </r>
       <r>  -17.9191    1.0000 </r>
       <r>  -13.3868    1.0000 </r>
       <r>  -13.3868    1.0000 </r>
       <r>  -11.5880    1.0000 </r>
       <r>  -11.5880    1.0000 </r>
       <r>   -5.4528    1.0000 </r>
       <r>   -5.4528    1.0000 </r>
       <r>   -0.0091    0.0000 </r>
       <r>   -0.0091    0.0000 </r>
       <r>    6.5110    0.0000 </r>
       <r>    6.5110    0.0000 </r>
      </set>
      <set comment="kpoint 237">
       <r>  -17.8916    1.0000 </r>
       <r>  -17.8916    1.0000 </r>
       <r>  -13.5907    1.0000 </r>
       <r>  -13.5907    1.0000 </r>
       <r>  -11.3768    1.0000 </r>
       <r>  -11.3768    1.0000 </r>
       <r>   -5.4368    1.0000 </r>
       <r>   -5.4368    1.0000 </r>
       <r>   -0.0673    0.0000 </r>
       <r>   -0.0673    0.0000 </r>
       <r>    6.5507    0.0000 </r>
       <r>    6.5507    0.0000 </r>
      </set>
      <set comment="kpoint 238">
       <r>  -17.8460    1.0000 </r>
       <r>  -17.8460    1.0000 </r>
       <r>  -13.8578    1.0000 </r>
       <r>  -13.8578    1.0000 </r>
       <r>  -11.0989    1.0000 </r>
       <r>  -11.0989    1.0000 </r>
       <r>   -5.4110    1.0000 </r>
       <r>   -5.4110    1.0000 </r>
       <r>   -0.1587    0.0000 </r>
       <r>   -0.1587    0.0000 </r>
       <r>    6.6157    0.0000 </r>
       <r>    6.6157    0.0000 </r>
      </set>
      <set comment="kpoint 239">
       <r>  -17.7827    1.0000 </r>
       <r>  -17.7827    1.0000 </r>
       <r>  -14.1507    1.0000 </r>
       <r>  -14.1507    1.0000 </r>
       <r>  -10.7944    1.0000 </r>
       <r>  -10.7944    1.0000 </r>
       <r>   -5.3764    1.0000 </r>
       <r>   -5.3764    1.0000 </r>
       <r>   -0.2761    0.0000 </r>
       <r>   -0.2761    0.0000 </r>
       <r>    6.6972    0.0000 </r>
       <r>    6.6972    0.0000 </r>
      </set>
      <set comment="kpoint 240">
       <r>  -17.7023    1.0000 </r>
       <r>  -17.7023    1.0000 </r>
       <r>  -14.4502    1.0000 </r>
       <r>  -14.4502    1.0000 </r>
       <r>  -10.4858    1.0000 </r>
       <r>  -10.4858    1.0000 </r>
       <r>   -5.3349    1.0000 </r>
       <r>   -5.3349    1.0000 </r>
       <r>   -0.4105    0.0000 </r>
       <r>   -0.4105    0.0000 </r>
       <r>    6.5110    0.0000 </r>
       <r>    6.5111    0.0000 </r>
      </set>
      <set comment="kpoint 241">
       <r>  -17.6059    1.0000 </r>
       <r>  -17.6059    1.0000 </r>
       <r>  -14.7458    1.0000 </r>
       <r>  -14.7458    1.0000 </r>
       <r>  -10.1879    1.0000 </r>
       <r>  -10.1879    1.0000 </r>
       <r>   -5.2887    1.0000 </r>
       <r>   -5.2887    1.0000 </r>
       <r>   -0.5526    0.0000 </r>
       <r>   -0.5526    0.0000 </r>
       <r>    6.0249    0.0000 </r>
       <r>    6.0249    0.0000 </r>
      </set>
      <set comment="kpoint 242">
       <r>  -17.4951    1.0000 </r>
       <r>  -17.4951    1.0000 </r>
       <r>  -15.0303    1.0000 </r>
       <r>  -15.0303    1.0000 </r>
       <r>   -9.9121    1.0000 </r>
       <r>   -9.9121    1.0000 </r>
       <r>   -5.2406    1.0000 </r>
       <r>   -5.2406    1.0000 </r>
       <r>   -0.6929    0.0000 </r>
       <r>   -0.6929    0.0000 </r>
       <r>    5.5785    0.0000 </r>
       <r>    5.5785    0.0000 </r>
      </set>
      <set comment="kpoint 243">
       <r>  -17.3729    1.0000 </r>
       <r>  -17.3729    1.0000 </r>
       <r>  -15.2976    1.0000 </r>
       <r>  -15.2976    1.0000 </r>
       <r>   -9.6689    1.0000 </r>
       <r>   -9.6689    1.0000 </r>
       <r>   -5.1939    1.0000 </r>
       <r>   -5.1939    1.0000 </r>
       <r>   -0.8226    0.0000 </r>
       <r>   -0.8226    0.0000 </r>
       <r>    5.1934    0.0000 </r>
       <r>    5.1934    0.0000 </r>
      </set>
      <set comment="kpoint 244">
       <r>  -17.2447    1.0000 </r>
       <r>  -17.2447    1.0000 </r>
       <r>  -15.5403    1.0000 </r>
       <r>  -15.5403    1.0000 </r>
       <r>   -9.4675    1.0000 </r>
       <r>   -9.4675    1.0000 </r>
       <r>   -5.1522    1.0000 </r>
       <r>   -5.1522    1.0000 </r>
       <r>   -0.9334    0.0000 </r>
       <r>   -0.9334    0.0000 </r>
       <r>    4.8807    0.0000 </r>
       <r>    4.8807    0.0000 </r>
      </set>
      <set comment="kpoint 245">
       <r>  -17.1213    1.0000 </r>
       <r>  -17.1213    1.0000 </r>
       <r>  -15.7463    1.0000 </r>
       <r>  -15.7463    1.0000 </r>
       <r>   -9.3165    1.0000 </r>
       <r>   -9.3165    1.0000 </r>
       <r>   -5.1192    1.0000 </r>
       <r>   -5.1192    1.0000 </r>
       <r>   -1.0183    0.0000 </r>
       <r>   -1.0183    0.0000 </r>
       <r>    4.6498    0.0000 </r>
       <r>    4.6498    0.0000 </r>
      </set>
      <set comment="kpoint 246">
       <r>  -17.0238    1.0000 </r>
       <r>  -17.0238    1.0000 </r>
       <r>  -15.8937    1.0000 </r>
       <r>  -15.8937    1.0000 </r>
       <r>   -9.2229    1.0000 </r>
       <r>   -9.2229    1.0000 </r>
       <r>   -5.0978    1.0000 </r>
       <r>   -5.0978    1.0000 </r>
       <r>   -1.0717    0.0000 </r>
       <r>   -1.0717    0.0000 </r>
       <r>    4.5080    0.0000 </r>
       <r>    4.5080    0.0000 </r>
      </set>
      <set comment="kpoint 247">
       <r>  -16.9847    1.0000 </r>
       <r>  -16.9847    1.0000 </r>
       <r>  -15.9495    1.0000 </r>
       <r>  -15.9495    1.0000 </r>
       <r>   -9.1912    1.0000 </r>
       <r>   -9.1912    1.0000 </r>
       <r>   -5.0905    1.0000 </r>
       <r>   -5.0905    1.0000 </r>
       <r>   -1.0899    0.0000 </r>
       <r>   -1.0899    0.0000 </r>
       <r>    4.4602    0.0000 </r>
       <r>    4.4602    0.0000 </r>
      </set>
     </set>
    </set>
   </array>
  </eigenvalues>
  <separator name="orbital magnetization" >
   <v name="MAGDIPOLOUT">      0.00000000      0.00000000      0.00000000</v>
  </separator>
 </calculation>
 <structure name="finalpos" >
  <crystal>
   <varray name="basis" >
    <v>       4.29483700       0.00000000       0.00000000 </v>
    <v>       0.00000000       2.46494068       0.00000000 </v>
    <v>       0.00000000       0.00000000      19.91569773 </v>
   </varray>
   <i name="volume">    210.83790140 </i>
   <varray name="rec_basis" >
    <v>       0.23283771       0.00000000       0.00000000 </v>
    <v>       0.00000000       0.40568928       0.00000000 </v>
    <v>       0.00000000       0.00000000       0.05021165 </v>
   </varray>
  </crystal>
  <varray name="positions" >
   <v>       0.99987514       0.00000000      -0.00000000 </v>
   <v>       0.16679152       0.50000000       0.00000000 </v>
   <v>       0.49987514       0.50000000      -0.00000000 </v>
   <v>       0.66679152      -0.00000000       0.00000000 </v>
  </varray>
 </structure>
</modeling>
