 running on    8 total cores
 distrk:  each k-point on    8 cores,    1 groups
 distr:  one band on    2 cores,    4 groups
 using from now: INCAR     
 vasp.5.3.5 31Mar14 (build Mar 02 2015 18:14:16) complex                        
  
 POSCAR found type information on POSCAR  C 
 POSCAR found :  1 types and       4 ions
 LDA part: xc-table for Pade appr. of Perdew
 POSCAR, INCAR and KPOINTS ok, starting setup
 FFT: planning ...
 WAVECAR not read
 entering main loop
       N       E                     dE             d eps       ncg     rms          rms(c)
DAV:   1     0.189806377558E+03    0.18981E+03   -0.10558E+04  5928   0.274E+03
DAV:   2    -0.867736650660E+01   -0.19848E+03   -0.17705E+03 10328   0.260E+02
DAV:   3    -0.382956830887E+02   -0.29618E+02   -0.28875E+02  7300   0.120E+02    0.730E+00
RMM:   4    -0.376942803097E+02    0.60140E+00   -0.98995E+00  5928   0.268E+01    0.423E+00
RMM:   5    -0.369335077633E+02    0.76077E+00   -0.28589E+00  5932   0.116E+01    0.733E-01
RMM:   6    -0.369349871660E+02   -0.14794E-02   -0.84151E-02  6372   0.204E+00    0.518E-01
RMM:   7    -0.369254512231E+02    0.95359E-02   -0.33157E-02  5938   0.159E+00    0.344E-01
RMM:   8    -0.369198376549E+02    0.56136E-02   -0.73893E-03  5928   0.571E-01    0.136E-01
RMM:   9    -0.369194665638E+02    0.37109E-03   -0.20876E-02  5928   0.856E-01    0.161E-01
RMM:  10    -0.369193402371E+02    0.12633E-03   -0.26339E-03  5928   0.371E-01    0.301E-02
RMM:  11    -0.369218917993E+02   -0.25516E-02   -0.73509E-04  5928   0.176E-01    0.455E-02
RMM:  12    -0.369223454825E+02   -0.45368E-03   -0.22824E-04  5941   0.996E-02    0.508E-03
RMM:  13    -0.369225989540E+02   -0.25347E-03   -0.51633E-05  6010   0.404E-02    0.436E-03
RMM:  14    -0.369226841069E+02   -0.85153E-04   -0.11411E-05  5948   0.191E-02    0.211E-03
RMM:  15    -0.369226924864E+02   -0.83795E-05   -0.14886E-06  6002   0.724E-03    0.944E-04
RMM:  16    -0.369227040900E+02   -0.11604E-04   -0.51000E-07  5960   0.439E-03    0.624E-04
RMM:  17    -0.369227080141E+02   -0.39241E-05   -0.26071E-08  6134   0.117E-03    0.682E-04
RMM:  18    -0.369227096138E+02   -0.15997E-05   -0.72248E-08  5928   0.192E-03    0.132E-04
WARNING in EDDRMM: call to ZHEGV failed, returncode =   6  3  1
WARNING in EDDRMM: call to ZHEGV failed, returncode =   6  3  1
WARNING in EDDRMM: call to ZHEGV failed, returncode =   6  3  1
WARNING in EDDRMM: call to ZHEGV failed, returncode =   6  3  1
WARNING in EDDRMM: call to ZHEGV failed, returncode =   6  3  1
WARNING in EDDRMM: call to ZHEGV failed, returncode =   6  3  1
WARNING in EDDRMM: call to ZHEGV failed, returncode =   6  3  1
WARNING in EDDRMM: call to ZHEGV failed, returncode =   6  3  1
RMM:  19    -0.369227101509E+02   -0.53716E-06   -0.71026E-09  6000   0.460E-04    0.207E-05
RMM:  20    -0.369227102017E+02   -0.50713E-07   -0.57421E-10  4467   0.113E-04    0.244E-05
RMM:  21    -0.369227102227E+02   -0.21005E-07   -0.27678E-10  4415   0.951E-05    0.452E-06
RMM:  22    -0.369227102227E+02   -0.84697E-10   -0.11187E-11  3891   0.455E-05
   1 F= -.36922710E+02 E0= -.36922666E+02  d E =-.369227E+02
 BRION: g(F)=  0.566E-07 g(S)=  0.000E+00
 bond charge predicted
       N       E                     dE             d eps       ncg     rms          rms(c)
DAV:   1    -0.369227101388E+02    0.83863E-07   -0.76070E-06  6636   0.259E-02    0.552E-04
RMM:   2    -0.369227101445E+02   -0.56591E-08   -0.12340E-07  5970   0.312E-03    0.394E-04
RMM:   3    -0.369227101409E+02    0.35448E-08   -0.21870E-08  5978   0.119E-03    0.100E-04
WARNING in EDDRMM: call to ZHEGV failed, returncode =   6  3  1
RMM:   4    -0.369227101404E+02    0.51966E-09   -0.13637E-09  5931   0.294E-04    0.285E-05
RMM:   5    -0.369227101405E+02   -0.99703E-10   -0.76526E-11  3878   0.767E-05
   2 F= -.36922710E+02 E0= -.36922666E+02  d E =0.822537E-07
 BRION: g(F)=  0.895E-06 g(S)=  0.000E+00 retain N=  1 mean eig= 0.20
 eig:   0.201
 bond charge predicted
       N       E                     dE             d eps       ncg     rms          rms(c)
DAV:   1    -0.369227102297E+02   -0.89351E-07   -0.48557E-06  6560   0.207E-02    0.441E-04
RMM:   2    -0.369227102317E+02   -0.19570E-08   -0.76168E-08  5963   0.249E-03    0.314E-04
RMM:   3    -0.369227102290E+02    0.26562E-08   -0.13667E-08  5962   0.943E-04    0.768E-05
RMM:   4    -0.369227102289E+02    0.18804E-09   -0.80633E-10  5626   0.231E-04    0.225E-05
WARNING in EDDRMM: call to ZHEGV failed, returncode =   6  3  2
RMM:   5    -0.369227102289E+02   -0.82991E-10   -0.44638E-11  3760   0.657E-05
   3 F= -.36922710E+02 E0= -.36922666E+02  d E =-.884468E-07
 BRION: g(F)=  0.122E-10 g(S)=  0.000E+00 retain N=  1 mean eig= 0.20
 eig:   0.200
 bond charge predicted
       N       E                     dE             d eps       ncg     rms          rms(c)
DAV:   1    -0.369227102286E+02    0.28808E-09    0.56738E-09  4804   0.976E-05    0.127E-06
RMM:   2    -0.369227102290E+02   -0.44702E-09    0.15265E-12  3178   0.316E-05    0.649E-07
RMM:   3    -0.369227102289E+02    0.94587E-10   -0.33923E-12  2861   0.310E-05    0.162E-07
RMM:   4    -0.369227102291E+02   -0.16746E-09   -0.36766E-12  2582   0.278E-05    0.145E-07
RMM:   5    -0.369227102288E+02    0.28683E-09   -0.15363E-12  2344   0.247E-05    0.562E-08
RMM:   6    -0.369227102288E+02    0.51159E-11   -0.40554E-12  1939   0.226E-05
   4 F= -.36922710E+02 E0= -.36922666E+02  d E =0.143132E-09
 BRION: g(F)=  0.187E-10 g(S)=  0.000E+00 retain N=  1 mean eig= 0.09
 eig:   0.090
 bond charge predicted
       N       E                     dE             d eps       ncg     rms          rms(c)
DAV:   1    -0.369227102287E+02    0.10471E-09    0.57509E-09  4468   0.420E-05    0.475E-07
RMM:   2    -0.369227102291E+02   -0.41632E-09   -0.15288E-13  1358   0.128E-05    0.290E-07
RMM:   3    -0.369227102288E+02    0.32207E-09    0.13302E-13  1359   0.127E-05    0.943E-09
RMM:   4    -0.369227102291E+02   -0.29706E-09    0.50466E-13  1071   0.126E-05    0.661E-09
RMM:   5    -0.369227102288E+02    0.26068E-09   -0.22862E-13  1307   0.127E-05    0.797E-09
RMM:   6    -0.369227102290E+02   -0.14825E-09   -0.70762E-13  1204   0.125E-05    0.798E-09
RMM:   7    -0.369227102292E+02   -0.26444E-09    0.24487E-13  1010   0.124E-05    0.905E-09
RMM:   8    -0.369227102290E+02    0.21146E-09   -0.34265E-13  1052   0.124E-05    0.116E-08
RMM:   9    -0.369227102289E+02    0.85265E-10   -0.26242E-13   785   0.122E-05
   5 F= -.36922710E+02 E0= -.36922666E+02  d E =-.146997E-09
 BRION: g(F)=  0.151E-12 g(S)=  0.000E+00 retain N=  1 mean eig= 0.10
 eig:   0.098
 reached required accuracy - stopping structural energy minimisation
