gr                                      
           1
     4.294837    0.000000    0.000000
     0.000000    2.464941    0.000000
     0.000000    0.000000   19.915698
   C 
   4
Direct configuration=     1
   0.99987391  0.00000000  0.00000000
   0.16679275  0.50000000  0.00000000
   0.49987391  0.50000000  0.00000000
   0.66679275  0.00000000  0.00000000
Direct configuration=     2
   0.99987999  0.00000000  0.00000000
   0.16678667  0.50000000  0.00000000
   0.49987999  0.50000000  0.00000000
   0.66678667 -0.00000000  0.00000000
Direct configuration=     3
   0.99987513  0.00000000 -0.00000000
   0.16679153  0.50000000  0.00000000
   0.49987513  0.50000000 -0.00000000
   0.66679153 -0.00000000  0.00000000
Direct configuration=     4
   0.99987515  0.00000000 -0.00000000
   0.16679151  0.50000000  0.00000000
   0.49987515  0.50000000 -0.00000000
   0.66679151 -0.00000000  0.00000000
Direct configuration=     5
   0.99987514  0.00000000 -0.00000000
   0.16679152  0.50000000  0.00000000
   0.49987514  0.50000000 -0.00000000
   0.66679152 -0.00000000  0.00000000
