ITEM: TIMESTEP
10000
ITEM: NUMBER OF ATOMS
296
ITEM: BOX BOUNDS pp pp pp
0.0000000000000000e+00 2.1299999999999997e+01
0.0000000000000000e+00 3.6891999999999996e+01
0.0000000000000000e+00 6.7000000000000002e+00
ITEM: ATOMS id type x y z vx vy vz 
1 1 9.74965 0.709706 0 -9.32081 0.38622 0 
2 1 5.48965 0.709806 0 2.62542 0.524246 0 
3 1 6.39 1.2296 0 -1.13782 2.94067 0 
4 1 7.61965 1.93951 0 -8.79935 -1.84221 0 
5 1 8.52 2.4593 0 3.48337 6.72872 0 
6 1 9.74965 3.16921 0 0.253825 -2.19256 0 
7 1 0 0 0 10.2369 8.61254 0 
8 1 1.22965 0.709906 0 -4.43763 6.88238 0 
9 1 2.13 1.2297 0 4.05981 1.49465 0 
10 1 3.35965 1.93961 0 -0.443229 2.57128 0 
11 1 4.26 2.4594 0 5.93745 -3.90218 0 
12 1 5.48965 3.16931 0 1.39719 0.618015 0 
13 1 6.39 3.6891 0 6.7341 -6.32407 0 
14 1 7.61965 4.39901 0 -1.16089 0.704359 0 
15 1 8.52 4.9188 0 -5.13128 0.0437739 0 
16 1 9.74965 5.62871 0 -12.0111 -6.27341 0 
17 1 0 2.4595 0 1.07548 0.983813 0 
18 1 1.22965 3.16941 0 0.206436 -0.228006 0 
19 1 2.13 3.6892 0 3.42347 -0.296686 0 
20 1 3.35965 4.39911 0 1.77379 -0.611021 0 
21 1 4.26 4.9189 0 -2.57683 7.51295 0 
22 1 5.48965 5.62881 0 2.89847 2.00951 0 
23 1 6.39 6.1486 0 -10.8127 1.12098 0 
24 1 7.61965 6.85851 0 -9.86061 3.6671 0 
25 1 8.52 7.3783 0 1.02161 -6.25528 0 
26 1 9.74965 8.08821 0 9.13839 -3.87134 0 
27 1 0 4.919 0 -10.3906 -3.61578 0 
28 1 1.22965 5.62891 0 -2.3399 -0.553771 0 
29 1 2.13 6.1487 0 7.30703 3.9648 0 
30 1 3.35965 6.85861 0 6.90357 -3.5498 0 
31 1 4.26 7.3784 0 -2.83191 -5.27269 0 
32 1 5.48965 8.08831 0 -3.50312 -7.54102 0 
33 1 6.39 8.6081 0 2.05221 5.98448 0 
34 1 7.61965 9.31801 0 -4.91125 -7.60197 0 
35 1 8.52 9.8378 0 0.300604 2.38418 0 
36 1 9.74965 10.5477 0 -1.76477 6.47778 0 
37 1 0 7.3785 0 -4.9882 4.46115 0 
38 1 1.22965 8.08841 0 6.30809 1.0557 0 
39 1 2.13 8.6082 0 -1.27618 2.86042 0 
40 1 3.35965 9.31811 0 3.74884 -1.5933 0 
41 1 4.26 9.8379 0 5.49144 -7.57266 0 
42 1 5.48965 10.5478 0 -3.23123 -4.98092 0 
43 1 6.39 11.0676 0 -1.60654 2.17399 0 
44 1 7.61965 11.7775 0 5.74248 6.26292 0 
45 1 8.52 12.2973 0 -4.37585 9.78701 0 
46 1 9.74965 13.0072 0 0.258992 1.1072 0 
47 1 0 9.838 0 0.0197506 0.850192 0 
48 1 1.22965 10.5479 0 0.748224 2.56919 0 
49 1 2.13 11.0677 0 2.11624 -13.3188 0 
50 1 3.35965 11.7776 0 -4.38912 7.50029 0 
51 1 4.26 12.2974 0 1.4224 0.270275 0 
52 1 5.48965 13.0073 0 4.67444 1.42426 0 
53 1 6.39 13.5271 0 -2.60494 -8.79894 0 
54 1 7.61965 14.237 0 1.82117 1.72171 0 
55 1 8.52 14.7568 0 -3.98705 1.60024 0 
56 1 9.74965 15.4667 0 -4.55759 -7.69928 0 
57 1 0 12.2975 0 -2.88204 -1.0364 0 
58 1 1.22965 13.0074 0 2.33344 -1.08397 0 
59 1 2.13 13.5272 0 1.68382 -5.28305 0 
60 1 3.35965 14.2371 0 3.39247 -2.92763 0 
61 1 4.26 14.7569 0 -3.86485 8.92159 0 
62 1 5.48965 15.4668 0 -1.67938 0.837802 0 
63 1 6.39 15.9866 0 -2.4032 -2.30953 0 
64 1 7.61965 16.6965 0 -3.55301 1.29238 0 
65 1 8.52 17.2163 0 4.59998 -2.75967 0 
66 1 9.74965 17.9262 0 -0.366947 -3.60473 0 
67 1 0 14.757 0 2.06091 0.00696559 0 
68 1 1.22965 15.4669 0 -7.11889 0.341219 0 
69 1 2.13 15.9867 0 2.73114 -4.60263 0 
70 1 3.35965 16.6966 0 -2.11168 -2.06731 0 
71 1 4.26 17.2164 0 1.77536 0.894422 0 
72 1 5.48965 17.9263 0 -0.118743 -7.15508 0 
73 1 0 17.2165 0 -0.688083 -1.83927 0 
74 1 1.22965 17.9264 0 0.432142 5.20369 0 
75 1 6.39 18.4461 0 2.81429 0.911246 0 
76 1 7.61965 19.156 0 5.89793 -1.84761 0 
77 1 8.52 19.6758 0 4.75189 -0.894684 0 
78 1 9.74965 20.3857 0 -0.813038 -5.14283 0 
79 1 2.13 18.4462 0 0.385393 4.75809 0 
80 1 3.35965 19.1561 0 1.27726 -7.51431 0 
81 1 4.26 19.6759 0 -4.27504 3.10031 0 
82 1 5.48965 20.3858 0 1.17874 2.63628 0 
83 1 6.39 20.9056 0 4.9315 -2.18358 0 
84 1 7.61965 21.6155 0 5.63165 2.91059 0 
85 1 8.52 22.1353 0 -0.925887 -3.10282 0 
86 1 9.74965 22.8452 0 -9.01755 1.76243 0 
87 1 0 19.676 0 -6.30718 -2.61894 0 
88 1 1.22965 20.3859 0 -6.83197 1.71426 0 
89 1 2.13 20.9057 0 14.1598 -0.714606 0 
90 1 3.35965 21.6156 0 -3.15294 5.55506 0 
91 1 4.26 22.1354 0 3.29443 3.16727 0 
92 1 5.48965 22.8453 0 -2.06207 3.55043 0 
93 1 6.39 23.3651 0 3.30119 -3.71286 0 
94 1 7.61965 24.075 0 -0.979 -7.34516 0 
95 1 8.52 24.5948 0 0.349095 8.36405 0 
96 1 9.74965 25.3047 0 0.751805 -4.02495 0 
97 1 0 22.1355 0 -0.913534 -0.521789 0 
98 1 1.22965 22.8454 0 -3.55269 0.602292 0 
99 1 2.13 23.3652 0 3.75762 -0.604156 0 
100 1 3.35965 24.0751 0 6.50553 3.40552 0 
101 1 4.26 24.5949 0 0.652202 -2.55307 0 
102 1 5.48965 25.3048 0 0.690035 -2.94939 0 
103 1 6.39 25.8246 0 6.12683 5.81578 0 
104 1 7.61965 26.5345 0 -2.99073 -2.91004 0 
105 1 8.52 27.0543 0 -1.80977 2.87044 0 
106 1 9.74965 27.7642 0 -2.71814 6.21086 0 
107 1 0 24.595 0 1.74996 -0.420417 0 
108 1 1.22965 25.3049 0 -6.62708 -8.59448 0 
109 1 2.13 25.8247 0 4.48372 0.0784892 0 
110 1 3.35965 26.5346 0 -3.44427 -1.04949 0 
111 1 4.26 27.0544 0 -1.01564 1.97937 0 
112 1 5.48965 27.7643 0 5.37212 1.99526 0 
113 1 6.39 28.2841 0 4.5981 -1.04137 0 
114 1 7.61965 28.994 0 -4.51658 0.902366 0 
115 1 8.52 29.5138 0 2.82679 0.643878 0 
116 1 9.74965 30.2237 0 4.47718 -8.90426 0 
117 1 0 27.0545 0 -3.84766 1.37998 0 
118 1 1.22965 27.7644 0 3.30013 3.93192 0 
119 1 2.13 28.2842 0 6.81707 -6.46242 0 
120 1 3.35965 28.9941 0 3.61438 0.667113 0 
121 1 4.26 29.5139 0 4.21968 3.37447 0 
122 1 5.48965 30.2238 0 1.2749 -2.75484 0 
123 1 6.39 30.7436 0 -0.349449 -0.464123 0 
124 1 7.61965 31.4535 0 -6.56692 -6.93565 0 
125 1 8.52 31.9733 0 5.82407 -2.2216 0 
126 1 9.74965 32.6832 0 -1.3667 2.04926 0 
127 1 0 29.514 0 5.30023 -7.04921 0 
128 1 1.22965 30.2239 0 -1.21934 0.246417 0 
129 1 2.13 30.7437 0 -11.8126 -5.43108 0 
130 1 3.35965 31.4536 0 2.9992 3.76638 0 
131 1 4.26 31.9734 0 -0.302045 4.31554 0 
132 1 5.48965 32.6833 0 -4.74604 2.01159 0 
133 1 6.39 33.2031 0 -0.076001 5.1532 0 
134 1 7.61965 33.913 0 2.64907 -7.86389 0 
135 1 8.52 34.4328 0 -3.03638 6.80603 0 
136 1 9.74965 35.1427 0 5.30546 6.29223 0 
137 1 0 31.9735 0 0.713303 4.27566 0 
138 1 1.22965 32.6834 0 5.35915 0.619755 0 
139 1 2.13 33.2032 0 1.49183 0.00565407 0 
140 1 3.35965 33.9131 0 -2.33708 8.56269 0 
141 1 4.26 34.4329 0 -3.40432 -6.85797 0 
142 1 5.48965 35.1428 0 14.1301 -7.01772 0 
143 1 6.39 35.6626 0 -2.26015 11.4792 0 
144 1 7.61965 36.3725 0 -1.18276 0.557931 0 
145 1 0 34.433 0 -11.7796 -6.65826 0 
146 1 1.22965 35.1429 0 4.39062 -1.79598 0 
147 1 2.13 35.6627 0 0.247237 0.332516 0 
148 1 3.35965 36.3726 0 -2.10531 -8.95464 0 
149 1 18.2696 0.709506 0 -4.06633 -3.87891 0 
150 1 19.17 1.2293 0 1.45835 0.591051 0 
151 1 20.3996 1.93921 0 -3.49023 5.35983 0 
152 1 14.0096 0.709606 0 11.7617 -0.329988 0 
153 1 14.91 1.2294 0 -7.95123 0.897363 0 
154 1 16.1396 1.93931 0 -0.468652 4.97789 0 
155 1 17.04 2.4591 0 -0.669958 9.87834 0 
156 1 18.2696 3.16901 0 -2.29737 1.31056 0 
157 1 19.17 3.6888 0 -1.15159 -1.01686 0 
158 1 20.3996 4.39871 0 1.75005 5.51169 0 
159 1 10.65 1.2295 0 3.67858 6.33475 0 
160 1 11.8796 1.93941 0 -2.88417 2.29973 0 
161 1 12.78 2.4592 0 6.66286 -3.2022 0 
162 1 14.0096 3.16911 0 4.27793 -2.32028 0 
163 1 14.91 3.6889 0 1.43376 1.47044 0 
164 1 16.1396 4.39881 0 -5.86656 -1.56268 0 
165 1 17.04 4.9186 0 -5.19648 -1.37967 0 
166 1 18.2696 5.62851 0 9.40376 -8.61187 0 
167 1 19.17 6.1483 0 -0.908397 1.56846 0 
168 1 20.3996 6.85821 0 -0.369789 -3.86835 0 
169 1 10.65 3.689 0 -1.5306 -3.37236 0 
170 1 11.8796 4.39891 0 -1.4181 1.23099 0 
171 1 12.78 4.9187 0 -0.191967 -1.32574 0 
172 1 14.0096 5.62861 0 4.97906 1.84712 0 
173 1 14.91 6.1484 0 4.54462 -2.00814 0 
174 1 16.1396 6.85831 0 0.651424 -3.80997 0 
175 1 17.04 7.3781 0 -11.0581 -0.296432 0 
176 1 18.2696 8.08801 0 1.06891 2.23836 0 
177 1 19.17 8.6078 0 -1.92405 -1.26204 0 
178 1 20.3996 9.31771 0 -0.135527 3.26096 0 
179 1 10.65 6.1485 0 0.295383 3.2167 0 
180 1 11.8796 6.85841 0 0.793258 -6.41309 0 
181 1 12.78 7.3782 0 -7.79723 -2.87583 0 
182 1 14.0096 8.08811 0 0.381009 1.04264 0 
183 1 14.91 8.6079 0 -3.93527 -6.00672 0 
184 1 16.1396 9.31781 0 0.13284 -5.13509 0 
185 1 17.04 9.8376 0 0.906955 -7.166 0 
186 1 18.2696 10.5475 0 -3.51439 -0.717506 0 
187 1 19.17 11.0673 0 2.24139 9.04089 0 
188 1 20.3996 11.7772 0 0.356436 -7.20178 0 
189 1 10.65 8.608 0 -0.108768 -3.4468 0 
190 1 11.8796 9.31791 0 3.36448 12.8676 0 
191 1 12.78 9.8377 0 -1.55882 5.33038 0 
192 1 14.0096 10.5476 0 0.287844 0.13866 0 
193 1 14.91 11.0674 0 8.85312 2.13697 0 
194 1 16.1396 11.7773 0 -6.95409 -9.26189 0 
195 1 17.04 12.2971 0 5.9977 9.35457 0 
196 1 18.2696 13.007 0 3.77815 -0.22413 0 
197 1 19.17 13.5268 0 0.148809 -2.26045 0 
198 1 20.3996 14.2367 0 -0.582238 3.82151 0 
199 1 10.65 11.0675 0 7.39812 -2.66677 0 
200 1 11.8796 11.7774 0 -8.72271 -4.302 0 
201 1 12.78 12.2972 0 -1.81111 4.46953 0 
202 1 14.0096 13.0071 0 2.64512 -2.37633 0 
203 1 14.91 13.5269 0 0.540668 2.74583 0 
204 1 16.1396 14.2368 0 -0.810042 -1.43828 0 
205 1 17.04 14.7566 0 -1.14752 -1.52319 0 
206 1 18.2696 15.4665 0 -0.0788569 0.399167 0 
207 1 19.17 15.9863 0 -0.540333 -3.18238 0 
208 1 20.3996 16.6962 0 -3.36499 7.72681 0 
209 1 10.65 13.527 0 6.59687 -3.73197 0 
210 1 11.8796 14.2369 0 5.0506 1.48208 0 
211 1 12.78 14.7567 0 -1.93622 0.159588 0 
212 1 14.0096 15.4666 0 -6.76126 -4.04961 0 
213 1 14.91 15.9864 0 -6.79011 -1.06739 0 
214 1 16.1396 16.6963 0 0.959371 1.29545 0 
215 1 17.04 17.2161 0 -5.28431 1.84858 0 
216 1 18.2696 17.926 0 1.78818 3.68961 0 
217 1 19.17 18.4458 0 6.58149 -2.80628 0 
218 1 10.65 15.9865 0 1.33043 0.24918 0 
219 1 11.8796 16.6964 0 -0.279405 4.57619 0 
220 1 12.78 17.2162 0 -3.50506 4.7744 0 
221 1 14.0096 17.9261 0 2.3944 -5.79073 0 
222 1 14.91 18.4459 0 7.47744 -0.221889 0 
223 1 20.3996 19.1557 0 -6.36942 -4.68999 0 
224 1 16.1396 19.1558 0 1.23193 -1.8733 0 
225 1 17.04 19.6756 0 10.105 -3.74385 0 
226 1 18.2696 20.3855 0 4.43027 4.61955 0 
227 1 19.17 20.9053 0 6.26236 -7.64681 0 
228 1 20.3996 21.6152 0 8.16427 1.26627 0 
229 1 10.65 18.446 0 1.80964 -2.40101 0 
230 1 11.8796 19.1559 0 -4.41752 0.934762 0 
231 1 12.78 19.6757 0 1.5194 0.27361 0 
232 1 14.0096 20.3856 0 -3.95211 0.574393 0 
233 1 14.91 20.9054 0 -3.9462 -3.65875 0 
234 1 16.1396 21.6153 0 -3.8666 -4.72273 0 
235 1 17.04 22.1351 0 -0.270626 -4.229 0 
236 1 18.2696 22.845 0 1.71542 4.96479 0 
237 1 19.17 23.3648 0 -3.3882 3.34933 0 
238 1 20.3996 24.0747 0 -3.35031 -3.72752 0 
239 1 10.65 20.9055 0 -4.9808 -5.03886 0 
240 1 11.8796 21.6154 0 -5.40288 -1.59488 0 
241 1 12.78 22.1352 0 -6.43733 5.43797 0 
242 1 14.0096 22.8451 0 -8.71507 -1.88857 0 
243 1 14.91 23.3649 0 -9.11177 1.51388 0 
244 1 16.1396 24.0748 0 4.80885 -0.644871 0 
245 1 17.04 24.5946 0 5.49172 6.37202 0 
246 1 18.2696 25.3045 0 3.41348 8.40569 0 
247 1 19.17 25.8243 0 -2.16451 7.26033 0 
248 1 20.3996 26.5342 0 -1.68525 1.08626 0 
249 1 10.65 23.365 0 6.96515 0.739945 0 
250 1 11.8796 24.0749 0 -4.2208 -2.05655 0 
251 1 12.78 24.5947 0 -3.70269 -13.4416 0 
252 1 14.0096 25.3046 0 0.149629 -2.47894 0 
253 1 14.91 25.8244 0 2.30168 10.3178 0 
254 1 16.1396 26.5343 0 -3.18034 0.903348 0 
255 1 17.04 27.0541 0 -0.599435 -1.96716 0 
256 1 18.2696 27.764 0 1.19865 8.47373 0 
257 1 19.17 28.2838 0 4.75991 0.327204 0 
258 1 20.3996 28.9937 0 0.729774 2.80277 0 
259 1 10.65 25.8245 0 -2.76826 3.02317 0 
260 1 11.8796 26.5344 0 -0.418839 4.55179 0 
261 1 12.78 27.0542 0 -6.00666 -2.91377 0 
262 1 14.0096 27.7641 0 -3.52144 5.87404 0 
263 1 14.91 28.2839 0 0.971203 -1.35357 0 
264 1 16.1396 28.9938 0 3.75292 0.295905 0 
265 1 17.04 29.5136 0 -3.0686 4.3176 0 
266 1 18.2696 30.2235 0 -7.81922 -1.74137 0 
267 1 19.17 30.7433 0 1.46278 6.28447 0 
268 1 20.3996 31.4532 0 -10.2355 6.24313 0 
269 1 10.65 28.284 0 4.93777 -4.92989 0 
270 1 11.8796 28.9939 0 -0.615156 4.82518 0 
271 1 12.78 29.5137 0 -5.3121 1.35034 0 
272 1 14.0096 30.2236 0 -4.45037 0.880869 0 
273 1 14.91 30.7434 0 1.58041 1.7408 0 
274 1 16.1396 31.4533 0 0.598249 9.64952 0 
275 1 17.04 31.9731 0 3.59825 2.54773 0 
276 1 18.2696 32.683 0 -3.34299 4.848 0 
277 1 19.17 33.2028 0 -1.7799 -6.10359 0 
278 1 20.3996 33.9127 0 7.50373 -0.448795 0 
279 1 10.65 30.7435 0 -4.54682 0.440572 0 
280 1 11.8796 31.4534 0 2.49579 -3.64928 0 
281 1 12.78 31.9732 0 7.84217 -3.19543 0 
282 1 14.0096 32.6831 0 -4.58367 4.78666 0 
283 1 14.91 33.2029 0 -1.78166 -2.88246 0 
284 1 16.1396 33.9128 0 3.13321 -1.68924 0 
285 1 17.04 34.4326 0 4.7835 -5.08014 0 
286 1 18.2696 35.1425 0 2.56845 -9.22398 0 
287 1 19.17 35.6623 0 1.56592 -2.97533 0 
288 1 20.3996 36.3722 0 2.34532 -6.31279 0 
289 1 10.65 33.203 0 2.49039 -5.89976 0 
290 1 11.8796 33.9129 0 -1.15045 0.674313 0 
291 1 12.78 34.4327 0 -0.294723 3.94212 0 
292 1 14.0096 35.1426 0 5.20958 0.115486 0 
293 1 14.91 35.6624 0 1.2003 5.23605 0 
294 1 16.1396 36.3723 0 -3.30083 2.83235 0 
295 1 10.65 35.6625 0 5.24071 -5.26169 0 
296 1 11.8796 36.3724 0 -2.69703 0.51576 0 
ITEM: TIMESTEP
10010
ITEM: NUMBER OF ATOMS
296
ITEM: BOX BOUNDS pp pp pp
0.0000000000000000e+00 2.1299999999999997e+01
0.0000000000000000e+00 3.6891999999999996e+01
0.0000000000000000e+00 6.7000000000000002e+00
ITEM: ATOMS id type x y z vx vy vz 
1 1 9.17074 0.374147 0 -9.32081 0.38622 0 
2 1 4.91024 0.375001 0 2.62542 0.524246 0 
3 1 6.06008 1.03957 0 -1.13782 2.94067 0 
4 1 7.16418 1.67638 0 -8.79935 -1.84221 0 
5 1 8.3104 2.33834 0 3.48337 6.72872 0 
6 1 9.45774 3.00066 0 0.253825 -2.19256 0 
7 1 0.0797741 0.0460555 0 10.2369 8.61254 0 
8 1 1.14987 0.66385 0 -4.43763 6.88238 0 
9 1 2.20977 1.27576 0 4.05981 1.49465 0 
10 1 3.27987 1.89355 0 -0.443229 2.57128 0 
11 1 4.33977 2.50546 0 5.93745 -3.90218 0 
12 1 5.40987 3.12325 0 1.39719 0.618015 0 
13 1 6.46977 3.73516 0 6.7341 -6.32407 0 
14 1 7.53987 4.35295 0 -1.16089 0.704359 0 
15 1 8.59977 4.96486 0 -5.13128 0.0437739 0 
16 1 9.66988 5.58265 0 -12.0111 -6.27341 0 
17 1 -0.219545 2.3487 0 1.07548 0.983813 0 
18 1 0.968799 2.94706 0 0.206436 -0.228006 0 
19 1 2.07305 3.66146 0 3.42347 -0.296686 0 
20 1 3.19304 4.28034 0 1.77379 -0.611021 0 
21 1 4.26893 4.93239 0 -2.57683 7.51295 0 
22 1 5.39189 5.5697 0 2.89847 2.00951 0 
23 1 6.4643 6.19216 0 -10.8127 1.12098 0 
24 1 7.53772 6.81107 0 -9.86061 3.6671 0 
25 1 8.59976 7.42437 0 1.02161 -6.25528 0 
26 1 9.66984 8.04212 0 9.13839 -3.87134 0 
27 1 -0.0160893 4.97416 0 -10.3906 -3.61578 0 
28 1 1.17554 5.49287 0 -2.3399 -0.553771 0 
29 1 2.1916 6.20819 0 7.30703 3.9648 0 
30 1 3.29271 6.78401 0 6.90357 -3.5498 0 
31 1 4.33432 7.43295 0 -2.83191 -5.27269 0 
32 1 5.41135 8.03989 0 -3.50312 -7.54102 0 
33 1 6.46929 8.65461 0 2.05221 5.98448 0 
34 1 7.53994 9.27185 0 -4.91125 -7.60197 0 
35 1 8.59976 9.88387 0 0.300604 2.38418 0 
36 1 9.66984 10.5016 0 -1.76477 6.47778 0 
37 1 0.0484152 7.47966 0 -4.9882 4.46115 0 
38 1 1.18797 7.97094 0 6.30809 1.0557 0 
39 1 2.19614 8.67203 0 -1.27618 2.86042 0 
40 1 3.29503 9.24458 0 3.74884 -1.5933 0 
41 1 4.33431 9.89247 0 5.49144 -7.57266 0 
42 1 5.41135 10.4994 0 -3.23123 -4.98092 0 
43 1 6.46929 11.1141 0 -1.60654 2.17399 0 
44 1 7.53994 11.7313 0 5.74248 6.26292 0 
45 1 8.59976 12.3434 0 -4.37585 9.78701 0 
46 1 9.66984 12.9611 0 0.258992 1.1072 0 
47 1 0.0486105 9.93922 0 0.0197506 0.850192 0 
48 1 1.18777 10.4307 0 0.748224 2.56919 0 
49 1 2.19614 11.1315 0 2.11624 -13.3188 0 
50 1 3.29503 11.7041 0 -4.38912 7.50029 0 
51 1 4.33431 12.352 0 1.4224 0.270275 0 
52 1 5.41135 12.9589 0 4.67444 1.42426 0 
53 1 6.46929 13.5736 0 -2.60494 -8.79894 0 
54 1 7.53994 14.1908 0 1.82117 1.72171 0 
55 1 8.59976 14.8029 0 -3.98705 1.60024 0 
56 1 9.66984 15.4206 0 -4.55759 -7.69928 0 
57 1 0.0486106 12.3987 0 -2.88204 -1.0364 0 
58 1 1.18777 12.8902 0 2.33344 -1.08397 0 
59 1 2.19614 13.591 0 1.68382 -5.28305 0 
60 1 3.29503 14.1636 0 3.39247 -2.92763 0 
61 1 4.33431 14.8115 0 -3.86485 8.92159 0 
62 1 5.41135 15.4184 0 -1.67938 0.837802 0 
63 1 6.46929 16.0331 0 -2.4032 -2.30953 0 
64 1 7.53994 16.6503 0 -3.55301 1.29238 0 
65 1 8.59976 17.2624 0 4.59998 -2.75967 0 
66 1 9.66984 17.8801 0 -0.366947 -3.60473 0 
67 1 0.0486106 14.8582 0 2.06091 0.00696559 0 
68 1 1.18777 15.3497 0 -7.11889 0.341219 0 
69 1 2.19614 16.0505 0 2.73114 -4.60263 0 
70 1 3.29503 16.6231 0 -2.11168 -2.06731 0 
71 1 4.33431 17.271 0 1.77536 0.894422 0 
72 1 5.41135 17.8779 0 -0.118743 -7.15508 0 
73 1 0.0486106 17.3177 0 -0.688083 -1.83927 0 
74 1 1.18777 17.8092 0 0.432142 5.20369 0 
75 1 6.46929 18.4926 0 2.81429 0.911246 0 
76 1 7.53994 19.1098 0 5.89793 -1.84761 0 
77 1 8.59976 19.7219 0 4.75189 -0.894684 0 
78 1 9.66984 20.3396 0 -0.813038 -5.14283 0 
79 1 2.19614 18.51 0 0.385393 4.75809 0 
80 1 3.29503 19.0826 0 1.27726 -7.51431 0 
81 1 4.33431 19.7305 0 -4.27504 3.10031 0 
82 1 5.41135 20.3374 0 1.17874 2.63628 0 
83 1 6.46929 20.9521 0 4.9315 -2.18358 0 
84 1 7.53994 21.5693 0 5.63165 2.91059 0 
85 1 8.59976 22.1814 0 -0.925887 -3.10282 0 
86 1 9.66984 22.7991 0 -9.01755 1.76243 0 
87 1 0.0486106 19.7772 0 -6.30718 -2.61894 0 
88 1 1.18777 20.2687 0 -6.83197 1.71426 0 
89 1 2.19614 20.9695 0 14.1598 -0.714606 0 
90 1 3.29503 21.5421 0 -3.15294 5.55506 0 
91 1 4.33431 22.19 0 3.29443 3.16727 0 
92 1 5.41135 22.7969 0 -2.06207 3.55043 0 
93 1 6.46929 23.4116 0 3.30119 -3.71286 0 
94 1 7.53994 24.0288 0 -0.979 -7.34516 0 
95 1 8.59976 24.6409 0 0.349095 8.36405 0 
96 1 9.66984 25.2586 0 0.751805 -4.02495 0 
97 1 0.0486106 22.2367 0 -0.913534 -0.521789 0 
98 1 1.18777 22.7282 0 -3.55269 0.602292 0 
99 1 2.19614 23.429 0 3.75762 -0.604156 0 
100 1 3.29503 24.0016 0 6.50553 3.40552 0 
101 1 4.33431 24.6495 0 0.652202 -2.55307 0 
102 1 5.41135 25.2564 0 0.690035 -2.94939 0 
103 1 6.46929 25.8711 0 6.12683 5.81578 0 
104 1 7.53994 26.4883 0 -2.99073 -2.91004 0 
105 1 8.59976 27.1004 0 -1.80977 2.87044 0 
106 1 9.66984 27.7181 0 -2.71814 6.21086 0 
107 1 0.0486106 24.6962 0 1.74996 -0.420417 0 
108 1 1.18777 25.1877 0 -6.62708 -8.59448 0 
109 1 2.19614 25.8885 0 4.48372 0.0784892 0 
110 1 3.29503 26.4611 0 -3.44427 -1.04949 0 
111 1 4.33431 27.109 0 -1.01564 1.97937 0 
112 1 5.41135 27.7159 0 5.37212 1.99526 0 
113 1 6.46929 28.3306 0 4.5981 -1.04137 0 
114 1 7.53994 28.9478 0 -4.51658 0.902366 0 
115 1 8.59976 29.5599 0 2.82679 0.643878 0 
116 1 9.66984 30.1776 0 4.47718 -8.90426 0 
117 1 0.0485943 27.1558 0 -3.84766 1.37998 0 
118 1 1.18777 27.6472 0 3.30013 3.93192 0 
119 1 2.19611 28.3481 0 6.81707 -6.46242 0 
120 1 3.29503 28.9206 0 3.61438 0.667113 0 
121 1 4.33431 29.5685 0 4.21968 3.37447 0 
122 1 5.41225 30.1759 0 1.2749 -2.75484 0 
123 1 6.48525 30.7993 0 -0.349449 -0.464123 0 
124 1 7.58663 31.4343 0 -6.56692 -6.93565 0 
125 1 8.65104 32.049 0 5.82407 -2.2216 0 
126 1 9.75748 32.6877 0 -1.3667 2.04926 0 
127 1 0.0458809 29.6191 0 5.30023 -7.04921 0 
128 1 1.18861 30.1077 0 -1.21934 0.246417 0 
129 1 2.20715 30.8229 0 -11.8126 -5.43108 0 
130 1 3.34058 31.4086 0 2.9992 3.76638 0 
131 1 4.38615 32.0567 0 -0.302045 4.31554 0 
132 1 5.49882 32.6858 0 -4.74604 2.01159 0 
133 1 6.62334 33.3384 0 -0.076001 5.1532 0 
134 1 7.75469 33.9909 0 2.64907 -7.86389 0 
135 1 8.91565 34.6612 0 -3.03638 6.80603 0 
136 1 10.0526 35.3178 0 5.30546 6.29223 0 
137 1 0.0834477 32.1267 0 0.713303 4.27566 0 
138 1 1.27071 32.6243 0 5.35915 0.619755 0 
139 1 2.33448 33.3844 0 1.49183 0.00565407 0 
140 1 3.50287 33.9746 0 -2.33708 8.56269 0 
141 1 4.65317 34.6657 0 -3.40432 -6.85797 0 
142 1 5.79302 35.3169 0 14.1301 -7.01772 0 
143 1 6.88302 35.9468 0 -2.26015 11.4792 0 
144 1 8.04501 36.6194 0 -1.18276 0.557931 0 
145 1 0.35893 34.7255 0 -11.7796 -6.65826 0 
146 1 1.55102 35.283 0 4.39062 -1.79598 0 
147 1 2.61514 35.9595 0 0.247237 0.332516 0 
148 1 3.78709 36.6156 0 -2.10531 -8.95464 0 
149 1 17.6958 0.365877 0 -4.06633 -3.87891 0 
150 1 18.8274 1.06292 0 1.45835 0.591051 0 
151 1 19.9696 1.63168 0 -3.49023 5.35983 0 
152 1 13.4308 0.37393 0 11.7617 -0.329988 0 
153 1 14.5797 1.04037 0 -7.95123 0.897363 0 
154 1 15.6861 1.6729 0 -0.468652 4.97789 0 
155 1 16.8237 2.35168 0 -0.669958 9.87834 0 
156 1 18.0035 2.95992 0 -2.29737 1.31056 0 
157 1 19.0848 3.71849 0 -1.15159 -1.01686 0 
158 1 20.2772 4.21173 0 1.75005 5.51169 0 
159 1 10.32 1.03966 0 3.67858 6.33475 0 
160 1 11.4243 1.67628 0 -2.88417 2.29973 0 
161 1 12.5704 2.33831 0 6.66286 -3.2022 0 
162 1 13.7181 3.00025 0 4.27793 -2.32028 0 
163 1 14.8559 3.66025 0 1.43376 1.47044 0 
164 1 15.9683 4.29 0 -5.86656 -1.56268 0 
165 1 17.0391 4.95119 0 -5.19648 -1.37967 0 
166 1 18.1926 5.54249 0 9.40376 -8.61187 0 
167 1 19.2072 6.26145 0 -0.908397 1.56846 0 
168 1 20.3526 6.75025 0 -0.369789 -3.86835 0 
169 1 10.5971 3.65847 0 -1.5306 -3.37236 0 
170 1 11.7037 4.29732 0 -1.4181 1.23099 0 
171 1 12.7925 4.92607 0 -0.191967 -1.32574 0 
172 1 13.9111 5.57098 0 4.97906 1.84712 0 
173 1 14.9833 6.1939 0 4.54462 -2.00814 0 
174 1 16.0631 6.80246 0 0.651424 -3.80997 0 
175 1 17.1046 7.45162 0 -11.0581 -0.296432 0 
176 1 18.2037 8.02391 0 1.06891 2.23836 0 
177 1 19.2119 8.72498 0 -1.92405 -1.26204 0 
178 1 20.3511 9.21643 0 -0.135527 3.26096 0 
179 1 10.7298 6.19458 0 0.295383 3.2167 0 
180 1 11.7999 6.81234 0 0.793258 -6.41309 0 
181 1 12.8597 7.42436 0 -7.79723 -2.87583 0 
182 1 13.9304 8.0416 0 0.381009 1.04264 0 
183 1 14.9883 8.65631 0 -3.93527 -6.00672 0 
184 1 16.0653 9.26324 0 0.13284 -5.13509 0 
185 1 17.1046 9.91113 0 0.906955 -7.166 0 
186 1 18.2035 10.4837 0 -3.51439 -0.717506 0 
187 1 19.2119 11.1845 0 2.24139 9.04089 0 
188 1 20.351 11.676 0 0.356436 -7.20178 0 
189 1 10.7298 8.65408 0 -0.108768 -3.4468 0 
190 1 11.7999 9.27184 0 3.36448 12.8676 0 
191 1 12.8597 9.88386 0 -1.55882 5.33038 0 
192 1 13.9304 10.5011 0 0.287844 0.13866 0 
193 1 14.9883 11.1158 0 8.85312 2.13697 0 
194 1 16.0653 11.7227 0 -6.95409 -9.26189 0 
195 1 17.1046 12.3706 0 5.9977 9.35457 0 
196 1 18.2035 12.9432 0 3.77815 -0.22413 0 
197 1 19.2119 13.644 0 0.148809 -2.26045 0 
198 1 20.351 14.1355 0 -0.582238 3.82151 0 
199 1 10.7298 11.1136 0 7.39812 -2.66677 0 
200 1 11.7999 11.7313 0 -8.72271 -4.302 0 
201 1 12.8597 12.3434 0 -1.81111 4.46953 0 
202 1 13.9304 12.9606 0 2.64512 -2.37633 0 
203 1 14.9883 13.5753 0 0.540668 2.74583 0 
204 1 16.0653 14.1822 0 -0.810042 -1.43828 0 
205 1 17.1046 14.8301 0 -1.14752 -1.52319 0 
206 1 18.2035 15.4027 0 -0.0788569 0.399167 0 
207 1 19.2119 16.1035 0 -0.540333 -3.18238 0 
208 1 20.351 16.595 0 -3.36499 7.72681 0 
209 1 10.7298 13.5731 0 6.59687 -3.73197 0 
210 1 11.7999 14.1908 0 5.0506 1.48208 0 
211 1 12.8597 14.8029 0 -1.93622 0.159588 0 
212 1 13.9304 15.4201 0 -6.76126 -4.04961 0 
213 1 14.9883 16.0348 0 -6.79011 -1.06739 0 
214 1 16.0653 16.6417 0 0.959371 1.29545 0 
215 1 17.1046 17.2896 0 -5.28431 1.84858 0 
216 1 18.2035 17.8622 0 1.78818 3.68961 0 
217 1 19.2119 18.563 0 6.58149 -2.80628 0 
218 1 10.7298 16.0326 0 1.33043 0.24918 0 
219 1 11.7999 16.6503 0 -0.279405 4.57619 0 
220 1 12.8597 17.2624 0 -3.50506 4.7744 0 
221 1 13.9304 17.8796 0 2.3944 -5.79073 0 
222 1 14.9883 18.4943 0 7.47744 -0.221889 0 
223 1 20.351 19.0545 0 -6.36942 -4.68999 0 
224 1 16.0653 19.1012 0 1.23193 -1.8733 0 
225 1 17.1046 19.7491 0 10.105 -3.74385 0 
226 1 18.2035 20.3217 0 4.43027 4.61955 0 
227 1 19.2119 21.0225 0 6.26236 -7.64681 0 
228 1 20.351 21.514 0 8.16427 1.26627 0 
229 1 10.7298 18.4921 0 1.80964 -2.40101 0 
230 1 11.7999 19.1098 0 -4.41752 0.934762 0 
231 1 12.8597 19.7219 0 1.5194 0.27361 0 
232 1 13.9304 20.3391 0 -3.95211 0.574393 0 
233 1 14.9883 20.9538 0 -3.9462 -3.65875 0 
234 1 16.0653 21.5607 0 -3.8666 -4.72273 0 
235 1 17.1046 22.2086 0 -0.270626 -4.229 0 
236 1 18.2035 22.7812 0 1.71542 4.96479 0 
237 1 19.2119 23.482 0 -3.3882 3.34933 0 
238 1 20.351 23.9735 0 -3.35031 -3.72752 0 
239 1 10.7298 20.9516 0 -4.9808 -5.03886 0 
240 1 11.7999 21.5693 0 -5.40288 -1.59488 0 
241 1 12.8597 22.1814 0 -6.43733 5.43797 0 
242 1 13.9304 22.7986 0 -8.71507 -1.88857 0 
243 1 14.9883 23.4133 0 -9.11177 1.51388 0 
244 1 16.0653 24.0202 0 4.80885 -0.644871 0 
245 1 17.1046 24.6681 0 5.49172 6.37202 0 
246 1 18.2035 25.2407 0 3.41348 8.40569 0 
247 1 19.2119 25.9415 0 -2.16451 7.26033 0 
248 1 20.351 26.433 0 -1.68525 1.08626 0 
249 1 10.7298 23.4111 0 6.96515 0.739945 0 
250 1 11.7999 24.0288 0 -4.2208 -2.05655 0 
251 1 12.8597 24.6409 0 -3.70269 -13.4416 0 
252 1 13.9304 25.2581 0 0.149629 -2.47894 0 
253 1 14.9883 25.8728 0 2.30168 10.3178 0 
254 1 16.0653 26.4797 0 -3.18034 0.903348 0 
255 1 17.1046 27.1276 0 -0.599435 -1.96716 0 
256 1 18.2035 27.7002 0 1.19865 8.47373 0 
257 1 19.2119 28.401 0 4.75991 0.327204 0 
258 1 20.3512 28.8925 0 0.729774 2.80277 0 
259 1 10.7298 25.8706 0 -2.76826 3.02317 0 
260 1 11.7999 26.4883 0 -0.418839 4.55179 0 
261 1 12.8597 27.1004 0 -6.00666 -2.91377 0 
262 1 13.9304 27.7176 0 -3.52144 5.87404 0 
263 1 14.9883 28.3323 0 0.971203 -1.35357 0 
264 1 16.0653 28.9392 0 3.75292 0.295905 0 
265 1 17.1046 29.5871 0 -3.0686 4.3176 0 
266 1 18.2042 30.1609 0 -7.81922 -1.74137 0 
267 1 19.224 30.8731 0 1.46278 6.28447 0 
268 1 20.3958 31.3844 0 -10.2355 6.24313 0 
269 1 10.7298 28.3301 0 4.93777 -4.92989 0 
270 1 11.7999 28.9478 0 -0.615156 4.82518 0 
271 1 12.8597 29.5599 0 -5.3121 1.35034 0 
272 1 13.9312 30.1776 0 -4.45037 0.880869 0 
273 1 15.0043 30.8007 0 1.58041 1.7408 0 
274 1 16.1109 31.4273 0 0.598249 9.64952 0 
275 1 17.1596 32.0697 0 3.59825 2.54773 0 
276 1 18.283 32.682 0 -3.34299 4.848 0 
277 1 19.3649 33.4068 0 -1.7799 -6.10359 0 
278 1 20.5467 33.9758 0 7.50373 -0.448795 0 
279 1 10.7298 30.7896 0 -4.54682 0.440572 0 
280 1 11.7999 31.4074 0 2.49579 -3.64928 0 
281 1 12.8598 32.0193 0 7.84217 -3.19543 0 
282 1 13.9299 32.6371 0 -4.58367 4.78666 0 
283 1 14.9898 33.249 0 -1.78166 -2.88246 0 
284 1 16.0599 33.8668 0 3.13321 -1.68924 0 
285 1 17.1198 34.4787 0 4.7835 -5.08014 0 
286 1 18.1899 35.0965 0 2.56845 -9.22398 0 
287 1 19.2498 35.7084 0 1.56592 -2.97533 0 
288 1 20.3199 36.3262 0 2.34532 -6.31279 0 
289 1 10.8837 33.3379 0 2.49039 -5.89976 0 
290 1 12.0146 33.9908 0 -1.15045 0.674313 0 
291 1 13.1757 34.6611 0 -0.294723 3.94212 0 
292 1 14.3126 35.3178 0 5.20958 0.115486 0 
293 1 15.4035 35.946 0 1.2003 5.23605 0 
294 1 16.5639 36.6214 0 -3.30083 2.83235 0 
295 1 11.1432 35.9466 0 5.24071 -5.26169 0 
296 1 12.305 36.6194 0 -2.69703 0.51576 0 
ITEM: TIMESTEP
10020
ITEM: NUMBER OF ATOMS
296
ITEM: BOX BOUNDS pp pp pp
0.0000000000000000e+00 2.1299999999999997e+01
0.0000000000000000e+00 3.6891999999999996e+01
0.0000000000000000e+00 6.7000000000000002e+00
ITEM: ATOMS id type x y z vx vy vz 
1 1 9.1638 0.305269 0 -9.32081 0.38622 0 
2 1 4.74637 0.399814 0 2.62542 0.524246 0 
3 1 5.96136 0.898399 0 -1.13782 2.94067 0 
4 1 7.00938 1.6105 0 -8.79935 -1.84221 0 
5 1 8.1236 2.2311 0 3.48337 6.72872 0 
6 1 9.23811 2.88158 0 0.253825 -2.19256 0 
7 1 0.166042 -0.406762 0 10.2369 8.61254 0 
8 1 1.0216 0.689845 0 -4.43763 6.88238 0 
9 1 2.30015 1.14862 0 4.05981 1.49465 0 
10 1 3.19617 2.0405 0 -0.443229 2.57128 0 
11 1 4.44978 2.33676 0 5.93745 -3.90218 0 
12 1 5.3283 3.24484 0 1.39719 0.618015 0 
13 1 6.52136 3.63552 0 6.7341 -6.32407 0 
14 1 7.5295 4.35976 0 -1.16089 0.704359 0 
15 1 8.60448 4.96261 0 -5.13128 0.0437739 0 
16 1 9.66889 5.57912 0 -12.0111 -6.27341 0 
17 1 -0.57983 2.46414 0 1.07548 0.983813 0 
18 1 0.815958 2.61887 0 0.206436 -0.228006 0 
19 1 1.72967 3.74658 0 3.42347 -0.296686 0 
20 1 3.13449 4.00064 0 1.77379 -0.611021 0 
21 1 3.99225 5.08401 0 -2.57683 7.51295 0 
22 1 5.31069 5.34655 0 2.89847 2.00951 0 
23 1 6.38219 6.10377 0 -10.8127 1.12098 0 
24 1 7.48564 6.76157 0 -9.86061 3.6671 0 
25 1 8.56559 7.40737 0 1.02161 -6.25528 0 
26 1 9.6524 8.02246 0 9.13839 -3.87134 0 
27 1 -0.228501 5.11227 0 -10.3906 -3.61578 0 
28 1 1.17826 5.05182 0 -2.3399 -0.553771 0 
29 1 1.97718 6.34751 0 7.30703 3.9648 0 
30 1 3.38546 6.34348 0 6.90357 -3.5498 0 
31 1 4.06861 7.66161 0 -2.83191 -5.27269 0 
32 1 5.40144 7.77576 0 -3.50312 -7.54102 0 
33 1 6.39206 8.65925 0 2.05221 5.98448 0 
34 1 7.54569 9.22061 0 -4.91125 -7.60197 0 
35 1 8.59153 9.89365 0 0.300604 2.38418 0 
36 1 9.673 10.4882 0 -1.76477 6.47778 0 
37 1 -0.117378 7.67398 0 -4.9882 4.46115 0 
38 1 1.28971 7.62852 0 6.30809 1.0557 0 
39 1 2.0118 8.85819 0 -1.27618 2.86042 0 
40 1 3.39817 8.85636 0 3.74884 -1.5933 0 
41 1 4.06916 10.1414 0 5.49144 -7.57266 0 
42 1 5.40924 10.2244 0 -3.23123 -4.98092 0 
43 1 6.39518 11.1204 0 -1.60654 2.17399 0 
44 1 7.54424 11.686 0 5.74248 6.26292 0 
45 1 8.59256 12.3536 0 -4.37585 9.78701 0 
46 1 9.67341 12.9479 0 0.258992 1.1072 0 
47 1 -0.0966463 10.168 0 0.0197506 0.850192 0 
48 1 1.31018 10.1214 0 0.748224 2.56919 0 
49 1 2.01463 11.3304 0 2.11624 -13.3188 0 
50 1 3.39812 11.3256 0 -4.38912 7.50029 0 
51 1 4.06823 12.6033 0 1.4224 0.270275 0 
52 1 5.408 12.6859 0 4.67444 1.42426 0 
53 1 6.39572 13.5793 0 -2.60494 -8.79894 0 
54 1 7.54422 14.1456 0 1.82117 1.72171 0 
55 1 8.59259 14.8131 0 -3.98705 1.60024 0 
56 1 9.67342 15.4074 0 -4.55759 -7.69928 0 
57 1 -0.0968706 12.6331 0 -2.88204 -1.0364 0 
58 1 1.31068 12.5854 0 2.33344 -1.08397 0 
59 1 2.01445 13.7912 0 1.68382 -5.28305 0 
60 1 3.39812 13.7859 0 3.39247 -2.92763 0 
61 1 4.06823 15.0629 0 -3.86485 8.92159 0 
62 1 5.40786 15.1457 0 -1.67938 0.837802 0 
63 1 6.39574 16.0388 0 -2.4032 -2.30953 0 
64 1 7.54422 16.6051 0 -3.55301 1.29238 0 
65 1 8.59259 17.2726 0 4.59998 -2.75967 0 
66 1 9.67342 17.8669 0 -0.366947 -3.60473 0 
67 1 -0.0968858 15.093 0 2.06091 0.00696559 0 
68 1 1.31077 15.0452 0 -7.11889 0.341219 0 
69 1 2.01446 16.2507 0 2.73114 -4.60263 0 
70 1 3.39812 16.2454 0 -2.11168 -2.06731 0 
71 1 4.06823 17.5224 0 1.77536 0.894422 0 
72 1 5.40785 17.6052 0 -0.118743 -7.15508 0 
73 1 -0.0968883 17.5525 0 -0.688083 -1.83927 0 
74 1 1.31077 17.5048 0 0.432142 5.20369 0 
75 1 6.39575 18.4983 0 2.81429 0.911246 0 
76 1 7.54422 19.0646 0 5.89793 -1.84761 0 
77 1 8.59259 19.7321 0 4.75189 -0.894684 0 
78 1 9.67342 20.3264 0 -0.813038 -5.14283 0 
79 1 2.01446 18.7102 0 0.385393 4.75809 0 
80 1 3.39812 18.7049 0 1.27726 -7.51431 0 
81 1 4.06823 19.9819 0 -4.27504 3.10031 0 
82 1 5.40785 20.0647 0 1.17874 2.63628 0 
83 1 6.39574 20.9578 0 4.9315 -2.18358 0 
84 1 7.54422 21.5241 0 5.63165 2.91059 0 
85 1 8.5926 22.1916 0 -0.925887 -3.10282 0 
86 1 9.67342 22.7859 0 -9.01755 1.76243 0 
87 1 -0.0968882 20.012 0 -6.30718 -2.61894 0 
88 1 1.31077 19.9643 0 -6.83197 1.71426 0 