    4    4  400    1
  0.5270948E+02  0.4360224E-09  0.2458838E-09  0.1966572E-08  0.5000000E-15
  1.000000000000000E-004
  CAR 
 gr                                      
     16    247     12
 
  0.0000000E+00  0.0000000E+00  0.0000000E+00  0.1157407E-02
    1      -22.112893
    2      -17.215786
    3      -15.860436
    4      -10.250252
    5       -8.867882
    6       -5.968186
    7       -5.736695
    8       -5.294833
    9       -1.167228
   10        0.540814
   11        1.339495
   12        1.730906
 
  0.4166667E-01  0.0000000E+00  0.0000000E+00  0.2314815E-02
    1      -22.103047
    2      -17.341090
    3      -15.720099
    4      -10.238553
    5       -8.858301
    6       -6.012198
    7       -5.757213
    8       -5.354938
    9       -1.091344
   10        0.554140
   11        1.353012
   12        1.744591
 
  0.8333333E-01  0.0000000E+00  0.0000000E+00  0.2314815E-02
    1      -22.073510
    2      -17.625571
    3      -15.390597
    4      -10.203473
    5       -8.829610
    6       -6.142185
    7       -5.817689
    8       -5.522869
    9       -0.876235
   10        0.594124
   11        1.393556
   12        1.785648
 
  0.1250000E+00  0.0000000E+00  0.0000000E+00  0.2314815E-02
    1      -22.024305
    2      -17.964527
    3      -14.976864
    4      -10.145070
    5       -8.781960
    6       -6.352400
    7       -5.915056
    8       -5.770333
    9       -0.550676
   10        0.660784
   11        1.461114
   12        1.854078
 
  0.1666667E+00  0.0000000E+00  0.0000000E+00  0.2314815E-02
    1      -21.955464
    2      -18.315871
    3      -14.521387
    4      -10.063443
    5       -8.715612
    6       -6.634409
    7       -6.068084
    8       -6.044711
    9       -0.144724
   10        0.754140
   11        1.555660
   12        1.949887
 
  0.2083333E+00  0.0000000E+00  0.0000000E+00  0.2314815E-02
    1      -21.867040
    2      -18.664025
    3      -14.040320
    4       -9.958734
    5       -8.630941
    6       -6.978328
    7       -6.393413
    8       -6.201115
    9        0.317731
   10        0.874203
   11        1.677152
   12        2.073077
 
  0.2500000E+00  0.0000000E+00  0.0000000E+00  0.2314815E-02
    1      -21.759096
    2      -19.002306
    3      -13.541106
    4       -9.831133
    5       -8.528450
    6       -7.373942
    7       -6.730648
    8       -6.378362
    9        0.819438
   10        1.020973
   11        1.825528
   12        2.223649
 
  0.2916667E+00  0.0000000E+00  0.0000000E+00  0.2314815E-02
    1      -21.631715
    2      -19.327379
    3      -13.028059
    4       -9.680887
    5       -8.408780
    6       -7.811492
    7       -7.069358
    8       -6.570637
    9        1.194432
   10        1.347876
   11        2.000687
   12        2.401601
 
  0.3333333E+00  0.0000000E+00  0.0000000E+00  0.2314815E-02
    1      -21.485001
    2      -19.637357
    3      -12.504279
    4       -9.508311
    5       -8.282124
    6       -8.272740
    7       -7.402577
    8       -6.772526
    9        1.394549
   10        1.893247
   11        2.202460
   12        2.606930
 
  0.3750000E+00  0.0000000E+00  0.0000000E+00  0.2314815E-02
    1      -21.319073
    2      -19.931066
    3      -11.972441
    4       -9.313800
    5       -8.778067
    6       -8.121323
    7       -7.725561
    8       -6.979177
    9        1.621276
   10        2.430532
   11        2.446342
   12        2.839626
 
  0.4166667E+00  0.0000000E+00  0.0000000E+00  0.2314815E-02
    1      -21.134081
    2      -20.207708
    3      -11.435159
    4       -9.292632
    5       -9.097850
    6       -8.034992
    7       -7.955747
    8       -7.186354
    9        1.874547
   10        2.684209
   11        2.992598
   12        3.099678
 
  0.4583333E+00  0.0000000E+00  0.0000000E+00  0.2314815E-02
    1      -20.930202
    2      -20.466714
    3      -10.895209
    4       -9.820116
    5       -8.861083
    6       -8.328487
    7       -7.777489
    8       -7.390429
    9        2.154274
   10        2.792573
   11        2.961504
   12        3.387071
 
  0.5000000E+00  0.0000000E+00  0.0000000E+00  0.1157407E-02
    1      -20.707657
    2      -20.707657
    3      -10.355682
    4      -10.355682
    5       -8.604291
    6       -8.604291
    7       -7.588333
    8       -7.588333
    9        2.460339
   10        2.460339
   11        3.253093
   12        3.253093
 
  0.0000000E+00  0.2777778E-01  0.0000000E+00  0.2314815E-02
    1      -22.099093
    2      -17.203831
    3      -15.848681
    4      -10.233854
    5       -8.930896
    6       -5.995007
    7       -5.795363
    8       -5.278154
    9       -1.169927
   10        0.559517
   11        1.358396
   12        1.750043
 
  0.4166667E-01  0.2777778E-01  0.0000000E+00  0.4629630E-02
    1      -22.089247
    2      -17.329008
    3      -15.708516
    4      -10.222158
    5       -8.921303
    6       -6.040134
    7       -5.814149
    8       -5.338378
    9       -1.094028
   10        0.572842
   11        1.371912
   12        1.763728
 
  0.8333333E-01  0.2777778E-01  0.0000000E+00  0.4629630E-02
    1      -22.059714
    2      -17.613260
    3      -15.379380
    4      -10.187090
    5       -8.892574
    6       -6.171537
    7       -5.871469
    8       -5.506589
    9       -0.878954
   10        0.612827
   11        1.412454
   12        1.804785
 
  0.1250000E+00  0.2777778E-01  0.0000000E+00  0.4629630E-02
    1      -22.010516
    2      -17.952001
    3      -14.966098
    4      -10.128707
    5       -8.844859
    6       -6.381341
    7       -5.966675
    8       -5.754351
    9       -0.553621
   10        0.679488
   11        1.480008
   12        1.873216
 
  0.1666667E+00  0.2777778E-01  0.0000000E+00  0.4629630E-02
    1      -21.941687
    2      -18.303157
    3      -14.511147
    4      -10.047108
    5       -8.778413
    6       -6.660995
    7       -6.095643
    8       -6.052334
    9       -0.148176
   10        0.772846
   11        1.574549
   12        1.969026
 
  0.2083333E+00  0.2777778E-01  0.0000000E+00  0.4629630E-02
    1      -21.853278
    2      -18.651151
    3      -14.030693
    4       -9.942433
    5       -8.693605
    6       -7.001323
    7       -6.377805
    8       -6.252455
    9        0.313472
   10        0.892914
   11        1.696036
   12        2.092217
 
  0.2500000E+00  0.2777778E-01  0.0000000E+00  0.4629630E-02
    1      -21.745352
    2      -18.989293
    3      -13.532199
    4       -9.814875
    5       -8.590929
    6       -7.392811
    7       -6.715105
    8       -6.430744
    9        0.814086
   10        1.039689
   11        1.844407
   12        2.242791
 
  0.2916667E+00  0.2777778E-01  0.0000000E+00  0.4629630E-02
    1      -21.617995
    2      -19.314246
    3      -13.019998
    4       -9.664680
    5       -8.471018
    6       -7.826192
    7       -7.053822
    8       -6.624355
    9        1.213155
   10        1.341187
   11        2.019561
   12        2.420745
 
  0.3333333E+00  0.2777778E-01  0.0000000E+00  0.4629630E-02
    1      -21.471307
    2      -19.624121
    3      -12.497217
    4       -9.492162
    5       -8.334665
    6       -8.292898
    7       -7.387009
    8       -6.827650
    9        1.413281
   10        1.885043
   11        2.221333
   12        2.626077
 
  0.3750000E+00  0.2777778E-01  0.0000000E+00  0.4629630E-02
    1      -21.305411
    2      -19.917740
    3      -11.966559
    4       -9.297715
    5       -8.785296
    6       -8.182853
    7       -7.709936
    8       -7.035648
    9        1.640018
   10        2.436630
   11        2.449409
   12        2.858777
 
  0.4166667E+00  0.2777778E-01  0.0000000E+00  0.4629630E-02
    1      -21.120456
    2      -20.194304
    3      -11.430675
    4       -9.296746
    5       -9.081836
    6       -8.019295
    7       -8.016779
    8       -7.244046
    9        1.893300
   10        2.703102
   11        2.982273
   12        3.118836
 
  0.4583333E+00  0.2777778E-01  0.0000000E+00  0.4629630E-02
    1      -20.916621
    2      -20.453242
    3      -10.892378
    4       -9.821540
    5       -8.845146
    6       -8.312711
    7       -7.837904
    8       -7.449187
    9        2.173041
   10        2.811389
   11        2.980415
   12        3.406293
 
  0.5000000E+00  0.2777778E-01  0.0000000E+00  0.2314815E-02
    1      -20.694127
    2      -20.694127
    3      -10.354805
    4      -10.354805
    5       -8.588434
    6       -8.588434
    7       -7.647995
    8       -7.647995
    9        2.479124
   10        2.479124
   11        3.271710
   12        3.271710
 
  0.0000000E+00  0.5555556E-01  0.0000000E+00  0.2314815E-02
    1      -22.057699
    2      -17.167968
    3      -15.813558
    4      -10.184693
    5       -9.114844
    6       -6.075023
    7       -5.966569
    8       -5.228137
    9       -1.178833
   10        0.615624
   11        1.415091
   12        1.807455
 
  0.4166667E-01  0.5555556E-01  0.0000000E+00  0.4629630E-02
    1      -22.047857
    2      -17.292772
    3      -15.673906
    4      -10.173009
    5       -9.105209
    6       -6.127826
    7       -5.975864
    8       -5.288729
    9       -1.102886
   10        0.628950
   11        1.428604
   12        1.821140
 
  0.8333333E-01  0.5555556E-01  0.0000000E+00  0.4629630E-02
    1      -22.018339
    2      -17.576345
    3      -15.345873
    4      -10.137977
    5       -9.076353
    6       -6.266593
    7       -6.020694
    8       -5.457802
    9       -0.887911
   10        0.668934
   11        1.469139
   12        1.862197
 
  0.1250000E+00  0.5555556E-01  0.0000000E+00  0.4629630E-02
    1      -21.969164
    2      -17.914441
    3      -14.933956
    4      -10.079654
    5       -9.028418
    6       -6.475403
    7       -6.109276
    8       -5.706481
    9       -0.563266
   10        0.735596
   11        1.536682
   12        1.930629
 
  0.1666667E+00  0.5555556E-01  0.0000000E+00  0.4629630E-02
    1      -21.900369
    2      -18.265036
    3      -14.480607
    4       -9.998137
    5       -8.961644
    6       -6.747375
    7       -6.236875
    8       -6.005170
    9       -0.159369
   10        0.828958
   11        1.631209
   12        2.026440
 
  0.2083333E+00  0.5555556E-01  0.0000000E+00  0.4629630E-02
    1      -21.812004
    2      -18.612545
    3      -14.002031
    4       -9.893570
    5       -8.876380
    6       -7.076076
    7       -6.395803
    8       -6.331072
    9        0.299809
   10        0.949033
   11        1.752679
   12        2.149634
 
  0.2500000E+00  0.5555556E-01  0.0000000E+00  0.4629630E-02
    1      -21.704133
    2      -18.950270
    3      -13.505745
    4       -9.766142
    5       -8.773093
    6       -7.454273
    7       -6.668566
    8       -6.578152
    9        0.797084
   10        1.095820
   11        1.901032
   12        2.300212
 
  0.2916667E+00  0.5555556E-01  0.0000000E+00  0.4629630E-02
    1      -21.576845
    2      -19.274863
    3      -12.996149
    4       -9.616101
    5       -8.652380
    6       -7.874257
    7       -7.007302
    8       -6.776645
    9        1.269303
   10        1.320085
   11        2.076171
   12        2.478173
 
  0.3333333E+00  0.5555556E-01  0.0000000E+00  0.4629630E-02
    1      -21.430238
    2      -19.584426
    3      -12.476452
    4       -9.443759
    5       -8.514996
    6       -8.328384
    7       -7.340388
    8       -6.984931
    9        1.469448
   10        1.859278
   11        2.277937
   12        2.683513
 
  0.3750000E+00  0.5555556E-01  0.0000000E+00  0.4629630E-02
    1      -21.264438
    2      -19.877775
    3      -11.949453
    4       -9.249511
    5       -8.809473
    6       -8.361870
    7       -7.663138
    8       -7.197617
    9        1.696208
   10        2.406126
   11        2.506028
   12        2.916225
 
  0.4166667E+00  0.5555556E-01  0.0000000E+00  0.4629630E-02
    1      -21.079595
    2      -20.154105
    3      -11.417913
    4       -9.311026
    5       -9.033849
    6       -8.194147
    7       -7.972276
    8       -7.410198
    9        1.949516
   10        2.759770
   11        2.949164
   12        3.176298
 
  0.4583333E+00  0.5555556E-01  0.0000000E+00  0.4629630E-02
    1      -20.875891
    2      -20.412840
    3      -10.884779
    4       -9.827308
    5       -8.797392
    6       -8.265450
    7       -8.013222
    8       -7.618948
    9        2.229287
   10        2.867742
   11        3.037144
   12        3.425528
 
  0.5000000E+00  0.5555556E-01  0.0000000E+00  0.2314815E-02
    1      -20.653549
    2      -20.653549
    3      -10.353330
    4      -10.353330
    5       -8.540924
    6       -8.540924
    7       -7.820798
    8       -7.820798
    9        2.535412
   10        2.535412
   11        3.327385
   12        3.327386
 
  0.0000000E+00  0.8333333E-01  0.0000000E+00  0.2314815E-02
    1      -21.988747
    2      -17.108210
    3      -15.755519
    4      -10.102875
    5       -9.405869
    6       -6.237409
    7       -6.206893
    8       -5.144847
    9       -1.196380
   10        0.709137
   11        1.509556
   12        1.903143
 
  0.4166667E-01  0.8333333E-01  0.0000000E+00  0.4629630E-02
    1      -21.978913
    2      -17.232413
    3      -15.616713
    4      -10.091212
    5       -9.396151
    6       -6.312320
    7       -6.191167
    8       -5.206089
    9       -1.120334
   10        0.722461
   11        1.523065
   12        1.916828
 
  0.8333333E-01  0.8333333E-01  0.0000000E+00  0.4629630E-02
    1      -21.949418
    2      -17.514876
    3      -15.290531
    4      -10.056241
    5       -9.367039
    6       -6.457875
    7       -6.220944
    8       -5.376675
    9       -0.905501
   10        0.762441
   11        1.563588
   12        1.957884
 
  0.1250000E+00  0.8333333E-01  0.0000000E+00  0.4629630E-02
    1      -21.900283
    2      -17.851905
    3      -14.880944
    4       -9.998020
    5       -9.318659
    6       -6.660257
    7       -6.303609
    8       -5.626952
    9       -0.582027
   10        0.829098
   11        1.631111
   12        2.026315
 
  0.1666667E+00  0.8333333E-01  0.0000000E+00  0.4629630E-02
    1      -21.831545
    2      -18.201565
    3      -14.430359
    4       -9.916647
    5       -9.251224
    6       -6.916311
    7       -6.432326
    8       -5.926856
    9       -0.180798
   10        0.922456
   11        1.725610
   12        2.122127
 
  0.2083333E+00  0.8333333E-01  0.0000000E+00  0.4629630E-02
    1      -21.743253
    2      -18.548265
    3      -13.955045
    4       -9.812263
    5       -9.165043
    6       -7.222768
    7       -6.597820
    8       -6.253494
    9        0.274114
   10        1.042532
   11        1.847048
   12        2.245324
 
  0.2500000E+00  0.8333333E-01  0.0000000E+00  0.4629630E-02
    1      -21.635477
    2      -18.885291
    3      -13.462624
    4       -9.685060
    5       -9.060529
    6       -7.575650
    7       -6.790144
    8       -6.591310
    9        0.765616
   10        1.189326
   11        1.995366
   12        2.395907
 
  0.2916667E+00  0.8333333E-01  0.0000000E+00  0.4629630E-02
    1      -21.508301
    2      -19.209280
    3      -12.957619
    4       -9.535283
    5       -8.938211
    6       -7.970006
    7       -7.000039
    8       -6.930066
    9        1.281517
   10        1.362821
   11        2.170475
   12        2.573875
 
  0.3333333E+00  0.8333333E-01  0.0000000E+00  0.4629630E-02
    1      -21.361830
    2      -19.518321
    3      -12.443395
    4       -9.363245
    5       -8.798756
    6       -8.400047
    7       -7.262967
    8       -7.219677
    9        1.562983
   10        1.812572
   11        2.372226
   12        2.779225
 
  0.3750000E+00  0.8333333E-01  0.0000000E+00  0.4629630E-02
    1      -21.196190
    2      -19.811216
    3      -11.922936
    4       -9.169337
    5       -8.859564
    6       -8.642988
    7       -7.585404
    8       -7.442794
    9        1.789762
   10        2.350886
   11        2.600339
   12        3.011950
 
  0.4166667E+00  0.8333333E-01  0.0000000E+00  0.4629630E-02
    1      -21.011535
    2      -20.087155
    3      -11.399230
    4       -9.342383
    5       -8.954049
    6       -8.471923
    7       -7.894155
    8       -7.664492
    9        2.043090
   10        2.854174
   11        2.887513
   12        3.272042
 
  0.4583333E+00  0.8333333E-01  0.0000000E+00  0.4629630E-02
    1      -20.808050
    2      -20.345550
    3      -10.875485
    4       -9.842706
    5       -8.717994
    6       -8.286809
    7       -8.186907
    8       -7.880954
    9        2.322883
   10        2.961411
   11        3.131672
   12        3.392057
 
  0.5000000E+00  0.8333333E-01  0.0000000E+00  0.2314815E-02
    1      -20.585963
    2      -20.585963
    3      -10.355287
    4      -10.355287
    5       -8.461949
    6       -8.461949
    7       -8.089185
    8       -8.089185
    9        2.629036
   10        2.629036
   11        3.419256
   12        3.419256
 
  0.0000000E+00  0.1111111E+00  0.0000000E+00  0.2314815E-02
    1      -21.892299
    2      -17.024578
    3      -15.675412
    4       -9.988579
    5       -9.784752
    6       -6.590346
    7       -6.388367
    8       -5.028393
    9       -1.226615
   10        0.840054
   11        1.641754
   12        2.037107
 
  0.4166667E-01  0.1111111E+00  0.0000000E+00  0.4629630E-02
    1      -21.882476
    2      -17.147984
    3      -15.537774
    4       -9.976946
    5       -9.774884
    6       -6.641106
    7       -6.392947
    8       -5.090629
    9       -1.150385
   10        0.853373
   11        1.655256
   12        2.050791
 
  0.8333333E-01  0.1111111E+00  0.0000000E+00  0.4629630E-02
    1      -21.853014
    2      -17.428942
    3      -15.214222
    4       -9.942065
    5       -9.745314
    6       -6.772424
    7       -6.425996
    8       -5.263512
    9       -0.935686
   10        0.893340
   11        1.695759
   12        2.091846
 
  0.1250000E+00  0.1111111E+00  0.0000000E+00  0.4629630E-02
    1      -21.803935
    2      -17.764495
    3      -14.808032
    4       -9.883993
    5       -9.696138
    6       -6.960872
    7       -6.506046
    8       -5.516179
    9       -0.613879
   10        0.959979
   11        1.763248
   12        2.160274
 
  0.1666667E+00  0.1111111E+00  0.0000000E+00  0.4629630E-02
    1      -21.735275
    2      -18.112845
    3      -14.361545
    4       -9.802829
    5       -9.627520
    6       -7.195927
    7       -6.635687
    8       -5.817876
    9       -0.216552
   10        1.053316
   11        1.857701
   12        2.256084
 
  0.2083333E+00  0.1111111E+00  0.0000000E+00  0.4629630E-02
    1      -21.647088
    2      -18.458406
    3      -13.891136
    4       -9.698715
    5       -9.539695
    6       -7.472735
    7       -6.809296
    8       -6.145574
    9        0.232098
   10        1.173372
   11        1.979083
   12        2.379280
 
  0.2500000E+00  0.1111111E+00  0.0000000E+00  0.4629630E-02
    1      -21.539443
    2      -18.794447
    3      -13.404591
    4       -9.571840
    5       -9.432974
    6       -7.788973
    7       -7.016953
    8       -6.483835
    9        0.715122
   10        1.320153
   11        2.127340
   12        2.529864
 
  0.2916667E+00  0.1111111E+00  0.0000000E+00  0.4629630E-02
    1      -21.412426
    2      -19.117583
    3      -12.906654
    4       -9.422451
    5       -9.307753
    6       -8.143177
    7       -7.247052
    8       -6.822590
    9        1.220585
   10        1.493641
   11        2.302392
   12        2.707838
 
  0.3333333E+00  0.1111111E+00  0.0000000E+00  0.4629630E-02
    1      -21.266145
    2      -19.425884
    3      -12.400960
    4       -9.250859
    5       -9.164521
    6       -8.533341
    7       -7.488592
    8       -7.155194
    9        1.693801
   10        1.739594
   11        2.504108
   12        2.913196
 
  0.3750000E+00  0.1111111E+00  0.0000000E+00  0.4629630E-02
    1      -21.100731
    2      -19.718140
    3      -11.890839
    4       -9.057452
    5       -9.003879
    6       -8.956098
    7       -7.732672
    8       -7.477150
    9        1.920578
   10        2.264898
   11        2.732244
   12        3.145933
 
  0.4166667E+00  0.1111111E+00  0.0000000E+00  0.4629630E-02
    1      -20.916340
    2      -19.993525
    3      -11.379701
    4       -9.406741
    5       -8.842714
    6       -8.826561
    7       -7.972882
    8       -7.785316
    9        2.173901
   10        2.789542
   11        2.986226
   12        3.406040
 
  0.4583333E+00  0.1111111E+00  0.0000000E+00  0.4629630E-02
    1      -20.713165
    2      -20.251440
    3      -10.871269
    4       -9.879807
    5       -8.633473
    6       -8.607254
    7       -8.204880
    8       -8.077435
    9        2.453684
   10        3.092175
   11        3.263971
   12        3.301362
 
  0.5000000E+00  0.1111111E+00  0.0000000E+00  0.2314815E-02
    1      -20.491437
    2      -20.491437
    3      -10.369730
    4      -10.369730
    5       -8.425752
    6       -8.425752
    7       -8.351836
    8       -8.351836
    9        2.759820
   10        2.759820
   11        3.542535
   12        3.542535
 
  0.0000000E+00  0.1388889E+00  0.0000000E+00  0.2314815E-02
    1      -21.768440
    2      -16.917102
    3      -15.574671
    4      -10.230396
    5       -9.842064
    6       -7.006825
    7       -6.616315
    8       -4.878930
    9       -1.275133
   10        1.008366
   11        1.811625
   12        2.209350
 
  0.4166667E-01  0.1388889E+00  0.0000000E+00  0.4629630E-02
    1      -21.758631
    2      -17.039566
    3      -15.438511
    4      -10.220272
    5       -9.830472
    6       -7.053067
    7       -6.620843
    8       -4.942612
    9       -1.198557
   10        1.021677
   11        1.825116
   12        2.223033
 
  0.8333333E-01  0.1388889E+00  0.0000000E+00  0.4629630E-02
    1      -21.729211
    2      -17.318681
    3      -15.118434
    4      -10.189915
    5       -9.795712
    6       -7.177680
    7       -6.647488
    8       -5.118793
    9       -0.983862
   10        1.061620
   11        1.865586
   12        2.264083
 
  0.1250000E+00  0.1388889E+00  0.0000000E+00  0.4629630E-02
    1      -21.680203
    2      -17.652367
    3      -14.716911
    4      -10.139368
    5       -9.737844
    6       -7.358179
    7       -6.715471
    8       -5.374827
    9       -0.664193
   10        1.128219
   11        1.933020
   12        2.332505
 
  0.1666667E+00  0.1388889E+00  0.0000000E+00  0.4629630E-02
    1      -21.611647
    2      -17.999033
    3      -14.276202
    4      -10.068701
    5       -9.656966
    6       -7.579767
    7       -6.833934
    8       -5.678988
    9       -0.272108
   10        1.221509
   11        2.027398
   12        2.428307
 
  0.2083333E+00  0.1388889E+00  0.0000000E+00  0.4629630E-02
    1      -21.523595
    2      -18.343118
    3      -13.812848
    4       -9.978006
    5       -9.553219
    6       -7.834194
    7       -7.003057
    8       -6.008098
    9        0.168062
   10        1.341514
   11        2.148686
   12        2.551495
 
  0.2500000E+00  0.1388889E+00  0.0000000E+00  0.4629630E-02
    1      -21.416118
    2      -18.677876
    3      -13.334917
    4       -9.867393
    5       -9.426794
    6       -8.117373
    7       -7.216782
    8       -6.346911
    9        0.639611
   10        1.488247
   11        2.296835
   12        2.702075
 
  0.2916667E+00  0.1388889E+00  0.0000000E+00  0.4629630E-02
    1      -21.289307
    2      -18.999899
    3      -12.847541
    4       -9.736977
    5       -9.277936
    6       -8.428190
    7       -7.464675
    8       -6.685607
    9        1.130961
   10        1.661693
   11        2.471777
   12        2.880048
 
  0.3333333E+00  0.1388889E+00  0.0000000E+00  0.4629630E-02
    1      -21.143273
    2      -19.307238
    3      -12.354866
    4       -9.586872
    5       -9.106954
    6       -8.767531
    7       -7.733749
    8       -7.017753
    9        1.633639
   10        1.861816
   11        2.673405
   12        3.085410
 
  0.3750000E+00  0.1388889E+00  0.0000000E+00  0.4629630E-02
    1      -20.978150
    2      -19.598659
    3      -11.860882
    4       -9.417178
    5       -9.136845
    6       -8.914234
    7       -8.010670
    8       -7.339007
    9        2.088556
   10        2.140982
   11        2.901534
   12        3.318154
 
  0.4166667E+00  0.1388889E+00  0.0000000E+00  0.4629630E-02
    1      -20.794103
    2      -19.873322
    3      -11.369835
    4       -9.536414
    5       -9.227986
    6       -8.700256
    7       -8.284060
    8       -7.646340
    9        2.341836
   10        2.647270
   11        3.155726
   12        3.578272
 
  0.4583333E+00  0.1388889E+00  0.0000000E+00  0.4629630E-02
    1      -20.591330
    2      -20.130613
    3      -10.886459
    4       -9.964215
    5       -9.019422
    6       -8.545953
    7       -8.465618
    8       -7.937568
    9        2.621561
   10        3.146595
   11        3.259866
   12        3.433993
 
  0.5000000E+00  0.1388889E+00  0.0000000E+00  0.2314815E-02
    1      -20.370069
    2      -20.370069
    3      -10.416038
    4      -10.416038
    5       -8.791792
    6       -8.791792
    7       -8.211071
    8       -8.211071
    9        2.927618
   10        2.927618
   11        3.610102
   12        3.610102
 
  0.0000000E+00  0.1666667E+00  0.0000000E+00  0.2314815E-02
    1      -21.617286
    2      -16.785822
    3      -15.455687
    4      -10.722077
    5       -9.663676
    6       -7.469709
    7       -6.886786
    8       -4.696662
    9       -1.348855
   10        1.214052
   11        2.019085
   12        2.419872
 
  0.4166667E-01  0.1666667E+00  0.0000000E+00  0.4629630E-02
    1      -21.607494
    2      -16.907279
    3      -15.321313
    4      -10.711513
    5       -9.652136
    6       -7.515377
    7       -6.886834
    8       -4.762426
    9       -1.271618
   10        1.227351
   11        2.032559
   12        2.433553
 
  0.8333333E-01  0.1666667E+00  0.0000000E+00  0.4629630E-02
    1      -21.578127
    2      -17.184297
    3      -15.005717
    4      -10.679802
    5       -9.617537
    6       -7.639349
    7       -6.899509
    8       -4.943267
    9       -1.056527
   10        1.267257
   11        2.072974
   12        2.474595
 
  0.1250000E+00  0.1666667E+00  0.0000000E+00  0.4629630E-02
    1      -21.529208
    2      -17.515752
    3      -14.610546
    4      -10.626877
    5       -9.559937
    6       -7.818451
    7       -6.946289
    8       -5.203921
    9       -0.739333
   10        1.333795
   11        2.140318
   12        2.543005
 
  0.1666667E+00  0.1666667E+00  0.0000000E+00  0.4629630E-02
    1      -21.460777
    2      -17.860357
    3      -14.177992
    4      -10.552617
    5       -9.479434
    6       -8.035287
    7       -7.041195
    8       -5.511350
    9       -0.353879
   10        1.427003
   11        2.234568
   12        2.638791
 
  0.2083333E+00  0.1666667E+00  0.0000000E+00  0.4629630E-02
    1      -21.372889
    2      -18.202613
    3      -13.724896
    4      -10.456813
    5       -9.376172
    6       -8.279064
    7       -7.189525
    8       -5.842247
    9        0.075430
   10        1.546915
   11        2.355690
   12        2.761962
 
  0.2500000E+00  0.1666667E+00  0.0000000E+00  0.4629630E-02
    1      -21.265620
    2      -18.535774
    3      -13.259854
    4      -10.339135
    5       -9.250340
    6       -8.543359
    7       -7.389959
    8       -6.181679
    9        0.532300
   10        1.693551
   11        2.503636
   12        2.912526
 
  0.2916667E+00  0.1666667E+00  0.0000000E+00  0.4629630E-02
    1      -21.139063
    2      -18.856411
    3      -12.788759
    4      -10.199076
    5       -9.102184
    6       -8.824873
    7       -7.636152
    8       -6.520186
    9        1.005675
   10        1.866905
   11        2.678346
   12        3.090488
 
  0.3333333E+00  0.1666667E+00  0.0000000E+00  0.4629630E-02
    1      -20.993333
    2      -19.162549
    3      -12.316784
    4      -10.035889
    5       -9.122947
    6       -8.932013
    7       -7.917906
    8       -6.851630
    9        1.487630
   10        2.066943
   11        2.879735
   12        3.295846
 
  0.3750000E+00  0.1666667E+00  0.0000000E+00  0.4629630E-02
    1      -20.828572
    2      -19.452931
    3      -11.849251
    4       -9.848553
    5       -9.439300
    6       -8.740208
    7       -8.222251
    8       -7.171880
    9        1.972095
   10        2.293599
   11        3.107688
   12        3.528591
 
  0.4166667E+00  0.1666667E+00  0.0000000E+00  0.4629630E-02
    1      -20.644951
    2      -19.726693
    3      -11.391981
    4       -9.777442
    5       -9.635834
    6       -8.534748
    7       -8.527244
    8       -7.478049
    9        2.454128
   10        2.546786
   11        3.362016
   12        3.788714
 
  0.4583333E+00  0.1666667E+00  0.0000000E+00  0.4629630E-02
    1      -20.442675
    2      -19.983208
    3      -10.951211
    4      -10.141254
    5       -9.396643
    6       -8.841389
    7       -8.293708
    8       -7.768053
    9        2.826398
   10        2.929469
   11        3.464356
   12        3.641656
 
  0.5000000E+00  0.1666667E+00  0.0000000E+00  0.2314815E-02
    1      -20.221994
    2      -20.221994
    3      -10.532886
    4      -10.532886
    5       -9.130957
    6       -9.130957
    7       -8.040336
    8       -8.040336
    9        3.132306
   10        3.132306
   11        3.394147
   12        3.394147
 