 running on    8 total cores
 distrk:  each k-point on    8 cores,    1 groups
 distr:  one band on    2 cores,    4 groups
 using from now: INCAR     
 vasp.5.3.5 31Mar14 (build Mar 02 2015 18:14:16) complex                        
  
 POSCAR found type information on POSCAR  C 
 POSCAR found :  1 types and       4 ions
 LDA part: xc-table for Pade appr. of Perdew
 POSCAR, INCAR and KPOINTS ok, starting setup
 FFT: planning ...
 WAVECAR not read
 entering main loop
       N       E                     dE             d eps       ncg     rms          rms(c)
DAV:   1     0.187503941413E+03    0.18750E+03   -0.10564E+04  5928   0.274E+03
DAV:   2    -0.911507090083E+01   -0.19662E+03   -0.17414E+03 10356   0.259E+02
DAV:   3    -0.381468592816E+02   -0.29032E+02   -0.28402E+02  7436   0.119E+02    0.712E+00
RMM:   4    -0.376104144895E+02    0.53644E+00   -0.95526E+00  5928   0.263E+01    0.414E+00
RMM:   5    -0.368905884060E+02    0.71983E+00   -0.27180E+00  5929   0.113E+01    0.718E-01
RMM:   6    -0.368920105152E+02   -0.14221E-02   -0.82037E-02  6368   0.202E+00    0.508E-01
RMM:   7    -0.368831872358E+02    0.88233E-02   -0.32944E-02  5937   0.157E+00    0.336E-01
RMM:   8    -0.368779791667E+02    0.52081E-02   -0.66214E-03  5930   0.540E-01    0.140E-01
RMM:   9    -0.368777455681E+02    0.23360E-03   -0.20702E-02  5928   0.854E-01    0.157E-01
RMM:  10    -0.368776007294E+02    0.14484E-03   -0.22770E-03  5928   0.345E-01    0.270E-02
RMM:  11    -0.368799408020E+02   -0.23401E-02   -0.73725E-04  5930   0.181E-01    0.436E-02
RMM:  12    -0.368804286767E+02   -0.48787E-03   -0.20229E-04  5940   0.942E-02    0.583E-03
RMM:  13    -0.368806749804E+02   -0.24630E-03   -0.48123E-05  6019   0.375E-02    0.294E-03
RMM:  14    -0.368807575212E+02   -0.82541E-04   -0.97052E-06  5992   0.143E-02    0.863E-04
RMM:  15    -0.368807707771E+02   -0.13256E-04   -0.19184E-06  5949   0.753E-03    0.217E-03
RMM:  16    -0.368807832296E+02   -0.12452E-04   -0.19317E-06  5928   0.918E-03    0.142E-03
RMM:  17    -0.368807890207E+02   -0.57912E-05   -0.18423E-07  5930   0.264E-03    0.580E-04
RMM:  18    -0.368807900631E+02   -0.10423E-05   -0.40208E-08  5989   0.160E-03    0.945E-05
WARNING in EDDRMM: call to ZHEGV failed, returncode =   6  3  1
RMM:  19    -0.368807908381E+02   -0.77501E-06   -0.10244E-08  5752   0.464E-04    0.137E-05
RMM:  20    -0.368807908859E+02   -0.47764E-07   -0.78104E-10  4482   0.139E-04    0.256E-05
RMM:  21    -0.368807909001E+02   -0.14280E-07   -0.22201E-10  4350   0.884E-05    0.827E-06
RMM:  22    -0.368807909000E+02    0.11812E-09   -0.17909E-11  3892   0.505E-05    0.131E-06
RMM:  23    -0.368807909010E+02   -0.98032E-09   -0.17696E-11  3607   0.397E-05    0.201E-06
RMM:  24    -0.368807909009E+02    0.79808E-10   -0.64484E-12  3111   0.294E-05
   1 F= -.36880791E+02 E0= -.36880791E+02  d E =-.368808E+02
 BRION: g(F)=  0.807E-06 g(S)=  0.000E+00
 bond charge predicted
       N       E                     dE             d eps       ncg     rms          rms(c)
DAV:   1    -0.368807897561E+02    0.11449E-05   -0.10752E-04  6336   0.971E-02    0.197E-03
RMM:   2    -0.368807898179E+02   -0.61872E-07   -0.17223E-06  5955   0.116E-02    0.142E-03
RMM:   3    -0.368807897617E+02    0.56287E-07   -0.29235E-07  5966   0.435E-03    0.379E-04
RMM:   4    -0.368807897579E+02    0.37340E-08   -0.19909E-08  6121   0.112E-03    0.108E-04
RMM:   5    -0.368807897569E+02    0.98839E-09   -0.14092E-09  5633   0.264E-04    0.482E-05
RMM:   6    -0.368807897568E+02    0.11414E-09   -0.19017E-10  3957   0.114E-04    0.513E-06
RMM:   7    -0.368807897569E+02   -0.10527E-09   -0.10325E-11  3753   0.533E-05    0.224E-06
RMM:   8    -0.368807897569E+02    0.20464E-11   -0.12496E-11  3453   0.426E-05
   2 F= -.36880790E+02 E0= -.36880790E+02  d E =0.114399E-05
 BRION: g(F)=  0.116E-04 g(S)=  0.000E+00 retain N=  1 mean eig= 0.21
 eig:   0.209
 bond charge predicted
       N       E                     dE             d eps       ncg     rms          rms(c)
DAV:   1    -0.368807909571E+02   -0.12001E-05   -0.67220E-05  6620   0.769E-02    0.156E-03
RMM:   2    -0.368807910061E+02   -0.48976E-07   -0.10479E-06  5960   0.916E-03    0.112E-03
RMM:   3    -0.368807909848E+02    0.21221E-07   -0.17999E-07  5973   0.341E-03    0.293E-04
WARNING in EDDRMM: call to ZHEGV failed, returncode =   6  3  1
RMM:   4    -0.368807909800E+02    0.48013E-08   -0.11908E-08  6113   0.864E-04    0.853E-05
WARNING in EDDRMM: call to ZHEGV failed, returncode =   6  3  1
RMM:   5    -0.368807909813E+02   -0.12915E-08   -0.83505E-10  5044   0.206E-04    0.375E-05
RMM:   6    -0.368807909809E+02    0.38335E-09   -0.11038E-10  3816   0.913E-05    0.431E-06
RMM:   7    -0.368807909807E+02    0.21441E-09   -0.13844E-11  3732   0.513E-05    0.236E-06
RMM:   8    -0.368807909811E+02   -0.41996E-09   -0.16169E-11  3326   0.403E-05    0.156E-06
RMM:   9    -0.368807909808E+02    0.35129E-09   -0.59585E-12  2991   0.300E-05    0.165E-06
RMM:  10    -0.368807909810E+02   -0.22396E-09   -0.35313E-12  2717   0.265E-05    0.678E-07
RMM:  11    -0.368807909807E+02    0.26489E-09   -0.16834E-12  2597   0.249E-05    0.178E-07
RMM:  12    -0.368807909808E+02   -0.41609E-10   -0.25196E-12  2396   0.231E-05
   3 F= -.36880791E+02 E0= -.36880791E+02  d E =-.122387E-05
 BRION: g(F)=  0.437E-12 g(S)=  0.000E+00 retain N=  1 mean eig= 0.21
 eig:   0.209
 bond charge predicted
       N       E                     dE             d eps       ncg     rms          rms(c)
DAV:   1    -0.368807909805E+02    0.26716E-09    0.54253E-09  4692   0.249E-05    0.541E-07
RMM:   2    -0.368807909808E+02   -0.32048E-09   -0.65886E-13  1450   0.971E-06    0.338E-07
RMM:   3    -0.368807909808E+02    0.23078E-10   -0.80051E-13  1404   0.981E-06    0.321E-08
RMM:   4    -0.368807909810E+02   -0.20714E-09   -0.47242E-13  1380   0.961E-06    0.116E-08
RMM:   5    -0.368807909812E+02   -0.23601E-09    0.23882E-13  1367   0.954E-06    0.852E-09
RMM:   6    -0.368807909808E+02    0.46953E-09   -0.42723E-14  1352   0.954E-06    0.475E-09
RMM:   7    -0.368807909809E+02   -0.13006E-09   -0.57855E-14  1328   0.942E-06    0.342E-09
RMM:   8    -0.368807909808E+02    0.44793E-10    0.16053E-13  1179   0.935E-06
   4 F= -.36880791E+02 E0= -.36880791E+02  d E =-.475211E-10
 BRION: g(F)=  0.843E-12 g(S)=  0.000E+00 retain N=  1 mean eig= 0.09
 eig:   0.087
 bond charge predicted
       N       E                     dE             d eps       ncg     rms          rms(c)
DAV:   1    -0.368807909802E+02    0.67803E-09    0.54319E-09  4648   0.115E-05    0.145E-07
RMM:   2    -0.368807909807E+02   -0.53717E-09   -0.11226E-14  1020   0.467E-06    0.903E-08
RMM:   3    -0.368807909810E+02   -0.30548E-09   -0.15897E-13  1113   0.465E-06    0.680E-09
RMM:   4    -0.368807909811E+02   -0.43656E-10    0.67847E-15  1104   0.465E-06    0.254E-09
RMM:   5    -0.368807909809E+02    0.15700E-09    0.37748E-14  1093   0.463E-06    0.137E-09
RMM:   6    -0.368807909809E+02   -0.14438E-10   -0.70396E-14  1087   0.462E-06
   5 F= -.36880791E+02 E0= -.36880791E+02  d E =-.110504E-09
 BRION: g(F)=  0.314E-14 g(S)=  0.000E+00 retain N=  1 mean eig= 0.08
 eig:   0.082
 reached required accuracy - stopping structural energy minimisation
