gr                                      
           1
     4.360224    0.000000    0.000000
     0.000000    2.458838    0.000000
     0.000000    0.000000   19.665724
   C 
   4
Direct configuration=     1
   0.99954297  0.00000000  0.00000000
   0.16712369  0.50000000  0.00000000
   0.49954297  0.50000000  0.00000000
   0.66712369  0.00000000  0.00000000
Direct configuration=     2
   0.99952035 -0.00000000 -0.00000000
   0.16714631  0.50000000  0.00000000
   0.49952035  0.50000000 -0.00000000
   0.66714631 -0.00000000  0.00000000
Direct configuration=     3
   0.99953825 -0.00000000 -0.00000000
   0.16712842  0.50000000  0.00000000
   0.49953825  0.50000000 -0.00000000
   0.66712842 -0.00000000  0.00000000
Direct configuration=     4
   0.99953825 -0.00000000 -0.00000000
   0.16712841  0.50000000  0.00000000
   0.49953825  0.50000000 -0.00000000
   0.66712841  0.00000000  0.00000000
Direct configuration=     5
   0.99953825 -0.00000000 -0.00000000
   0.16712842  0.50000000  0.00000000
   0.49953825  0.50000000 -0.00000000
   0.66712842  0.00000000  0.00000000
