    4    4  400    1
  0.5270948E+02  0.4273856E-09  0.2466929E-09  0.1999734E-08  0.5000000E-15
  1.000000000000000E-004
  CAR 
 gr                                      
     16    247     12
 
  0.0000000E+00  0.0000000E+00  0.0000000E+00  0.1157407E-02
    1      -22.253278
    2      -17.022572
    3      -15.972666
    4      -10.358651
    5       -9.155576
    6       -5.787100
    7       -5.784930
    8       -5.112294
    9       -1.075567
   10        0.523917
   11        1.324991
   12        1.707959
 
  0.4166667E-01  0.0000000E+00  0.0000000E+00  0.2314815E-02
    1      -22.243032
    2      -17.187253
    3      -15.792723
    4      -10.346410
    5       -9.145393
    6       -5.829870
    7       -5.807490
    8       -5.178750
    9       -0.993125
   10        0.537815
   11        1.339072
   12        1.722211
 
  0.8333333E-01  0.0000000E+00  0.0000000E+00  0.2314815E-02
    1      -22.212298
    2      -17.523886
    3      -15.410383
    4      -10.309706
    5       -9.114896
    6       -5.956415
    7       -5.873926
    8       -5.363165
    9       -0.760920
   10        0.579510
   11        1.381313
   12        1.764965
 
  0.1250000E+00  0.0000000E+00  0.0000000E+00  0.2314815E-02
    1      -22.161097
    2      -17.900038
    3      -14.958341
    4      -10.248596
    5       -9.064237
    6       -6.161741
    7       -5.980702
    8       -5.632269
    9       -0.412740
   10        0.649009
   11        1.451700
   12        1.836224
 
  0.1666667E+00  0.0000000E+00  0.0000000E+00  0.2314815E-02
    1      -22.089461
    2      -18.278935
    3      -14.473815
    4      -10.163177
    5       -8.993680
    6       -6.438398
    7       -6.122556
    8       -5.953067
    9        0.017551
   10        0.746316
   11        1.550212
   12        1.935990
 
  0.2083333E+00  0.0000000E+00  0.0000000E+00  0.2314815E-02
    1      -21.997441
    2      -18.649196
    3      -13.968821
    4      -10.053591
    5       -8.903602
    6       -6.777488
    7       -6.300994
    8       -6.293212
    9        0.504137
   10        0.871432
   11        1.676814
   12        2.064261
 
  0.2500000E+00  0.0000000E+00  0.0000000E+00  0.2314815E-02
    1      -21.885099
    2      -19.006240
    3      -13.448784
    4       -9.920027
    5       -8.794510
    6       -7.169598
    7       -6.659672
    8       -6.486052
    9        1.024345
   10        1.028969
   11        1.831456
   12        2.221039
 
  0.2916667E+00  0.0000000E+00  0.0000000E+00  0.2314815E-02
    1      -21.752514
    2      -19.347800
    3      -12.917045
    4       -9.762729
    5       -8.667057
    6       -7.605519
    7       -7.018472
    8       -6.694642
    9        1.205030
   10        1.579244
   11        2.014059
   12        2.406320
 
  0.3333333E+00  0.0000000E+00  0.0000000E+00  0.2314815E-02
    1      -21.599786
    2      -19.672571
    3      -12.376251
    4       -9.582009
    5       -8.522060
    6       -8.076701
    7       -7.370416
    8       -6.913059
    9        1.413452
   10        2.145059
   11        2.224499
   12        2.620100
 
  0.3750000E+00  0.0000000E+00  0.0000000E+00  0.2314815E-02
    1      -21.427027
    2      -19.979708
    3      -11.828883
    4       -9.378257
    5       -8.575475
    6       -8.360531
    7       -7.710806
    8       -7.136059
    9        1.649557
   10        2.462557
   11        2.717069
   12        2.862370
 
  0.4166667E+00  0.0000000E+00  0.0000000E+00  0.2314815E-02
    1      -21.234374
    2      -20.268618
    3      -11.277520
    4       -9.151959
    5       -9.095115
    6       -8.183714
    7       -8.036378
    8       -7.359108
    9        1.913275
   10        2.727785
   11        3.133115
   12        3.241478
 
  0.4583333E+00  0.0000000E+00  0.0000000E+00  0.2314815E-02
    1      -21.021991
    2      -20.538856
    3      -10.724998
    4       -9.629799
    5       -8.903730
    6       -8.344797
    7       -7.993123
    8       -7.578363
    9        2.204507
   10        2.868893
   11        3.019016
   12        3.432311
 
  0.5000000E+00  0.0000000E+00  0.0000000E+00  0.1157407E-02
    1      -20.790075
    2      -20.790075
    3      -10.174525
    4      -10.174525
    5       -8.634345
    6       -8.634345
    7       -7.790596
    8       -7.790596
    9        2.523116
   10        2.523116
   11        3.331562
   12        3.331562
 
  0.0000000E+00  0.2777778E-01  0.0000000E+00  0.2314815E-02
    1      -22.239610
    2      -17.010845
    3      -15.961073
    4      -10.342322
    5       -9.217182
    6       -5.841763
    7       -5.817257
    8       -5.095661
    9       -1.079495
   10        0.542457
   11        1.343775
   12        1.726970
 
  0.4166667E-01  0.2777778E-01  0.0000000E+00  0.4629630E-02
    1      -22.229364
    2      -17.175356
    3      -15.781350
    4      -10.330085
    5       -9.206982
    6       -5.885021
    7       -5.838657
    8       -5.162262
    9       -0.997025
   10        0.556355
   11        1.357856
   12        1.741222
 
  0.8333333E-01  0.2777778E-01  0.0000000E+00  0.4629630E-02
    1      -22.198635
    2      -17.511728
    3      -15.399426
    4      -10.293394
    5       -9.176433
    6       -6.009243
    7       -5.905513
    8       -5.347011
    9       -0.764843
   10        0.598052
   11        1.400093
   12        1.783977
 
  0.1250000E+00  0.2777778E-01  0.0000000E+00  0.4629630E-02
    1      -22.147441
    2      -17.887653
    3      -14.947878
    4      -10.232305
    5       -9.125685
    6       -6.209614
    7       -6.014430
    8       -5.616457
    9       -0.416916
   10        0.667554
   11        1.470476
   12        1.855237
 
  0.1666667E+00  0.2777778E-01  0.0000000E+00  0.4629630E-02
    1      -22.075816
    2      -18.266355
    3      -14.463930
    4      -10.146915
    5       -9.054994
    6       -6.479940
    7       -6.159284
    8       -5.937508
    9        0.012792
   10        0.764868
   11        1.568982
   12        1.955003
 
  0.2083333E+00  0.2777778E-01  0.0000000E+00  0.4629630E-02
    1      -21.983810
    2      -18.636451
    3      -13.959618
    4      -10.037367
    5       -8.964728
    6       -6.812212
    7       -6.333272
    8       -6.285582
    9        0.498448
   10        0.889992
   11        1.695577
   12        2.083276
 
  0.2500000E+00  0.2777778E-01  0.0000000E+00  0.4629630E-02
    1      -21.871485
    2      -18.993354
    3      -13.440389
    4       -9.903849
    5       -8.855383
    6       -7.197627
    7       -6.644318
    8       -6.529437
    9        1.022028
   10        1.042915
   11        1.850211
   12        2.240056
 
  0.2916667E+00  0.2777778E-01  0.0000000E+00  0.4629630E-02
    1      -21.738923
    2      -19.334792
    3      -12.909613
    4       -9.746606
    5       -8.727595
    6       -7.627349
    7       -7.003114
    8       -6.741137
    9        1.223612
   10        1.570772
   11        2.032807
   12        2.425341
 
  0.3333333E+00  0.2777778E-01  0.0000000E+00  0.4629630E-02
    1      -21.586221
    2      -19.659458
    3      -12.369969
    4       -9.565949
    5       -8.582162
    6       -8.093011
    7       -7.355013
    8       -6.962338
    9        1.432048
   10        2.134859
   11        2.243241
   12        2.639124
 
  0.3750000E+00  0.2777778E-01  0.0000000E+00  0.4629630E-02
    1      -21.413493
    2      -19.966506
    3      -11.823980
    4       -9.362266
    5       -8.586997
    6       -8.420075
    7       -7.695332
    8       -7.187748
    9        1.668168
   10        2.481298
   11        2.705165
   12        2.881399
 
  0.4166667E+00  0.2777778E-01  0.0000000E+00  0.4629630E-02
    1      -21.220877
    2      -20.255339
    3      -11.274274
    4       -9.136047
    5       -9.102560
    6       -8.242546
    7       -8.020821
    8       -7.412838
    9        1.931903
   10        2.746537
   11        3.152152
   12        3.260316
 
  0.4583333E+00  0.2777778E-01  0.0000000E+00  0.4629630E-02
    1      -21.008537
    2      -20.525509
    3      -10.723742
    4       -9.633810
    5       -8.887902
    6       -8.329149
    7       -8.051056
    8       -7.633788
    9        2.223157
   10        2.887624
   11        3.037798
   12        3.451359
 
  0.5000000E+00  0.2777778E-01  0.0000000E+00  0.2314815E-02
    1      -20.776670
    2      -20.776670
    3      -10.175663
    4      -10.175663
    5       -8.618606
    6       -8.618606
    7       -7.847408
    8       -7.847408
    9        2.541797
   10        2.541797
   11        3.350320
   12        3.350320
 
  0.0000000E+00  0.5555556E-01  0.0000000E+00  0.2314815E-02
    1      -22.198615
    2      -16.975667
    3      -15.926443
    4      -10.293369
    5       -9.397070
    6       -6.007740
    7       -5.907000
    8       -5.045780
    9       -1.092110
   10        0.598081
   11        1.400120
   12        1.784004
 
  0.4166667E-01  0.5555556E-01  0.0000000E+00  0.4629630E-02
    1      -22.188374
    2      -17.139678
    3      -15.747377
    4      -10.281145
    5       -9.386815
    6       -6.050852
    7       -5.926570
    8       -5.112832
    9       -1.009552
   10        0.611980
   11        1.414198
   12        1.798256
 
  0.8333333E-01  0.5555556E-01  0.0000000E+00  0.4629630E-02
    1      -22.157657
    2      -17.475277
    3      -15.366707
    4      -10.244492
    5       -9.356096
    6       -6.172041
    7       -5.990876
    8       -5.298608
    9       -0.777430
   10        0.653681
   11        1.456428
   12        1.841011
 
  0.1250000E+00  0.5555556E-01  0.0000000E+00  0.4629630E-02
    1      -22.106485
    2      -17.850518
    3      -14.916660
    4      -10.183466
    5       -9.305052
    6       -6.361849
    7       -6.102056
    8       -5.569104
    9       -0.430269
   10        0.723191
   11        1.526797
   12        1.912273
 
  0.1666667E+00  0.5555556E-01  0.0000000E+00  0.4629630E-02
    1      -22.034894
    2      -18.228638
    3      -14.434480
    4      -10.098166
    5       -9.233918
    6       -6.614943
    7       -6.254268
    8       -5.890926
    9       -0.002342
   10        0.820518
   11        1.625285
   12        2.012042
 
  0.2083333E+00  0.5555556E-01  0.0000000E+00  0.4629630E-02
    1      -21.942930
    2      -18.598237
    3      -13.932260
    4       -9.988733
    5       -9.143034
    6       -6.926423
    7       -6.438672
    8       -6.239443
    9        0.480471
   10        0.945661
   11        1.751857
   12        2.140320
 
  0.2500000E+00  0.5555556E-01  0.0000000E+00  0.4629630E-02
    1      -21.830659
    2      -18.954714
    3      -13.415524
    4       -9.855355
    5       -9.032854
    6       -7.290356
    7       -6.646251
    8       -6.598354
    9        1.000223
   10        1.098609
   11        1.906466
   12        2.297106
 
  0.2916667E+00  0.5555556E-01  0.0000000E+00  0.4629630E-02
    1      -21.698163
    2      -19.295787
    3      -12.887729
    4       -9.698278
    5       -8.903963
    6       -7.699793
    7       -6.957134
    8       -6.868971
    9        1.279337
   10        1.544285
   11        2.089036
   12        2.482398
 
  0.3333333E+00  0.5555556E-01  0.0000000E+00  0.4629630E-02
    1      -21.545539
    2      -19.620139
    3      -12.351661
    4       -9.517812
    5       -8.757094
    6       -8.147322
    7       -7.308891
    8       -7.100072
    9        1.487806
   10        2.103059
   11        2.299450
   12        2.696192
 
  0.3750000E+00  0.5555556E-01  0.0000000E+00  0.4629630E-02
    1      -21.372905
    2      -19.926915
    3      -11.809979
    4       -9.314345
    5       -8.625638
    6       -8.593155
    7       -7.648993
    8       -7.333995
    9        1.723965
   10        2.537503
   11        2.667998
   12        2.938480
 
  0.4166667E+00  0.5555556E-01  0.0000000E+00  0.4629630E-02
    1      -21.180399
    2      -20.215515
    3      -11.265471
    4       -9.127938
    5       -9.088362
    6       -8.413257
    7       -7.974222
    8       -7.566200
    9        1.987743
   10        2.802774
   11        3.209251
   12        3.226820
 
  0.4583333E+00  0.5555556E-01  0.0000000E+00  0.4629630E-02
    1      -20.968186
    2      -20.485483
    3      -10.721227
    4       -9.648103
    5       -8.840474
    6       -8.282273
    7       -8.218763
    8       -7.792986
    9        2.279049
   10        2.943702
   11        3.094133
   12        3.508486
 
  0.5000000E+00  0.5555556E-01  0.0000000E+00  0.2314815E-02
    1      -20.736469
    2      -20.736469
    3      -10.180757
    4      -10.180757
    5       -8.571450
    6       -8.571450
    7       -8.011331
    8       -8.011331
    9        2.597761
   10        2.597761
   11        3.406570
   12        3.406570
 
  0.0000000E+00  0.8333333E-01  0.0000000E+00  0.2314815E-02
    1      -22.130328
    2      -16.917051
    3      -15.869261
    4      -10.211894
    5       -9.681815
    6       -6.270649
    7       -6.054182
    8       -4.962715
    9       -1.115909
   10        0.690801
   11        1.494005
   12        1.879063
 
  0.4166667E-01  0.8333333E-01  0.0000000E+00  0.4629630E-02
    1      -22.120095
    2      -17.080265
    3      -15.691270
    4      -10.199691
    5       -9.671450
    6       -6.314721
    7       -6.069650
    8       -5.030562
    9       -1.033179
   10        0.704700
   11        1.508078
   12        1.893315
 
  0.8333333E-01  0.8333333E-01  0.0000000E+00  0.4629630E-02
    1      -22.089400
    2      -17.414600
    3      -15.312706
    4      -10.163103
    5       -9.640394
    6       -6.436425
    7       -6.124522
    8       -5.218144
    9       -0.801123
   10        0.746401
   11        1.550292
   12        1.936071
 
  0.1250000E+00  0.8333333E-01  0.0000000E+00  0.4629630E-02
    1      -22.038267
    2      -17.788706
    3      -14.865237
    4      -10.102187
    5       -9.588762
    6       -6.620202
    7       -6.228382
    8       -5.490469
    9       -0.455261
   10        0.815915
   11        1.620637
   12        2.007334
 
  0.1666667E+00  0.8333333E-01  0.0000000E+00  0.4629630E-02
    1      -21.966729
    2      -18.165852
    3      -14.386128
    4      -10.017040
    5       -9.516749
    6       -6.856741
    7       -6.381116
    8       -5.813618
    9       -0.030398
   10        0.913252
   11        1.719090
   12        2.107106
 
  0.2083333E+00  0.8333333E-01  0.0000000E+00  0.4629630E-02
    1      -21.874836
    2      -18.534618
    3      -13.887578
    4       -9.907804
    5       -9.424635
    6       -7.141337
    7       -6.575397
    8       -6.162886
    9        0.447515
   10        1.038414
   11        1.845620
   12        2.235388
 
  0.2500000E+00  0.8333333E-01  0.0000000E+00  0.4629630E-02
    1      -21.762656
    2      -18.890380
    3      -13.375248
    4       -9.774668
    5       -9.312795
    6       -7.471487
    7       -6.800111
    8       -6.522082
    9        0.960664
   10        1.191388
   11        2.000180
   12        2.392182
 
  0.2916667E+00  0.8333333E-01  0.0000000E+00  0.4629630E-02
    1      -21.630270
    2      -19.230839
    3      -12.852766
    4       -9.617876
    5       -9.181703
    6       -7.844895
    7       -7.043431
    8       -6.880817
    9        1.372149
   10        1.496639
   11        2.182700
   12        2.577484
 
  0.3333333E+00  0.8333333E-01  0.0000000E+00  0.4629630E-02
    1      -21.477778
    2      -19.554662
    3      -12.323136
    4       -9.437738
    5       -9.031951
    6       -8.258030
    7       -7.295143
    8       -7.232318
    9        1.580658
   10        2.046168
   11        2.393073
   12        2.791291
 
  0.3750000E+00  0.8333333E-01  0.0000000E+00  0.4629630E-02
    1      -21.305300
    2      -19.860983
    3      -11.789287
    4       -9.234640
    5       -8.864264
    6       -8.705798
    7       -7.572035
    8       -7.547590
    9        1.816859
   10        2.601431
   11        2.631112
   12        3.033595
 
  0.4166667E+00  0.8333333E-01  0.0000000E+00  0.4629630E-02
    1      -21.112977
    2      -20.149190
    3      -11.254348
    4       -9.182128
    5       -9.009067
    6       -8.679523
    7       -7.896809
    8       -7.795424
    9        2.080683
   10        2.896436
   11        3.153452
   12        3.304388
 
  0.4583333E+00  0.8333333E-01  0.0000000E+00  0.4629630E-02
    1      -20.900980
    2      -20.418820
    3      -10.721829
    4       -9.680750
    5       -8.761622
    6       -8.478799
    7       -8.204377
    8       -8.034922
    9        2.372042
   10        3.036869
   11        3.187979
   12        3.603671
 
  0.5000000E+00  0.8333333E-01  0.0000000E+00  0.2314815E-02
    1      -20.669514
    2      -20.669514
    3      -10.195751
    4      -10.195751
    5       -8.493068
    6       -8.493068
    7       -8.263394
    8       -8.263394
    9        2.690822
   10        2.690822
   11        3.500216
   12        3.500216
 
  0.0000000E+00  0.1111111E+00  0.0000000E+00  0.2314815E-02
    1      -22.034812
    2      -16.835015
    3      -15.790439
    4      -10.098068
    5      -10.052697
    6       -6.613793
    7       -6.255358
    8       -4.846566
    9       -1.155019
   10        0.820631
   11        1.625392
   12        2.012151
 
  0.4166667E-01  0.1111111E+00  0.0000000E+00  0.4629630E-02
    1      -22.024589
    2      -16.997194
    3      -15.613909
    4      -10.085898
    5      -10.042138
    6       -6.659377
    7       -6.265217
    8       -4.915635
    9       -1.071979
   10        0.834527
   11        1.639457
   12        2.026402
 
  0.8333333E-01  0.1111111E+00  0.0000000E+00  0.4629630E-02
    1      -21.993927
    2      -17.329818
    3      -15.238348
    4      -10.049406
    5      -10.010485
    6       -6.783907
    7       -6.305561
    8       -5.105962
    9       -0.839920
   10        0.876220
   11        1.681647
   12        2.069158
 
  0.1250000E+00  0.1111111E+00  0.0000000E+00  0.4629630E-02
    1      -21.942846
    2      -17.702344
    3      -14.794676
    4       -9.988649
    5       -9.957812
    6       -6.967252
    7       -6.392148
    8       -5.381024
    9       -0.495897
   10        0.945724
   11        1.751950
   12        2.140420
 
  0.1666667E+00  0.1111111E+00  0.0000000E+00  0.4629630E-02
    1      -21.871384
    2      -18.078118
    3      -14.320182
    4       -9.903726
    5       -9.884238
    6       -7.195574
    7       -6.531562
    8       -5.706121
    9       -0.075501
   10        1.043054
   11        1.850347
   12        2.240192
 
  0.2083333E+00  0.1111111E+00  0.0000000E+00  0.4629630E-02
    1      -21.779592
    2      -18.445703
    3      -13.827228
    4       -9.794778
    5       -9.789932
    6       -7.461048
    7       -6.721796
    8       -6.056462
    9        0.395240
   10        1.168216
   11        1.976805
   12        2.368477
 
  0.2500000E+00  0.1111111E+00  0.0000000E+00  0.4629630E-02
    1      -21.667539
    2      -18.800452
    3      -13.321711
    4       -9.675108
    5       -9.661994
    6       -7.760000
    7       -6.954737
    8       -6.416039
    9        0.898731
   10        1.321201
   11        2.131282
   12        2.525276
 
  0.2916667E+00  0.1111111E+00  0.0000000E+00  0.4629630E-02
    1      -21.535308
    2      -19.140040
    3      -12.807573
    4       -9.540022
    5       -9.505620
    6       -8.091738
    7       -7.218210
    8       -6.774674
    9        1.422871
   10        1.501982
   11        2.313712
   12        2.710588
 
  0.3333333E+00  0.1111111E+00  0.0000000E+00  0.4629630E-02
    1      -21.383000
    2      -19.463114
    3      -12.288223
    4       -9.384969
    5       -9.325964
    6       -8.457153
    7       -7.498260
    8       -7.125766
    9        1.710517
   10        1.958789
   11        2.524001
   12        2.924406
 
  0.3750000E+00  0.1111111E+00  0.0000000E+00  0.4629630E-02
    1      -21.210741
    2      -19.768790
    3      -11.767115
    4       -9.210279
    5       -9.123410
    6       -8.856780
    7       -7.781845
    8       -7.464892
    9        1.946747
   10        2.499364
   11        2.761994
   12        3.166726
 
  0.4166667E+00  0.1111111E+00  0.0000000E+00  0.4629630E-02
    1      -21.018677
    2      -20.056441
    3      -11.248057
    4       -9.289088
    5       -9.016312
    6       -8.898440
    7       -8.059031
    8       -7.788980
    9        2.210599
   10        3.027379
   11        3.037923
   12        3.437539
 
  0.4583333E+00  0.1111111E+00  0.0000000E+00  0.4629630E-02
    1      -20.806986
    2      -20.325592
    3      -10.735408
    4       -9.750085
    5       -8.803479
    6       -8.651650
    7       -8.323615
    8       -8.095824
    9        2.501983
   10        3.166875
   11        3.319237
   12        3.561394
 
  0.5000000E+00  0.1111111E+00  0.0000000E+00  0.2314815E-02
    1      -20.575874
    2      -20.575874
    3      -10.234194
    4      -10.234194
    5       -8.572302
    6       -8.572302
    7       -8.383793
    8       -8.383793
    9        2.820789
   10        2.820789
   11        3.630856
   12        3.630856
 
  0.0000000E+00  0.1388889E+00  0.0000000E+00  0.2314815E-02
    1      -21.912154
    2      -16.729589
    3      -15.691529
    4      -10.489025
    5       -9.952143
    6       -7.019364
    7       -6.505991
    8       -4.697482
    9       -1.215079
   10        0.987581
   11        1.794224
   12        2.183271
 
  0.4166667E-01  0.1388889E+00  0.0000000E+00  0.4629630E-02
    1      -21.901944
    2      -16.890588
    3      -15.516802
    4      -10.478135
    5       -9.940015
    6       -7.066845
    7       -6.509152
    8       -4.768338
    9       -1.131489
   10        1.001468
   11        1.808276
   12        2.197522
 
  0.8333333E-01  0.1388889E+00  0.0000000E+00  0.4629630E-02
    1      -21.871323
    2      -17.221121
    3      -15.145238
    4      -10.445462
    5       -9.903653
    6       -7.195567
    7       -6.531502
    8       -4.962618
    9       -0.899185
   10        1.043139
   11        1.850427
   12        2.240273
 
  0.1250000E+00  0.1388889E+00  0.0000000E+00  0.4629630E-02
    1      -21.820311
    2      -17.591630
    3      -14.706871
    4      -10.390998
    5       -9.843113
    6       -7.381863
    7       -6.593994
    8       -5.241529
    9       -0.557493
   10        1.112611
   11        1.920666
   12        2.311531
 
  0.1666667E+00  0.1388889E+00  0.0000000E+00  0.4629630E-02
    1      -21.748949
    2      -17.965623
    3      -14.239006
    4      -10.314719
    5       -9.758495
    6       -7.608504
    7       -6.708947
    8       -5.569288
    9       -0.143078
   10        1.209905
   11        2.018970
   12        2.411299
 
  0.2083333E+00  0.1388889E+00  0.0000000E+00  0.4629630E-02
    1      -21.657288
    2      -18.331665
    3      -13.754282
    4      -10.216568
    5       -9.649940
    6       -7.864965
    7       -6.879579
    8       -5.921041
    9        0.317996
   10        1.335035
   11        2.145310
   12        2.539582
 
  0.2500000E+00  0.1388889E+00  0.0000000E+00  0.4629630E-02
    1      -21.545397
    2      -18.685086
    3      -13.259016
    4      -10.096433
    5       -9.517638
    6       -8.145163
    7       -7.102432
    8       -6.281062
    9        0.808489
   10        1.487998
   11        2.299642
   12        2.696382
 
  0.2916667E+00  0.1388889E+00  0.0000000E+00  0.4629630E-02
    1      -21.413365
    2      -19.023532
    3      -12.757737
    4       -9.954106
    5       -9.361835
    6       -8.446343
    7       -7.369048
    8       -6.639486
    9        1.316744
   10        1.668769
   11        2.481907
   12        2.881697
 
  0.3333333E+00  0.1388889E+00  0.0000000E+00  0.4629630E-02
    1      -21.261298
    2      -19.345625
    3      -12.254650
    4       -9.789235
    5       -9.182839
    6       -8.768647
    7       -7.667240
    8       -6.989957
    9        1.834373
   10        1.877301
   11        2.692025
   12        3.095525
 
  0.3750000E+00  0.1388889E+00  0.0000000E+00  0.4629630E-02
    1      -21.089324
    2      -19.650456
    3      -11.754262
    4       -9.601274
    5       -9.114605
    6       -8.981033
    7       -7.982412
    8       -7.328225
    9        2.113529
   10        2.354881
   11        2.929879
   12        3.337857
 
  0.4166667E+00  0.1388889E+00  0.0000000E+00  0.4629630E-02
    1      -20.897597
    2      -19.937381
    3      -11.261715
    4       -9.487898
    5       -9.389462
    6       -8.756892
    7       -8.299462
    8       -7.651335
    9        2.377374
   10        2.872843
   11        3.195264
   12        3.608686
 
  0.4583333E+00  0.1388889E+00  0.0000000E+00  0.4629630E-02
    1      -20.686301
    2      -20.205908
    3      -10.782887
    4       -9.891188
    5       -9.152943
    6       -8.605338
    7       -8.511008
    8       -7.957160
    9        2.668740
   10        3.333546
   11        3.383024
   12        3.487607
 
  0.5000000E+00  0.1388889E+00  0.0000000E+00  0.2314815E-02
    1      -20.455651
    2      -20.455651
    3      -10.324102
    4      -10.324102
    5       -8.891235
    6       -8.891235
    7       -8.244118
    8       -8.244118
    9        2.987511
   10        2.987511
   11        3.791663
   12        3.791663
 
  0.0000000E+00  0.1666667E+00  0.0000000E+00  0.2314815E-02
    1      -21.762472
    2      -16.600813
    3      -15.575139
    4      -10.970259
    5       -9.774449
    6       -7.470791
    7       -6.800705
    8       -4.515656
    9       -1.302954
   10        1.191640
   11        2.000422
   12        2.392427
 
  0.4166667E-01  0.1666667E+00  0.0000000E+00  0.4629630E-02
    1      -21.752280
    2      -16.760635
    3      -15.402514
    4      -10.958798
    5       -9.762378
    6       -7.520467
    7       -6.796432
    8       -4.589103
    9       -1.218362
   10        1.205515
   11        2.014453
   12        2.406675
 
  0.8333333E-01  0.1666667E+00  0.0000000E+00  0.4629630E-02
    1      -21.721709
    2      -17.088799
    3      -15.036163
    4      -10.924360
    5       -9.726187
    6       -7.654286
    7       -6.798513
    8       -4.788989
    9       -0.985215
   10        1.247148
   11        2.056542
   12        2.449421
 
  0.1250000E+00  0.1666667E+00  0.0000000E+00  0.4629630E-02
    1      -21.670783
    2      -17.456863
    3      -14.605192
    4      -10.866770
    5       -9.665932
    6       -7.845487
    7       -6.832538
    8       -5.073172
    9       -0.646168
   10        1.316562
   11        2.126674
   12        2.520669
 
  0.1666667E+00  0.1666667E+00  0.0000000E+00  0.4629630E-02
    1      -21.599542
    2      -17.828644
    3      -14.146954
    4      -10.785698
    5       -9.581714
    6       -8.074241
    7       -6.915724
    8       -5.404431
    9       -0.239279
   10        1.413783
   11        2.224826
   12        2.620425
 
  0.2083333E+00  0.1666667E+00  0.0000000E+00  0.4629630E-02
    1      -21.508040
    2      -18.192752
    3      -13.674587
    4      -10.680609
    5       -9.473676
    6       -8.328223
    7       -7.055725
    8       -5.757929
    9        0.209487
   10        1.538838
   11        2.350961
   12        2.748697
 
  0.2500000E+00  0.1666667E+00  0.0000000E+00  0.4629630E-02
    1      -21.396351
    2      -18.544503
    3      -13.195238
    4      -10.550668
    5       -9.342011
    6       -8.599785
    7       -7.253170
    8       -6.118393
    9        0.683480
   10        1.691730
   11        2.505031
   12        2.905488
 
  0.2916667E+00  0.1666667E+00  0.0000000E+00  0.4629630E-02
    1      -21.264565
    2      -18.881515
    3      -12.714629
    4      -10.394631
    5       -9.186963
    6       -8.884368
    7       -7.503457
    8       -6.476402
    9        1.171702
   10        1.872443
   11        2.686971
   12        3.090801
 
  0.3333333E+00  0.1666667E+00  0.0000000E+00  0.4629630E-02
    1      -21.112794
    2      -19.202375
    3      -12.238572
    4      -10.210728
    5       -9.179891
    6       -9.008842
    7       -7.797994
    8       -6.825938
    9        1.666407
   10        2.080927
   11        2.896694
   12        3.304631
 
  0.3750000E+00  0.1666667E+00  0.0000000E+00  0.4629630E-02
    1      -20.941173
    2      -19.506149
    3      -11.773552
    4       -9.996663
    5       -9.486650
    6       -8.808028
    7       -8.125147
    8       -7.162981
    9        2.161760
   10        2.317112
   11        3.134087
   12        3.546971
 
  0.4166667E+00  0.1666667E+00  0.0000000E+00  0.4629630E-02
    1      -20.749865
    2      -19.792164
    3      -11.326646
    4       -9.807384
    5       -9.750014
    6       -8.584995
    7       -8.470970
    8       -7.484728
    9        2.580907
   10        2.653084
   11        3.398994
   12        3.817810
 
  0.4583333E+00  0.1666667E+00  0.0000000E+00  0.4629630E-02
    1      -20.539060
    2      -20.059911
    3      -10.904502
    4      -10.147005
    5       -9.469472
    6       -8.820033
    7       -8.340323
    8       -7.789153
    9        2.872204
   10        3.136428
   11        3.536764
   12        3.691107
 
  0.5000000E+00  0.1666667E+00  0.0000000E+00  0.2314815E-02
    1      -20.308985
    2      -20.308985
    3      -10.511322
    4      -10.511322
    5       -9.157038
    6       -9.157038
    7       -8.074739
    8       -8.074739
    9        3.190873
   10        3.190873
   11        3.608174
   12        3.608174
 