<?xml version="1.0" encoding="ISO-8859-1"?>
<modeling>
 <generator>
  <i name="program" type="string">vasp </i>
  <i name="version" type="string">5.3.5  </i>
  <i name="subversion" type="string">31Mar14 (build Mar 02 2015 18:14:16) complex                          parallel </i>
  <i name="platform" type="string">LinuxIFC </i>
  <i name="date" type="string">2018 08 11 </i>
  <i name="time" type="string">01:37:37 </i>
 </generator>
 <incar>
  <i type="string" name="SYSTEM">  gr</i>
  <i type="string" name="PREC">accurate : accuracy</i>
  <i type="string" name="ALGO"> FAST.</i>
  <i type="int" name="NELM">   100</i>
  <i type="int" name="NELMDL">    -3</i>
  <i type="int" name="NELMIN">     5</i>
  <i type="int" name="IBRION">     1</i>
  <i name="EDIFF">      0.00000000</i>
  <i name="EDIFFG">     -0.00000100</i>
  <i type="int" name="NSW">   400</i>
  <i type="int" name="ISIF">     2</i>
  <i name="ENCUT">   2000.00000000</i>
  <i type="int" name="ISMEAR">     0</i>
  <i name="SIGMA">      0.05000000</i>
  <i type="int" name="NWRITE">     2</i>
  <i type="logical" name="LWAVE"> F  </i>
  <i type="logical" name="LCHARG"> F  </i>
  <i type="int" name="NELM">   100</i>
 </incar>
 <kpoints>
  <generation param="Gamma">
   <v type="int" name="divisions">      24       36        1 </v>
   <v name="usershift">      0.00000000       0.00000000       0.00000000 </v>
   <v name="genvec1">      0.04166667       0.00000000       0.00000000 </v>
   <v name="genvec2">      0.00000000       0.02777778       0.00000000 </v>
   <v name="genvec3">      0.00000000       0.00000000       1.00000000 </v>
   <v name="shift">      0.00000000       0.00000000       0.00000000 </v>
  </generation>
  <varray name="kpointlist" >
   <v>       0.00000000       0.00000000       0.00000000 </v>
   <v>       0.04166667       0.00000000       0.00000000 </v>
   <v>       0.08333333       0.00000000       0.00000000 </v>
   <v>       0.12500000       0.00000000       0.00000000 </v>
   <v>       0.16666667       0.00000000       0.00000000 </v>
   <v>       0.20833333       0.00000000       0.00000000 </v>
   <v>       0.25000000       0.00000000       0.00000000 </v>
   <v>       0.29166667       0.00000000       0.00000000 </v>
   <v>       0.33333333       0.00000000       0.00000000 </v>
   <v>       0.37500000       0.00000000       0.00000000 </v>
   <v>       0.41666667       0.00000000       0.00000000 </v>
   <v>       0.45833333       0.00000000       0.00000000 </v>
   <v>       0.50000000       0.00000000       0.00000000 </v>
   <v>       0.00000000       0.02777778       0.00000000 </v>
   <v>       0.04166667       0.02777778       0.00000000 </v>
   <v>       0.08333333       0.02777778       0.00000000 </v>
   <v>       0.12500000       0.02777778       0.00000000 </v>
   <v>       0.16666667       0.02777778       0.00000000 </v>
   <v>       0.20833333       0.02777778       0.00000000 </v>
   <v>       0.25000000       0.02777778       0.00000000 </v>
   <v>       0.29166667       0.02777778       0.00000000 </v>
   <v>       0.33333333       0.02777778       0.00000000 </v>
   <v>       0.37500000       0.02777778       0.00000000 </v>
   <v>       0.41666667       0.02777778       0.00000000 </v>
   <v>       0.45833333       0.02777778       0.00000000 </v>
   <v>       0.50000000       0.02777778       0.00000000 </v>
   <v>       0.00000000       0.05555556       0.00000000 </v>
   <v>       0.04166667       0.05555556       0.00000000 </v>
   <v>       0.08333333       0.05555556       0.00000000 </v>
   <v>       0.12500000       0.05555556       0.00000000 </v>
   <v>       0.16666667       0.05555556       0.00000000 </v>
   <v>       0.20833333       0.05555556       0.00000000 </v>
   <v>       0.25000000       0.05555556       0.00000000 </v>
   <v>       0.29166667       0.05555556       0.00000000 </v>
   <v>       0.33333333       0.05555556       0.00000000 </v>
   <v>       0.37500000       0.05555556       0.00000000 </v>
   <v>       0.41666667       0.05555556       0.00000000 </v>
   <v>       0.45833333       0.05555556       0.00000000 </v>
   <v>       0.50000000       0.05555556       0.00000000 </v>
   <v>       0.00000000       0.08333333       0.00000000 </v>
   <v>       0.04166667       0.08333333       0.00000000 </v>
   <v>       0.08333333       0.08333333       0.00000000 </v>
   <v>       0.12500000       0.08333333       0.00000000 </v>
   <v>       0.16666667       0.08333333       0.00000000 </v>
   <v>       0.20833333       0.08333333       0.00000000 </v>
   <v>       0.25000000       0.08333333       0.00000000 </v>
   <v>       0.29166667       0.08333333       0.00000000 </v>
   <v>       0.33333333       0.08333333       0.00000000 </v>
   <v>       0.37500000       0.08333333       0.00000000 </v>
   <v>       0.41666667       0.08333333       0.00000000 </v>
   <v>       0.45833333       0.08333333       0.00000000 </v>
   <v>       0.50000000       0.08333333       0.00000000 </v>
   <v>       0.00000000       0.11111111       0.00000000 </v>
   <v>       0.04166667       0.11111111       0.00000000 </v>
   <v>       0.08333333       0.11111111       0.00000000 </v>
   <v>       0.12500000       0.11111111       0.00000000 </v>
   <v>       0.16666667       0.11111111       0.00000000 </v>
   <v>       0.20833333       0.11111111       0.00000000 </v>
   <v>       0.25000000       0.11111111       0.00000000 </v>
   <v>       0.29166667       0.11111111       0.00000000 </v>
   <v>       0.33333333       0.11111111       0.00000000 </v>
   <v>       0.37500000       0.11111111       0.00000000 </v>
   <v>       0.41666667       0.11111111       0.00000000 </v>
   <v>       0.45833333       0.11111111       0.00000000 </v>
   <v>       0.50000000       0.11111111       0.00000000 </v>
   <v>       0.00000000       0.13888889       0.00000000 </v>
   <v>       0.04166667       0.13888889       0.00000000 </v>
   <v>       0.08333333       0.13888889       0.00000000 </v>
   <v>       0.12500000       0.13888889       0.00000000 </v>
   <v>       0.16666667       0.13888889       0.00000000 </v>
   <v>       0.20833333       0.13888889       0.00000000 </v>
   <v>       0.25000000       0.13888889       0.00000000 </v>
   <v>       0.29166667       0.13888889       0.00000000 </v>
   <v>       0.33333333       0.13888889       0.00000000 </v>
   <v>       0.37500000       0.13888889       0.00000000 </v>
   <v>       0.41666667       0.13888889       0.00000000 </v>
   <v>       0.45833333       0.13888889       0.00000000 </v>
   <v>       0.50000000       0.13888889       0.00000000 </v>
   <v>       0.00000000       0.16666667       0.00000000 </v>
   <v>       0.04166667       0.16666667       0.00000000 </v>
   <v>       0.08333333       0.16666667       0.00000000 </v>
   <v>       0.12500000       0.16666667       0.00000000 </v>
   <v>       0.16666667       0.16666667       0.00000000 </v>
   <v>       0.20833333       0.16666667       0.00000000 </v>
   <v>       0.25000000       0.16666667       0.00000000 </v>
   <v>       0.29166667       0.16666667       0.00000000 </v>
   <v>       0.33333333       0.16666667       0.00000000 </v>
   <v>       0.37500000       0.16666667       0.00000000 </v>
   <v>       0.41666667       0.16666667       0.00000000 </v>
   <v>       0.45833333       0.16666667       0.00000000 </v>
   <v>       0.50000000       0.16666667       0.00000000 </v>
   <v>       0.00000000       0.19444444       0.00000000 </v>
   <v>       0.04166667       0.19444444       0.00000000 </v>
   <v>       0.08333333       0.19444444       0.00000000 </v>
   <v>       0.12500000       0.19444444       0.00000000 </v>
   <v>       0.16666667       0.19444444       0.00000000 </v>
   <v>       0.20833333       0.19444444       0.00000000 </v>
   <v>       0.25000000       0.19444444       0.00000000 </v>
   <v>       0.29166667       0.19444444       0.00000000 </v>
   <v>       0.33333333       0.19444444       0.00000000 </v>
   <v>       0.37500000       0.19444444       0.00000000 </v>
   <v>       0.41666667       0.19444444       0.00000000 </v>
   <v>       0.45833333       0.19444444       0.00000000 </v>
   <v>       0.50000000       0.19444444       0.00000000 </v>
   <v>       0.00000000       0.22222222       0.00000000 </v>
   <v>       0.04166667       0.22222222       0.00000000 </v>
   <v>       0.08333333       0.22222222       0.00000000 </v>
   <v>       0.12500000       0.22222222       0.00000000 </v>
   <v>       0.16666667       0.22222222       0.00000000 </v>
   <v>       0.20833333       0.22222222       0.00000000 </v>
   <v>       0.25000000       0.22222222       0.00000000 </v>
   <v>       0.29166667       0.22222222       0.00000000 </v>
   <v>       0.33333333       0.22222222       0.00000000 </v>
   <v>       0.37500000       0.22222222       0.00000000 </v>
   <v>       0.41666667       0.22222222       0.00000000 </v>
   <v>       0.45833333       0.22222222       0.00000000 </v>
   <v>       0.50000000       0.22222222       0.00000000 </v>
   <v>       0.00000000       0.25000000       0.00000000 </v>
   <v>       0.04166667       0.25000000       0.00000000 </v>
   <v>       0.08333333       0.25000000       0.00000000 </v>
   <v>       0.12500000       0.25000000       0.00000000 </v>
   <v>       0.16666667       0.25000000       0.00000000 </v>
   <v>       0.20833333       0.25000000       0.00000000 </v>
   <v>       0.25000000       0.25000000       0.00000000 </v>
   <v>       0.29166667       0.25000000       0.00000000 </v>
   <v>       0.33333333       0.25000000       0.00000000 </v>
   <v>       0.37500000       0.25000000       0.00000000 </v>
   <v>       0.41666667       0.25000000       0.00000000 </v>
   <v>       0.45833333       0.25000000       0.00000000 </v>
   <v>       0.50000000       0.25000000       0.00000000 </v>
   <v>       0.00000000       0.27777778       0.00000000 </v>
   <v>       0.04166667       0.27777778       0.00000000 </v>
   <v>       0.08333333       0.27777778       0.00000000 </v>
   <v>       0.12500000       0.27777778       0.00000000 </v>
   <v>       0.16666667       0.27777778       0.00000000 </v>
   <v>       0.20833333       0.27777778       0.00000000 </v>
   <v>       0.25000000       0.27777778       0.00000000 </v>
   <v>       0.29166667       0.27777778       0.00000000 </v>
   <v>       0.33333333       0.27777778       0.00000000 </v>
   <v>       0.37500000       0.27777778       0.00000000 </v>
   <v>       0.41666667       0.27777778       0.00000000 </v>
   <v>       0.45833333       0.27777778       0.00000000 </v>
   <v>       0.50000000       0.27777778       0.00000000 </v>
   <v>       0.00000000       0.30555556       0.00000000 </v>
   <v>       0.04166667       0.30555556       0.00000000 </v>
   <v>       0.08333333       0.30555556       0.00000000 </v>
   <v>       0.12500000       0.30555556       0.00000000 </v>
   <v>       0.16666667       0.30555556       0.00000000 </v>
   <v>       0.20833333       0.30555556       0.00000000 </v>
   <v>       0.25000000       0.30555556       0.00000000 </v>
   <v>       0.29166667       0.30555556       0.00000000 </v>
   <v>       0.33333333       0.30555556       0.00000000 </v>
   <v>       0.37500000       0.30555556       0.00000000 </v>
   <v>       0.41666667       0.30555556       0.00000000 </v>
   <v>       0.45833333       0.30555556       0.00000000 </v>
   <v>       0.50000000       0.30555556       0.00000000 </v>
   <v>       0.00000000       0.33333333       0.00000000 </v>
   <v>       0.04166667       0.33333333       0.00000000 </v>
   <v>       0.08333333       0.33333333       0.00000000 </v>
   <v>       0.12500000       0.33333333       0.00000000 </v>
   <v>       0.16666667       0.33333333       0.00000000 </v>
   <v>       0.20833333       0.33333333       0.00000000 </v>
   <v>       0.25000000       0.33333333       0.00000000 </v>
   <v>       0.29166667       0.33333333       0.00000000 </v>
   <v>       0.33333333       0.33333333       0.00000000 </v>
   <v>       0.37500000       0.33333333       0.00000000 </v>
   <v>       0.41666667       0.33333333       0.00000000 </v>
   <v>       0.45833333       0.33333333       0.00000000 </v>
   <v>       0.50000000       0.33333333       0.00000000 </v>
   <v>       0.00000000       0.36111111       0.00000000 </v>
   <v>       0.04166667       0.36111111       0.00000000 </v>
   <v>       0.08333333       0.36111111       0.00000000 </v>
   <v>       0.12500000       0.36111111       0.00000000 </v>
   <v>       0.16666667       0.36111111       0.00000000 </v>
   <v>       0.20833333       0.36111111       0.00000000 </v>
   <v>       0.25000000       0.36111111       0.00000000 </v>
   <v>       0.29166667       0.36111111       0.00000000 </v>
   <v>       0.33333333       0.36111111       0.00000000 </v>
   <v>       0.37500000       0.36111111       0.00000000 </v>
   <v>       0.41666667       0.36111111       0.00000000 </v>
   <v>       0.45833333       0.36111111       0.00000000 </v>
   <v>       0.50000000       0.36111111       0.00000000 </v>
   <v>       0.00000000       0.38888889       0.00000000 </v>
   <v>       0.04166667       0.38888889       0.00000000 </v>
   <v>       0.08333333       0.38888889       0.00000000 </v>
   <v>       0.12500000       0.38888889       0.00000000 </v>
   <v>       0.16666667       0.38888889       0.00000000 </v>
   <v>       0.20833333       0.38888889       0.00000000 </v>
   <v>       0.25000000       0.38888889       0.00000000 </v>
   <v>       0.29166667       0.38888889       0.00000000 </v>
   <v>       0.33333333       0.38888889       0.00000000 </v>
   <v>       0.37500000       0.38888889       0.00000000 </v>
   <v>       0.41666667       0.38888889       0.00000000 </v>
   <v>       0.45833333       0.38888889       0.00000000 </v>
   <v>       0.50000000       0.38888889       0.00000000 </v>
   <v>       0.00000000       0.41666667       0.00000000 </v>
   <v>       0.04166667       0.41666667       0.00000000 </v>
   <v>       0.08333333       0.41666667       0.00000000 </v>
   <v>       0.12500000       0.41666667       0.00000000 </v>
   <v>       0.16666667       0.41666667       0.00000000 </v>
   <v>       0.20833333       0.41666667       0.00000000 </v>
   <v>       0.25000000       0.41666667       0.00000000 </v>
   <v>       0.29166667       0.41666667       0.00000000 </v>
   <v>       0.33333333       0.41666667       0.00000000 </v>
   <v>       0.37500000       0.41666667       0.00000000 </v>
   <v>       0.41666667       0.41666667       0.00000000 </v>
   <v>       0.45833333       0.41666667       0.00000000 </v>
   <v>       0.50000000       0.41666667       0.00000000 </v>
   <v>       0.00000000       0.44444444       0.00000000 </v>
   <v>       0.04166667       0.44444444       0.00000000 </v>
   <v>       0.08333333       0.44444444       0.00000000 </v>
   <v>       0.12500000       0.44444444       0.00000000 </v>
   <v>       0.16666667       0.44444444       0.00000000 </v>
   <v>       0.20833333       0.44444444       0.00000000 </v>
   <v>       0.25000000       0.44444444       0.00000000 </v>
   <v>       0.29166667       0.44444444       0.00000000 </v>
   <v>       0.33333333       0.44444444       0.00000000 </v>
   <v>       0.37500000       0.44444444       0.00000000 </v>
   <v>       0.41666667       0.44444444       0.00000000 </v>
   <v>       0.45833333       0.44444444       0.00000000 </v>
   <v>       0.50000000       0.44444444       0.00000000 </v>
   <v>       0.00000000       0.47222222       0.00000000 </v>
   <v>       0.04166667       0.47222222       0.00000000 </v>
   <v>       0.08333333       0.47222222       0.00000000 </v>
   <v>       0.12500000       0.47222222       0.00000000 </v>
   <v>       0.16666667       0.47222222       0.00000000 </v>
   <v>       0.20833333       0.47222222       0.00000000 </v>
   <v>       0.25000000       0.47222222       0.00000000 </v>
   <v>       0.29166667       0.47222222       0.00000000 </v>
   <v>       0.33333333       0.47222222       0.00000000 </v>
   <v>       0.37500000       0.47222222       0.00000000 </v>
   <v>       0.41666667       0.47222222       0.00000000 </v>
   <v>       0.45833333       0.47222222       0.00000000 </v>
   <v>       0.50000000       0.47222222       0.00000000 </v>
   <v>       0.00000000       0.50000000       0.00000000 </v>
   <v>       0.04166667       0.50000000       0.00000000 </v>
   <v>       0.08333333       0.50000000       0.00000000 </v>
   <v>       0.12500000       0.50000000       0.00000000 </v>
   <v>       0.16666667       0.50000000       0.00000000 </v>
   <v>       0.20833333       0.50000000       0.00000000 </v>
   <v>       0.25000000       0.50000000       0.00000000 </v>
   <v>       0.29166667       0.50000000       0.00000000 </v>
   <v>       0.33333333       0.50000000       0.00000000 </v>
   <v>       0.37500000       0.50000000       0.00000000 </v>
   <v>       0.41666667       0.50000000       0.00000000 </v>
   <v>       0.45833333       0.50000000       0.00000000 </v>
   <v>       0.50000000       0.50000000       0.00000000 </v>
  </varray>
  <varray name="weights" >
   <v>       0.00115741 </v>
   <v>       0.00231481 </v>
   <v>       0.00231481 </v>
   <v>       0.00231481 </v>
   <v>       0.00231481 </v>
   <v>       0.00231481 </v>
   <v>       0.00231481 </v>
   <v>       0.00231481 </v>
   <v>       0.00231481 </v>
   <v>       0.00231481 </v>
   <v>       0.00231481 </v>
   <v>       0.00231481 </v>
   <v>       0.00115741 </v>
   <v>       0.00231481 </v>
   <v>       0.00462963 </v>
   <v>       0.00462963 </v>
   <v>       0.00462963 </v>
   <v>       0.00462963 </v>
   <v>       0.00462963 </v>
   <v>       0.00462963 </v>
   <v>       0.00462963 </v>
   <v>       0.00462963 </v>
   <v>       0.00462963 </v>
   <v>       0.00462963 </v>
   <v>       0.00462963 </v>
   <v>       0.00231481 </v>
   <v>       0.00231481 </v>
   <v>       0.00462963 </v>
   <v>       0.00462963 </v>
   <v>       0.00462963 </v>
   <v>       0.00462963 </v>
   <v>       0.00462963 </v>
   <v>       0.00462963 </v>
   <v>       0.00462963 </v>
   <v>       0.00462963 </v>
   <v>       0.00462963 </v>
   <v>       0.00462963 </v>
   <v>       0.00462963 </v>
   <v>       0.00231481 </v>
   <v>       0.00231481 </v>
   <v>       0.00462963 </v>
   <v>       0.00462963 </v>
   <v>       0.00462963 </v>
   <v>       0.00462963 </v>
   <v>       0.00462963 </v>
   <v>       0.00462963 </v>
   <v>       0.00462963 </v>
   <v>       0.00462963 </v>
   <v>       0.00462963 </v>
   <v>       0.00462963 </v>
   <v>       0.00462963 </v>
   <v>       0.00231481 </v>
   <v>       0.00231481 </v>
   <v>       0.00462963 </v>
   <v>       0.00462963 </v>
   <v>       0.00462963 </v>
   <v>       0.00462963 </v>
   <v>       0.00462963 </v>
   <v>       0.00462963 </v>
   <v>       0.00462963 </v>
   <v>       0.00462963 </v>
   <v>       0.00462963 </v>
   <v>       0.00462963 </v>
   <v>       0.00462963 </v>
   <v>       0.00231481 </v>
   <v>       0.00231481 </v>
   <v>       0.00462963 </v>
   <v>       0.00462963 </v>
   <v>       0.00462963 </v>
   <v>       0.00462963 </v>
   <v>       0.00462963 </v>
   <v>       0.00462963 </v>
   <v>       0.00462963 </v>
   <v>       0.00462963 </v>
   <v>       0.00462963 </v>
   <v>       0.00462963 </v>
   <v>       0.00462963 </v>
   <v>       0.00231481 </v>
   <v>       0.00231481 </v>
   <v>       0.00462963 </v>
   <v>       0.00462963 </v>
   <v>       0.00462963 </v>
   <v>       0.00462963 </v>
   <v>       0.00462963 </v>
   <v>       0.00462963 </v>
   <v>       0.00462963 </v>
   <v>       0.00462963 </v>
   <v>       0.00462963 </v>
   <v>       0.00462963 </v>
   <v>       0.00462963 </v>
   <v>       0.00231481 </v>
   <v>       0.00231481 </v>
   <v>       0.00462963 </v>
   <v>       0.00462963 </v>
   <v>       0.00462963 </v>
   <v>       0.00462963 </v>
   <v>       0.00462963 </v>
   <v>       0.00462963 </v>
   <v>       0.00462963 </v>
   <v>       0.00462963 </v>
   <v>       0.00462963 </v>
   <v>       0.00462963 </v>
   <v>       0.00462963 </v>
   <v>       0.00231481 </v>
   <v>       0.00231481 </v>
   <v>       0.00462963 </v>
   <v>       0.00462963 </v>
   <v>       0.00462963 </v>
   <v>       0.00462963 </v>
   <v>       0.00462963 </v>
   <v>       0.00462963 </v>
   <v>       0.00462963 </v>
   <v>       0.00462963 </v>
   <v>       0.00462963 </v>
   <v>       0.00462963 </v>
   <v>       0.00462963 </v>
   <v>       0.00231481 </v>
   <v>       0.00231481 </v>
   <v>       0.00462963 </v>
   <v>       0.00462963 </v>
   <v>       0.00462963 </v>
   <v>       0.00462963 </v>
   <v>       0.00462963 </v>
   <v>       0.00462963 </v>
   <v>       0.00462963 </v>
   <v>       0.00462963 </v>
   <v>       0.00462963 </v>
   <v>       0.00462963 </v>
   <v>       0.00462963 </v>
   <v>       0.00231481 </v>
   <v>       0.00231481 </v>
   <v>       0.00462963 </v>
   <v>       0.00462963 </v>
   <v>       0.00462963 </v>
   <v>       0.00462963 </v>
   <v>       0.00462963 </v>
   <v>       0.00462963 </v>
   <v>       0.00462963 </v>
   <v>       0.00462963 </v>
   <v>       0.00462963 </v>
   <v>       0.00462963 </v>
   <v>       0.00462963 </v>
   <v>       0.00231481 </v>
   <v>       0.00231481 </v>
   <v>       0.00462963 </v>
   <v>       0.00462963 </v>
   <v>       0.00462963 </v>
   <v>       0.00462963 </v>
   <v>       0.00462963 </v>
   <v>       0.00462963 </v>
   <v>       0.00462963 </v>
   <v>       0.00462963 </v>
   <v>       0.00462963 </v>
   <v>       0.00462963 </v>
   <v>       0.00462963 </v>
   <v>       0.00231481 </v>
   <v>       0.00231481 </v>
   <v>       0.00462963 </v>
   <v>       0.00462963 </v>
   <v>       0.00462963 </v>
   <v>       0.00462963 </v>
   <v>       0.00462963 </v>
   <v>       0.00462963 </v>
   <v>       0.00462963 </v>
   <v>       0.00462963 </v>
   <v>       0.00462963 </v>
   <v>       0.00462963 </v>
   <v>       0.00462963 </v>
   <v>       0.00231481 </v>
   <v>       0.00231481 </v>
   <v>       0.00462963 </v>
   <v>       0.00462963 </v>
   <v>       0.00462963 </v>
   <v>       0.00462963 </v>
   <v>       0.00462963 </v>
   <v>       0.00462963 </v>
   <v>       0.00462963 </v>
   <v>       0.00462963 </v>
   <v>       0.00462963 </v>
   <v>       0.00462963 </v>
   <v>       0.00462963 </v>
   <v>       0.00231481 </v>
   <v>       0.00231481 </v>
   <v>       0.00462963 </v>
   <v>       0.00462963 </v>
   <v>       0.00462963 </v>
   <v>       0.00462963 </v>
   <v>       0.00462963 </v>
   <v>       0.00462963 </v>
   <v>       0.00462963 </v>
   <v>       0.00462963 </v>
   <v>       0.00462963 </v>
   <v>       0.00462963 </v>
   <v>       0.00462963 </v>
   <v>       0.00231481 </v>
   <v>       0.00231481 </v>
   <v>       0.00462963 </v>
   <v>       0.00462963 </v>
   <v>       0.00462963 </v>
   <v>       0.00462963 </v>
   <v>       0.00462963 </v>
   <v>       0.00462963 </v>
   <v>       0.00462963 </v>
   <v>       0.00462963 </v>
   <v>       0.00462963 </v>
   <v>       0.00462963 </v>
   <v>       0.00462963 </v>
   <v>       0.00231481 </v>
   <v>       0.00231481 </v>
   <v>       0.00462963 </v>
   <v>       0.00462963 </v>
   <v>       0.00462963 </v>
   <v>       0.00462963 </v>
   <v>       0.00462963 </v>
   <v>       0.00462963 </v>
   <v>       0.00462963 </v>
   <v>       0.00462963 </v>
   <v>       0.00462963 </v>
   <v>       0.00462963 </v>
   <v>       0.00462963 </v>
   <v>       0.00231481 </v>
   <v>       0.00231481 </v>
   <v>       0.00462963 </v>
   <v>       0.00462963 </v>
   <v>       0.00462963 </v>
   <v>       0.00462963 </v>
   <v>       0.00462963 </v>
   <v>       0.00462963 </v>
   <v>       0.00462963 </v>
   <v>       0.00462963 </v>
   <v>       0.00462963 </v>
   <v>       0.00462963 </v>
   <v>       0.00462963 </v>
   <v>       0.00231481 </v>
   <v>       0.00115741 </v>
   <v>       0.00231481 </v>
   <v>       0.00231481 </v>
   <v>       0.00231481 </v>
   <v>       0.00231481 </v>
   <v>       0.00231481 </v>
   <v>       0.00231481 </v>
   <v>       0.00231481 </v>
   <v>       0.00231481 </v>
   <v>       0.00231481 </v>
   <v>       0.00231481 </v>
   <v>       0.00231481 </v>
   <v>       0.00115741 </v>
  </varray>
 </kpoints>
 <parameters>
  <separator name="general" >
   <i type="string" name="SYSTEM">gr</i>
   <i type="logical" name="LCOMPAT"> F  </i>
  </separator>
  <separator name="electronic" >
   <i type="string" name="PREC">accura</i>
   <i name="ENMAX">   2000.00000000</i>
   <i name="ENAUG">    644.87300000</i>
   <i name="EDIFF">      0.00000000</i>
   <i type="int" name="IALGO">    68</i>
   <i type="int" name="IWAVPR">    11</i>
   <i type="int" name="NBANDS">    12</i>
   <i name="NELECT">     16.00000000</i>
   <i type="int" name="TURBO">     0</i>
   <i type="int" name="IRESTART">     0</i>
   <i type="int" name="NREBOOT">     0</i>
   <i type="int" name="NMIN">     0</i>
   <i name="EREF">      0.00000000</i>
   <separator name="electronic smearing" >
    <i type="int" name="ISMEAR">     0</i>
    <i name="SIGMA">      0.05000000</i>
    <i name="KSPACING">      0.50000000</i>
    <i type="logical" name="KGAMMA"> T  </i>
   </separator>
   <separator name="electronic projectors" >
    <i type="logical" name="LREAL"> F  </i>
    <v name="ROPT">      0.00000000</v>
    <i type="int" name="LMAXPAW">  -100</i>
    <i type="int" name="LMAXMIX">     2</i>
    <i type="logical" name="NLSPLINE"> F  </i>
   </separator>
   <separator name="electronic startup" >
    <i type="int" name="ISTART">     0</i>
    <i type="int" name="ICHARG">     2</i>
    <i type="int" name="INIWAV">     1</i>
   </separator>
   <separator name="electronic spin" >
    <i type="int" name="ISPIN">     1</i>
    <i type="logical" name="LNONCOLLINEAR"> F  </i>
    <v name="MAGMOM">      1.00000000      1.00000000      1.00000000      1.00000000</v>
    <i name="NUPDOWN">     -1.00000000</i>
    <i type="logical" name="LSORBIT"> F  </i>
    <v name="SAXIS">      0.00000000      0.00000000      1.00000000</v>
    <i type="logical" name="LSPIRAL"> F  </i>
    <v name="QSPIRAL">      0.00000000      0.00000000      0.00000000</v>
    <i type="logical" name="LZEROZ"> F  </i>
   </separator>
   <separator name="electronic exchange-correlation" >
    <i type="logical" name="LASPH"> F  </i>
    <i type="logical" name="LMETAGGA"> F  </i>
   </separator>
   <separator name="electronic convergence" >
    <i type="int" name="NELM">   100</i>
    <i type="int" name="NELMDL">    -3</i>
    <i type="int" name="NELMIN">     5</i>
    <i name="ENINI">   2000.00000000</i>
    <separator name="electronic convergence detail" >
     <i type="logical" name="LDIAG"> T  </i>
     <i type="logical" name="LSUBROT"> F  </i>
     <i name="WEIMIN">      0.00100000</i>
     <i name="EBREAK">      0.00000000</i>
     <i name="DEPER">      0.30000000</i>
     <i type="int" name="NRMM">     4</i>
     <i name="TIME">      0.40000000</i>
    </separator>
   </separator>
   <separator name="electronic mixer" >
    <i name="AMIX">      0.40000000</i>
    <i name="BMIX">      1.00000000</i>
    <i name="AMIN">      0.10000000</i>
    <i name="AMIX_MAG">      1.60000000</i>
    <i name="BMIX_MAG">      1.00000000</i>
    <separator name="electronic mixer details" >
     <i type="int" name="IMIX">     4</i>
     <i type="int" name="MAXMIX">   -45</i>
     <i name="WC">    100.00000000</i>
     <i type="int" name="INIMIX">     1</i>
     <i type="int" name="MIXPRE">     1</i>
     <i type="int" name="MREMOVE">     5</i>
    </separator>
   </separator>
   <separator name="electronic dipolcorrection" >
    <i type="logical" name="LDIPOL"> F  </i>
    <i type="logical" name="LMONO"> F  </i>
    <i type="int" name="IDIPOL">     0</i>
    <i name="EPSILON">      1.00000000</i>
    <v name="DIPOL">   -100.00000000   -100.00000000   -100.00000000</v>
    <i name="EFIELD">      0.00000000</i>
   </separator>
  </separator>
  <separator name="grids" >
   <i type="int" name="NGX">    64</i>
   <i type="int" name="NGY">    36</i>
   <i type="int" name="NGZ">   294</i>
   <i type="int" name="NGXF">   128</i>
   <i type="int" name="NGYF">    72</i>
   <i type="int" name="NGZF">   588</i>
   <i type="logical" name="ADDGRID"> F  </i>
  </separator>
  <separator name="ionic" >
   <i type="int" name="NSW">   400</i>
   <i type="int" name="IBRION">     1</i>
   <i type="int" name="ISIF">     2</i>
   <i name="PSTRESS">      0.00000000</i>
   <i name="EDIFFG">     -0.00000100</i>
   <i type="int" name="NFREE">     0</i>
   <i name="POTIM">      0.50000000</i>
   <i name="SMASS">     -3.00000000</i>
   <i name="SCALEE">      1.00000000</i>
  </separator>
  <separator name="ionic md" >
   <i name="TEBEG">      0.00010000</i>
   <i name="TEEND">      0.00010000</i>
   <i type="int" name="NBLOCK">     1</i>
   <i type="int" name="KBLOCK">   400</i>
   <i type="int" name="NPACO">   256</i>
   <i name="APACO">     16.00000000</i>
  </separator>
  <separator name="symmetry" >
   <i type="int" name="ISYM">     2</i>
   <i name="SYMPREC">      0.00001000</i>
  </separator>
  <separator name="dos" >
   <i type="logical" name="LORBIT"> F  </i>
   <v name="RWIGS">     -1.00000000</v>
   <i type="int" name="NEDOS">   301</i>
   <i name="EMIN">     10.00000000</i>
   <i name="EMAX">    -10.00000000</i>
   <i name="EFERMI">      0.00000000</i>
  </separator>
  <separator name="writing" >
   <i type="int" name="NWRITE">     2</i>
   <i type="logical" name="LWAVE"> F  </i>
   <i type="logical" name="LCHARG"> F  </i>
   <i type="logical" name="LPARD"> F  </i>
   <i type="logical" name="LVTOT"> F  </i>
   <i type="logical" name="LVHAR"> F  </i>
   <i type="logical" name="LELF"> F  </i>
   <i type="logical" name="LOPTICS"> F  </i>
   <v name="STM">      0.00000000      0.00000000      0.00000000      0.00000000      0.00000000      0.00000000      0.00000000</v>
  </separator>
  <separator name="performance" >
   <i type="int" name="NPAR">     4</i>
   <i type="int" name="NSIM">     4</i>
   <i type="int" name="NBLK">    -1</i>
   <i type="logical" name="LPLANE"> T  </i>
   <i type="logical" name="LSCALAPACK"> F  </i>
   <i type="logical" name="LSCAAWARE"> F  </i>
   <i type="logical" name="LSCALU"> F  </i>
   <i type="logical" name="LASYNC"> F  </i>
   <i type="logical" name="LORBITALREAL"> F  </i>
  </separator>
  <separator name="miscellaneous" >
   <i type="int" name="IDIOT">     3</i>
   <i type="logical" name="LMUSIC"> F  </i>
   <v name="POMASS">     12.01100000</v>
   <v name="DARWINR">      0.00000000</v>
   <v name="DARWINV">      1.00000000</v>
   <i type="logical" name="LCORR"> T  </i>
  </separator>
  <i type="logical" name="GGA_COMPAT"> T  </i>
  <i type="logical" name="LBERRY"> F  </i>
  <i type="int" name="ICORELEVEL">     0</i>
  <i type="logical" name="LDAU"> F  </i>
  <i type="int" name="I_CONSTRAINED_M">     0</i>
  <separator name="electronic exchange-correlation" >
   <i type="string" name="GGA">--</i>
   <i type="int" name="VOSKOWN">     0</i>
   <i type="logical" name="LHFCALC"> F  </i>
   <i type="string" name="PRECFOCK"></i>
   <i type="logical" name="LSYMGRAD"> F  </i>
   <i type="logical" name="LHFONE"> F  </i>
   <i type="logical" name="LRHFCALC"> F  </i>
   <i type="logical" name="LTHOMAS"> F  </i>
   <i type="logical" name="LMODELHF"> F  </i>
   <i name="ENCUT4O">     -1.00000000</i>
   <i type="int" name="EXXOEP">     0</i>
   <i type="int" name="FOURORBIT">     0</i>
   <i name="AEXX">      0.00000000</i>
   <i name="HFALPHA">      0.00000000</i>
   <i name="MCALPHA">      0.00000000</i>
   <i name="ALDAX">      1.00000000</i>
   <i name="AGGAX">      1.00000000</i>
   <i name="ALDAC">      1.00000000</i>
   <i name="AGGAC">      1.00000000</i>
   <i type="int" name="NKREDX">     1</i>
   <i type="int" name="NKREDY">     1</i>
   <i type="int" name="NKREDZ">     1</i>
   <i type="logical" name="SHIFTRED"> F  </i>
   <i type="logical" name="ODDONLY"> F  </i>
   <i type="logical" name="EVENONLY"> F  </i>
   <i type="int" name="LMAXFOCK">     0</i>
   <i type="int" name="NMAXFOCKAE">     0</i>
   <i type="logical" name="LFOCKAEDFT"> F  </i>
   <i name="HFSCREEN">      0.00000000</i>
   <i name="HFSCREENC">      0.00000000</i>
   <i type="int" name="NBANDSGWLOW">     0</i>
  </separator>
  <separator name="vdW DFT" >
   <i type="logical" name="LUSE_VDW"> F  </i>
   <i name="Zab_VDW">     -0.84910000</i>
   <i name="PARAM1">      0.12340000</i>
   <i name="PARAM2">      1.00000000</i>
   <i name="PARAM3">      0.00000000</i>
  </separator>
  <separator name="model GW" >
   <i type="int" name="MODEL_GW">     0</i>
   <i name="MODEL_EPS0">     31.62568521</i>
   <i name="MODEL_ALPHA">      1.00000000</i>
  </separator>
  <separator name="linear response parameters" >
   <i type="logical" name="LEPSILON"> F  </i>
   <i type="logical" name="LRPA"> F  </i>
   <i type="logical" name="LNABLA"> F  </i>
   <i type="logical" name="LVEL"> F  </i>
   <i type="int" name="KINTER">     0</i>
   <i name="CSHIFT">      0.10000000</i>
   <i name="OMEGAMAX">     -1.00000000</i>
   <i name="DEG_THRESHOLD">      0.00200000</i>
  </separator>
  <separator name="orbital magnetization" >
   <i type="logical" name="NUCIND"> F  </i>
   <v name="MAGPOS">      0.00000000      0.00000000      0.00000000</v>
   <i type="logical" name="LNICSALL"> T  </i>
   <i type="logical" name="ORBITALMAG"> F  </i>
   <i type="logical" name="LMAGBLOCH"> F  </i>
   <i type="logical" name="LCHIMAG"> F  </i>
   <i type="logical" name="LGAUGE"> T  </i>
   <i type="int" name="MAGATOM">     0</i>
   <v name="MAGDIPOL">      0.00000000      0.00000000      0.00000000</v>
   <v name="AVECCONST">      0.00000000      0.00000000      0.00000000</v>
  </separator>
  <separator name="response functions" >
   <i type="logical" name="LADDER"> F  </i>
   <i type="logical" name="LFXC"> F  </i>
   <i type="logical" name="LHARTREE"> T  </i>
   <i type="int" name="IBSE">     0</i>
   <i type="logical" name="LTCTE"> F  </i>
   <i type="logical" name="LTETE"> F  </i>
   <i type="logical" name="LTRIPLET"> F  </i>
   <i type="logical" name="LFXCEPS"> F  </i>
   <i type="logical" name="LFXHEG"> F  </i>
   <i type="logical" name="L2ORDER"> F  </i>
   <i type="logical" name="LUSEW"> F  </i>
   <i name="ENCUTGW">     -2.00000000</i>
   <i name="ENCUTGWSOFT">     -2.00000000</i>
   <i name="ENCUTLF">     -1.00000000</i>
   <i type="int" name="LMAXMP2">    -1</i>
   <i name="SCISSOR">      0.00000000</i>
   <i type="int" name="NOMEGA">     0</i>
   <i type="int" name="NOMEGAR">     0</i>
   <i type="int" name="NBANDSGW">    -1</i>
   <i type="int" name="NBANDSO">    -1</i>
   <i type="int" name="NBANDSV">    -1</i>
   <i type="int" name="NELM">   100</i>
   <i type="int" name="DIM">     3</i>
   <i type="int" name="ANTIRES">     0</i>
   <i name="OMEGAMAX">    -30.00000000</i>
   <i name="OMEGAMIN">    -30.00000000</i>
   <i name="OMEGATL">   -200.00000000</i>
   <i type="int" name="OMEGAGRID">     0</i>
   <i name="CSHIFT">     -0.10000000</i>
   <i type="logical" name="SELFENERGY"> F  </i>
   <i type="logical" name="LSPECTRAL"> F  </i>
   <i type="logical" name="ODDONLYGW"> F  </i>
   <i type="logical" name="EVENONLYGW"> F  </i>
   <i type="int" name="NKREDLFX">     1</i>
   <i type="int" name="NKREDLFY">     1</i>
   <i type="int" name="NKREDLFZ">     1</i>
   <i type="int" name="MAXMEM">  1800</i>
   <i type="int" name="TELESCOPE">     0</i>
   <i type="int" name="TAUPAR">     1</i>
  </separator>
  <separator name="External order field" >
   <i name="OFIELD_KAPPA">      0.00000000</i>
   <v name="OFIELD_K">      0.00000000      0.00000000      0.00000000</v>
   <i name="OFIELD_Q6_NEAR">      0.00000000</i>
   <i name="OFIELD_Q6_FAR">      0.00000000</i>
   <i name="OFIELD_A">      0.00000000</i>
  </separator>
 </parameters>
 <atominfo>
  <atoms>       4 </atoms>
  <types>       1 </types>
  <array name="atoms" >
   <dimension dim="1">ion</dimension>
   <field type="string">element</field>
   <field type="int">atomtype</field>
   <set>
    <rc><c>C </c><c>   1</c></rc>
    <rc><c>C </c><c>   1</c></rc>
    <rc><c>C </c><c>   1</c></rc>
    <rc><c>C </c><c>   1</c></rc>
   </set>
  </array>
  <array name="atomtypes" >
   <dimension dim="1">type</dimension>
   <field type="int">atomspertype</field>
   <field type="string">element</field>
   <field>mass</field>
   <field>valence</field>
   <field type="string">pseudopotential</field>
   <set>
    <rc><c>   4</c><c>C </c><c>     12.01100000</c><c>      4.00000000</c><c> PAW_PBE C 08Apr2002                    </c></rc>
   </set>
  </array>
 </atominfo>
 <structure name="initialpos" >
  <crystal>
   <varray name="basis" >
    <v>       4.27385596       0.00000000       0.00000000 </v>
    <v>       0.00000000       2.46692915       0.00000000 </v>
    <v>       0.00000000       0.00000000      19.99733519 </v>
   </varray>
   <i name="volume">    210.83790140 </i>
   <varray name="rec_basis" >
    <v>       0.23398074       0.00000000       0.00000000 </v>
    <v>       0.00000000       0.40536227       0.00000000 </v>
    <v>       0.00000000       0.00000000       0.05000666 </v>
   </varray>
  </crystal>
  <varray name="positions" >
   <v>       0.00013158       0.00000000       0.00000000 </v>
   <v>       0.16653509       0.50000000       0.00000000 </v>
   <v>       0.50013158       0.50000000       0.00000000 </v>
   <v>       0.66653509       0.00000000       0.00000000 </v>
  </varray>
 </structure>
 <calculation>
  <scstep>
   <time name="dav">  295.13  295.61</time>
   <time name="total">  297.61  298.10</time>
   <energy>
    <i name="alphaZ">      6.18334092 </i>
    <i name="ewald">   2585.96128102 </i>
    <i name="hartreedc">  -3011.36863731 </i>
    <i name="XCdc">     55.09583789 </i>
    <i name="pawpsdc">    151.32577238 </i>
    <i name="pawaedc">   -155.92769107 </i>
    <i name="eentropy">     -0.00131853 </i>
    <i name="bandstr">    -29.21579682 </i>
    <i name="atom">    588.62352690 </i>
    <i name="e_fr_energy">    190.67631539 </i>
    <i name="e_wo_entrp">    190.67763392 </i>
    <i name="e_0_energy">    190.67697466 </i>
   </energy>
  </scstep>
  <scstep>
   <time name="dav">  448.39  450.75</time>
   <time name="total">  448.40  450.76</time>
   <energy>
    <i name="e_fr_energy">     -9.22999990 </i>
    <i name="e_wo_entrp">     -9.22971445 </i>
    <i name="e_0_energy">     -9.22985718 </i>
   </energy>
  </scstep>
  <scstep>
   <time name="dav">  342.11  344.63</time>
   <time name="total">  372.13  375.01</time>
   <energy>
    <i name="e_fr_energy">    -38.40311696 </i>
    <i name="e_wo_entrp">    -38.40301243 </i>
    <i name="e_0_energy">    -38.40306469 </i>
   </energy>
  </scstep>
  <scstep>
   <time name="diag">   79.18   79.94</time>
   <time name="diis">  332.65  335.81</time>
   <time name="orth">    3.08    3.11</time>
   <time name="total">  447.30  451.53</time>
   <energy>
    <i name="e_fr_energy">    -37.71164641 </i>
    <i name="e_wo_entrp">    -37.71151662 </i>
    <i name="e_0_energy">    -37.71158151 </i>
   </energy>
  </scstep>
  <scstep>
   <time name="diag">   79.58   79.99</time>
   <time name="diis">  326.29  327.77</time>
   <time name="orth">    3.09    3.09</time>
   <time name="total">  440.48  442.51</time>
   <energy>
    <i name="e_fr_energy">    -36.93696795 </i>
    <i name="e_wo_entrp">    -36.93684123 </i>
    <i name="e_0_energy">    -36.93690459 </i>
   </energy>
  </scstep>
  <scstep>
   <time name="diag">   79.85   79.93</time>
   <time name="diis">  349.61  351.85</time>
   <time name="orth">    3.09    3.09</time>
   <time name="total">  464.11  466.49</time>
   <energy>
    <i name="e_fr_energy">    -36.93815419 </i>
    <i name="e_wo_entrp">    -36.93802766 </i>
    <i name="e_0_energy">    -36.93809093 </i>
   </energy>
  </scstep>
  <scstep>
   <time name="diag">   79.84   79.93</time>
   <time name="diis">  326.83  329.04</time>
   <time name="orth">    3.07    3.09</time>
   <time name="total">  442.02  444.72</time>
   <energy>
    <i name="e_fr_energy">    -36.92835460 </i>
    <i name="e_wo_entrp">    -36.92822831 </i>
    <i name="e_0_energy">    -36.92829145 </i>
   </energy>
  </scstep>
  <scstep>
   <time name="diag">   79.12   79.89</time>
   <time name="diis">  329.62  331.85</time>
   <time name="orth">    3.07    3.07</time>
   <time name="total">  443.51  446.72</time>
   <energy>
    <i name="e_fr_energy">    -36.92246944 </i>
    <i name="e_wo_entrp">    -36.92234308 </i>
    <i name="e_0_energy">    -36.92240626 </i>
   </energy>
  </scstep>
  <scstep>
   <time name="diag">   79.35   79.89</time>
   <time name="diis">  320.06  321.83</time>
   <time name="orth">    3.07    3.09</time>
   <time name="total">  434.29  436.81</time>
   <energy>
    <i name="e_fr_energy">    -36.92212540 </i>
    <i name="e_wo_entrp">    -36.92199893 </i>
    <i name="e_0_energy">    -36.92206217 </i>
   </energy>
  </scstep>
  <scstep>
   <time name="diag">   79.71   79.88</time>
   <time name="diis">  320.44  323.02</time>
   <time name="orth">    3.07    3.07</time>
   <time name="total">  433.93  437.00</time>
   <energy>
    <i name="e_fr_energy">    -36.92198333 </i>
    <i name="e_wo_entrp">    -36.92185693 </i>
    <i name="e_0_energy">    -36.92192013 </i>
   </energy>
  </scstep>
  <scstep>
   <time name="diag">   79.14   79.92</time>
   <time name="diis">  323.34  324.59</time>
   <time name="orth">    3.09    3.09</time>
   <time name="total">  437.71  440.07</time>
   <energy>
    <i name="e_fr_energy">    -36.92458989 </i>
    <i name="e_wo_entrp">    -36.92446352 </i>
    <i name="e_0_energy">    -36.92452671 </i>
   </energy>
  </scstep>
  <scstep>
   <time name="diag">   79.16   79.91</time>
   <time name="diis">  319.97  323.44</time>
   <time name="orth">    3.07    3.09</time>
   <time name="total">  434.07  438.65</time>
   <energy>
    <i name="e_fr_energy">    -36.92504479 </i>
    <i name="e_wo_entrp">    -36.92491838 </i>
    <i name="e_0_energy">    -36.92498158 </i>
   </energy>
  </scstep>
  <scstep>
   <time name="diag">   79.02   79.91</time>
   <time name="diis">  326.06  329.71</time>
   <time name="orth">    3.07    3.09</time>
   <time name="total">  439.72  445.34</time>
   <energy>
    <i name="e_fr_energy">    -36.92530389 </i>
    <i name="e_wo_entrp">    -36.92517748 </i>
    <i name="e_0_energy">    -36.92524068 </i>
   </energy>
  </scstep>
  <scstep>
   <time name="diag">   79.47   79.86</time>
   <time name="diis">  321.77  324.91</time>
   <time name="orth">    3.07    3.11</time>
   <time name="total">  436.18  440.25</time>
   <energy>
    <i name="e_fr_energy">    -36.92539112 </i>
    <i name="e_wo_entrp">    -36.92526472 </i>
    <i name="e_0_energy">    -36.92532792 </i>
   </energy>
  </scstep>
  <scstep>
   <time name="diag">   79.27   79.85</time>
   <time name="diis">  326.95  328.07</time>
   <time name="orth">    3.07    3.09</time>
   <time name="total">  441.15  443.21</time>
   <energy>
    <i name="e_fr_energy">    -36.92539870 </i>
    <i name="e_wo_entrp">    -36.92527230 </i>
    <i name="e_0_energy">    -36.92533550 </i>
   </energy>
  </scstep>
  <scstep>
   <time name="diag">   79.52   79.93</time>
   <time name="diis">  329.74  330.30</time>
   <time name="orth">    3.08    3.09</time>
   <time name="total">  444.50  445.78</time>
   <energy>
    <i name="e_fr_energy">    -36.92540977 </i>
    <i name="e_wo_entrp">    -36.92528336 </i>
    <i name="e_0_energy">    -36.92534656 </i>
   </energy>
  </scstep>
  <scstep>
   <time name="diag">   79.68   79.91</time>
   <time name="diis">  330.82  333.35</time>
   <time name="orth">    3.07    3.07</time>
   <time name="total">  445.59  448.50</time>
   <energy>
    <i name="e_fr_energy">    -36.92541319 </i>
    <i name="e_wo_entrp">    -36.92528679 </i>
    <i name="e_0_energy">    -36.92534999 </i>
   </energy>
  </scstep>
  <scstep>
   <time name="diag">   79.35   79.86</time>
   <time name="diis">  321.79  323.53</time>
   <time name="orth">    3.09    3.09</time>
   <time name="total">  436.65  439.05</time>
   <energy>
    <i name="e_fr_energy">    -36.92541526 </i>
    <i name="e_wo_entrp">    -36.92528886 </i>
    <i name="e_0_energy">    -36.92535206 </i>
   </energy>
  </scstep>
  <scstep>
   <time name="diag">   79.85   79.97</time>
   <time name="diis">  321.39  323.82</time>
   <time name="orth">    3.07    3.09</time>
   <time name="total">  436.01  438.88</time>
   <energy>
    <i name="e_fr_energy">    -36.92541556 </i>
    <i name="e_wo_entrp">    -36.92528916 </i>
    <i name="e_0_energy">    -36.92535236 </i>
   </energy>
  </scstep>
  <scstep>
   <time name="diag">   79.35   79.97</time>
   <time name="diis">  250.73  253.02</time>
   <time name="orth">    3.08    3.09</time>
   <time name="total">  365.58  368.81</time>
   <energy>
    <i name="e_fr_energy">    -36.92541561 </i>
    <i name="e_wo_entrp">    -36.92528921 </i>
    <i name="e_0_energy">    -36.92535241 </i>
   </energy>
  </scstep>
  <scstep>
   <time name="diag">   79.65   80.44</time>
   <time name="diis">  230.47  231.27</time>
   <time name="orth">    3.08    3.09</time>
   <time name="total">  344.97  346.71</time>
   <energy>
    <i name="e_fr_energy">    -36.92541563 </i>
    <i name="e_wo_entrp">    -36.92528922 </i>
    <i name="e_0_energy">    -36.92535242 </i>
   </energy>
  </scstep>
  <scstep>
   <time name="diag">   79.88   79.95</time>
   <time name="diis">  221.08  221.43</time>
   <time name="orth">    3.07    3.07</time>
   <time name="total">  336.36  337.23</time>
   <energy>
    <i name="e_fr_energy">    -36.92541563 </i>
    <i name="e_wo_entrp">    -36.92528922 </i>
    <i name="e_0_energy">    -36.92535242 </i>
   </energy>
  </scstep>
  <scstep>
   <time name="diag">   79.85   79.97</time>
   <time name="diis">  211.70  212.73</time>
   <time name="orth">    3.09    3.09</time>
   <time name="total">  326.29  327.60</time>
   <energy>
    <i name="e_fr_energy">    -36.92541563 </i>
    <i name="e_wo_entrp">    -36.92528922 </i>
    <i name="e_0_energy">    -36.92535242 </i>
   </energy>
  </scstep>
  <scstep>
   <time name="diag">   79.49   79.90</time>
   <time name="diis">  194.84  196.01</time>
   <time name="orth">    3.07    3.07</time>
   <time name="total">  308.85  310.82</time>
   <energy>
    <i name="e_fr_energy">    -36.92541563 </i>
    <i name="e_wo_entrp">    -36.92528922 </i>
    <i name="e_0_energy">    -36.92535242 </i>
   </energy>
  </scstep>
  <scstep>
   <time name="diag">   79.28   79.91</time>
   <time name="diis">  186.20  187.33</time>
   <time name="orth">    3.08    3.09</time>
   <time name="total">  300.98  302.91</time>
   <energy>
    <i name="e_fr_energy">    -36.92541563 </i>
    <i name="e_wo_entrp">    -36.92528922 </i>
    <i name="e_0_energy">    -36.92535242 </i>
   </energy>
  </scstep>
  <scstep>
   <time name="diag">   79.68   79.91</time>
   <time name="diis">  179.16  179.56</time>
   <time name="orth">    3.07    3.09</time>
   <time name="total">  293.83  294.67</time>
   <energy>
    <i name="e_fr_energy">    -36.92541563 </i>
    <i name="e_wo_entrp">    -36.92528922 </i>
    <i name="e_0_energy">    -36.92535242 </i>
   </energy>
  </scstep>
  <scstep>
   <time name="diag">   79.68   79.93</time>
   <time name="diis">  175.61  176.24</time>
   <time name="orth">    3.08    3.09</time>
   <time name="total">  290.28  291.42</time>
   <energy>
    <i name="e_fr_energy">    -36.92541563 </i>
    <i name="e_wo_entrp">    -36.92528922 </i>
    <i name="e_0_energy">    -36.92535242 </i>
   </energy>
  </scstep>
  <scstep>
   <time name="diag">   79.78   79.87</time>
   <time name="diis">  172.08  172.37</time>
   <time name="orth">    3.07    3.07</time>
   <time name="total">  287.14  287.65</time>
   <energy>
    <i name="e_fr_energy">    -36.92541563 </i>
    <i name="e_wo_entrp">    -36.92528922 </i>
    <i name="e_0_energy">    -36.92535242 </i>
   </energy>
  </scstep>
  <scstep>
   <time name="diag">   79.51   79.98</time>
   <time name="diis">  168.41  169.60</time>
   <time name="orth">    3.07    3.07</time>
   <time name="total">  253.38  255.07</time>
   <energy>
    <i name="alphaZ">      6.18334092 </i>
    <i name="ewald">   2585.96128102 </i>
    <i name="hartreedc">  -3079.90864754 </i>
    <i name="XCdc">     57.52017854 </i>
    <i name="pawpsdc">    277.02724938 </i>
    <i name="pawaedc">   -282.17587573 </i>
    <i name="eentropy">     -0.00012640 </i>
    <i name="bandstr">   -190.15634271 </i>
    <i name="atom">    588.62352690 </i>
    <i name="e_fr_energy">    -36.92541563 </i>
    <i name="e_wo_entrp">    -36.92528922 </i>
    <i name="e_0_energy">    -36.92535242 </i>
   </energy>
  </scstep>
  <structure>
   <crystal>
    <varray name="basis" >
     <v>       4.27385596       0.00000000       0.00000000 </v>
     <v>       0.00000000       2.46692915       0.00000000 </v>
     <v>       0.00000000       0.00000000      19.99733519 </v>
    </varray>
    <i name="volume">    210.83790140 </i>
    <varray name="rec_basis" >
     <v>       0.23398074       0.00000000       0.00000000 </v>
     <v>       0.00000000       0.40536227       0.00000000 </v>
     <v>       0.00000000       0.00000000       0.05000666 </v>
    </varray>
   </crystal>
   <varray name="positions" >
    <v>       0.00013158       0.00000000       0.00000000 </v>
    <v>       0.16653509       0.50000000       0.00000000 </v>
    <v>       0.50013158       0.50000000       0.00000000 </v>
    <v>       0.66653509       0.00000000       0.00000000 </v>
   </varray>
  </structure>
  <varray name="forces" >
   <v>      -0.06016872       0.00000000      -0.00000000 </v>
   <v>       0.06016872      -0.00000000       0.00000000 </v>
   <v>      -0.06016872      -0.00000000      -0.00000000 </v>
   <v>       0.06016872       0.00000000       0.00000000 </v>
  </varray>
  <varray name="stress" >
   <v>      -0.33092258       0.00000000       0.00000000 </v>
   <v>       0.00000000       0.33660705       0.00000000 </v>
   <v>       0.00000000       0.00000000      -0.01002722 </v>
  </varray>
  <energy>
   <i name="e_fr_energy">    -36.92541563 </i>
   <i name="e_wo_entrp">    -36.92535242 </i>
   <i name="e_0_energy">     -0.00012640 </i>
  </energy>
  <time name="totalsc">11380.7111450.78</time>
 </calculation>
 <calculation>
  <scstep>
   <time name="dav">  318.63  320.49</time>
   <time name="total">  350.64  352.67</time>
   <energy>
    <i name="alphaZ">      6.18334092 </i>
    <i name="ewald">   2585.96436610 </i>
    <i name="hartreedc">  -3079.90885926 </i>
    <i name="XCdc">     57.52019357 </i>
    <i name="pawpsdc">    277.02725023 </i>
    <i name="pawaedc">   -282.17587659 </i>
    <i name="eentropy">     -0.00008386 </i>
    <i name="bandstr">   -190.15823123 </i>
    <i name="atom">    588.62352690 </i>
    <i name="e_fr_energy">    -36.92437323 </i>
    <i name="e_wo_entrp">    -36.92428937 </i>
    <i name="e_0_energy">    -36.92433130 </i>
   </energy>
  </scstep>
  <scstep>
   <time name="diag">   79.79   79.94</time>
   <time name="diis">  321.35  321.86</time>
   <time name="orth">    3.07    3.07</time>
   <time name="total">  435.76  436.51</time>
   <energy>
    <i name="e_fr_energy">    -36.92441607 </i>
    <i name="e_wo_entrp">    -36.92432896 </i>
    <i name="e_0_energy">    -36.92437252 </i>
   </energy>
  </scstep>
  <scstep>
   <time name="diag">   79.76   79.90</time>
   <time name="diis">  322.93  324.83</time>
   <time name="orth">    3.08    3.09</time>
   <time name="total">  438.10  440.35</time>
   <energy>
    <i name="e_fr_energy">    -36.92436648 </i>
    <i name="e_wo_entrp">    -36.92427370 </i>
    <i name="e_0_energy">    -36.92432009 </i>
   </energy>
  </scstep>
  <scstep>
   <time name="diag">   79.20   79.92</time>
   <time name="diis">  332.68  333.69</time>
   <time name="orth">    3.09    3.09</time>
   <time name="total">  447.70  449.48</time>
   <energy>
    <i name="e_fr_energy">    -36.92436181 </i>
    <i name="e_wo_entrp">    -36.92427039 </i>
    <i name="e_0_energy">    -36.92431610 </i>
   </energy>
  </scstep>
  <scstep>
   <time name="diag">   79.84   79.92</time>
   <time name="diis">  336.96  337.45</time>
   <time name="orth">    3.08    3.09</time>
   <time name="total">  452.56  453.20</time>
   <energy>
    <i name="e_fr_energy">    -36.92436198 </i>
    <i name="e_wo_entrp">    -36.92427072 </i>
    <i name="e_0_energy">    -36.92431635 </i>
   </energy>
  </scstep>
  <scstep>
   <time name="diag">   79.90   79.93</time>
   <time name="diis">  333.79  334.07</time>
   <time name="orth">    3.09    3.09</time>
   <time name="total">  448.71  449.09</time>
   <energy>
    <i name="e_fr_energy">    -36.92436188 </i>
    <i name="e_wo_entrp">    -36.92427045 </i>
    <i name="e_0_energy">    -36.92431617 </i>
   </energy>
  </scstep>
  <scstep>
   <time name="diag">   79.91   79.94</time>
   <time name="diis">  332.62  332.67</time>
   <time name="orth">    3.07    3.07</time>
   <time name="total">  447.34  447.87</time>
   <energy>
    <i name="e_fr_energy">    -36.92436188 </i>
    <i name="e_wo_entrp">    -36.92427044 </i>
    <i name="e_0_energy">    -36.92431616 </i>
   </energy>
  </scstep>
  <scstep>
   <time name="diag">   79.92   79.94</time>
   <time name="diis">  305.89  305.94</time>
   <time name="orth">    3.07    3.07</time>
   <time name="total">  420.86  420.96</time>
   <energy>
    <i name="e_fr_energy">    -36.92436188 </i>
    <i name="e_wo_entrp">    -36.92427044 </i>
    <i name="e_0_energy">    -36.92431616 </i>
   </energy>
  </scstep>
  <scstep>
   <time name="diag">   79.93   79.95</time>
   <time name="diis">  222.73  222.78</time>
   <time name="orth">    3.09    3.09</time>
   <time name="total">  338.17  338.25</time>
   <energy>
    <i name="e_fr_energy">    -36.92436188 </i>
    <i name="e_wo_entrp">    -36.92427045 </i>
    <i name="e_0_energy">    -36.92431616 </i>
   </energy>
  </scstep>
  <scstep>
   <time name="diag">   79.85   79.90</time>
   <time name="diis">  219.51  219.86</time>
   <time name="orth">    3.09    3.09</time>
   <time name="total">  335.11  335.55</time>
   <energy>
    <i name="e_fr_energy">    -36.92436188 </i>
    <i name="e_wo_entrp">    -36.92427045 </i>
    <i name="e_0_energy">    -36.92431617 </i>
   </energy>
  </scstep>
  <scstep>
   <time name="diag">   79.91   79.93</time>
   <time name="diis">  211.58  212.28</time>
   <time name="orth">    3.08    3.08</time>
   <time name="total">  327.12  328.00</time>
   <energy>
    <i name="e_fr_energy">    -36.92436188 </i>
    <i name="e_wo_entrp">    -36.92427045 </i>
    <i name="e_0_energy">    -36.92431616 </i>
   </energy>
  </scstep>
  <scstep>
   <time name="diag">   79.50   79.88</time>
   <time name="diis">  199.97  200.63</time>
   <time name="orth">    3.10    3.10</time>
   <time name="total">  315.42  316.51</time>
   <energy>
    <i name="e_fr_energy">    -36.92436188 </i>
    <i name="e_wo_entrp">    -36.92427045 </i>
    <i name="e_0_energy">    -36.92431617 </i>
   </energy>
  </scstep>
  <scstep>
   <time name="diag">   79.85   79.90</time>
   <time name="diis">  193.10  193.31</time>
   <time name="orth">    3.09    3.09</time>
   <time name="total">  308.76  309.03</time>
   <energy>
    <i name="e_fr_energy">    -36.92436188 </i>
    <i name="e_wo_entrp">    -36.92427045 </i>
    <i name="e_0_energy">    -36.92431616 </i>
   </energy>
  </scstep>
  <scstep>
   <time name="diag">   79.85   79.90</time>
   <time name="diis">  185.71  185.89</time>
   <time name="orth">    3.09    3.09</time>
   <time name="total">  271.04  271.26</time>
   <energy>
    <i name="alphaZ">      6.18334092 </i>
    <i name="ewald">   2585.96436610 </i>
    <i name="hartreedc">  -3079.91097077 </i>
    <i name="XCdc">     57.52029662 </i>
    <i name="pawpsdc">    277.03327757 </i>
    <i name="pawaedc">   -282.18193832 </i>
    <i name="eentropy">     -0.00009144 </i>
    <i name="bandstr">   -190.15616947 </i>
    <i name="atom">    588.62352690 </i>
    <i name="e_fr_energy">    -36.92436188 </i>
    <i name="e_wo_entrp">    -36.92427045 </i>
    <i name="e_0_energy">    -36.92431616 </i>
   </energy>
  </scstep>
  <structure>
   <crystal>
    <varray name="basis" >
     <v>       4.27385596       0.00000000       0.00000000 </v>
     <v>       0.00000000       2.46692915       0.00000000 </v>
     <v>       0.00000000       0.00000000      19.99733519 </v>
    </varray>
    <i name="volume">    210.83790140 </i>
    <varray name="rec_basis" >
     <v>       0.23398074       0.00000000       0.00000000 </v>
     <v>       0.00000000       0.40536227       0.00000000 </v>
     <v>       0.00000000       0.00000000       0.05000666 </v>
    </varray>
   </crystal>
   <varray name="positions" >
    <v>      -0.00054760       0.00000000      -0.00000000 </v>
    <v>       0.16721426       0.50000000       0.00000000 </v>
    <v>       0.49945240       0.50000000      -0.00000000 </v>
    <v>       0.66721426       0.00000000       0.00000000 </v>
   </varray>
  </structure>
  <varray name="forces" >
   <v>       0.24303533       0.00000000      -0.00000000 </v>
   <v>      -0.24303533      -0.00000000       0.00000000 </v>
   <v>       0.24303533       0.00000000      -0.00000000 </v>
   <v>      -0.24303533      -0.00000000       0.00000000 </v>
  </varray>
  <varray name="stress" >
   <v>       0.56344020       0.00000000       0.00000000 </v>
   <v>       0.00000000      -0.51654208       0.00000000 </v>
   <v>       0.00000000       0.00000000      -0.01007611 </v>
  </varray>
  <energy>
   <i name="e_fr_energy">    -36.92436188 </i>
   <i name="e_wo_entrp">    -36.92431616 </i>
   <i name="e_0_energy">     -0.00009144 </i>
  </energy>
  <time name="totalsc"> 5438.40 5449.90</time>
 </calculation>
 <calculation>
  <scstep>
   <time name="dav">  301.60  302.77</time>
   <time name="total">  333.86  335.07</time>
   <energy>
    <i name="alphaZ">      6.18334092 </i>
    <i name="ewald">   2585.96093759 </i>
    <i name="hartreedc">  -3079.90974687 </i>
    <i name="XCdc">     57.52020677 </i>
    <i name="pawpsdc">    277.03327898 </i>
    <i name="pawaedc">   -282.18193974 </i>
    <i name="eentropy">     -0.00012973 </i>
    <i name="bandstr">   -190.15496932 </i>
    <i name="atom">    588.62352690 </i>
    <i name="e_fr_energy">    -36.92549452 </i>
    <i name="e_wo_entrp">    -36.92536478 </i>
    <i name="e_0_energy">    -36.92542965 </i>
   </energy>
  </scstep>
  <scstep>
   <time name="diag">   79.94   79.95</time>
   <time name="diis">  322.32  322.38</time>
   <time name="orth">    3.09    3.09</time>
   <time name="total">  438.26  438.35</time>
   <energy>
    <i name="e_fr_energy">    -36.92552075 </i>
    <i name="e_wo_entrp">    -36.92539059 </i>
    <i name="e_0_energy">    -36.92545567 </i>
   </energy>
  </scstep>
  <scstep>
   <time name="diag">   79.88   79.91</time>
   <time name="diis">  325.52  325.62</time>
   <time name="orth">    3.09    3.09</time>
   <time name="total">  440.66  440.82</time>
   <energy>
    <i name="e_fr_energy">    -36.92548834 </i>
    <i name="e_wo_entrp">    -36.92535778 </i>
    <i name="e_0_energy">    -36.92542306 </i>
   </energy>
  </scstep>
  <scstep>
   <time name="diag">   79.86   79.89</time>
   <time name="diis">  333.33  333.40</time>
   <time name="orth">    3.09    3.09</time>
   <time name="total">  448.83  448.97</time>
   <energy>
    <i name="e_fr_energy">    -36.92548553 </i>
    <i name="e_wo_entrp">    -36.92535502 </i>
    <i name="e_0_energy">    -36.92542027 </i>
   </energy>
  </scstep>
  <scstep>
   <time name="diag">   79.90   79.92</time>
   <time name="diis">  339.94  340.01</time>
   <time name="orth">    3.09    3.09</time>
   <time name="total">  455.24  455.35</time>
   <energy>
    <i name="e_fr_energy">    -36.92548561 </i>
    <i name="e_wo_entrp">    -36.92535512 </i>
    <i name="e_0_energy">    -36.92542036 </i>
   </energy>
  </scstep>
  <scstep>
   <time name="diag">   79.87   79.89</time>
   <time name="diis">  335.28  335.38</time>
   <time name="orth">    3.09    3.09</time>
   <time name="total">  450.53  450.82</time>
   <energy>
    <i name="e_fr_energy">    -36.92548556 </i>
    <i name="e_wo_entrp">    -36.92535505 </i>
    <i name="e_0_energy">    -36.92542031 </i>
   </energy>
  </scstep>
  <scstep>
   <time name="diag">   79.90   79.92</time>
   <time name="diis">  331.67  331.74</time>
   <time name="orth">    3.07    3.07</time>
   <time name="total">  446.48  446.61</time>
   <energy>
    <i name="e_fr_energy">    -36.92548556 </i>
    <i name="e_wo_entrp">    -36.92535506 </i>
    <i name="e_0_energy">    -36.92542031 </i>
   </energy>
  </scstep>
  <scstep>
   <time name="diag">   79.95   79.96</time>
   <time name="diis">  271.16  272.08</time>
   <time name="orth">    3.09    3.09</time>
   <time name="total">  356.53  357.52</time>
   <energy>
    <i name="alphaZ">      6.18334092 </i>
    <i name="ewald">   2585.96093759 </i>
    <i name="hartreedc">  -3079.90833826 </i>
    <i name="XCdc">     57.52016368 </i>
    <i name="pawpsdc">    277.02660801 </i>
    <i name="pawaedc">   -282.17523101 </i>
    <i name="eentropy">     -0.00013050 </i>
    <i name="bandstr">   -190.15636290 </i>
    <i name="atom">    588.62352690 </i>
    <i name="e_fr_energy">    -36.92548556 </i>
    <i name="e_wo_entrp">    -36.92535506 </i>
    <i name="e_0_energy">    -36.92542031 </i>
   </energy>
  </scstep>
  <structure>
   <crystal>
    <varray name="basis" >
     <v>       4.27385596       0.00000000       0.00000000 </v>
     <v>       0.00000000       2.46692915       0.00000000 </v>
     <v>       0.00000000       0.00000000      19.99733519 </v>
    </varray>
    <i name="volume">    210.83790140 </i>
    <varray name="rec_basis" >
     <v>       0.23398074       0.00000000       0.00000000 </v>
     <v>       0.00000000       0.40536227       0.00000000 </v>
     <v>       0.00000000       0.00000000       0.05000666 </v>
    </varray>
   </crystal>
   <varray name="positions" >
    <v>      -0.00000320       0.00000000      -0.00000000 </v>
    <v>       0.16666987       0.50000000       0.00000000 </v>
    <v>       0.49999680       0.50000000      -0.00000000 </v>
    <v>       0.66666987       0.00000000       0.00000000 </v>
   </varray>
  </structure>
  <varray name="forces" >
   <v>      -0.00053979       0.00000000       0.00000000 </v>
   <v>       0.00053979       0.00000000       0.00000000 </v>
   <v>      -0.00053979       0.00000000       0.00000000 </v>
   <v>       0.00053979      -0.00000000       0.00000000 </v>
  </varray>
  <varray name="stress" >
   <v>      -0.16348512       0.00000000       0.00000000 </v>
   <v>       0.00000000       0.16543087       0.00000000 </v>
   <v>       0.00000000       0.00000000      -0.00997684 </v>
  </varray>
  <energy>
   <i name="e_fr_energy">    -36.92548556 </i>
   <i name="e_wo_entrp">    -36.92542031 </i>
   <i name="e_0_energy">     -0.00013050 </i>
  </energy>
  <time name="totalsc"> 3470.43 3473.73</time>
 </calculation>
 <calculation>
  <scstep>
   <time name="dav">  313.52  314.79</time>
   <time name="total">  345.46  346.88</time>
   <energy>
    <i name="alphaZ">      6.18334092 </i>
    <i name="ewald">   2585.96093664 </i>
    <i name="hartreedc">  -3079.90835622 </i>
    <i name="XCdc">     57.52016417 </i>
    <i name="pawpsdc">    277.02661274 </i>
    <i name="pawaedc">   -282.17523589 </i>
    <i name="eentropy">     -0.00013052 </i>
    <i name="bandstr">   -190.15634432 </i>
    <i name="atom">    588.62352690 </i>
    <i name="e_fr_energy">    -36.92548557 </i>
    <i name="e_wo_entrp">    -36.92535505 </i>
    <i name="e_0_energy">    -36.92542031 </i>
   </energy>
  </scstep>
  <scstep>
   <time name="diag">   79.80   79.92</time>
   <time name="diis">  323.01  323.40</time>
   <time name="orth">    3.09    3.09</time>
   <time name="total">  437.68  438.23</time>
   <energy>
    <i name="e_fr_energy">    -36.92548557 </i>
    <i name="e_wo_entrp">    -36.92535505 </i>
    <i name="e_0_energy">    -36.92542031 </i>
   </energy>
  </scstep>
  <scstep>
   <time name="diag">   79.92   79.94</time>
   <time name="diis">  319.60  319.68</time>
   <time name="orth">    3.09    3.09</time>
   <time name="total">  434.66  434.83</time>
   <energy>
    <i name="e_fr_energy">    -36.92548557 </i>
    <i name="e_wo_entrp">    -36.92535505 </i>
    <i name="e_0_energy">    -36.92542031 </i>
   </energy>
  </scstep>
  <scstep>
   <time name="diag">   79.88   79.92</time>
   <time name="diis">  213.56  213.73</time>
   <time name="orth">    3.09    3.09</time>
   <time name="total">  329.32  329.63</time>
   <energy>
    <i name="e_fr_energy">    -36.92548557 </i>
    <i name="e_wo_entrp">    -36.92535505 </i>
    <i name="e_0_energy">    -36.92542031 </i>
   </energy>
  </scstep>
  <scstep>
   <time name="diag">   79.94   79.97</time>
   <time name="diis">  214.88  215.03</time>
   <time name="orth">    3.09    3.09</time>
   <time name="total">  330.26  330.46</time>
   <energy>
    <i name="e_fr_energy">    -36.92548557 </i>
    <i name="e_wo_entrp">    -36.92535505 </i>
    <i name="e_0_energy">    -36.92542031 </i>
   </energy>
  </scstep>
  <scstep>
   <time name="diag">   79.90   79.92</time>
   <time name="diis">  196.10  196.14</time>
   <time name="orth">    3.07    3.07</time>
   <time name="total">  311.93  312.49</time>
   <energy>
    <i name="e_fr_energy">    -36.92548557 </i>
    <i name="e_wo_entrp">    -36.92535505 </i>
    <i name="e_0_energy">    -36.92542031 </i>
   </energy>
  </scstep>
  <scstep>
   <time name="diag">   79.91   79.93</time>
   <time name="diis">  183.26  183.29</time>
   <time name="orth">    3.08    3.08</time>
   <time name="total">  298.61  298.67</time>
   <energy>
    <i name="e_fr_energy">    -36.92548557 </i>
    <i name="e_wo_entrp">    -36.92535505 </i>
    <i name="e_0_energy">    -36.92542031 </i>
   </energy>
  </scstep>
  <scstep>
   <time name="diag">   79.88   79.89</time>
   <time name="diis">  174.94  174.99</time>
   <time name="orth">    3.08    3.08</time>
   <time name="total">  290.18  290.26</time>
   <energy>
    <i name="e_fr_energy">    -36.92548557 </i>
    <i name="e_wo_entrp">    -36.92535505 </i>
    <i name="e_0_energy">    -36.92542031 </i>
   </energy>
  </scstep>
  <scstep>
   <time name="diag">   79.89   79.91</time>
   <time name="diis">  178.36  178.47</time>
   <time name="orth">    3.09    3.09</time>
   <time name="total">  293.47  293.61</time>
   <energy>
    <i name="e_fr_energy">    -36.92548557 </i>
    <i name="e_wo_entrp">    -36.92535505 </i>
    <i name="e_0_energy">    -36.92542031 </i>
   </energy>
  </scstep>
  <scstep>
   <time name="diag">   79.90   79.92</time>
   <time name="diis">  173.64  173.67</time>
   <time name="orth">    3.09    3.09</time>
   <time name="total">  289.05  289.13</time>
   <energy>
    <i name="e_fr_energy">    -36.92548557 </i>
    <i name="e_wo_entrp">    -36.92535505 </i>
    <i name="e_0_energy">    -36.92542031 </i>
   </energy>
  </scstep>
  <scstep>
   <time name="diag">   79.92   79.94</time>
   <time name="diis">  165.84  165.87</time>
   <time name="orth">    3.09    3.09</time>
   <time name="total">  280.71  280.76</time>
   <energy>
    <i name="e_fr_energy">    -36.92548557 </i>
    <i name="e_wo_entrp">    -36.92535505 </i>
    <i name="e_0_energy">    -36.92542031 </i>
   </energy>
  </scstep>
  <scstep>
   <time name="diag">   79.90   79.92</time>
   <time name="diis">  159.54  159.57</time>
   <time name="orth">    3.09    3.09</time>
   <time name="total">  244.90  244.96</time>
   <energy>
    <i name="alphaZ">      6.18334092 </i>
    <i name="ewald">   2585.96093664 </i>
    <i name="hartreedc">  -3079.90837469 </i>
    <i name="XCdc">     57.52016443 </i>
    <i name="pawpsdc">    277.02660594 </i>
    <i name="pawaedc">   -282.17522906 </i>
    <i name="eentropy">     -0.00013051 </i>
    <i name="bandstr">   -190.15632615 </i>
    <i name="atom">    588.62352690 </i>
    <i name="e_fr_energy">    -36.92548557 </i>
    <i name="e_wo_entrp">    -36.92535505 </i>
    <i name="e_0_energy">    -36.92542031 </i>
   </energy>
  </scstep>
  <structure>
   <crystal>
    <varray name="basis" >
     <v>       4.27385596       0.00000000       0.00000000 </v>
     <v>       0.00000000       2.46692915       0.00000000 </v>
     <v>       0.00000000       0.00000000      19.99733519 </v>
    </varray>
    <i name="volume">    210.83790140 </i>
    <varray name="rec_basis" >
     <v>       0.23398074       0.00000000       0.00000000 </v>
     <v>       0.00000000       0.40536227       0.00000000 </v>
     <v>       0.00000000       0.00000000       0.05000666 </v>
    </varray>
   </crystal>
   <varray name="positions" >
    <v>      -0.00000441       0.00000000      -0.00000000 </v>
    <v>       0.16667107       0.50000000       0.00000000 </v>
    <v>       0.49999559       0.50000000      -0.00000000 </v>
    <v>       0.66667107       0.00000000       0.00000000 </v>
   </varray>
  </structure>
  <varray name="forces" >
   <v>       0.00000463       0.00000000       0.00000000 </v>
   <v>      -0.00000463      -0.00000000      -0.00000000 </v>
   <v>       0.00000463      -0.00000000       0.00000000 </v>
   <v>      -0.00000463       0.00000000      -0.00000000 </v>
  </varray>
  <varray name="stress" >
   <v>      -0.16182324       0.00000000       0.00000000 </v>
   <v>       0.00000000       0.16376475       0.00000000 </v>
   <v>       0.00000000       0.00000000      -0.01004687 </v>
  </varray>
  <energy>
   <i name="e_fr_energy">    -36.92548557 </i>
   <i name="e_wo_entrp">    -36.92542031 </i>
   <i name="e_0_energy">     -0.00013051 </i>
  </energy>
  <time name="totalsc"> 3984.63 3988.37</time>
 </calculation>
 <calculation>
  <scstep>
   <time name="dav">  259.75  259.80</time>
   <time name="total">  291.72  291.77</time>
   <energy>
    <i name="alphaZ">      6.18334092 </i>
    <i name="ewald">   2585.96093665 </i>
    <i name="hartreedc">  -3079.90837563 </i>
    <i name="XCdc">     57.52016446 </i>
    <i name="pawpsdc">    277.02660840 </i>
    <i name="pawaedc">   -282.17523152 </i>
    <i name="eentropy">     -0.00013051 </i>
    <i name="bandstr">   -190.15632523 </i>
    <i name="atom">    588.62352690 </i>
    <i name="e_fr_energy">    -36.92548557 </i>
    <i name="e_wo_entrp">    -36.92535505 </i>
    <i name="e_0_energy">    -36.92542031 </i>
   </energy>
  </scstep>
  <scstep>
   <time name="diag">   79.86   79.87</time>
   <time name="diis">  144.88  144.91</time>
   <time name="orth">    3.10    3.10</time>
   <time name="total">  259.53  259.68</time>
   <energy>
    <i name="e_fr_energy">    -36.92548557 </i>
    <i name="e_wo_entrp">    -36.92535505 </i>
    <i name="e_0_energy">    -36.92542031 </i>
   </energy>
  </scstep>
  <scstep>
   <time name="diag">   79.94   79.95</time>
   <time name="diis">  143.53  143.56</time>
   <time name="orth">    3.09    3.09</time>
   <time name="total">  258.30  258.38</time>
   <energy>
    <i name="e_fr_energy">    -36.92548557 </i>
    <i name="e_wo_entrp">    -36.92535505 </i>
    <i name="e_0_energy">    -36.92542031 </i>
   </energy>
  </scstep>
  <scstep>
   <time name="diag">   79.89   79.90</time>
   <time name="diis">  142.43  142.47</time>
   <time name="orth">    3.09    3.09</time>
   <time name="total">  257.07  257.13</time>
   <energy>
    <i name="e_fr_energy">    -36.92548557 </i>
    <i name="e_wo_entrp">    -36.92535505 </i>
    <i name="e_0_energy">    -36.92542031 </i>
   </energy>
  </scstep>
  <scstep>
   <time name="diag">   79.49   79.87</time>
   <time name="diis">  141.64  142.64</time>
   <time name="orth">    3.07    3.09</time>
   <time name="total">  226.58  228.01</time>
   <energy>
    <i name="alphaZ">      6.18334092 </i>
    <i name="ewald">   2585.96093665 </i>
    <i name="hartreedc">  -3079.90837544 </i>
    <i name="XCdc">     57.52016444 </i>
    <i name="pawpsdc">    277.02660614 </i>
    <i name="pawaedc">   -282.17522926 </i>
    <i name="eentropy">     -0.00013051 </i>
    <i name="bandstr">   -190.15632541 </i>
    <i name="atom">    588.62352690 </i>
    <i name="e_fr_energy">    -36.92548557 </i>
    <i name="e_wo_entrp">    -36.92535505 </i>
    <i name="e_0_energy">    -36.92542031 </i>
   </energy>
  </scstep>
  <structure>
   <crystal>
    <varray name="basis" >
     <v>       4.27385596       0.00000000       0.00000000 </v>
     <v>       0.00000000       2.46692915       0.00000000 </v>
     <v>       0.00000000       0.00000000      19.99733519 </v>
    </varray>
    <i name="volume">    210.83790140 </i>
    <varray name="rec_basis" >
     <v>       0.23398074       0.00000000       0.00000000 </v>
     <v>       0.00000000       0.40536227       0.00000000 </v>
     <v>       0.00000000       0.00000000       0.05000666 </v>
    </varray>
   </crystal>
   <varray name="positions" >
    <v>      -0.00000439       0.00000000      -0.00000000 </v>
    <v>       0.16667106       0.50000000       0.00000000 </v>
    <v>       0.49999561       0.50000000      -0.00000000 </v>
    <v>       0.66667106       0.00000000       0.00000000 </v>
   </varray>
  </structure>
  <varray name="forces" >
   <v>       0.00000155      -0.00000000      -0.00000000 </v>
   <v>      -0.00000155      -0.00000000       0.00000000 </v>
   <v>       0.00000155      -0.00000000      -0.00000000 </v>
   <v>      -0.00000155       0.00000000       0.00000000 </v>
  </varray>
  <varray name="stress" >
   <v>      -0.16180714       0.00000000       0.00000000 </v>
   <v>       0.00000000       0.16375428       0.00000000 </v>
   <v>       0.00000000       0.00000000      -0.01005299 </v>
  </varray>
  <energy>
   <i name="e_fr_energy">    -36.92548557 </i>
   <i name="e_wo_entrp">    -36.92542031 </i>
   <i name="e_0_energy">     -0.00013051 </i>
  </energy>
  <time name="totalsc"> 1393.83 1396.32</time>
 </calculation>
 <calculation>
  <scstep>
   <time name="dav">  240.32  241.30</time>
   <time name="total">  272.08  273.31</time>
   <energy>
    <i name="alphaZ">      6.18334092 </i>
    <i name="ewald">   2585.96093665 </i>
    <i name="hartreedc">  -3079.90837547 </i>
    <i name="XCdc">     57.52016444 </i>
    <i name="pawpsdc">    277.02660614 </i>
    <i name="pawaedc">   -282.17522926 </i>
    <i name="eentropy">     -0.00013051 </i>
    <i name="bandstr">   -190.15632539 </i>
    <i name="atom">    588.62352690 </i>
    <i name="e_fr_energy">    -36.92548557 </i>
    <i name="e_wo_entrp">    -36.92535505 </i>
    <i name="e_0_energy">    -36.92542031 </i>
   </energy>
  </scstep>
  <scstep>
   <time name="diag">   79.11   79.88</time>
   <time name="diis">  135.84  136.98</time>
   <time name="orth">    3.06    3.08</time>
   <time name="total">  249.52  251.84</time>
   <energy>
    <i name="e_fr_energy">    -36.92548557 </i>
    <i name="e_wo_entrp">    -36.92535505 </i>
    <i name="e_0_energy">    -36.92542031 </i>
   </energy>
  </scstep>
  <scstep>
   <time name="diag">   79.14   79.92</time>
   <time name="diis">  139.26  140.33</time>
   <time name="orth">    3.08    3.09</time>
   <time name="total">  253.11  255.23</time>
   <energy>
    <i name="e_fr_energy">    -36.92548557 </i>
    <i name="e_wo_entrp">    -36.92535505 </i>
    <i name="e_0_energy">    -36.92542031 </i>
   </energy>
  </scstep>
  <scstep>
   <time name="diag">   79.39   79.88</time>
   <time name="diis">  135.13  135.95</time>
   <time name="orth">    3.07    3.07</time>
   <time name="total">  249.19  251.01</time>
   <energy>
    <i name="e_fr_energy">    -36.92548557 </i>
    <i name="e_wo_entrp">    -36.92535505 </i>
    <i name="e_0_energy">    -36.92542031 </i>
   </energy>
  </scstep>
  <scstep>
   <time name="diag">   79.78   79.92</time>
   <time name="diis">  136.46  136.60</time>
   <time name="orth">    3.09    3.09</time>
   <time name="total">  250.84  251.18</time>
   <energy>
    <i name="e_fr_energy">    -36.92548557 </i>
    <i name="e_wo_entrp">    -36.92535505 </i>
    <i name="e_0_energy">    -36.92542031 </i>
   </energy>
  </scstep>
  <scstep>
   <time name="diag">   79.90   79.97</time>
   <time name="diis">  122.83  123.00</time>
   <time name="orth">    3.08    3.09</time>
   <time name="total">  237.60  237.85</time>
   <energy>
    <i name="e_fr_energy">    -36.92548557 </i>
    <i name="e_wo_entrp">    -36.92535505 </i>
    <i name="e_0_energy">    -36.92542031 </i>
   </energy>
  </scstep>
  <scstep>
   <time name="diag">   79.88   79.96</time>
   <time name="diis">  138.43  138.78</time>
   <time name="orth">    3.09    3.09</time>
   <time name="total">  253.32  253.89</time>
   <energy>
    <i name="e_fr_energy">    -36.92548557 </i>
    <i name="e_wo_entrp">    -36.92535505 </i>
    <i name="e_0_energy">    -36.92542031 </i>
   </energy>
  </scstep>
  <scstep>
   <time name="diag">   79.62   79.93</time>
   <time name="diis">  124.79  125.66</time>
   <time name="orth">    3.08    3.09</time>
   <time name="total">  209.90  211.09</time>
   <energy>
    <i name="alphaZ">      6.18334092 </i>
    <i name="ewald">   2585.96093665 </i>
    <i name="hartreedc">  -3079.90837593 </i>
    <i name="XCdc">     57.52016446 </i>
    <i name="pawpsdc">    277.02660609 </i>
    <i name="pawaedc">   -282.17522921 </i>
    <i name="eentropy">     -0.00013051 </i>
    <i name="bandstr">   -190.15632494 </i>
    <i name="atom">    588.62352690 </i>
    <i name="e_fr_energy">    -36.92548557 </i>
    <i name="e_wo_entrp">    -36.92535505 </i>
    <i name="e_0_energy">    -36.92542031 </i>
   </energy>
  </scstep>
  <structure>
   <crystal>
    <varray name="basis" >
     <v>       4.27385596       0.00000000       0.00000000 </v>
     <v>       0.00000000       2.46692915       0.00000000 </v>
     <v>       0.00000000       0.00000000      19.99733519 </v>
    </varray>
    <i name="volume">    210.83790140 </i>
    <varray name="rec_basis" >
     <v>       0.23398074       0.00000000       0.00000000 </v>
     <v>       0.00000000       0.40536227       0.00000000 </v>
     <v>       0.00000000       0.00000000       0.05000666 </v>
    </varray>
   </crystal>
   <varray name="positions" >
    <v>      -0.00000439       0.00000000      -0.00000000 </v>
    <v>       0.16667106       0.50000000       0.00000000 </v>
    <v>       0.49999561       0.50000000      -0.00000000 </v>
    <v>       0.66667106       0.00000000       0.00000000 </v>
   </varray>
  </structure>
  <varray name="forces" >
   <v>      -0.00000159       0.00000000      -0.00000000 </v>
   <v>       0.00000159      -0.00000000       0.00000000 </v>
   <v>      -0.00000159      -0.00000000      -0.00000000 </v>
   <v>       0.00000159       0.00000000       0.00000000 </v>
  </varray>
  <varray name="stress" >
   <v>      -0.16182712       0.00000000       0.00000000 </v>
   <v>       0.00000000       0.16377132       0.00000000 </v>
   <v>       0.00000000       0.00000000      -0.01005021 </v>
  </varray>
  <energy>
   <i name="e_fr_energy">    -36.92548557 </i>
   <i name="e_wo_entrp">    -36.92542031 </i>
   <i name="e_0_energy">     -0.00013051 </i>
  </energy>
  <time name="totalsc"> 2074.14 2084.65</time>
 </calculation>
 <calculation>
  <scstep>
   <time name="dav">  239.54  240.65</time>
   <time name="total">  271.23  272.50</time>
   <energy>
    <i name="alphaZ">      6.18334092 </i>
    <i name="ewald">   2585.96093665 </i>
    <i name="hartreedc">  -3079.90837592 </i>
[...]
       <r>   -9.2055    1.0000 </r>
       <r>   -5.5946    1.0000 </r>
       <r>   -5.5946    1.0000 </r>
       <r>   -0.4215    0.0000 </r>
       <r>   -0.4215    0.0000 </r>
       <r>    4.8362    0.0000 </r>
       <r>    4.8362    0.0000 </r>
      </set>
      <set comment="kpoint 209">
       <r>  -18.8384    1.0000 </r>
       <r>  -17.0468    1.0000 </r>
       <r>  -14.0503    1.0000 </r>
       <r>  -12.4220    1.0000 </r>
       <r>  -12.4184    1.0000 </r>
       <r>  -10.8851    1.0000 </r>
       <r>   -6.4185    1.0000 </r>
       <r>   -4.5271    1.0000 </r>
       <r>   -0.9852    0.0000 </r>
       <r>    1.1829    0.0000 </r>
       <r>    5.2498    0.0000 </r>
       <r>    6.0384    0.0000 </r>
      </set>
      <set comment="kpoint 210">
       <r>  -18.8286    1.0000 </r>
       <r>  -17.0390    1.0000 </r>
       <r>  -14.1365    1.0000 </r>
       <r>  -12.5013    1.0000 </r>
       <r>  -12.3244    1.0000 </r>
       <r>  -10.8081    1.0000 </r>
       <r>   -6.4096    1.0000 </r>
       <r>   -4.5300    1.0000 </r>
       <r>   -0.9948    0.0000 </r>
       <r>    1.1573    0.0000 </r>
       <r>    5.2634    0.0000 </r>
       <r>    6.0544    0.0000 </r>
      </set>
      <set comment="kpoint 211">
       <r>  -18.7995    1.0000 </r>
       <r>  -17.0160    1.0000 </r>
       <r>  -14.3509    1.0000 </r>
       <r>  -12.7024    1.0000 </r>
       <r>  -12.0869    1.0000 </r>
       <r>  -10.6146    1.0000 </r>
       <r>   -6.3833    1.0000 </r>
       <r>   -4.5394    1.0000 </r>
       <r>   -1.0219    0.0000 </r>
       <r>    1.0825    0.0000 </r>
       <r>    5.3041    0.0000 </r>
       <r>    6.1022    0.0000 </r>
      </set>
      <set comment="kpoint 212">
       <r>  -18.7511    1.0000 </r>
       <r>  -16.9790    1.0000 </r>
       <r>  -14.6249    1.0000 </r>
       <r>  -12.9667    1.0000 </r>
       <r>  -11.7746    1.0000 </r>
       <r>  -10.3650    1.0000 </r>
       <r>   -6.3396    1.0000 </r>
       <r>   -4.5566    1.0000 </r>
       <r>   -1.0613    0.0000 </r>
       <r>    0.9637    0.0000 </r>
       <r>    5.3715    0.0000 </r>
       <r>    6.1806    0.0000 </r>
      </set>
      <set comment="kpoint 213">
       <r>  -18.6835    1.0000 </r>
       <r>  -16.9305    1.0000 </r>
       <r>  -14.9167    1.0000 </r>
       <r>  -13.2582    1.0000 </r>
       <r>  -11.4289    1.0000 </r>
       <r>  -10.0990    1.0000 </r>
       <r>   -6.2792    1.0000 </r>
       <r>   -4.5840    1.0000 </r>
       <r>   -1.1053    0.0000 </r>
       <r>    0.8086    0.0000 </r>
       <r>    5.4647    0.0000 </r>
       <r>    6.2883    0.0000 </r>
      </set>
      <set comment="kpoint 214">
       <r>  -18.5968    1.0000 </r>
       <r>  -16.8758    1.0000 </r>
       <r>  -15.2023    1.0000 </r>
       <r>  -13.5586    1.0000 </r>
       <r>  -11.0719    1.0000 </r>
       <r>   -9.8394    1.0000 </r>
       <r>   -6.2028    1.0000 </r>
       <r>   -4.6243    1.0000 </r>
       <r>   -1.1451    0.0000 </r>
       <r>    0.6259    0.0000 </r>
       <r>    5.5780    0.0000 </r>
       <r>    6.1666    0.0000 </r>
      </set>
      <set comment="kpoint 215">
       <r>  -18.4916    1.0000 </r>
       <r>  -16.8253    1.0000 </r>
       <r>  -15.4620    1.0000 </r>
       <r>  -13.8581    1.0000 </r>
       <r>  -10.7174    1.0000 </r>
       <r>   -9.6015    1.0000 </r>
       <r>   -6.1114    1.0000 </r>
       <r>   -4.6800    1.0000 </r>
       <r>   -1.1716    0.0000 </r>
       <r>    0.4246    0.0000 </r>
       <r>    5.6153    0.0000 </r>
       <r>    5.8366    0.0000 </r>
      </set>
      <set comment="kpoint 216">
       <r>  -18.3680    1.0000 </r>
       <r>  -16.7998    1.0000 </r>
       <r>  -15.6700    1.0000 </r>
       <r>  -14.1509    1.0000 </r>
       <r>  -10.3758    1.0000 </r>
       <r>   -9.3975    1.0000 </r>
       <r>   -6.0062    1.0000 </r>
       <r>   -4.7531    1.0000 </r>
       <r>   -1.1769    0.0000 </r>
       <r>    0.2128    0.0000 </r>
       <r>    5.3047    0.0000 </r>
       <r>    5.9470    0.0000 </r>
      </set>
      <set comment="kpoint 217">
       <r>  -18.2268    1.0000 </r>
       <r>  -16.8316    1.0000 </r>
       <r>  -15.7908    1.0000 </r>
       <r>  -14.4332    1.0000 </r>
       <r>  -10.0564    1.0000 </r>
       <r>   -9.2377    1.0000 </r>
       <r>   -5.8888    1.0000 </r>
       <r>   -4.8439    1.0000 </r>
       <r>   -1.1551    0.0000 </r>
       <r>   -0.0017    0.0000 </r>
       <r>    5.0104    0.0000 </r>
       <r>    5.8399    0.0000 </r>
      </set>
      <set comment="kpoint 218">
       <r>  -18.0687    1.0000 </r>
       <r>  -16.9412    1.0000 </r>
       <r>  -15.8022    1.0000 </r>
       <r>  -14.7019    1.0000 </r>
       <r>   -9.7686    1.0000 </r>
       <r>   -9.1310    1.0000 </r>
       <r>   -5.7613    1.0000 </r>
       <r>   -4.9515    1.0000 </r>
       <r>   -1.1030    0.0000 </r>
       <r>   -0.2123    0.0000 </r>
       <r>    4.7956    0.0000 </r>
       <r>    5.4427    0.0000 </r>
      </set>
      <set comment="kpoint 219">
       <r>  -17.8949    1.0000 </r>
       <r>  -17.1102    1.0000 </r>
       <r>  -15.7215    1.0000 </r>
       <r>  -14.9545    1.0000 </r>
       <r>   -9.5212    1.0000 </r>
       <r>   -9.0838    1.0000 </r>
       <r>   -5.6260    1.0000 </r>
       <r>   -5.0732    1.0000 </r>
       <r>   -1.0195    0.0000 </r>
       <r>   -0.4131    0.0000 </r>
       <r>    4.6711    0.0000 </r>
       <r>    5.1157    0.0000 </r>
      </set>
      <set comment="kpoint 220">
       <r>  -17.7075    1.0000 </r>
       <r>  -17.3067    1.0000 </r>
       <r>  -15.5799    1.0000 </r>
       <r>  -15.1879    1.0000 </r>
       <r>   -9.3228    1.0000 </r>
       <r>   -9.1001    1.0000 </r>
       <r>   -5.4860    1.0000 </r>
       <r>   -5.2056    1.0000 </r>
       <r>   -0.9057    0.0000 </r>
       <r>   -0.5987    0.0000 </r>
       <r>    4.6417    0.0000 </r>
       <r>    4.8682    0.0000 </r>
      </set>
      <set comment="kpoint 221">
       <r>  -17.5095    1.0000 </r>
       <r>  -17.5095    1.0000 </r>
       <r>  -15.3984    1.0000 </r>
       <r>  -15.3984    1.0000 </r>
       <r>   -9.1806    1.0000 </r>
       <r>   -9.1806    1.0000 </r>
       <r>   -5.3446    1.0000 </r>
       <r>   -5.3446    1.0000 </r>
       <r>   -0.7643    0.0000 </r>
       <r>   -0.7643    0.0000 </r>
       <r>    4.7083    0.0000 </r>
       <r>    4.7083    0.0000 </r>
      </set>
      <set comment="kpoint 222">
       <r>  -18.4155    1.0000 </r>
       <r>  -17.5160    1.0000 </r>
       <r>  -13.6734    1.0000 </r>
       <r>  -12.8584    1.0000 </r>
       <r>  -12.0678    1.0000 </r>
       <r>  -11.2964    1.0000 </r>
       <r>   -5.9580    1.0000 </r>
       <r>   -5.0069    1.0000 </r>
       <r>   -0.4765    0.0000 </r>
       <r>    0.6096    0.0000 </r>
       <r>    5.8501    0.0000 </r>
       <r>    6.6017    0.0000 </r>
      </set>
      <set comment="kpoint 223">
       <r>  -18.4060    1.0000 </r>
       <r>  -17.5072    1.0000 </r>
       <r>  -13.7595    1.0000 </r>
       <r>  -12.9406    1.0000 </r>
       <r>  -11.9766    1.0000 </r>
       <r>  -11.2140    1.0000 </r>
       <r>   -5.9504    1.0000 </r>
       <r>   -5.0045    1.0000 </r>
       <r>   -0.4928    0.0000 </r>
       <r>    0.5861    0.0000 </r>
       <r>    5.8637    0.0000 </r>
       <r>    6.6186    0.0000 </r>
      </set>
      <set comment="kpoint 224">
       <r>  -18.3773    1.0000 </r>
       <r>  -17.4810    1.0000 </r>
       <r>  -13.9744    1.0000 </r>
       <r>  -13.1476    1.0000 </r>
       <r>  -11.7469    1.0000 </r>
       <r>  -11.0068    1.0000 </r>
       <r>   -5.9281    1.0000 </r>
       <r>   -4.9978    1.0000 </r>
       <r>   -0.5399    0.0000 </r>
       <r>    0.5175    0.0000 </r>
       <r>    5.9042    0.0000 </r>
       <r>    6.6689    0.0000 </r>
      </set>
      <set comment="kpoint 225">
       <r>  -18.3298    1.0000 </r>
       <r>  -17.4376    1.0000 </r>
       <r>  -14.2515    1.0000 </r>
       <r>  -13.4179    1.0000 </r>
       <r>  -11.4464    1.0000 </r>
       <r>  -10.7380    1.0000 </r>
       <r>   -5.8913    1.0000 </r>
       <r>   -4.9877    1.0000 </r>
       <r>   -0.6127    0.0000 </r>
       <r>    0.4089    0.0000 </r>
       <r>    5.9711    0.0000 </r>
       <r>    6.7510    0.0000 </r>
      </set>
      <set comment="kpoint 226">
       <r>  -18.2634    1.0000 </r>
       <r>  -17.3782    1.0000 </r>
       <r>  -14.5510    1.0000 </r>
       <r>  -13.7142    1.0000 </r>
       <r>  -11.1164    1.0000 </r>
       <r>  -10.4481    1.0000 </r>
       <r>   -5.8408    1.0000 </r>
       <r>   -4.9763    1.0000 </r>
       <r>   -0.7032    0.0000 </r>
       <r>    0.2679    0.0000 </r>
       <r>    6.0623    0.0000 </r>
       <r>    6.8632    0.0000 </r>
      </set>
      <set comment="kpoint 227">
       <r>  -18.1787    1.0000 </r>
       <r>  -17.3042    1.0000 </r>
       <r>  -14.8530    1.0000 </r>
       <r>  -14.0180    1.0000 </r>
       <r>  -10.7792    1.0000 </r>
       <r>  -10.1596    1.0000 </r>
       <r>   -5.7779    1.0000 </r>
       <r>   -4.9660    1.0000 </r>
       <r>   -0.8022    0.0000 </r>
       <r>    0.1035    0.0000 </r>
       <r>    6.1562    0.0000 </r>
       <r>    6.4487    0.0000 </r>
      </set>
      <set comment="kpoint 228">
       <r>  -18.0761    1.0000 </r>
       <r>  -17.2184    1.0000 </r>
       <r>  -15.1452    1.0000 </r>
       <r>  -14.3194    1.0000 </r>
       <r>  -10.4487    1.0000 </r>
       <r>   -9.8875    1.0000 </r>
       <r>   -5.7039    1.0000 </r>
       <r>   -4.9600    1.0000 </r>
       <r>   -0.8995    0.0000 </r>
       <r>   -0.0753    0.0000 </r>
       <r>    5.9053    0.0000 </r>
       <r>    6.3728    0.0000 </r>
      </set>
      <set comment="kpoint 229">
       <r>  -17.9563    1.0000 </r>
       <r>  -17.1263    1.0000 </r>
       <r>  -15.4172    1.0000 </r>
       <r>  -14.6123    1.0000 </r>
       <r>  -10.1361    1.0000 </r>
       <r>   -9.6438    1.0000 </r>
       <r>   -5.6209    1.0000 </r>
       <r>   -4.9617    1.0000 </r>
       <r>   -0.9853    0.0000 </r>
       <r>   -0.2595    0.0000 </r>
       <r>    5.5004    0.0000 </r>
       <r>    5.9971    0.0000 </r>
      </set>
      <set comment="kpoint 230">
       <r>  -17.8205    1.0000 </r>
       <r>  -17.0385    1.0000 </r>
       <r>  -15.6552    1.0000 </r>
       <r>  -14.8925    1.0000 </r>
       <r>   -9.8511    1.0000 </r>
       <r>   -9.4388    1.0000 </r>
       <r>   -5.5313    1.0000 </r>
       <r>   -4.9745    1.0000 </r>
       <r>   -1.0504    0.0000 </r>
       <r>   -0.4407    0.0000 </r>
       <r>    5.1555    0.0000 </r>
       <r>    5.5723    0.0000 </r>
      </set>
      <set comment="kpoint 231">
       <r>  -17.6705    1.0000 </r>
       <r>  -16.9762    1.0000 </r>
       <r>  -15.8364    1.0000 </r>
       <r>  -15.1561    1.0000 </r>
       <r>   -9.6031    1.0000 </r>
       <r>   -9.2818    1.0000 </r>
       <r>   -5.4380    1.0000 </r>
       <r>   -5.0011    1.0000 </r>
       <r>   -1.0877    0.0000 </r>
       <r>   -0.6114    0.0000 </r>
       <r>    4.8884    0.0000 </r>
       <r>    5.2139    0.0000 </r>
      </set>
      <set comment="kpoint 232">
       <r>  -17.5093    1.0000 </r>
       <r>  -16.9722    1.0000 </r>
       <r>  -15.9267    1.0000 </r>
       <r>  -15.3986    1.0000 </r>
       <r>   -9.4012    1.0000 </r>
       <r>   -9.1805    1.0000 </r>
       <r>   -5.3445    1.0000 </r>
       <r>   -5.0431    1.0000 </r>
       <r>   -1.0919    0.0000 </r>
       <r>   -0.7644    0.0000 </r>
       <r>    4.7082    0.0000 </r>
       <r>    4.9321    0.0000 </r>
      </set>
      <set comment="kpoint 233">
       <r>  -17.3426    1.0000 </r>
       <r>  -17.0470    1.0000 </r>
       <r>  -15.9047    1.0000 </r>
       <r>  -15.6136    1.0000 </r>
       <r>   -9.2531    1.0000 </r>
       <r>   -9.1407    1.0000 </r>
       <r>   -5.2545    1.0000 </r>
       <r>   -5.1006    1.0000 </r>
       <r>   -1.0606    0.0000 </r>
       <r>   -0.8937    0.0000 </r>
       <r>    4.6213    0.0000 </r>
       <r>    4.7354    0.0000 </r>
      </set>
      <set comment="kpoint 234">
       <r>  -17.1814    1.0000 </r>
       <r>  -17.1814    1.0000 </r>
       <r>  -15.7895    1.0000 </r>
       <r>  -15.7895    1.0000 </r>
       <r>   -9.1651    1.0000 </r>
       <r>   -9.1651    1.0000 </r>
       <r>   -5.1720    1.0000 </r>
       <r>   -5.1720    1.0000 </r>
       <r>   -0.9937    0.0000 </r>
       <r>   -0.9937    0.0000 </r>
       <r>    4.6305    0.0000 </r>
       <r>    4.6305    0.0000 </r>
      </set>
      <set comment="kpoint 235">
       <r>  -17.9738    1.0000 </r>
       <r>  -17.9738    1.0000 </r>
       <r>  -13.2758    1.0000 </r>
       <r>  -13.2758    1.0000 </r>
       <r>  -11.6920    1.0000 </r>
       <r>  -11.6920    1.0000 </r>
       <r>   -5.4858    1.0000 </r>
       <r>   -5.4858    1.0000 </r>
       <r>    0.0557    0.0000 </r>
       <r>    0.0557    0.0000 </r>
       <r>    6.4820    0.0000 </r>
       <r>    6.4820    0.0000 </r>
      </set>
      <set comment="kpoint 236">
       <r>  -17.9645    1.0000 </r>
       <r>  -17.9645    1.0000 </r>
       <r>  -13.3604    1.0000 </r>
       <r>  -13.3604    1.0000 </r>
       <r>  -11.6048    1.0000 </r>
       <r>  -11.6048    1.0000 </r>
       <r>   -5.4803    1.0000 </r>
       <r>   -5.4803    1.0000 </r>
       <r>    0.0352    0.0000 </r>
       <r>    0.0352    0.0000 </r>
       <r>    6.4954    0.0000 </r>
       <r>    6.4954    0.0000 </r>
      </set>
      <set comment="kpoint 237">
       <r>  -17.9367    1.0000 </r>
       <r>  -17.9367    1.0000 </r>
       <r>  -13.5723    1.0000 </r>
       <r>  -13.5723    1.0000 </r>
       <r>  -11.3854    1.0000 </r>
       <r>  -11.3854    1.0000 </r>
       <r>   -5.4639    1.0000 </r>
       <r>   -5.4639    1.0000 </r>
       <r>   -0.0248    0.0000 </r>
       <r>   -0.0248    0.0000 </r>
       <r>    6.5357    0.0000 </r>
       <r>    6.5357    0.0000 </r>
      </set>
      <set comment="kpoint 238">
       <r>  -17.8906    1.0000 </r>
       <r>  -17.8906    1.0000 </r>
       <r>  -13.8472    1.0000 </r>
       <r>  -13.8472    1.0000 </r>
       <r>  -11.0996    1.0000 </r>
       <r>  -11.0996    1.0000 </r>
       <r>   -5.4375    1.0000 </r>
       <r>   -5.4375    1.0000 </r>
       <r>   -0.1190    0.0000 </r>
       <r>   -0.1190    0.0000 </r>
       <r>    6.6018    0.0000 </r>
       <r>    6.6018    0.0000 </r>
      </set>
      <set comment="kpoint 239">
       <r>  -17.8265    1.0000 </r>
       <r>  -17.8265    1.0000 </r>
       <r>  -14.1467    1.0000 </r>
       <r>  -14.1467    1.0000 </r>
       <r>  -10.7883    1.0000 </r>
       <r>  -10.7883    1.0000 </r>
       <r>   -5.4022    1.0000 </r>
       <r>   -5.4022    1.0000 </r>
       <r>   -0.2397    0.0000 </r>
       <r>   -0.2397    0.0000 </r>
       <r>    6.6886    0.0000 </r>
       <r>    6.6886    0.0000 </r>
      </set>
      <set comment="kpoint 240">
       <r>  -17.7452    1.0000 </r>
       <r>  -17.7452    1.0000 </r>
       <r>  -14.4519    1.0000 </r>
       <r>  -14.4519    1.0000 </r>
       <r>  -10.4739    1.0000 </r>
       <r>  -10.4739    1.0000 </r>
       <r>   -5.3598    1.0000 </r>
       <r>   -5.3598    1.0000 </r>
       <r>   -0.3778    0.0000 </r>
       <r>   -0.3778    0.0000 </r>
       <r>    6.6450    0.0000 </r>
       <r>    6.6450    0.0000 </r>
      </set>
      <set comment="kpoint 241">
       <r>  -17.6477    1.0000 </r>
       <r>  -17.6477    1.0000 </r>
       <r>  -14.7523    1.0000 </r>
       <r>  -14.7523    1.0000 </r>
       <r>  -10.1710    1.0000 </r>
       <r>  -10.1710    1.0000 </r>
       <r>   -5.3126    1.0000 </r>
       <r>   -5.3126    1.0000 </r>
       <r>   -0.5238    0.0000 </r>
       <r>   -0.5238    0.0000 </r>
       <r>    6.1789    0.0000 </r>
       <r>    6.1789    0.0000 </r>
      </set>
      <set comment="kpoint 242">
       <r>  -17.5356    1.0000 </r>
       <r>  -17.5356    1.0000 </r>
       <r>  -15.0411    1.0000 </r>
       <r>  -15.0411    1.0000 </r>
       <r>   -9.8910    1.0000 </r>
       <r>   -9.8910    1.0000 </r>
       <r>   -5.2634    1.0000 </r>
       <r>   -5.2634    1.0000 </r>
       <r>   -0.6679    0.0000 </r>
       <r>   -0.6679    0.0000 </r>
       <r>    5.7310    0.0000 </r>
       <r>    5.7310    0.0000 </r>
      </set>
      <set comment="kpoint 243">
       <r>  -17.4120    1.0000 </r>
       <r>  -17.4120    1.0000 </r>
       <r>  -15.3122    1.0000 </r>
       <r>  -15.3122    1.0000 </r>
       <r>   -9.6442    1.0000 </r>
       <r>   -9.6442    1.0000 </r>
       <r>   -5.2156    1.0000 </r>
       <r>   -5.2156    1.0000 </r>
       <r>   -0.8010    0.0000 </r>
       <r>   -0.8010    0.0000 </r>
       <r>    5.3434    0.0000 </r>
       <r>    5.3434    0.0000 </r>
      </set>
      <set comment="kpoint 244">
       <r>  -17.2823    1.0000 </r>
       <r>  -17.2823    1.0000 </r>
       <r>  -15.5582    1.0000 </r>
       <r>  -15.5582    1.0000 </r>
       <r>   -9.4400    1.0000 </r>
       <r>   -9.4400    1.0000 </r>
       <r>   -5.1729    1.0000 </r>
       <r>   -5.1729    1.0000 </r>
       <r>   -0.9147    0.0000 </r>
       <r>   -0.9147    0.0000 </r>
       <r>    5.0284    0.0000 </r>
       <r>    5.0284    0.0000 </r>
      </set>
      <set comment="kpoint 245">
       <r>  -17.1574    1.0000 </r>
       <r>  -17.1574    1.0000 </r>
       <r>  -15.7670    1.0000 </r>
       <r>  -15.7670    1.0000 </r>
       <r>   -9.2869    1.0000 </r>
       <r>   -9.2869    1.0000 </r>
       <r>   -5.1390    1.0000 </r>
       <r>   -5.1390    1.0000 </r>
       <r>   -1.0019    0.0000 </r>
       <r>   -1.0019    0.0000 </r>
       <r>    4.7956    0.0000 </r>
       <r>    4.7956    0.0000 </r>
      </set>
      <set comment="kpoint 246">
       <r>  -17.0587    1.0000 </r>
       <r>  -17.0587    1.0000 </r>
       <r>  -15.9163    1.0000 </r>
       <r>  -15.9163    1.0000 </r>
       <r>   -9.1920    1.0000 </r>
       <r>   -9.1920    1.0000 </r>
       <r>   -5.1171    1.0000 </r>
       <r>   -5.1171    1.0000 </r>
       <r>   -1.0566    0.0000 </r>
       <r>   -1.0566    0.0000 </r>
       <r>    4.6526    0.0000 </r>
       <r>    4.6526    0.0000 </r>
      </set>
      <set comment="kpoint 247">
       <r>  -17.0191    1.0000 </r>
       <r>  -17.0191    1.0000 </r>
       <r>  -15.9728    1.0000 </r>
       <r>  -15.9728    1.0000 </r>
       <r>   -9.1598    1.0000 </r>
       <r>   -9.1598    1.0000 </r>
       <r>   -5.1096    1.0000 </r>
       <r>   -5.1096    1.0000 </r>
       <r>   -1.0753    0.0000 </r>
       <r>   -1.0753    0.0000 </r>
       <r>    4.6044    0.0000 </r>
       <r>    4.6044    0.0000 </r>
      </set>
     </set>
    </set>
   </array>
  </eigenvalues>
  <separator name="orbital magnetization" >
   <v name="MAGDIPOLOUT">      0.00000000      0.00000000      0.00000000</v>
  </separator>
 </calculation>
 <structure name="finalpos" >
  <crystal>
   <varray name="basis" >
    <v>       4.27385596       0.00000000       0.00000000 </v>
    <v>       0.00000000       2.46692915       0.00000000 </v>
    <v>       0.00000000       0.00000000      19.99733519 </v>
   </varray>
   <i name="volume">    210.83790140 </i>
   <varray name="rec_basis" >
    <v>       0.23398074       0.00000000       0.00000000 </v>
    <v>       0.00000000       0.40536227       0.00000000 </v>
    <v>       0.00000000       0.00000000       0.05000666 </v>
   </varray>
  </crystal>
  <varray name="positions" >
   <v>      -0.00000439       0.00000000      -0.00000000 </v>
   <v>       0.16667106       0.50000000       0.00000000 </v>
   <v>       0.49999561       0.50000000      -0.00000000 </v>
   <v>       0.66667106       0.00000000       0.00000000 </v>
  </varray>
 </structure>
</modeling>
