gr                                      
           1
     4.273856    0.000000    0.000000
     0.000000    2.466929    0.000000
     0.000000    0.000000   19.997335
   C 
   4
Direct configuration=     1
   0.00013158  0.00000000  0.00000000
   0.16653509  0.50000000  0.00000000
   0.50013158  0.50000000  0.00000000
   0.66653509  0.00000000  0.00000000
Direct configuration=     2
  -0.00054760  0.00000000 -0.00000000
   0.16721426  0.50000000  0.00000000
   0.49945240  0.50000000 -0.00000000
   0.66721426  0.00000000  0.00000000
Direct configuration=     3
  -0.00000320  0.00000000 -0.00000000
   0.16666987  0.50000000  0.00000000
   0.49999680  0.50000000 -0.00000000
   0.66666987  0.00000000  0.00000000
Direct configuration=     4
  -0.00000441  0.00000000 -0.00000000
   0.16667107  0.50000000  0.00000000
   0.49999559  0.50000000 -0.00000000
   0.66667107  0.00000000  0.00000000
Direct configuration=     5
  -0.00000439  0.00000000 -0.00000000
   0.16667106  0.50000000  0.00000000
   0.49999561  0.50000000 -0.00000000
   0.66667106  0.00000000  0.00000000
Direct configuration=     6
  -0.00000439  0.00000000 -0.00000000
   0.16667106  0.50000000  0.00000000
   0.49999561  0.50000000 -0.00000000
   0.66667106  0.00000000  0.00000000
Direct configuration=     7
  -0.00000439  0.00000000 -0.00000000
   0.16667106  0.50000000  0.00000000
   0.49999561  0.50000000 -0.00000000
   0.66667106  0.00000000  0.00000000
