 running on    8 total cores
 distrk:  each k-point on    8 cores,    1 groups
 distr:  one band on    2 cores,    4 groups
 using from now: INCAR     
 vasp.5.3.5 31Mar14 (build Mar 02 2015 18:14:16) complex                        
  
 POSCAR found type information on POSCAR  C 
 POSCAR found :  1 types and       4 ions
 LDA part: xc-table for Pade appr. of Perdew
 POSCAR, INCAR and KPOINTS ok, starting setup
 WARNING: small aliasing (wrap around) errors must be expected
 FFT: planning ...
 WAVECAR not read
 entering main loop
       N       E                     dE             d eps       ncg     rms          rms(c)
DAV:   1     0.189375769033E+03    0.18938E+03   -0.10614E+04  5928   0.275E+03
DAV:   2    -0.913866695389E+01   -0.19851E+03   -0.17640E+03 10420   0.259E+02
DAV:   3    -0.383555670483E+02   -0.29217E+02   -0.28566E+02  7340   0.119E+02    0.730E+00
RMM:   4    -0.376922341586E+02    0.66333E+00   -0.93351E+00  5928   0.262E+01    0.423E+00
RMM:   5    -0.369330326241E+02    0.75920E+00   -0.28436E+00  5932   0.115E+01    0.734E-01
RMM:   6    -0.369346375874E+02   -0.16050E-02   -0.85717E-02  6377   0.204E+00    0.523E-01
RMM:   7    -0.369252870894E+02    0.93505E-02   -0.34358E-02  5935   0.161E+00    0.348E-01
RMM:   8    -0.369194693067E+02    0.58178E-02   -0.78135E-03  5934   0.584E-01    0.136E-01
RMM:   9    -0.369192118887E+02    0.25742E-03   -0.21468E-02  5928   0.869E-01    0.166E-01
RMM:  10    -0.369189906677E+02    0.22122E-03   -0.28481E-03  5928   0.384E-01    0.305E-02
RMM:  11    -0.369215421848E+02   -0.25515E-02   -0.75970E-04  5934   0.181E-01    0.474E-02
RMM:  12    -0.369219868125E+02   -0.44463E-03   -0.23313E-04  5937   0.101E-01    0.622E-03
RMM:  13    -0.369222492246E+02   -0.26241E-03   -0.59845E-05  5995   0.446E-02    0.478E-03
RMM:  14    -0.369223346128E+02   -0.85388E-04   -0.12203E-05  5940   0.205E-02    0.234E-03
RMM:  15    -0.369223430504E+02   -0.84376E-05   -0.16315E-06  6011   0.767E-03    0.883E-04
RMM:  16    -0.369223546829E+02   -0.11633E-04   -0.43224E-07  6000   0.389E-03    0.467E-04
RMM:  17    -0.369223587061E+02   -0.40232E-05   -0.36002E-08  6099   0.151E-03    0.796E-04
RMM:  18    -0.369223602583E+02   -0.15521E-05   -0.71718E-08  5928   0.192E-03    0.699E-05
WARNING in EDDRMM: call to ZHEGV failed, returncode =   6  3  1
WARNING in EDDRMM: call to ZHEGV failed, returncode =   6  3  1
RMM:  19    -0.369223609172E+02   -0.65899E-06   -0.94437E-09  6078   0.501E-04    0.225E-05
RMM:  20    -0.369223609733E+02   -0.56086E-07   -0.87627E-10  4474   0.149E-04    0.319E-05
RMM:  21    -0.369223609941E+02   -0.20733E-07   -0.35544E-10  4471   0.112E-04    0.423E-06
WARNING in EDDRMM: call to ZHEGV failed, returncode =   6  3  1
RMM:  22    -0.369223609945E+02   -0.40404E-09   -0.21782E-12  3891   0.450E-05    0.240E-06
RMM:  23    -0.369223609951E+02   -0.65063E-09   -0.14585E-11  3512   0.370E-05    0.942E-07
RMM:  24    -0.369223609949E+02    0.21453E-09   -0.84715E-12  3140   0.287E-05    0.449E-07
RMM:  25    -0.369223609950E+02   -0.12369E-09   -0.18869E-12  2785   0.241E-05    0.165E-07
RMM:  26    -0.369223609946E+02    0.39176E-09   -0.12997E-12  2541   0.223E-05    0.687E-08
RMM:  27    -0.369223609948E+02   -0.19384E-09   -0.15003E-12  2378   0.205E-05    0.749E-08
RMM:  28    -0.369223609947E+02    0.10186E-09   -0.15389E-12  2250   0.193E-05    0.106E-07
RMM:  29    -0.369223609947E+02   -0.17621E-10   -0.12002E-12  2144   0.185E-05
   1 F= -.36922361E+02 E0= -.36922319E+02  d E =-.369224E+02
 BRION: g(F)=  0.169E-05 g(S)=  0.000E+00
 bond charge predicted
       N       E                     dE             d eps       ncg     rms          rms(c)
DAV:   1    -0.369223584312E+02    0.25635E-05   -0.22835E-04  6440   0.142E-01    0.304E-03
RMM:   2    -0.369223585558E+02   -0.12457E-06   -0.37149E-06  5930   0.171E-02    0.217E-03
RMM:   3    -0.369223584321E+02    0.12371E-06   -0.64601E-07  5969   0.648E-03    0.544E-04
RMM:   4    -0.369223584222E+02    0.98985E-08   -0.38537E-08  6065   0.155E-03    0.156E-04
WARNING in EDDRMM: call to ZHEGV failed, returncode =   6  3  1
RMM:   5    -0.369223584215E+02    0.66393E-09   -0.30066E-09  6089   0.393E-04    0.730E-05
RMM:   6    -0.369223584215E+02    0.14438E-10   -0.44989E-10  5185   0.167E-04
   2 F= -.36922358E+02 E0= -.36922314E+02  d E =0.257323E-05
 BRION: g(F)=  0.274E-04 g(S)=  0.000E+00 retain N=  1 mean eig= 0.20
 eig:   0.199
 bond charge predicted
       N       E                     dE             d eps       ncg     rms          rms(c)
DAV:   1    -0.369223611661E+02   -0.27446E-05   -0.14641E-04  6504   0.114E-01    0.244E-03
RMM:   2    -0.369223612362E+02   -0.70119E-07   -0.23079E-06  5940   0.137E-02    0.174E-03
RMM:   3    -0.369223611688E+02    0.67473E-07   -0.41186E-07  5962   0.518E-03    0.419E-04
RMM:   4    -0.369223611611E+02    0.76402E-08   -0.24193E-08  6054   0.124E-03    0.124E-04
RMM:   5    -0.369223611622E+02   -0.11113E-08   -0.20223E-09  5960   0.320E-04    0.614E-05
RMM:   6    -0.369223611615E+02    0.70429E-09   -0.32234E-10  4571   0.145E-04    0.499E-06
RMM:   7    -0.369223611616E+02   -0.11073E-09   -0.15157E-11  3728   0.541E-05    0.272E-06
RMM:   8    -0.369223611618E+02   -0.14336E-09   -0.14901E-11  3318   0.414E-05    0.128E-06
RMM:   9    -0.369223611616E+02    0.17621E-09   -0.62796E-12  3016   0.321E-05    0.458E-07
RMM:  10    -0.369223611617E+02   -0.11437E-09   -0.46775E-12  2782   0.280E-05    0.134E-07
RMM:  11    -0.369223611615E+02    0.21168E-09   -0.25210E-12  2568   0.247E-05    0.374E-07
RMM:  12    -0.369223611616E+02   -0.54911E-10   -0.31431E-12  2378   0.226E-05
   3 F= -.36922361E+02 E0= -.36922319E+02  d E =-.274005E-05
 BRION: g(F)=  0.409E-11 g(S)=  0.000E+00 retain N=  1 mean eig= 0.20
 eig:   0.199
 bond charge predicted
       N       E                     dE             d eps       ncg     rms          rms(c)
DAV:   1    -0.369223611611E+02    0.43849E-09    0.57424E-09  4736   0.484E-05    0.726E-07
RMM:   2    -0.369223611615E+02   -0.47783E-09    0.15584E-13  1690   0.154E-05    0.450E-07
RMM:   3    -0.369223611619E+02   -0.33583E-09   -0.27821E-13  1577   0.153E-05    0.122E-08
RMM:   4    -0.369223611616E+02    0.24806E-09   -0.67559E-14  1483   0.151E-05    0.101E-08
RMM:   5    -0.369223611620E+02   -0.32117E-09   -0.16378E-13  1487   0.148E-05    0.117E-08
RMM:   6    -0.369223611615E+02    0.46350E-09   -0.58554E-13  1302   0.146E-05    0.135E-08
RMM:   7    -0.369223611615E+02   -0.46612E-10   -0.22307E-13  1409   0.145E-05
   4 F= -.36922361E+02 E0= -.36922319E+02  d E =0.235332E-10
 BRION: g(F)=  0.743E-12 g(S)=  0.000E+00 retain N=  1 mean eig= 0.14
 eig:   0.140
 bond charge predicted
       N       E                     dE             d eps       ncg     rms          rms(c)
DAV:   1    -0.369223611613E+02    0.17837E-09    0.57644E-09  4512   0.173E-05    0.307E-07
RMM:   2    -0.369223611617E+02   -0.43372E-09    0.26070E-14  1035   0.613E-06    0.189E-07
RMM:   3    -0.369223611615E+02    0.26296E-09    0.30840E-15  1233   0.599E-06    0.531E-09
RMM:   4    -0.369223611615E+02   -0.30809E-10   -0.11472E-14  1144   0.596E-06    0.223E-09
RMM:   5    -0.369223611615E+02    0.11255E-10   -0.66120E-14  1139   0.596E-06
   5 F= -.36922361E+02 E0= -.36922319E+02  d E =0.346745E-10
 BRION: g(F)=  0.119E-12 g(S)=  0.000E+00 retain N=  1 mean eig= 0.10
 eig:   0.100
 reached required accuracy - stopping structural energy minimisation
