    4    4  400    1
  0.5270948E+02  0.4269123E-09  0.2480377E-09  0.1991097E-08  0.5000000E-15
  1.000000000000000E-004
  CAR 
 gr                                      
     16    247     12
 
  0.0000000E+00  0.0000000E+00  0.0000000E+00  0.1157407E-02
    1      -22.216802
    2      -16.951975
    3      -15.949166
    4      -10.330480
    5       -9.230982
    6       -5.834338
    7       -5.773395
    8       -5.065635
    9       -1.087656
   10        0.528240
   11        1.328716
   12        1.713813
 
  0.4166667E-01  0.0000000E+00  0.0000000E+00  0.2314815E-02
    1      -22.206524
    2      -17.123110
    3      -15.762817
    4      -10.318219
    5       -9.220745
    6       -5.857165
    7       -5.815601
    8       -5.132902
    9       -1.004644
   10        0.542177
   11        1.342828
   12        1.728096
 
  0.8333333E-01  0.0000000E+00  0.0000000E+00  0.2314815E-02
    1      -22.175697
    2      -17.466553
    3      -15.373816
    4      -10.281456
    5       -9.190083
    6       -5.940523
    7       -5.924368
    8       -5.319291
    9       -0.771196
   10        0.583992
   11        1.385157
   12        1.770947
 
  0.1250000E+00  0.0000000E+00  0.0000000E+00  0.2314815E-02
    1      -22.124340
    2      -17.846734
    3      -14.917999
    4      -10.220247
    5       -9.139151
    6       -6.143362
    7       -6.032341
    8       -5.590706
    9       -0.421927
   10        0.653685
   11        1.455694
   12        1.842365
 
  0.1666667E+00  0.0000000E+00  0.0000000E+00  0.2314815E-02
    1      -22.052487
    2      -18.228274
    3      -14.431194
    4      -10.134691
    5       -9.068208
    6       -6.416936
    7       -6.175722
    8       -5.913642
    9        0.008782
   10        0.751259
   11        1.554416
   12        1.942351
 
  0.2083333E+00  0.0000000E+00  0.0000000E+00  0.2314815E-02
    1      -21.960186
    2      -18.600492
    3      -13.924732
    4      -10.024927
    5       -8.977631
    6       -6.752626
    7       -6.348125
    8       -6.263373
    9        0.494950
   10        0.876709
   11        1.681290
   12        2.070906
 
  0.2500000E+00  0.0000000E+00  0.0000000E+00  0.2314815E-02
    1      -21.847501
    2      -18.959109
    3      -13.403750
    4       -9.891145
    5       -8.867926
    6       -7.141268
    7       -6.623531
    8       -6.542832
    9        1.018547
   10        1.030019
   11        1.836268
   12        2.228029
 
  0.2916667E+00  0.0000000E+00  0.0000000E+00  0.2314815E-02
    1      -21.714513
    2      -19.302004
    3      -12.871464
    4       -9.733588
    5       -8.739742
    6       -7.573850
    7       -6.983547
    8       -6.753326
    9        1.211164
   10        1.566855
   11        2.019274
   12        2.413716
 
  0.3333333E+00  0.0000000E+00  0.0000000E+00  0.2314815E-02
    1      -21.561318
    2      -19.627945
    3      -12.330463
    4       -9.552567
    5       -8.593895
    6       -8.041958
    7       -7.336503
    8       -6.973625
    9        1.420103
   10        2.130127
   11        2.230191
   12        2.627962
 
  0.3750000E+00  0.0000000E+00  0.0000000E+00  0.2314815E-02
    1      -21.388030
    2      -19.936132
    3      -11.783215
    4       -9.348469
    5       -8.538004
    6       -8.431394
    7       -7.677748
    8       -7.198439
    9        1.656784
   10        2.468815
   11        2.699391
   12        2.870756
 
  0.4166667E+00  0.0000000E+00  0.0000000E+00  0.2314815E-02
    1      -21.194786
    2      -20.225993
    3      -11.232300
    4       -9.121780
    5       -9.055307
    6       -8.253478
    7       -8.004056
    8       -7.423206
    9        1.921131
   10        2.734728
   11        3.142082
   12        3.252100
 
  0.4583333E+00  0.0000000E+00  0.0000000E+00  0.2314815E-02
    1      -20.981746
    2      -20.497097
    3      -10.680568
    4       -9.588058
    5       -8.873109
    6       -8.313115
    7       -8.061661
    8       -7.644065
    9        2.213040
   10        2.878857
   11        3.026842
   12        3.442593
 
  0.5000000E+00  0.0000000E+00  0.0000000E+00  0.1157407E-02
    1      -20.749107
    2      -20.749107
    3      -10.131249
    4      -10.131249
    5       -8.603226
    6       -8.603226
    7       -7.857780
    8       -7.857780
    9        2.532362
   10        2.532362
   11        3.340696
   12        3.340696
 
  0.0000000E+00  0.2777778E-01  0.0000000E+00  0.2314815E-02
    1      -22.203280
    2      -16.940360
    3      -15.937829
    4      -10.314349
    5       -9.291824
    6       -5.890400
    7       -5.804057
    8       -5.049197
    9       -1.092089
   10        0.546570
   11        1.347293
   12        1.732616
 
  0.4166667E-01  0.2777778E-01  0.0000000E+00  0.4629630E-02
    1      -22.193003
    2      -17.111335
    3      -15.751693
    4      -10.302092
    5       -9.281567
    6       -5.920951
    7       -5.837849
    8       -5.116617
    9       -1.009047
   10        0.560509
   11        1.361403
   12        1.746900
 
  0.8333333E-01  0.2777778E-01  0.0000000E+00  0.4629630E-02
    1      -22.162180
    2      -17.454529
    3      -15.363103
    4      -10.265342
    5       -9.250846
    6       -6.021520
    7       -5.927467
    8       -5.303352
    9       -0.775618
   10        0.602325
   11        1.403731
   12        1.789750
 
  0.1250000E+00  0.2777778E-01  0.0000000E+00  0.4629630E-02
    1      -22.110830
    2      -17.834487
    3      -14.907785
    4      -10.204154
    5       -9.199809
    6       -6.205841
    7       -6.051094
    8       -5.575121
    9       -0.426606
   10        0.672023
   11        1.474263
   12        1.861169
 
  0.1666667E+00  0.2777778E-01  0.0000000E+00  0.4629630E-02
    1      -22.038987
    2      -18.215836
    3      -14.421571
    4      -10.118628
    5       -9.128711
    6       -6.467151
    7       -6.203349
    8       -5.898314
    9        0.003504
   10        0.769604
   11        1.572978
   12        1.961157
 
  0.2083333E+00  0.2777778E-01  0.0000000E+00  0.4629630E-02
    1      -21.946701
    2      -18.587890
    3      -13.915812
    4      -10.008902
    5       -9.037918
    6       -6.793099
    7       -6.381949
    8       -6.248192
    9        0.488715
   10        0.895062
   11        1.699845
   12        2.089714
 
  0.2500000E+00  0.2777778E-01  0.0000000E+00  0.4629630E-02
    1      -21.834034
    2      -18.946366
    3      -13.395668
    4       -9.875167
    5       -8.927922
    6       -7.173359
    7       -6.608407
    8       -6.581619
    9        1.011025
   10        1.048383
   11        1.854814
   12        2.246839
 
  0.2916667E+00  0.2777778E-01  0.0000000E+00  0.4629630E-02
    1      -21.701067
    2      -19.289140
    3      -12.864383
    4       -9.717666
    5       -8.799354
    6       -7.598660
    7       -6.968416
    8       -6.796268
    9        1.229540
   10        1.557759
   11        2.037811
   12        2.432529
 
  0.3333333E+00  0.2777778E-01  0.0000000E+00  0.4629630E-02
    1      -21.547898
    2      -19.614977
    3      -12.324585
    4       -9.536709
    5       -8.653009
    6       -8.060507
    7       -7.321323
    8       -7.020063
    9        1.438493
   10        2.119247
   11        2.248721
   12        2.646779
 
  0.3750000E+00  0.2777778E-01  0.0000000E+00  0.4629630E-02
    1      -21.374642
    2      -19.923074
    3      -11.778785
    4       -9.332683
    5       -8.551241
    6       -8.489869
    7       -7.662495
    8       -7.247797
    9        1.675190
   10        2.487343
   11        2.686717
   12        2.889579
 
  0.4166667E+00  0.2777778E-01  0.0000000E+00  0.4629630E-02
    1      -21.181433
    2      -20.212857
    3      -11.229616
    4       -9.106074
    5       -9.064083
    6       -8.311141
    7       -7.988714
    8       -7.474979
    9        1.939555
   10        2.753266
   11        3.160913
   12        3.246571
 
  0.4583333E+00  0.2777778E-01  0.0000000E+00  0.4629630E-02
    1      -20.968437
    2      -20.483895
    3      -10.679994
    4       -9.593118
    5       -8.857489
    6       -8.297680
    7       -8.118298
    8       -7.697814
    9        2.231489
   10        2.897402
   11        3.045413
   12        3.460752
 
  0.5000000E+00  0.2777778E-01  0.0000000E+00  0.2314815E-02
    1      -20.735847
    2      -20.735847
    3      -10.133226
    4      -10.133226
    5       -8.587697
    6       -8.587697
    7       -7.913130
    8       -7.913130
    9        2.550846
   10        2.550846
   11        3.359255
   12        3.359255
 
  0.0000000E+00  0.5555556E-01  0.0000000E+00  0.2314815E-02
    1      -22.162723
    2      -16.905517
    3      -15.903982
    4      -10.265988
    5       -9.469454
    6       -6.054148
    7       -5.895241
    8       -4.999905
    9       -1.106213
   10        0.601567
   11        1.403017
   12        1.789026
 
  0.4166667E-01  0.5555556E-01  0.0000000E+00  0.4629630E-02
    1      -22.152450
    2      -17.076024
    3      -15.718479
    4      -10.253744
    5       -9.459133
    6       -6.091787
    7       -5.919937
    8       -5.067794
    9       -1.023072
   10        0.615507
   11        1.417124
   12        1.803310
 
  0.8333333E-01  0.5555556E-01  0.0000000E+00  0.4629630E-02
    1      -22.121640
    2      -17.418479
    3      -15.331125
    4      -10.217033
    5       -9.428215
    6       -6.202210
    7       -5.994020
    8       -5.255598
    9       -0.789688
   10        0.657328
   11        1.459442
   12        1.846162
 
  0.1250000E+00  0.5555556E-01  0.0000000E+00  0.4629630E-02
    1      -22.070312
    2      -17.797771
    3      -14.877325
    4      -10.155910
    5       -9.376837
    6       -6.380647
    7       -6.115088
    8       -5.528448
    9       -0.441455
   10        0.727036
   11        1.529960
   12        1.917582
 
  0.1666667E+00  0.5555556E-01  0.0000000E+00  0.4629630E-02
    1      -21.998502
    2      -18.178546
    3      -14.392923
    4      -10.070474
    5       -9.305230
    6       -6.622755
    7       -6.276507
    8       -5.852427
    9       -0.013174
   10        0.824632
   11        1.628656
   12        2.017574
 
  0.2083333E+00  0.5555556E-01  0.0000000E+00  0.4629630E-02
    1      -21.906257
    2      -18.550106
    3      -13.889326
    4       -9.960866
    5       -9.213728
    6       -6.924115
    7       -6.469157
    8       -6.202750
    9        0.469117
   10        0.950111
   11        1.755498
   12        2.146135
 
  0.2500000E+00  0.5555556E-01  0.0000000E+00  0.4629630E-02
    1      -21.793643
    2      -18.908158
    3      -13.371770
    4       -9.827274
    5       -9.102777
    6       -7.279167
    7       -6.683825
    8       -6.563134
    9        0.987495
   10        1.103459
   11        1.910439
   12        2.303267
 
  0.2916667E+00  0.5555556E-01  0.0000000E+00  0.4629630E-02
    1      -21.660743
    2      -19.250567
    3      -12.843595
    4       -9.669942
    5       -8.972952
    6       -7.681091
    7       -6.923117
    8       -6.912471
    9        1.284647
   10        1.529420
   11        2.093409
   12        2.488966
 
  0.3333333E+00  0.5555556E-01  0.0000000E+00  0.4629630E-02
    1      -21.507652
    2      -19.576090
    3      -12.307547
    4       -9.489180
    5       -8.824970
    6       -8.122412
    7       -7.275872
    8       -7.148477
    9        1.493636
   10        2.085434
   11        2.304295
   12        2.703226
 
  0.3750000E+00  0.5555556E-01  0.0000000E+00  0.4629630E-02
    1      -21.334488
    2      -19.883916
    3      -11.766281
    4       -9.285373
    5       -8.659720
    6       -8.595679
    7       -7.616815
    8       -7.386467
    9        1.730373
   10        2.542909
   11        2.647285
   12        2.946040
 
  0.4166667E+00  0.5555556E-01  0.0000000E+00  0.4629630E-02
    1      -21.141389
    2      -20.173466
    3      -11.222616
    4       -9.093927
    5       -9.059007
    6       -8.478292
    7       -7.942765
    8       -7.622071
    9        1.994784
   10        2.808862
   11        3.203973
   12        3.217395
 
  0.4583333E+00  0.5555556E-01  0.0000000E+00  0.4629630E-02
    1      -20.928520
    2      -20.444301
    3      -10.679687
    4       -9.610891
    5       -8.810685
    6       -8.282014
    7       -8.251444
    8       -7.851722
    9        2.286775
   10        2.952909
   11        3.101110
   12        3.517268
 
  0.5000000E+00  0.5555556E-01  0.0000000E+00  0.2314815E-02
    1      -20.696080
    2      -20.696080
    3      -10.141070
    4      -10.141070
    5       -8.541172
    6       -8.541172
    7       -8.072502
    8       -8.072502
    9        2.606215
   10        2.606215
   11        3.414912
   12        3.414912
 
  0.0000000E+00  0.8333333E-01  0.0000000E+00  0.2314815E-02
    1      -22.095166
    2      -16.847458
    3      -15.848146
    4      -10.185498
    5       -9.750531
    6       -6.313606
    7       -6.044611
    8       -4.917817
    9       -1.132495
   10        0.693245
   11        1.495865
   12        1.883046
 
  0.4166667E-01  0.8333333E-01  0.0000000E+00  0.4629630E-02
    1      -22.084901
    2      -17.017225
    3      -15.663672
    4      -10.173277
    5       -9.740085
    6       -6.355423
    7       -6.061940
    8       -4.986539
    9       -1.049159
   10        0.707185
   11        1.509967
   12        1.897330
 
  0.8333333E-01  0.8333333E-01  0.0000000E+00  0.4629630E-02
    1      -22.054113
    2      -17.358479
    3      -15.278401
    4      -10.136632
    5       -9.708783
    6       -6.472748
    7       -6.120071
    8       -5.176221
    9       -0.815813
   10        0.749008
   11        1.552270
   12        1.940182
 
  0.1250000E+00  0.8333333E-01  0.0000000E+00  0.4629630E-02
    1      -22.002823
    2      -17.736664
    3      -14.827216
    4      -10.075620
    5       -9.656734
    6       -6.651650
    7       -6.227125
    8       -5.450956
    9       -0.468895
   10        0.818722
   11        1.622761
   12        2.011605
 
  0.1666667E+00  0.8333333E-01  0.0000000E+00  0.4629630E-02
    1      -21.931067
    2      -18.116476
    3      -14.345973
    4       -9.990340
    5       -9.584127
    6       -6.882298
    7       -6.383738
    8       -5.776286
    9       -0.043752
   10        0.916331
   11        1.721420
   12        2.111599
 
  0.2083333E+00  0.8333333E-01  0.0000000E+00  0.4629630E-02
    1      -21.838893
    2      -18.487207
    3      -13.846182
    4       -9.880932
    5       -9.491229
    6       -7.159393
    7       -6.583405
    8       -6.127361
    9        0.433515
   10        1.041831
   11        1.848217
   12        2.240167
 
  0.2500000E+00  0.8333333E-01  0.0000000E+00  0.4629630E-02
    1      -21.726369
    2      -18.844546
    3      -13.333221
    4       -9.747586
    5       -9.378393
    6       -7.480531
    7       -6.815118
    8       -6.488018
    9        0.945128
   10        1.195208
   11        2.003105
   12        2.397306
 
  0.2916667E+00  0.8333333E-01  0.0000000E+00  0.4629630E-02
    1      -21.593578
    2      -19.186341
    3      -12.810619
    4       -9.590545
    5       -9.246069
    6       -7.844234
    7       -7.066376
    8       -6.847940
    9        1.376433
   10        1.478770
   11        2.186018
   12        2.583016
 
  0.3333333E+00  0.8333333E-01  0.0000000E+00  0.4629630E-02
    1      -21.440618
    2      -19.511335
    3      -12.281359
    4       -9.410117
    5       -9.094815
    6       -8.248042
    7       -7.325975
    8       -7.200419
    9        1.585464
   10        2.025297
   11        2.396856
   12        2.797290
 
  0.3750000E+00  0.8333333E-01  0.0000000E+00  0.4629630E-02
    1      -21.267609
    2      -19.818706
    3      -11.748398
    4       -9.206689
    5       -8.925306
    6       -8.687642
    7       -7.585517
    8       -7.540958
    9        1.822245
   10        2.577115
   11        2.635447
   12        3.040122
 
  0.4166667E+00  0.8333333E-01  0.0000000E+00  0.4629630E-02
    1      -21.074692
    2      -20.107864
    3      -11.214940
    4       -9.157262
    5       -8.980741
    6       -8.738359
    7       -7.866435
    8       -7.839356
    9        2.086706
   10        2.901445
   11        3.126006
   12        3.311501
 
  0.4583333E+00  0.8333333E-01  0.0000000E+00  0.4629630E-02
    1      -20.862039
    2      -20.378362
    3      -10.684600
    4       -9.650596
    5       -8.732874
    6       -8.534954
    7       -8.174615
    8       -8.083789
    9        2.378756
   10        3.045103
   11        3.193885
   12        3.611440
 
  0.5000000E+00  0.8333333E-01  0.0000000E+00  0.2314815E-02
    1      -20.629849
    2      -20.629849
    3      -10.161545
    4      -10.161545
    5       -8.463844
    6       -8.463844
    7       -8.316277
    8       -8.316277
    9        2.698277
   10        2.698277
   11        3.507580
   12        3.507580
 
  0.0000000E+00  0.1111111E+00  0.0000000E+00  0.2314815E-02
    1      -22.000673
    2      -16.766204
    3      -15.771304
    4      -10.116431
    5      -10.073050
    6       -6.652372
    7       -6.248447
    8       -4.803036
    9       -1.174997
   10        0.821621
   11        1.625801
   12        2.014680
 
  0.4166667E-01  0.1111111E+00  0.0000000E+00  0.4629630E-02
    1      -21.990419
    2      -16.935028
    3      -15.588219
    4      -10.105765
    5      -10.060861
    6       -6.697261
    7       -6.258561
    8       -4.873038
    9       -1.091313
   10        0.835559
   11        1.639895
   12        2.028964
 
  0.8333333E-01  0.1111111E+00  0.0000000E+00  0.4629630E-02
    1      -21.959662
    2      -17.274662
    3      -15.205927
    4      -10.073790
    5      -10.024313
    6       -6.820638
    7       -6.298805
    8       -5.065577
    9       -0.857908
   10        0.877375
   11        1.682171
   12        2.071815
 
  0.1250000E+00  0.1111111E+00  0.0000000E+00  0.4629630E-02
    1      -21.908425
    2      -17.651304
    3      -14.758616
    4      -10.020567
    5       -9.963464
    6       -7.002890
    7       -6.384597
    8       -5.343130
    9       -0.512840
   10        0.947081
   11        1.752619
   12        2.143237
 
  0.1666667E+00  0.1111111E+00  0.0000000E+00  0.4629630E-02
    1      -21.836744
    2      -18.029757
    3      -14.282147
    4       -9.946200
    5       -9.878411
    6       -7.229635
    7       -6.523315
    8       -5.670442
    9       -0.092258
   10        1.044686
   11        1.851218
   12        2.243232
 
  0.2083333E+00  0.1111111E+00  0.0000000E+00  0.4629630E-02
    1      -21.744670
    2      -18.399312
    3      -13.788195
    4       -9.850828
    5       -9.769297
    6       -7.492312
    7       -6.713954
    8       -6.022590
    9        0.377678
   10        1.170191
   11        1.977937
   12        2.371803
 
  0.2500000E+00  0.1111111E+00  0.0000000E+00  0.4629630E-02
    1      -21.632273
    2      -18.755638
    3      -13.282396
    4       -9.734624
    5       -9.636310
    6       -7.786612
    7       -6.949268
    8       -6.383608
    9        0.879428
   10        1.323582
   11        2.132734
   12        2.528949
 
  0.2916667E+00  0.1111111E+00  0.0000000E+00  0.4629630E-02
    1      -21.499635
    2      -19.096561
    3      -12.768616
    4       -9.597786
    5       -9.479695
    6       -8.111486
    7       -7.217604
    8       -6.743402
    9        1.400996
   10        1.504831
   11        2.315547
   12        2.714669
 
  0.3333333E+00  0.1111111E+00  0.0000000E+00  0.4629630E-02
    1      -21.346859
    2      -19.420805
    3      -12.250294
    4       -9.440529
    5       -9.299759
    6       -8.468034
    7       -7.504899
    8       -7.095443
    9        1.713893
   10        1.933634
   11        2.526289
   12        2.928956
 
  0.3750000E+00  0.1111111E+00  0.0000000E+00  0.4629630E-02
    1      -21.174069
    2      -19.727530
    3      -11.730980
    4       -9.263070
    5       -9.096886
    6       -8.857711
    7       -7.797234
    8       -7.435363
    9        1.950706
   10        2.470386
   11        2.764816
   12        3.171806
 
  0.4166667E+00  0.1111111E+00  0.0000000E+00  0.4629630E-02
    1      -20.981411
    2      -20.016132
    3      -11.214643
    4       -9.280263
    5       -9.065617
    6       -8.871555
    7       -8.083390
    8       -7.760127
    9        2.215199
   10        3.004954
   11        3.030855
   12        3.443207
 
  0.4583333E+00  0.1111111E+00  0.0000000E+00  0.4629630E-02
    1      -20.769061
    2      -20.286151
    3      -10.705863
    4       -9.732714
    5       -8.848383
    6       -8.624358
    7       -8.356125
    8       -8.067559
    9        2.507280
   10        3.173722
   11        3.323613
   12        3.527092
 
  0.5000000E+00  0.1111111E+00  0.0000000E+00  0.2314815E-02
    1      -20.537225
    2      -20.537225
    3      -10.209923
    4      -10.209923
    5       -8.611669
    6       -8.611669
    7       -8.356044
    8       -8.356044
    9        2.826837
   10        2.826837
   11        3.636881
   12        3.636881
 
  0.0000000E+00  0.1388889E+00  0.0000000E+00  0.2314815E-02
    1      -21.879333
    2      -16.661784
    3      -15.675134
    4      -10.546525
    5       -9.928890
    6       -7.052927
    7       -6.501900
    8       -4.655707
    9       -1.239242
   10        0.986707
   11        1.792769
   12        2.183932
 
  0.4166667E-01  0.1388889E+00  0.0000000E+00  0.4629630E-02
    1      -21.869092
    2      -16.829572
    3      -15.493743
    4      -10.535489
    5       -9.916745
    6       -7.100559
    7       -6.504436
    8       -4.727584
    9       -1.154941
   10        1.000637
   11        1.806848
   12        2.198214
 
  0.8333333E-01  0.1388889E+00  0.0000000E+00  0.4629630E-02
    1      -21.838375
    2      -17.167238
    3      -15.115434
    4      -10.502370
    5       -9.880329
    6       -7.229906
    7       -6.524800
    8       -4.924241
    9       -0.921192
   10        1.042432
   11        1.849084
   12        2.241063
 
  0.1250000E+00  0.1388889E+00  0.0000000E+00  0.4629630E-02
    1      -21.787207
    2      -17.541908
    3      -14.673580
    4      -10.447140
    5       -9.819701
    6       -7.417166
    7       -6.584265
    8       -5.205758
    9       -0.578446
   10        1.112108
   11        1.919462
   12        2.312480
 
  0.1666667E+00  0.1388889E+00  0.0000000E+00  0.4629630E-02
    1      -21.715624
    2      -17.918593
    3      -14.204032
    4      -10.369736
    5       -9.734958
    6       -7.644631
    7       -6.695888
    8       -5.535773
    9       -0.163943
   10        1.209681
   11        2.017963
   12        2.412472
 
  0.2083333E+00  0.1388889E+00  0.0000000E+00  0.4629630E-02
    1      -21.623680
    2      -18.286604
    3      -13.718751
    4      -10.270043
    5       -9.626243
    6       -7.901294
    7       -6.863657
    8       -5.889325
    9        0.296151
   10        1.335159
   11        2.144554
   12        2.541041
 
  0.2500000E+00  0.1388889E+00  0.0000000E+00  0.4629630E-02
    1      -21.511445
    2      -18.641599
    3      -13.223833
    4      -10.147861
    5       -9.493747
    6       -8.180619
    7       -7.084825
    8       -6.250757
    9        0.784685
   10        1.488534
   11        2.299193
   12        2.698189
 
  0.2916667E+00  0.1388889E+00  0.0000000E+00  0.4629630E-02
    1      -21.379006
    2      -18.981376
    3      -12.723802
    4      -10.002855
    5       -9.337714
    6       -8.479374
    7       -7.351610
    8       -6.610298
    9        1.290127
   10        1.669778
   11        2.481823
   12        2.883914
 
  0.3333333E+00  0.1388889E+00  0.0000000E+00  0.4629630E-02
    1      -21.226469
    2      -19.304634
    3      -12.222986
    4       -9.834497
    5       -9.158451
    6       -8.797208
    7       -7.652435
    8       -6.961675
    9        1.804222
   10        1.878841
   11        2.692366
   12        3.098211
 
  0.3750000E+00  0.1388889E+00  0.0000000E+00  0.4629630E-02
    1      -21.053963
    2      -19.610511
    3      -11.726111
    4       -9.642008
    5       -9.136328
    6       -8.956341
    7       -7.973081
    8       -7.300695
    9        2.115659
   10        2.320614
   11        2.930713
   12        3.341074
 
  0.4166667E+00  0.1388889E+00  0.0000000E+00  0.4629630E-02
    1      -20.861642
    2      -19.898384
    3      -11.238611
    4       -9.500605
    5       -9.424352
    6       -8.731858
    7       -8.298252
    8       -7.624444
    9        2.380150
   10        2.834056
   11        3.196695
   12        3.612493
 
  0.4583333E+00  0.1388889E+00  0.0000000E+00  0.4629630E-02
    1      -20.649687
    2      -20.167778
    3      -10.766629
    4       -9.893657
    5       -9.180434
    6       -8.613906
    7       -8.485589
    8       -7.930822
    9        2.672219
   10        3.338597
   11        3.339768
   12        3.489889
 
  0.5000000E+00  0.1388889E+00  0.0000000E+00  0.2314815E-02
    1      -20.418314
    2      -20.418314
    3      -10.316531
    4      -10.316531
    5       -8.909772
    6       -8.909772
    7       -8.218268
    8       -8.218268
    9        2.991749
   10        2.991749
   11        3.790879
   12        3.790887
 
  0.0000000E+00  0.1666667E+00  0.0000000E+00  0.2314815E-02
    1      -21.731263
    2      -16.534237
    3      -15.562453
    4      -11.020238
    5       -9.753346
    6       -7.498935
    7       -6.799301
    8       -4.476021
    9       -1.331897
   10        1.188496
   11        1.996687
   12        2.390805
 
  0.4166667E-01  0.1666667E+00  0.0000000E+00  0.4629630E-02
    1      -21.721038
    2      -16.701074
    3      -15.383003
    4      -11.008564
    5       -9.741259
    6       -7.549268
    7       -6.793878
    8       -4.550625
    9       -1.246481
   10        1.202413
   11        2.010745
   12        2.405085
 
  0.8333333E-01  0.1666667E+00  0.0000000E+00  0.4629630E-02
    1      -21.690373
    2      -17.036536
    3      -15.009935
    4      -10.973475
    5       -9.705017
    6       -7.684775
    7       -6.792852
    8       -4.753128
    9       -1.011714
   10        1.244172
   11        2.052914
   12        2.447927
 
  0.1250000E+00  0.1666667E+00  0.0000000E+00  0.4629630E-02
    1      -21.639290
    2      -17.408808
    3      -14.575779
    4      -10.914748
    5       -9.644678
    6       -7.878115
    7       -6.822566
    8       -5.040069
    9       -0.671560
   10        1.313791
   11        2.123180
   12        2.519336
 
  0.1666667E+00  0.1666667E+00  0.0000000E+00  0.4629630E-02
    1      -21.567828
    2      -17.783285
    3      -14.116399
    4      -10.831978
    5       -9.560342
    6       -8.108972
    7       -6.900975
    8       -5.373630
    9       -0.264668
   10        1.411295
   11        2.221517
   12        2.619316
 
  0.2083333E+00  0.1666667E+00  0.0000000E+00  0.4629630E-02
    1      -21.476043
    2      -18.149355
    3      -13.644294
    4      -10.724502
    5       -9.452154
    6       -8.364703
    7       -7.036347
    8       -5.728906
    9        0.182954
   10        1.536702
   11        2.347888
   12        2.747874
 
  0.2500000E+00  0.1666667E+00  0.0000000E+00  0.4629630E-02
    1      -21.364008
    2      -18.502667
    3      -13.166479
    4      -10.591301
    5       -9.320305
    6       -8.637423
    7       -7.229829
    8       -6.090729
    9        0.654792
   10        1.690014
   11        2.502241
   12        2.905015
 
  0.2916667E+00  0.1666667E+00  0.0000000E+00  0.4629630E-02
    1      -21.231814
    2      -18.840998
    3      -12.688799
    4      -10.430875
    5       -9.165041
    6       -8.922331
    7       -7.477285
    8       -6.449795
    9        1.140011
   10        1.871207
   11        2.684507
   12        3.090738
 
  0.3333333E+00  0.1666667E+00  0.0000000E+00  0.4629630E-02
    1      -21.079573
    2      -19.163016
    3      -12.217332
    4      -10.241133
    5       -9.217035
    6       -8.986670
    7       -7.770578
    8       -6.800174
    9        1.631024
   10        2.080230
   11        2.894594
   12        3.305039
 
  0.3750000E+00  0.1666667E+00  0.0000000E+00  0.4629630E-02
    1      -20.907421
    2      -19.467827
    3      -11.758857
    4      -10.019479
    5       -9.521420
    6       -8.785573
    7       -8.098558
    8       -7.137910
    9        2.122137
   10        2.317011
   11        3.132371
   12        3.547911
 
  0.4166667E+00  0.1666667E+00  0.0000000E+00  0.4629630E-02
    1      -20.715518
    2      -19.754785
    3      -11.320532
    4       -9.837734
    5       -9.763429
    6       -8.562221
    7       -8.447770
    8       -7.460245
    9        2.581459
   10        2.608808
   11        3.397629
   12        3.819342
 
  0.4583333E+00  0.1666667E+00  0.0000000E+00  0.4629630E-02
    1      -20.504056
    2      -20.023395
    3      -10.908505
    4      -10.170515
    5       -9.472208
    6       -8.803128
    7       -8.317194
    8       -7.765178
    9        2.873465
   10        3.087188
   11        3.539615
   12        3.689539
 
  0.5000000E+00  0.1666667E+00  0.0000000E+00  0.2314815E-02
    1      -20.273259
    2      -20.273259
    3      -10.525717
    4      -10.525717
    5       -9.149131
    6       -9.149131
    7       -8.051211
    8       -8.051211
    9        3.192901
   10        3.192901
   11        3.553534
   12        3.553534
 