gr                                      
           1
     4.269123    0.000000    0.000000
     0.000000    2.480377    0.000000
     0.000000    0.000000   19.910969
   C 
   4
Direct configuration=     1
   0.00013158  0.00000000  0.00000000
   0.16653509  0.50000000  0.00000000
   0.50013158  0.50000000  0.00000000
   0.66653509  0.00000000  0.00000000
Direct configuration=     2
   0.00016506  0.00000000  0.00000000
   0.16650160  0.50000000 -0.00000000
   0.50016506  0.50000000  0.00000000
   0.66650160  0.00000000 -0.00000000
Direct configuration=     3
   0.00013824  0.00000000  0.00000000
   0.16652842  0.50000000 -0.00000000
   0.50013824  0.50000000  0.00000000
   0.66652842  0.00000000 -0.00000000
Direct configuration=     4
   0.00013823  0.00000000  0.00000000
   0.16652843  0.50000000 -0.00000000
   0.50013823  0.50000000  0.00000000
   0.66652843  0.00000000 -0.00000000
Direct configuration=     5
   0.00013824  0.00000000  0.00000000
   0.16652843  0.50000000 -0.00000000
   0.50013824  0.50000000  0.00000000
   0.66652843  0.00000000 -0.00000000
