    4    4  400    1
  0.5270948E+02  0.4265553E-09  0.2492220E-09  0.1983293E-08  0.5000000E-15
  1.000000000000000E-004
  CAR 
 gr                                      
     16    247     12
 
  0.0000000E+00  0.0000000E+00  0.0000000E+00  0.1157407E-02
    1      -22.183787
    2      -16.891199
    3      -15.927903
    4      -10.304984
    5       -9.293735
    6       -5.875982
    7       -5.763369
    8       -5.026080
    9       -1.099489
   10        0.532193
   11        1.332116
   12        1.719179
 
  0.4166667E-01  0.0000000E+00  0.0000000E+00  0.2314815E-02
    1      -22.173485
    2      -17.067997
    3      -15.735937
    4      -10.292710
    5       -9.283454
    6       -5.899028
    7       -5.805085
    8       -5.094027
    9       -1.016021
   10        0.546161
   11        1.346249
   12        1.733487
 
  0.8333333E-01  0.0000000E+00  0.0000000E+00  0.2314815E-02
    1      -22.142585
    2      -17.417099
    3      -15.341417
    4      -10.255907
    5       -9.252662
    6       -5.966866
    7       -5.928599
    8       -5.282052
    9       -0.781603
   10        0.588067
   11        1.388645
   12        1.776409
 
  0.1250000E+00  0.0000000E+00  0.0000000E+00  0.2314815E-02
    1      -22.091105
    2      -17.800521
    3      -14.882596
    4      -10.194632
    5       -9.201510
    6       -6.129275
    7       -6.075828
    8       -5.555354
    9       -0.431561
   10        0.657909
   11        1.459293
   12        1.847947
 
  0.1666667E+00  0.0000000E+00  0.0000000E+00  0.2314815E-02
    1      -22.019080
    2      -18.184158
    3      -14.394036
    4      -10.108983
    5       -9.130260
    6       -6.400155
    7       -6.220467
    8       -5.880000
    9       -0.000710
   10        0.755686
   11        1.558171
   12        1.948100
 
  0.2083333E+00  0.0000000E+00  0.0000000E+00  0.2314815E-02
    1      -21.926560
    2      -18.557915
    3      -13.886494
    4       -9.999100
    5       -9.039286
    6       -6.732859
    7       -6.394304
    8       -6.231143
    9        0.484847
   10        0.881391
   11        1.685248
   12        2.076869
 
  0.2500000E+00  0.0000000E+00  0.0000000E+00  0.2314815E-02
    1      -21.813607
    2      -18.917763
    3      -13.364865
    4       -9.865172
    5       -8.929091
    6       -7.118437
    7       -6.592435
    8       -6.590542
    9        1.007104
   10        1.035004
   11        1.840475
   12        2.234252
 
  0.2916667E+00  0.0000000E+00  0.0000000E+00  0.2314815E-02
    1      -21.680301
    2      -19.261700
    3      -12.832265
    4       -9.707441
    5       -8.800323
    6       -7.548045
    7       -6.953359
    8       -6.802593
    9        1.216499
   10        1.553424
   11        2.023781
   12        2.420244
 
  0.3333333E+00  0.0000000E+00  0.0000000E+00  0.2314815E-02
    1      -21.526740
    2      -19.588555
    3      -12.291241
    4       -9.526217
    5       -8.653796
    6       -8.013392
    7       -7.307055
    8       -7.024426
    9        1.425835
   10        2.114191
   11        2.235055
   12        2.634840
 
  0.3750000E+00  0.0000000E+00  0.0000000E+00  0.2314815E-02
    1      -21.353039
    2      -19.897560
    3      -11.744247
    4       -9.321887
    5       -8.506963
    6       -8.490515
    7       -7.648914
    8       -7.250714
    9        1.662954
   10        2.474103
   11        2.680739
   12        2.878028
 
  0.4166667E+00  0.0000000E+00  0.0000000E+00  0.2314815E-02
    1      -21.159330
    2      -20.188163
    3      -11.193869
    4       -9.094934
    5       -9.022119
    6       -8.311718
    7       -7.975739
    8       -7.476875
    9        1.927780
   10        2.740534
   11        3.149796
   12        3.260624
 
  0.4583333E+00  0.0000000E+00  0.0000000E+00  0.2314815E-02
    1      -20.945777
    2      -20.459944
    3      -10.642967
    4       -9.553064
    5       -8.845964
    6       -8.285243
    7       -8.118916
    8       -7.699033
    9        2.220202
   10        2.887071
   11        3.033327
   12        3.450082
 
  0.5000000E+00  0.0000000E+00  0.0000000E+00  0.1157407E-02
    1      -20.712573
    2      -20.712573
    3      -10.094787
    4      -10.094787
    5       -8.575741
    6       -8.575741
    7       -7.913944
    8       -7.913944
    9        2.540057
   10        2.540057
   11        3.348202
   12        3.348202
 
  0.0000000E+00  0.2777778E-01  0.0000000E+00  0.2314815E-02
    1      -22.170392
    2      -16.879678
    3      -15.916795
    4      -10.289024
    5       -9.353917
    6       -5.931400
    7       -5.794434
    8       -5.009813
    9       -1.104355
   10        0.550342
   11        1.350512
   12        1.737802
 
  0.4166667E-01  0.2777778E-01  0.0000000E+00  0.4629630E-02
    1      -22.160091
    2      -17.056327
    3      -15.725033
    4      -10.276754
    5       -9.343614
    6       -5.959498
    7       -5.830398
    8       -5.077917
    9       -1.020853
   10        0.564311
   11        1.364645
   12        1.752109
 
  0.8333333E-01  0.2777778E-01  0.0000000E+00  0.4629630E-02
    1      -22.129194
    2      -17.405192
    3      -15.330918
    4      -10.239964
    5       -9.312754
    6       -6.048050
    7       -5.931229
    8       -5.266301
    9       -0.786450
   10        0.606219
   11        1.407038
   12        1.795032
 
  0.1250000E+00  0.2777778E-01  0.0000000E+00  0.4629630E-02
    1      -22.077722
    2      -17.788397
    3      -14.872600
    4      -10.178711
    5       -9.261485
    6       -6.212817
    7       -6.073190
    8       -5.539965
    9       -0.436669
   10        0.676066
   11        1.477681
   12        1.866571
 
  0.1666667E+00  0.2777778E-01  0.0000000E+00  0.4629630E-02
    1      -22.005707
    2      -18.171845
    3      -14.384645
    4      -10.093093
    5       -9.190060
    6       -6.461352
    7       -6.236734
    8       -5.864873
    9       -0.006431
   10        0.773851
   11        1.576553
   12        1.966726
 
  0.2083333E+00  0.2777778E-01  0.0000000E+00  0.4629630E-02
    1      -21.913201
    2      -18.545438
    3      -13.877825
    4       -9.983248
    5       -9.098843
    6       -6.779884
    7       -6.421151
    8       -6.216163
    9        0.478147
   10        0.899564
   11        1.703621
   12        2.095497
 
  0.2500000E+00  0.2777778E-01  0.0000000E+00  0.4629630E-02
    1      -21.800265
    2      -18.905146
    3      -13.357062
    4       -9.849368
    5       -8.988322
    6       -7.154858
    7       -6.624530
    8       -6.577510
    9        0.999087
   10        1.053189
   11        1.858839
   12        2.252882
 
  0.2916667E+00  0.2777778E-01  0.0000000E+00  0.4629630E-02
    1      -21.666982
    2      -19.248962
    3      -12.825501
    4       -9.691694
    5       -8.859125
    6       -7.575898
    7       -6.938425
    8       -6.841992
    9        1.234697
   10        1.543796
   11        2.042136
   12        2.438878
 
  0.3333333E+00  0.2777778E-01  0.0000000E+00  0.4629630E-02
    1      -21.513447
    2      -19.575713
    3      -12.285729
    4       -9.510535
    5       -8.712041
    6       -8.034162
    7       -7.292069
    8       -7.068121
    9        1.444047
   10        2.102733
   11        2.253402
   12        2.653478
 
  0.3750000E+00  0.2777778E-01  0.0000000E+00  0.4629630E-02
    1      -21.339776
    2      -19.884628
    3      -11.740248
    4       -9.306278
    5       -8.548048
    6       -8.521864
    7       -7.633851
    8       -7.297873
    9        1.681182
   10        2.492446
   11        2.667413
   12        2.896672
 
  0.4166667E+00  0.2777778E-01  0.0000000E+00  0.4629630E-02
    1      -21.146104
    2      -20.175153
    3      -11.191701
    4       -9.079407
    5       -9.032167
    6       -8.368342
    7       -7.960585
    8       -7.526834
    9        1.946028
   10        2.758887
   11        3.168441
   12        3.225544
 
  0.4583333E+00  0.2777778E-01  0.0000000E+00  0.4629630E-02
    1      -20.932593
    2      -20.446867
    3      -10.643023
    4       -9.559114
    5       -8.830524
    6       -8.269993
    7       -8.174390
    8       -7.751249
    9        2.238476
   10        2.905458
   11        3.051712
   12        3.468786
 
  0.5000000E+00  0.2777778E-01  0.0000000E+00  0.2314815E-02
    1      -20.699439
    2      -20.699439
    3      -10.097548
    4      -10.097548
    5       -8.560395
    6       -8.560395
    7       -7.967972
    8       -7.967972
    9        2.558371
   10        2.558371
   11        3.366588
   12        3.366588
 
  0.0000000E+00  0.5555556E-01  0.0000000E+00  0.2314815E-02
    1      -22.130215
    2      -16.845123
    3      -15.883646
    4      -10.241177
    5       -9.529595
    6       -6.093285
    7       -5.886773
    8       -4.961031
    9       -1.119769
   10        0.604794
   11        1.405696
   12        1.793670
 
  0.4166667E-01  0.5555556E-01  0.0000000E+00  0.4629630E-02
    1      -22.119918
    2      -17.021338
    3      -15.692488
    4      -10.228921
    5       -9.519220
    6       -6.128631
    7       -5.913450
    8       -5.029624
    9       -1.036156
   10        0.618765
   11        1.419826
   12        1.807978
 
  0.8333333E-01  0.5555556E-01  0.0000000E+00  0.4629630E-02
    1      -22.089034
    2      -17.369498
    3      -15.299594
    4      -10.192170
    5       -9.488139
    6       -6.233045
    7       -5.992655
    8       -5.219111
    9       -0.801786
   10        0.660679
   11        1.462210
   12        1.850902
 
  0.1250000E+00  0.5555556E-01  0.0000000E+00  0.4629630E-02
    1      -22.037584
    2      -17.752052
    3      -14.842812
    4      -10.130983
    5       -9.436487
    6       -6.403124
    7       -6.120740
    8       -5.493885
    9       -0.452794
   10        0.730537
   11        1.532838
   12        1.922443
 
  0.1666667E+00  0.5555556E-01  0.0000000E+00  0.4629630E-02
    1      -21.965602
    2      -18.134930
    3      -14.356711
    4      -10.045456
    5       -9.364492
    6       -6.635646
    7       -6.290118
    8       -5.819591
    9       -0.024424
   10        0.828339
   11        1.631689
   12        2.022602
 
  0.2083333E+00  0.5555556E-01  0.0000000E+00  0.4629630E-02
    1      -21.873137
    2      -18.508031
    3      -13.852117
    4       -9.935731
    5       -9.272482
    6       -6.927372
    7       -6.490666
    8       -6.171327
    9        0.457169
   10        0.954076
   11        1.758731
   12        2.151378
 
  0.2500000E+00  0.5555556E-01  0.0000000E+00  0.4629630E-02
    1      -21.760254
    2      -18.867316
    3      -13.334033
    4       -9.801995
    5       -9.160895
    6       -7.273700
    7       -6.712361
    8       -6.532837
    9        0.974091
   10        1.107729
   11        1.913919
   12        2.308770
 
  0.2916667E+00  0.5555556E-01  0.0000000E+00  0.4629630E-02
    1      -21.627037
    2      -19.210767
    3      -12.805703
    4       -9.644493
    5       -9.030294
    6       -7.668236
    7       -6.946852
    8       -6.893717
    9        1.289270
   10        1.513887
   11        2.097185
   12        2.494775
 
  0.3333333E+00  0.5555556E-01  0.0000000E+00  0.4629630E-02
    1      -21.473580
    2      -19.537203
    3      -12.269843
    4       -9.463533
    5       -8.881386
    6       -8.103512
    7       -7.247199
    8       -7.187583
    9        1.498656
   10        2.067217
   11        2.308424
   12        2.709387
 
  0.3750000E+00  0.5555556E-01  0.0000000E+00  0.4629630E-02
    1      -21.300001
    2      -19.845847
    3      -11.729114
    4       -9.259500
    5       -8.715039
    6       -8.571913
    7       -7.588743
    8       -7.429385
    9        1.735833
   10        2.547457
   11        2.626072
   12        2.952597
 
  0.4166667E+00  0.5555556E-01  0.0000000E+00  0.4629630E-02
    1      -21.106438
    2      -20.136140
    3      -11.186360
    4       -9.066279
    5       -9.032876
    6       -8.532318
    7       -7.915199
    8       -7.668091
    9        2.000727
   10        2.813923
   11        3.180439
   12        3.224389
 
  0.4583333E+00  0.5555556E-01  0.0000000E+00  0.4629630E-02
    1      -20.893055
    2      -20.407652
    3      -10.644765
    4       -9.580178
    5       -8.784262
    6       -8.334519
    7       -8.224312
    8       -7.900299
    9        2.293237
   10        2.960479
   11        3.106854
   12        3.524770
 
  0.5000000E+00  0.5555556E-01  0.0000000E+00  0.2314815E-02
    1      -20.660049
    2      -20.660049
    3      -10.107967
    4      -10.107967
    5       -8.514418
    6       -8.514418
    7       -8.123211
    8       -8.123211
    9        2.613226
   10        2.613226
   11        3.421727
   12        3.421727
 
  0.0000000E+00  0.8333333E-01  0.0000000E+00  0.2314815E-02
    1      -22.063292
    2      -16.787544
    3      -15.829010
    4      -10.161542
    5       -9.807494
    6       -6.349852
    7       -6.037883
    8       -4.879794
    9       -1.148168
   10        0.695568
   11        1.497646
   12        1.886788
 
  0.4166667E-01  0.8333333E-01  0.0000000E+00  0.4629630E-02
    1      -22.053003
    2      -16.963083
    3      -15.638830
    4      -10.149309
    5       -9.796980
    6       -6.390459
    7       -6.056072
    8       -4.949253
    9       -1.064339
   10        0.709539
   11        1.511770
   12        1.901097
 
  0.8333333E-01  0.8333333E-01  0.0000000E+00  0.4629630E-02
    1      -22.022141
    2      -17.310098
    3      -15.247996
    4      -10.112626
    5       -9.765471
    6       -6.505183
    7       -6.115805
    8       -5.140682
    9       -0.829979
   10        0.751457
   11        1.554137
   12        1.944022
 
  0.1250000E+00  0.8333333E-01  0.0000000E+00  0.4629630E-02
    1      -21.970728
    2      -17.691567
    3      -14.793868
    4      -10.051551
    5       -9.713073
    6       -6.680879
    7       -6.224557
    8       -5.417388
    9       -0.482314
   10        0.821323
   11        1.624737
   12        2.015565
 
  0.1666667E+00  0.8333333E-01  0.0000000E+00  0.4629630E-02
    1      -21.898800
    2      -18.073491
    3      -14.311010
    4       -9.966183
    5       -9.639966
    6       -6.907337
    7       -6.383535
    8       -5.744465
    9       -0.057145
   10        0.919140
   11        1.723549
   12        2.115727
 
  0.2083333E+00  0.8333333E-01  0.0000000E+00  0.4629630E-02
    1      -21.806406
    2      -18.445766
    3      -13.810350
    4       -9.856661
    5       -9.546403
    6       -7.178712
    7       -6.586982
    8       -6.096954
    9        0.419321
   10        1.044901
   11        1.850543
   12        2.244509
 
  0.2500000E+00  0.8333333E-01  0.0000000E+00  0.4629630E-02
    1      -21.693613
    2      -18.804337
    3      -13.297040
    4       -9.723175
    5       -9.432721
    6       -7.492497
    7       -6.824168
    8       -6.458726
    9        0.929345
   10        1.198586
   11        2.005674
   12        2.401910
 
  0.2916667E+00  0.8333333E-01  0.0000000E+00  0.4629630E-02
    1      -21.560503
    2      -19.147173
    3      -12.774528
    4       -9.565968
    5       -9.299345
    6       -7.847779
    7       -7.082151
    8       -6.819530
    9        1.380165
   10        1.460696
   11        2.188879
   12        2.587927
 
  0.3333333E+00  0.8333333E-01  0.0000000E+00  0.4629630E-02
    1      -21.407177
    2      -19.473081
    3      -12.245787
    4       -9.385349
    5       -9.146796
    6       -8.243106
    7       -7.348802
    8       -7.172719
    9        1.589596
   10        2.004343
   11        2.400061
   12        2.802553
 
  0.3750000E+00  0.8333333E-01  0.0000000E+00  0.4629630E-02
    1      -21.233752
    2      -19.781269
    3      -11.713811
    4       -9.181701
    5       -8.975705
    6       -8.675054
    7       -7.614869
    8       -7.513842
    9        1.826821
   10        2.552877
   11        2.639063
   12        3.045782
 
  0.4166667E+00  0.8333333E-01  0.0000000E+00  0.4629630E-02
    1      -21.040371
    2      -20.071168
    3      -11.181872
    4       -9.138289
    5       -8.955503
    6       -8.786821
    7       -7.874274
    8       -7.839810
    9        2.091767
   10        2.905567
   11        3.098655
   12        3.317602
 
  0.4583333E+00  0.8333333E-01  0.0000000E+00  0.4629630E-02
    1      -20.827203
    2      -20.342343
    3      -10.653694
    4       -9.626549
    5       -8.707353
    6       -8.581034
    7       -8.148409
    8       -8.123259
    9        2.384343
   10        3.051834
   11        3.198694
   12        3.613937
 
  0.5000000E+00  0.8333333E-01  0.0000000E+00  0.2314815E-02
    1      -20.594448
    2      -20.594448
    3      -10.133586
    4      -10.133586
    5       -8.438003
    6       -8.438003
    7       -8.359411
    8       -8.359411
    9        2.704424
   10        2.704424
   11        3.513541
   12        3.513545
 
  0.0000000E+00  0.1111111E+00  0.0000000E+00  0.2314815E-02
    1      -21.969688
    2      -16.706962
    3      -15.753937
    4      -10.169067
    5      -10.050290
    6       -6.684941
    7       -6.243815
    8       -4.766203
    9       -1.193554
   10        0.822682
   11        1.626323
   12        2.017161
 
  0.4166667E-01  0.1111111E+00  0.0000000E+00  0.4629630E-02
    1      -21.959409
    2      -16.881658
    3      -15.565065
    4      -10.158310
    5      -10.038089
    6       -6.729466
    7       -6.253905
    8       -4.836993
    9       -1.109342
   10        0.836651
   11        1.640438
   12        2.031469
 
  0.8333333E-01  0.1111111E+00  0.0000000E+00  0.4629630E-02
    1      -21.928578
    2      -17.227137
    3      -15.177186
    4      -10.126057
    5      -10.001504
    6       -6.852260
    7       -6.293621
    8       -5.031378
    9       -0.874871
   10        0.878563
   11        1.682778
   12        2.074393
 
  0.1250000E+00  0.1111111E+00  0.0000000E+00  0.4629630E-02
    1      -21.877218
    2      -17.607094
    3      -14.727008
    4      -10.072361
    5       -9.940594
    6       -7.033969
    7       -6.378274
    8       -5.310974
    9       -0.529062
   10        0.948424
   11        1.753332
   12        2.145936
 
  0.1666667E+00  0.1111111E+00  0.0000000E+00  0.4629630E-02
    1      -21.805364
    2      -17.987668
    3      -14.249076
    4       -9.997307
    5       -9.855457
    6       -7.259799
    7       -6.515868
    8       -5.640060
    9       -0.108529
   10        1.046241
   11        1.852080
   12        2.246099
 
  0.2083333E+00  0.1111111E+00  0.0000000E+00  0.4629630E-02
    1      -21.713070
    2      -18.358767
    3      -13.754488
    4       -9.901008
    5       -9.746233
    6       -7.520623
    7       -6.706187
    8       -5.993620
    9        0.360475
   10        1.172010
   11        1.978992
   12        2.374886
 
  0.2500000E+00  0.1111111E+00  0.0000000E+00  0.4629630E-02
    1      -21.600403
    2      -18.716323
    3      -13.248665
    4       -9.783598
    5       -9.613112
    6       -7.811599
    7       -6.942721
    8       -6.355735
    9        0.860470
   10        1.325714
   11        2.134024
   12        2.532294
 
  0.2916667E+00  0.1111111E+00  0.0000000E+00  0.4629630E-02
    1      -21.467446
    2      -19.058285
    3      -12.735428
    4       -9.645218
    5       -9.456338
    6       -8.131280
    7       -7.214364
    8       -6.716386
    9        1.379556
   10        1.507321
   11        2.317120
   12        2.718321
 
  0.3333333E+00  0.1111111E+00  0.0000000E+00  0.4629630E-02
    1      -21.314303
    2      -19.383440
    3      -12.218247
    4       -9.486005
    5       -9.276218
    6       -8.480742
    7       -7.507168
    8       -7.069111
    9        1.716785
   10        1.909094
   11        2.528193
   12        2.932962
 
  0.3750000E+00  0.1111111E+00  0.0000000E+00  0.4629630E-02
    1      -21.141097
    2      -19.690980
    3      -11.700775
    4       -9.306065
    5       -9.073136
    6       -8.862017
    7       -7.806672
    8       -7.409589
    9        1.954045
   10        2.442270
   11        2.767114
   12        3.176210
 
  0.4166667E+00  0.1111111E+00  0.0000000E+00  0.4629630E-02
    1      -20.947974
    2      -19.980322
    3      -11.187136
    4       -9.275922
    5       -9.105460
    6       -8.847566
    7       -8.100595
    8       -7.734821
    9        2.219026
   10        2.973062
   11        3.033639
   12        3.448054
 
  0.4583333E+00  0.1111111E+00  0.0000000E+00  0.4629630E-02
    1      -20.735110
    2      -20.251017
    3      -10.682116
    4       -9.720518
    5       -8.884216
    6       -8.600101
    7       -8.380638
    8       -8.042651
    9        2.511639
   10        3.179256
   11        3.327080
   12        3.493073
 
  0.5000000E+00  0.1111111E+00  0.0000000E+00  0.2314815E-02
    1      -20.502709
    2      -20.502709
    3      -10.191226
    4      -10.191226
    5       -8.642434
    6       -8.642434
    7       -8.331482
    8       -8.331482
    9        2.831767
   10        2.831767
   11        3.641668
   12        3.641668
 
  0.0000000E+00  0.1388889E+00  0.0000000E+00  0.2314815E-02
    1      -21.849490
    2      -16.603406
    3      -15.660217
    4      -10.593727
    5       -9.907662
    6       -7.081268
    7       -6.499464
    8       -4.620401
    9       -1.261342
   10        0.986150
   11        1.791672
   12        2.184791
 
  0.4166667E-01  0.1388889E+00  0.0000000E+00  0.4629630E-02
    1      -21.839224
    2      -16.777221
    3      -15.472918
    4      -10.582562
    5       -9.895506
    6       -7.129101
    7       -6.501381
    8       -4.693145
    9       -1.176452
   10        1.000113
   11        1.805773
   12        2.199098
 
  0.8333333E-01  0.1388889E+00  0.0000000E+00  0.4629630E-02
    1      -21.808434
    2      -17.120847
    3      -15.089010
    4      -10.549051
    5       -9.859055
    6       -7.259113
    7       -6.519884
    8       -4.891793
    9       -0.941544
   10        1.042004
   11        1.848070
   12        2.242019
 
  0.1250000E+00  0.1388889E+00  0.0000000E+00  0.4629630E-02
    1      -21.757142
    2      -17.498867
    3      -14.644436
    4      -10.493145
    5       -9.798369
    6       -7.447324
    7       -6.576572
    8       -5.175450
    9       -0.598043
   10        1.111838
   11        1.918551
   12        2.313558
 
  0.1666667E+00  0.1388889E+00  0.0000000E+00  0.4629630E-02
    1      -21.685387
    2      -17.877679
    3      -14.173703
    4      -10.414746
    5       -9.713545
    6       -7.675635
    7       -6.685119
    8       -5.507275
    9       -0.183667
   10        1.209626
   11        2.017194
   12        2.413718
 
  0.2083333E+00  0.1388889E+00  0.0000000E+00  0.4629630E-02
    1      -21.593222
    2      -18.247231
    3      -13.688201
    4      -10.313682
    5       -9.604727
    6       -7.932669
    7       -6.850123
    8       -5.862230
    9        0.275355
   10        1.335373
   11        2.143969
   12        2.542503
 
  0.2500000E+00  0.1388889E+00  0.0000000E+00  0.4629630E-02
    1      -21.480716
    2      -18.603450
    3      -13.193855
    4      -10.189667
    5       -9.472105
    6       -8.211545
    7       -7.069409
    8       -6.224729
    9        0.761959
   10        1.489065
   11        2.298833
   12        2.699914
 
  0.2916667E+00  0.1388889E+00  0.0000000E+00  0.4629630E-02
    1      -21.347958
    2      -18.944260
    3      -12.695202
    4      -10.042248
    5       -9.315922
    6       -8.508661
    7       -7.335737
    8       -6.585091
    9        1.264734
   10        1.670672
   11        2.481727
   12        2.885948
 
  0.3333333E+00  0.1388889E+00  0.0000000E+00  0.4629630E-02
    1      -21.195054
    2      -19.268424
    3      -12.196695
    4       -9.870730
    5       -9.136487
    6       -8.823257
    7       -7.638049
    8       -6.937114
    9        1.775541
   10        1.880142
   11        2.692576
   12        3.100600
 
  0.3750000E+00  0.1388889E+00  0.0000000E+00  0.4629630E-02
    1      -21.022132
    2      -19.575112
    3      -11.703269
    4       -9.674117
    5       -9.157187
    6       -8.934181
    7       -7.962524
    8       -7.276656
    9        2.117410
   10        2.288145
   11        2.931277
   12        3.343862
 
  0.4166667E+00  0.1388889E+00  0.0000000E+00  0.4629630E-02
    1      -20.829346
    2      -19.863722
    3      -11.220607
    4       -9.514295
    5       -9.451133
    6       -8.709475
    7       -8.293897
    8       -7.600839
    9        2.382395
   10        2.797441
   11        3.197683
   12        3.615726
 
  0.4583333E+00  0.1388889E+00  0.0000000E+00  0.4629630E-02
    1      -20.616878
    2      -20.133788
    3      -10.755046
    4       -9.898793
    5       -9.200521
    6       -8.617511
    7       -8.462956
    8       -7.907586
    9        2.675000
   10        3.298933
   11        3.342574
   12        3.491485
 
  0.5000000E+00  0.1388889E+00  0.0000000E+00  0.2314815E-02
    1      -20.384941
    2      -20.384941
    3      -10.312866
    4      -10.312866
    5       -8.921915
    6       -8.921915
    7       -8.195353
    8       -8.195353
    9        2.995109
   10        2.995109
   11        3.776907
   12        3.777698
 
  0.0000000E+00  0.1666667E+00  0.0000000E+00  0.2314815E-02
    1      -21.702817
    2      -16.476916
    3      -15.550860
    4      -11.060858
    5       -9.733985
    6       -7.522695
    7       -6.798916
    8       -4.442579
    9       -1.358020
   10        1.185970
   11        1.993613
   12        2.389683
 
  0.4166667E-01  0.1666667E+00  0.0000000E+00  0.4629630E-02
    1      -21.692568
    2      -16.650019
    3      -15.365319
    4      -11.048994
    5       -9.721887
    6       -7.573605
    7       -6.792485
    8       -4.518170
    9       -1.271912
   10        1.199920
   11        2.007691
   12        2.403988
 
  0.8333333E-01  0.1666667E+00  0.0000000E+00  0.4629630E-02
    1      -21.661829
    2      -16.991592
    3      -14.986683
    4      -11.013320
    5       -9.685612
    6       -7.710579
    7       -6.788751
    8       -4.722876
    9       -1.035823
   10        1.241776
   11        2.049918
   12        2.446903
 
  0.1250000E+00  0.1666667E+00  0.0000000E+00  0.4629630E-02
    1      -21.610622
    2      -17.367249
    3      -14.550098
    4      -10.953574
    5       -9.625220
    6       -7.905759
    7       -6.814714
    8       -5.012090
    9       -0.694862
   10        1.311555
   11        2.120280
   12        2.518433
 
  0.1666667E+00  0.1666667E+00  0.0000000E+00  0.4629630E-02
    1      -21.538988
    2      -17.743851
    3      -14.090043
    4      -10.869274
    5       -9.540809
    6       -8.138425
    7       -6.888952
    8       -5.347495
    9       -0.288159
   10        1.409277
   11        2.218751
   12        2.618582
 
  0.2083333E+00  0.1666667E+00  0.0000000E+00  0.4629630E-02
    1      -21.446981
    2      -18.111448
    3      -13.618485
    4      -10.759638
    5       -9.432524
    6       -8.395678
    7       -7.020234
    8       -5.704153
    9        0.158262
   10        1.534957
   11        2.345290
   12        2.747357
 
  0.2500000E+00  0.1666667E+00  0.0000000E+00  0.4629630E-02
    1      -21.334676
    2      -18.465971
    3      -13.142348
    4      -10.623477
    5       -9.300558
    6       -8.669455
    7       -7.210129
    8       -6.066996
    9        0.628022
   10        1.688592
   11        2.499845
   12        2.904761
 
  0.2916667E+00  0.1666667E+00  0.0000000E+00  0.4629630E-02
    1      -21.202164
    2      -18.805322
    3      -12.667602
    4      -10.459053
    5       -9.145157
    6       -8.954773
    7       -7.454877
    8       -6.426827
    9        1.110438
   10        1.870154
   11        2.682340
   12        3.090794
 
  0.3333333E+00  0.1666667E+00  0.0000000E+00  0.4629630E-02
    1      -21.049556
    2      -19.128233
    3      -12.200561
    4      -10.264003
    5       -9.249011
    6       -8.966628
    7       -7.746704
    8       -6.777798
    9        1.598061
   10        2.079590
   11        2.892673
   12        3.305451
 
  0.3750000E+00  0.1666667E+00  0.0000000E+00  0.4629630E-02
    1      -20.876988
    2      -19.433847
    3      -11.748219
    4      -10.035511
    5       -9.551737
    6       -8.765352
    7       -8.074836
    8       -7.116005
    9        2.085328
   10        2.316828
   11        3.130692
   12        3.548724
 
  0.4166667E+00  0.1666667E+00  0.0000000E+00  0.4629630E-02
    1      -20.684623
    2      -19.721535
    3      -11.317682
    4       -9.864798
    5       -9.771161
    6       -8.541799
    7       -8.426230
    8       -7.438729
    9        2.567809
   10        2.581775
   11        3.396107
   12        3.820601
 
  0.4583333E+00  0.1666667E+00  0.0000000E+00  0.4629630E-02
    1      -20.472648
    2      -19.990813
    3      -10.914474
    4      -10.192363
    5       -9.470834
    6       -8.786146
    7       -8.296547
    8       -7.743991
    9        2.874322
   10        3.041737
   11        3.541684
   12        3.687014
 
  0.5000000E+00  0.1666667E+00  0.0000000E+00  0.2314815E-02
    1      -20.241290
    2      -20.241290
    3      -10.540328
    4      -10.540328
    5       -9.139093
    6       -9.139093
    7       -8.030312
    8       -8.030312
    9        3.194343
   10        3.194343
   11        3.503226
   12        3.503226
 