<?xml version="1.0" encoding="ISO-8859-1"?>
<modeling>
 <generator>
  <i name="program" type="string">vasp </i>
  <i name="version" type="string">5.3.5  </i>
  <i name="subversion" type="string">31Mar14 (build Mar 02 2015 18:14:16) complex                          parallel </i>
  <i name="platform" type="string">LinuxIFC </i>
  <i name="date" type="string">2018 08 09 </i>
  <i name="time" type="string">19:27:48 </i>
 </generator>
 <incar>
  <i type="string" name="SYSTEM">  gr</i>
  <i type="string" name="PREC">accurate : accuracy</i>
  <i type="string" name="ALGO"> FAST.</i>
  <i type="int" name="NELM">   100</i>
  <i type="int" name="NELMDL">    -3</i>
  <i type="int" name="NELMIN">     5</i>
  <i type="int" name="IBRION">     1</i>
  <i name="EDIFF">      0.00000000</i>
  <i name="EDIFFG">     -0.00000100</i>
  <i type="int" name="NSW">   400</i>
  <i type="int" name="ISIF">     2</i>
  <i name="ENCUT">   2000.00000000</i>
  <i type="int" name="ISMEAR">     0</i>
  <i name="SIGMA">      0.05000000</i>
  <i type="int" name="NWRITE">     2</i>
  <i type="logical" name="LWAVE"> F  </i>
  <i type="logical" name="LCHARG"> F  </i>
  <i type="int" name="NELM">   100</i>
 </incar>
 <kpoints>
  <generation param="Gamma">
   <v type="int" name="divisions">      24       36        1 </v>
   <v name="usershift">      0.00000000       0.00000000       0.00000000 </v>
   <v name="genvec1">      0.04166667       0.00000000       0.00000000 </v>
   <v name="genvec2">      0.00000000       0.02777778       0.00000000 </v>
   <v name="genvec3">      0.00000000       0.00000000       1.00000000 </v>
   <v name="shift">      0.00000000       0.00000000       0.00000000 </v>
  </generation>
  <varray name="kpointlist" >
   <v>       0.00000000       0.00000000       0.00000000 </v>
   <v>       0.04166667       0.00000000       0.00000000 </v>
   <v>       0.08333333       0.00000000       0.00000000 </v>
   <v>       0.12500000       0.00000000       0.00000000 </v>
   <v>       0.16666667       0.00000000       0.00000000 </v>
   <v>       0.20833333       0.00000000       0.00000000 </v>
   <v>       0.25000000       0.00000000       0.00000000 </v>
   <v>       0.29166667       0.00000000       0.00000000 </v>
   <v>       0.33333333       0.00000000       0.00000000 </v>
   <v>       0.37500000       0.00000000       0.00000000 </v>
   <v>       0.41666667       0.00000000       0.00000000 </v>
   <v>       0.45833333       0.00000000       0.00000000 </v>
   <v>       0.50000000       0.00000000       0.00000000 </v>
   <v>       0.00000000       0.02777778       0.00000000 </v>
   <v>       0.04166667       0.02777778       0.00000000 </v>
   <v>       0.08333333       0.02777778       0.00000000 </v>
   <v>       0.12500000       0.02777778       0.00000000 </v>
   <v>       0.16666667       0.02777778       0.00000000 </v>
   <v>       0.20833333       0.02777778       0.00000000 </v>
   <v>       0.25000000       0.02777778       0.00000000 </v>
   <v>       0.29166667       0.02777778       0.00000000 </v>
   <v>       0.33333333       0.02777778       0.00000000 </v>
   <v>       0.37500000       0.02777778       0.00000000 </v>
   <v>       0.41666667       0.02777778       0.00000000 </v>
   <v>       0.45833333       0.02777778       0.00000000 </v>
   <v>       0.50000000       0.02777778       0.00000000 </v>
   <v>       0.00000000       0.05555556       0.00000000 </v>
   <v>       0.04166667       0.05555556       0.00000000 </v>
   <v>       0.08333333       0.05555556       0.00000000 </v>
   <v>       0.12500000       0.05555556       0.00000000 </v>
   <v>       0.16666667       0.05555556       0.00000000 </v>
   <v>       0.20833333       0.05555556       0.00000000 </v>
   <v>       0.25000000       0.05555556       0.00000000 </v>
   <v>       0.29166667       0.05555556       0.00000000 </v>
   <v>       0.33333333       0.05555556       0.00000000 </v>
   <v>       0.37500000       0.05555556       0.00000000 </v>
   <v>       0.41666667       0.05555556       0.00000000 </v>
   <v>       0.45833333       0.05555556       0.00000000 </v>
   <v>       0.50000000       0.05555556       0.00000000 </v>
   <v>       0.00000000       0.08333333       0.00000000 </v>
   <v>       0.04166667       0.08333333       0.00000000 </v>
   <v>       0.08333333       0.08333333       0.00000000 </v>
   <v>       0.12500000       0.08333333       0.00000000 </v>
   <v>       0.16666667       0.08333333       0.00000000 </v>
   <v>       0.20833333       0.08333333       0.00000000 </v>
   <v>       0.25000000       0.08333333       0.00000000 </v>
   <v>       0.29166667       0.08333333       0.00000000 </v>
   <v>       0.33333333       0.08333333       0.00000000 </v>
   <v>       0.37500000       0.08333333       0.00000000 </v>
   <v>       0.41666667       0.08333333       0.00000000 </v>
   <v>       0.45833333       0.08333333       0.00000000 </v>
   <v>       0.50000000       0.08333333       0.00000000 </v>
   <v>       0.00000000       0.11111111       0.00000000 </v>
   <v>       0.04166667       0.11111111       0.00000000 </v>
   <v>       0.08333333       0.11111111       0.00000000 </v>
   <v>       0.12500000       0.11111111       0.00000000 </v>
   <v>       0.16666667       0.11111111       0.00000000 </v>
   <v>       0.20833333       0.11111111       0.00000000 </v>
   <v>       0.25000000       0.11111111       0.00000000 </v>
   <v>       0.29166667       0.11111111       0.00000000 </v>
   <v>       0.33333333       0.11111111       0.00000000 </v>
   <v>       0.37500000       0.11111111       0.00000000 </v>
   <v>       0.41666667       0.11111111       0.00000000 </v>
   <v>       0.45833333       0.11111111       0.00000000 </v>
   <v>       0.50000000       0.11111111       0.00000000 </v>
   <v>       0.00000000       0.13888889       0.00000000 </v>
   <v>       0.04166667       0.13888889       0.00000000 </v>
   <v>       0.08333333       0.13888889       0.00000000 </v>
   <v>       0.12500000       0.13888889       0.00000000 </v>
   <v>       0.16666667       0.13888889       0.00000000 </v>
   <v>       0.20833333       0.13888889       0.00000000 </v>
   <v>       0.25000000       0.13888889       0.00000000 </v>
   <v>       0.29166667       0.13888889       0.00000000 </v>
   <v>       0.33333333       0.13888889       0.00000000 </v>
   <v>       0.37500000       0.13888889       0.00000000 </v>
   <v>       0.41666667       0.13888889       0.00000000 </v>
   <v>       0.45833333       0.13888889       0.00000000 </v>
   <v>       0.50000000       0.13888889       0.00000000 </v>
   <v>       0.00000000       0.16666667       0.00000000 </v>
   <v>       0.04166667       0.16666667       0.00000000 </v>
   <v>       0.08333333       0.16666667       0.00000000 </v>
   <v>       0.12500000       0.16666667       0.00000000 </v>
   <v>       0.16666667       0.16666667       0.00000000 </v>
   <v>       0.20833333       0.16666667       0.00000000 </v>
   <v>       0.25000000       0.16666667       0.00000000 </v>
   <v>       0.29166667       0.16666667       0.00000000 </v>
   <v>       0.33333333       0.16666667       0.00000000 </v>
   <v>       0.37500000       0.16666667       0.00000000 </v>
   <v>       0.41666667       0.16666667       0.00000000 </v>
   <v>       0.45833333       0.16666667       0.00000000 </v>
   <v>       0.50000000       0.16666667       0.00000000 </v>
   <v>       0.00000000       0.19444444       0.00000000 </v>
   <v>       0.04166667       0.19444444       0.00000000 </v>
   <v>       0.08333333       0.19444444       0.00000000 </v>
   <v>       0.12500000       0.19444444       0.00000000 </v>
   <v>       0.16666667       0.19444444       0.00000000 </v>
   <v>       0.20833333       0.19444444       0.00000000 </v>
   <v>       0.25000000       0.19444444       0.00000000 </v>
   <v>       0.29166667       0.19444444       0.00000000 </v>
   <v>       0.33333333       0.19444444       0.00000000 </v>
   <v>       0.37500000       0.19444444       0.00000000 </v>
   <v>       0.41666667       0.19444444       0.00000000 </v>
   <v>       0.45833333       0.19444444       0.00000000 </v>
   <v>       0.50000000       0.19444444       0.00000000 </v>
   <v>       0.00000000       0.22222222       0.00000000 </v>
   <v>       0.04166667       0.22222222       0.00000000 </v>
   <v>       0.08333333       0.22222222       0.00000000 </v>
   <v>       0.12500000       0.22222222       0.00000000 </v>
   <v>       0.16666667       0.22222222       0.00000000 </v>
   <v>       0.20833333       0.22222222       0.00000000 </v>
   <v>       0.25000000       0.22222222       0.00000000 </v>
   <v>       0.29166667       0.22222222       0.00000000 </v>
   <v>       0.33333333       0.22222222       0.00000000 </v>
   <v>       0.37500000       0.22222222       0.00000000 </v>
   <v>       0.41666667       0.22222222       0.00000000 </v>
   <v>       0.45833333       0.22222222       0.00000000 </v>
   <v>       0.50000000       0.22222222       0.00000000 </v>
   <v>       0.00000000       0.25000000       0.00000000 </v>
   <v>       0.04166667       0.25000000       0.00000000 </v>
   <v>       0.08333333       0.25000000       0.00000000 </v>
   <v>       0.12500000       0.25000000       0.00000000 </v>
   <v>       0.16666667       0.25000000       0.00000000 </v>
   <v>       0.20833333       0.25000000       0.00000000 </v>
   <v>       0.25000000       0.25000000       0.00000000 </v>
   <v>       0.29166667       0.25000000       0.00000000 </v>
   <v>       0.33333333       0.25000000       0.00000000 </v>
   <v>       0.37500000       0.25000000       0.00000000 </v>
   <v>       0.41666667       0.25000000       0.00000000 </v>
   <v>       0.45833333       0.25000000       0.00000000 </v>
   <v>       0.50000000       0.25000000       0.00000000 </v>
   <v>       0.00000000       0.27777778       0.00000000 </v>
   <v>       0.04166667       0.27777778       0.00000000 </v>
   <v>       0.08333333       0.27777778       0.00000000 </v>
   <v>       0.12500000       0.27777778       0.00000000 </v>
   <v>       0.16666667       0.27777778       0.00000000 </v>
   <v>       0.20833333       0.27777778       0.00000000 </v>
   <v>       0.25000000       0.27777778       0.00000000 </v>
   <v>       0.29166667       0.27777778       0.00000000 </v>
   <v>       0.33333333       0.27777778       0.00000000 </v>
   <v>       0.37500000       0.27777778       0.00000000 </v>
   <v>       0.41666667       0.27777778       0.00000000 </v>
   <v>       0.45833333       0.27777778       0.00000000 </v>
   <v>       0.50000000       0.27777778       0.00000000 </v>
   <v>       0.00000000       0.30555556       0.00000000 </v>
   <v>       0.04166667       0.30555556       0.00000000 </v>
   <v>       0.08333333       0.30555556       0.00000000 </v>
   <v>       0.12500000       0.30555556       0.00000000 </v>
   <v>       0.16666667       0.30555556       0.00000000 </v>
   <v>       0.20833333       0.30555556       0.00000000 </v>
   <v>       0.25000000       0.30555556       0.00000000 </v>
   <v>       0.29166667       0.30555556       0.00000000 </v>
   <v>       0.33333333       0.30555556       0.00000000 </v>
   <v>       0.37500000       0.30555556       0.00000000 </v>
   <v>       0.41666667       0.30555556       0.00000000 </v>
   <v>       0.45833333       0.30555556       0.00000000 </v>
   <v>       0.50000000       0.30555556       0.00000000 </v>
   <v>       0.00000000       0.33333333       0.00000000 </v>
   <v>       0.04166667       0.33333333       0.00000000 </v>
   <v>       0.08333333       0.33333333       0.00000000 </v>
   <v>       0.12500000       0.33333333       0.00000000 </v>
   <v>       0.16666667       0.33333333       0.00000000 </v>
   <v>       0.20833333       0.33333333       0.00000000 </v>
   <v>       0.25000000       0.33333333       0.00000000 </v>
   <v>       0.29166667       0.33333333       0.00000000 </v>
   <v>       0.33333333       0.33333333       0.00000000 </v>
   <v>       0.37500000       0.33333333       0.00000000 </v>
   <v>       0.41666667       0.33333333       0.00000000 </v>
   <v>       0.45833333       0.33333333       0.00000000 </v>
   <v>       0.50000000       0.33333333       0.00000000 </v>
   <v>       0.00000000       0.36111111       0.00000000 </v>
   <v>       0.04166667       0.36111111       0.00000000 </v>
   <v>       0.08333333       0.36111111       0.00000000 </v>
   <v>       0.12500000       0.36111111       0.00000000 </v>
   <v>       0.16666667       0.36111111       0.00000000 </v>
   <v>       0.20833333       0.36111111       0.00000000 </v>
   <v>       0.25000000       0.36111111       0.00000000 </v>
   <v>       0.29166667       0.36111111       0.00000000 </v>
   <v>       0.33333333       0.36111111       0.00000000 </v>
   <v>       0.37500000       0.36111111       0.00000000 </v>
   <v>       0.41666667       0.36111111       0.00000000 </v>
   <v>       0.45833333       0.36111111       0.00000000 </v>
   <v>       0.50000000       0.36111111       0.00000000 </v>
   <v>       0.00000000       0.38888889       0.00000000 </v>
   <v>       0.04166667       0.38888889       0.00000000 </v>
   <v>       0.08333333       0.38888889       0.00000000 </v>
   <v>       0.12500000       0.38888889       0.00000000 </v>
   <v>       0.16666667       0.38888889       0.00000000 </v>
   <v>       0.20833333       0.38888889       0.00000000 </v>
   <v>       0.25000000       0.38888889       0.00000000 </v>
   <v>       0.29166667       0.38888889       0.00000000 </v>
   <v>       0.33333333       0.38888889       0.00000000 </v>
   <v>       0.37500000       0.38888889       0.00000000 </v>
   <v>       0.41666667       0.38888889       0.00000000 </v>
   <v>       0.45833333       0.38888889       0.00000000 </v>
   <v>       0.50000000       0.38888889       0.00000000 </v>
   <v>       0.00000000       0.41666667       0.00000000 </v>
   <v>       0.04166667       0.41666667       0.00000000 </v>
   <v>       0.08333333       0.41666667       0.00000000 </v>
   <v>       0.12500000       0.41666667       0.00000000 </v>
   <v>       0.16666667       0.41666667       0.00000000 </v>
   <v>       0.20833333       0.41666667       0.00000000 </v>
   <v>       0.25000000       0.41666667       0.00000000 </v>
   <v>       0.29166667       0.41666667       0.00000000 </v>
   <v>       0.33333333       0.41666667       0.00000000 </v>
   <v>       0.37500000       0.41666667       0.00000000 </v>
   <v>       0.41666667       0.41666667       0.00000000 </v>
   <v>       0.45833333       0.41666667       0.00000000 </v>
   <v>       0.50000000       0.41666667       0.00000000 </v>
   <v>       0.00000000       0.44444444       0.00000000 </v>
   <v>       0.04166667       0.44444444       0.00000000 </v>
   <v>       0.08333333       0.44444444       0.00000000 </v>
   <v>       0.12500000       0.44444444       0.00000000 </v>
   <v>       0.16666667       0.44444444       0.00000000 </v>
   <v>       0.20833333       0.44444444       0.00000000 </v>
   <v>       0.25000000       0.44444444       0.00000000 </v>
   <v>       0.29166667       0.44444444       0.00000000 </v>
   <v>       0.33333333       0.44444444       0.00000000 </v>
   <v>       0.37500000       0.44444444       0.00000000 </v>
   <v>       0.41666667       0.44444444       0.00000000 </v>
   <v>       0.45833333       0.44444444       0.00000000 </v>
   <v>       0.50000000       0.44444444       0.00000000 </v>
   <v>       0.00000000       0.47222222       0.00000000 </v>
   <v>       0.04166667       0.47222222       0.00000000 </v>
   <v>       0.08333333       0.47222222       0.00000000 </v>
   <v>       0.12500000       0.47222222       0.00000000 </v>
   <v>       0.16666667       0.47222222       0.00000000 </v>
   <v>       0.20833333       0.47222222       0.00000000 </v>
   <v>       0.25000000       0.47222222       0.00000000 </v>
   <v>       0.29166667       0.47222222       0.00000000 </v>
   <v>       0.33333333       0.47222222       0.00000000 </v>
   <v>       0.37500000       0.47222222       0.00000000 </v>
   <v>       0.41666667       0.47222222       0.00000000 </v>
   <v>       0.45833333       0.47222222       0.00000000 </v>
   <v>       0.50000000       0.47222222       0.00000000 </v>
   <v>       0.00000000       0.50000000       0.00000000 </v>
   <v>       0.04166667       0.50000000       0.00000000 </v>
   <v>       0.08333333       0.50000000       0.00000000 </v>
   <v>       0.12500000       0.50000000       0.00000000 </v>
   <v>       0.16666667       0.50000000       0.00000000 </v>
   <v>       0.20833333       0.50000000       0.00000000 </v>
   <v>       0.25000000       0.50000000       0.00000000 </v>
   <v>       0.29166667       0.50000000       0.00000000 </v>
   <v>       0.33333333       0.50000000       0.00000000 </v>
   <v>       0.37500000       0.50000000       0.00000000 </v>
   <v>       0.41666667       0.50000000       0.00000000 </v>
   <v>       0.45833333       0.50000000       0.00000000 </v>
   <v>       0.50000000       0.50000000       0.00000000 </v>
  </varray>
  <varray name="weights" >
   <v>       0.00115741 </v>
   <v>       0.00231481 </v>
   <v>       0.00231481 </v>
   <v>       0.00231481 </v>
   <v>       0.00231481 </v>
   <v>       0.00231481 </v>
   <v>       0.00231481 </v>
   <v>       0.00231481 </v>
   <v>       0.00231481 </v>
   <v>       0.00231481 </v>
   <v>       0.00231481 </v>
   <v>       0.00231481 </v>
   <v>       0.00115741 </v>
   <v>       0.00231481 </v>
   <v>       0.00462963 </v>
   <v>       0.00462963 </v>
   <v>       0.00462963 </v>
   <v>       0.00462963 </v>
   <v>       0.00462963 </v>
   <v>       0.00462963 </v>
   <v>       0.00462963 </v>
   <v>       0.00462963 </v>
   <v>       0.00462963 </v>
   <v>       0.00462963 </v>
   <v>       0.00462963 </v>
   <v>       0.00231481 </v>
   <v>       0.00231481 </v>
   <v>       0.00462963 </v>
   <v>       0.00462963 </v>
   <v>       0.00462963 </v>
   <v>       0.00462963 </v>
   <v>       0.00462963 </v>
   <v>       0.00462963 </v>
   <v>       0.00462963 </v>
   <v>       0.00462963 </v>
   <v>       0.00462963 </v>
   <v>       0.00462963 </v>
   <v>       0.00462963 </v>
   <v>       0.00231481 </v>
   <v>       0.00231481 </v>
   <v>       0.00462963 </v>
   <v>       0.00462963 </v>
   <v>       0.00462963 </v>
   <v>       0.00462963 </v>
   <v>       0.00462963 </v>
   <v>       0.00462963 </v>
   <v>       0.00462963 </v>
   <v>       0.00462963 </v>
   <v>       0.00462963 </v>
   <v>       0.00462963 </v>
   <v>       0.00462963 </v>
   <v>       0.00231481 </v>
   <v>       0.00231481 </v>
   <v>       0.00462963 </v>
   <v>       0.00462963 </v>
   <v>       0.00462963 </v>
   <v>       0.00462963 </v>
   <v>       0.00462963 </v>
   <v>       0.00462963 </v>
   <v>       0.00462963 </v>
   <v>       0.00462963 </v>
   <v>       0.00462963 </v>
   <v>       0.00462963 </v>
   <v>       0.00462963 </v>
   <v>       0.00231481 </v>
   <v>       0.00231481 </v>
   <v>       0.00462963 </v>
   <v>       0.00462963 </v>
   <v>       0.00462963 </v>
   <v>       0.00462963 </v>
   <v>       0.00462963 </v>
   <v>       0.00462963 </v>
   <v>       0.00462963 </v>
   <v>       0.00462963 </v>
   <v>       0.00462963 </v>
   <v>       0.00462963 </v>
   <v>       0.00462963 </v>
   <v>       0.00231481 </v>
   <v>       0.00231481 </v>
   <v>       0.00462963 </v>
   <v>       0.00462963 </v>
   <v>       0.00462963 </v>
   <v>       0.00462963 </v>
   <v>       0.00462963 </v>
   <v>       0.00462963 </v>
   <v>       0.00462963 </v>
   <v>       0.00462963 </v>
   <v>       0.00462963 </v>
   <v>       0.00462963 </v>
   <v>       0.00462963 </v>
   <v>       0.00231481 </v>
   <v>       0.00231481 </v>
   <v>       0.00462963 </v>
   <v>       0.00462963 </v>
   <v>       0.00462963 </v>
   <v>       0.00462963 </v>
   <v>       0.00462963 </v>
   <v>       0.00462963 </v>
   <v>       0.00462963 </v>
   <v>       0.00462963 </v>
   <v>       0.00462963 </v>
   <v>       0.00462963 </v>
   <v>       0.00462963 </v>
   <v>       0.00231481 </v>
   <v>       0.00231481 </v>
   <v>       0.00462963 </v>
   <v>       0.00462963 </v>
   <v>       0.00462963 </v>
   <v>       0.00462963 </v>
   <v>       0.00462963 </v>
   <v>       0.00462963 </v>
   <v>       0.00462963 </v>
   <v>       0.00462963 </v>
   <v>       0.00462963 </v>
   <v>       0.00462963 </v>
   <v>       0.00462963 </v>
   <v>       0.00231481 </v>
   <v>       0.00231481 </v>
   <v>       0.00462963 </v>
   <v>       0.00462963 </v>
   <v>       0.00462963 </v>
   <v>       0.00462963 </v>
   <v>       0.00462963 </v>
   <v>       0.00462963 </v>
   <v>       0.00462963 </v>
   <v>       0.00462963 </v>
   <v>       0.00462963 </v>
   <v>       0.00462963 </v>
   <v>       0.00462963 </v>
   <v>       0.00231481 </v>
   <v>       0.00231481 </v>
   <v>       0.00462963 </v>
   <v>       0.00462963 </v>
   <v>       0.00462963 </v>
   <v>       0.00462963 </v>
   <v>       0.00462963 </v>
   <v>       0.00462963 </v>
   <v>       0.00462963 </v>
   <v>       0.00462963 </v>
   <v>       0.00462963 </v>
   <v>       0.00462963 </v>
   <v>       0.00462963 </v>
   <v>       0.00231481 </v>
   <v>       0.00231481 </v>
   <v>       0.00462963 </v>
   <v>       0.00462963 </v>
   <v>       0.00462963 </v>
   <v>       0.00462963 </v>
   <v>       0.00462963 </v>
   <v>       0.00462963 </v>
   <v>       0.00462963 </v>
   <v>       0.00462963 </v>
   <v>       0.00462963 </v>
   <v>       0.00462963 </v>
   <v>       0.00462963 </v>
   <v>       0.00231481 </v>
   <v>       0.00231481 </v>
   <v>       0.00462963 </v>
   <v>       0.00462963 </v>
   <v>       0.00462963 </v>
   <v>       0.00462963 </v>
   <v>       0.00462963 </v>
   <v>       0.00462963 </v>
   <v>       0.00462963 </v>
   <v>       0.00462963 </v>
   <v>       0.00462963 </v>
   <v>       0.00462963 </v>
   <v>       0.00462963 </v>
   <v>       0.00231481 </v>
   <v>       0.00231481 </v>
   <v>       0.00462963 </v>
   <v>       0.00462963 </v>
   <v>       0.00462963 </v>
   <v>       0.00462963 </v>
   <v>       0.00462963 </v>
   <v>       0.00462963 </v>
   <v>       0.00462963 </v>
   <v>       0.00462963 </v>
   <v>       0.00462963 </v>
   <v>       0.00462963 </v>
   <v>       0.00462963 </v>
   <v>       0.00231481 </v>
   <v>       0.00231481 </v>
   <v>       0.00462963 </v>
   <v>       0.00462963 </v>
   <v>       0.00462963 </v>
   <v>       0.00462963 </v>
   <v>       0.00462963 </v>
   <v>       0.00462963 </v>
   <v>       0.00462963 </v>
   <v>       0.00462963 </v>
   <v>       0.00462963 </v>
   <v>       0.00462963 </v>
   <v>       0.00462963 </v>
   <v>       0.00231481 </v>
   <v>       0.00231481 </v>
   <v>       0.00462963 </v>
   <v>       0.00462963 </v>
   <v>       0.00462963 </v>
   <v>       0.00462963 </v>
   <v>       0.00462963 </v>
   <v>       0.00462963 </v>
   <v>       0.00462963 </v>
   <v>       0.00462963 </v>
   <v>       0.00462963 </v>
   <v>       0.00462963 </v>
   <v>       0.00462963 </v>
   <v>       0.00231481 </v>
   <v>       0.00231481 </v>
   <v>       0.00462963 </v>
   <v>       0.00462963 </v>
   <v>       0.00462963 </v>
   <v>       0.00462963 </v>
   <v>       0.00462963 </v>
   <v>       0.00462963 </v>
   <v>       0.00462963 </v>
   <v>       0.00462963 </v>
   <v>       0.00462963 </v>
   <v>       0.00462963 </v>
   <v>       0.00462963 </v>
   <v>       0.00231481 </v>
   <v>       0.00231481 </v>
   <v>       0.00462963 </v>
   <v>       0.00462963 </v>
   <v>       0.00462963 </v>
   <v>       0.00462963 </v>
   <v>       0.00462963 </v>
   <v>       0.00462963 </v>
   <v>       0.00462963 </v>
   <v>       0.00462963 </v>
   <v>       0.00462963 </v>
   <v>       0.00462963 </v>
   <v>       0.00462963 </v>
   <v>       0.00231481 </v>
   <v>       0.00115741 </v>
   <v>       0.00231481 </v>
   <v>       0.00231481 </v>
   <v>       0.00231481 </v>
   <v>       0.00231481 </v>
   <v>       0.00231481 </v>
   <v>       0.00231481 </v>
   <v>       0.00231481 </v>
   <v>       0.00231481 </v>
   <v>       0.00231481 </v>
   <v>       0.00231481 </v>
   <v>       0.00231481 </v>
   <v>       0.00115741 </v>
  </varray>
 </kpoints>
 <parameters>
  <separator name="general" >
   <i type="string" name="SYSTEM">gr</i>
   <i type="logical" name="LCOMPAT"> F  </i>
  </separator>
  <separator name="electronic" >
   <i type="string" name="PREC">accura</i>
   <i name="ENMAX">   2000.00000000</i>
   <i name="ENAUG">    644.87300000</i>
   <i name="EDIFF">      0.00000000</i>
   <i type="int" name="IALGO">    68</i>
   <i type="int" name="IWAVPR">    11</i>
   <i type="int" name="NBANDS">    12</i>
   <i name="NELECT">     16.00000000</i>
   <i type="int" name="TURBO">     0</i>
   <i type="int" name="IRESTART">     0</i>
   <i type="int" name="NREBOOT">     0</i>
   <i type="int" name="NMIN">     0</i>
   <i name="EREF">      0.00000000</i>
   <separator name="electronic smearing" >
    <i type="int" name="ISMEAR">     0</i>
    <i name="SIGMA">      0.05000000</i>
    <i name="KSPACING">      0.50000000</i>
    <i type="logical" name="KGAMMA"> T  </i>
   </separator>
   <separator name="electronic projectors" >
    <i type="logical" name="LREAL"> F  </i>
    <v name="ROPT">      0.00000000</v>
    <i type="int" name="LMAXPAW">  -100</i>
    <i type="int" name="LMAXMIX">     2</i>
    <i type="logical" name="NLSPLINE"> F  </i>
   </separator>
   <separator name="electronic startup" >
    <i type="int" name="ISTART">     0</i>
    <i type="int" name="ICHARG">     2</i>
    <i type="int" name="INIWAV">     1</i>
   </separator>
   <separator name="electronic spin" >
    <i type="int" name="ISPIN">     1</i>
    <i type="logical" name="LNONCOLLINEAR"> F  </i>
    <v name="MAGMOM">      1.00000000      1.00000000      1.00000000      1.00000000</v>
    <i name="NUPDOWN">     -1.00000000</i>
    <i type="logical" name="LSORBIT"> F  </i>
    <v name="SAXIS">      0.00000000      0.00000000      1.00000000</v>
    <i type="logical" name="LSPIRAL"> F  </i>
    <v name="QSPIRAL">      0.00000000      0.00000000      0.00000000</v>
    <i type="logical" name="LZEROZ"> F  </i>
   </separator>
   <separator name="electronic exchange-correlation" >
    <i type="logical" name="LASPH"> F  </i>
    <i type="logical" name="LMETAGGA"> F  </i>
   </separator>
   <separator name="electronic convergence" >
    <i type="int" name="NELM">   100</i>
    <i type="int" name="NELMDL">    -3</i>
    <i type="int" name="NELMIN">     5</i>
    <i name="ENINI">   2000.00000000</i>
    <separator name="electronic convergence detail" >
     <i type="logical" name="LDIAG"> T  </i>
     <i type="logical" name="LSUBROT"> F  </i>
     <i name="WEIMIN">      0.00100000</i>
     <i name="EBREAK">      0.00000000</i>
     <i name="DEPER">      0.30000000</i>
     <i type="int" name="NRMM">     4</i>
     <i name="TIME">      0.40000000</i>
    </separator>
   </separator>
   <separator name="electronic mixer" >
    <i name="AMIX">      0.40000000</i>
    <i name="BMIX">      1.00000000</i>
    <i name="AMIN">      0.10000000</i>
    <i name="AMIX_MAG">      1.60000000</i>
    <i name="BMIX_MAG">      1.00000000</i>
    <separator name="electronic mixer details" >
     <i type="int" name="IMIX">     4</i>
     <i type="int" name="MAXMIX">   -45</i>
     <i name="WC">    100.00000000</i>
     <i type="int" name="INIMIX">     1</i>
     <i type="int" name="MIXPRE">     1</i>
     <i type="int" name="MREMOVE">     5</i>
    </separator>
   </separator>
   <separator name="electronic dipolcorrection" >
    <i type="logical" name="LDIPOL"> F  </i>
    <i type="logical" name="LMONO"> F  </i>
    <i type="int" name="IDIPOL">     0</i>
    <i name="EPSILON">      1.00000000</i>
    <v name="DIPOL">   -100.00000000   -100.00000000   -100.00000000</v>
    <i name="EFIELD">      0.00000000</i>
   </separator>
  </separator>
  <separator name="grids" >
   <i type="int" name="NGX">    64</i>
   <i type="int" name="NGY">    36</i>
   <i type="int" name="NGZ">   294</i>
   <i type="int" name="NGXF">   128</i>
   <i type="int" name="NGYF">    72</i>
   <i type="int" name="NGZF">   588</i>
   <i type="logical" name="ADDGRID"> F  </i>
  </separator>
  <separator name="ionic" >
   <i type="int" name="NSW">   400</i>
   <i type="int" name="IBRION">     1</i>
   <i type="int" name="ISIF">     2</i>
   <i name="PSTRESS">      0.00000000</i>
   <i name="EDIFFG">     -0.00000100</i>
   <i type="int" name="NFREE">     0</i>
   <i name="POTIM">      0.50000000</i>
   <i name="SMASS">     -3.00000000</i>
   <i name="SCALEE">      1.00000000</i>
  </separator>
  <separator name="ionic md" >
   <i name="TEBEG">      0.00010000</i>
   <i name="TEEND">      0.00010000</i>
   <i type="int" name="NBLOCK">     1</i>
   <i type="int" name="KBLOCK">   400</i>
   <i type="int" name="NPACO">   256</i>
   <i name="APACO">     16.00000000</i>
  </separator>
  <separator name="symmetry" >
   <i type="int" name="ISYM">     2</i>
   <i name="SYMPREC">      0.00001000</i>
  </separator>
  <separator name="dos" >
   <i type="logical" name="LORBIT"> F  </i>
   <v name="RWIGS">     -1.00000000</v>
   <i type="int" name="NEDOS">   301</i>
   <i name="EMIN">     10.00000000</i>
   <i name="EMAX">    -10.00000000</i>
   <i name="EFERMI">      0.00000000</i>
  </separator>
  <separator name="writing" >
   <i type="int" name="NWRITE">     2</i>
   <i type="logical" name="LWAVE"> F  </i>
   <i type="logical" name="LCHARG"> F  </i>
   <i type="logical" name="LPARD"> F  </i>
   <i type="logical" name="LVTOT"> F  </i>
   <i type="logical" name="LVHAR"> F  </i>
   <i type="logical" name="LELF"> F  </i>
   <i type="logical" name="LOPTICS"> F  </i>
   <v name="STM">      0.00000000      0.00000000      0.00000000      0.00000000      0.00000000      0.00000000      0.00000000</v>
  </separator>
  <separator name="performance" >
   <i type="int" name="NPAR">     4</i>
   <i type="int" name="NSIM">     4</i>
   <i type="int" name="NBLK">    -1</i>
   <i type="logical" name="LPLANE"> T  </i>
   <i type="logical" name="LSCALAPACK"> F  </i>
   <i type="logical" name="LSCAAWARE"> F  </i>
   <i type="logical" name="LSCALU"> F  </i>
   <i type="logical" name="LASYNC"> F  </i>
   <i type="logical" name="LORBITALREAL"> F  </i>
  </separator>
  <separator name="miscellaneous" >
   <i type="int" name="IDIOT">     3</i>
   <i type="logical" name="LMUSIC"> F  </i>
   <v name="POMASS">     12.01100000</v>
   <v name="DARWINR">      0.00000000</v>
   <v name="DARWINV">      1.00000000</v>
   <i type="logical" name="LCORR"> T  </i>
  </separator>
  <i type="logical" name="GGA_COMPAT"> T  </i>
  <i type="logical" name="LBERRY"> F  </i>
  <i type="int" name="ICORELEVEL">     0</i>
  <i type="logical" name="LDAU"> F  </i>
  <i type="int" name="I_CONSTRAINED_M">     0</i>
  <separator name="electronic exchange-correlation" >
   <i type="string" name="GGA">--</i>
   <i type="int" name="VOSKOWN">     0</i>
   <i type="logical" name="LHFCALC"> F  </i>
   <i type="string" name="PRECFOCK"></i>
   <i type="logical" name="LSYMGRAD"> F  </i>
   <i type="logical" name="LHFONE"> F  </i>
   <i type="logical" name="LRHFCALC"> F  </i>
   <i type="logical" name="LTHOMAS"> F  </i>
   <i type="logical" name="LMODELHF"> F  </i>
   <i name="ENCUT4O">     -1.00000000</i>
   <i type="int" name="EXXOEP">     0</i>
   <i type="int" name="FOURORBIT">     0</i>
   <i name="AEXX">      0.00000000</i>
   <i name="HFALPHA">      0.00000000</i>
   <i name="MCALPHA">      0.00000000</i>
   <i name="ALDAX">      1.00000000</i>
   <i name="AGGAX">      1.00000000</i>
   <i name="ALDAC">      1.00000000</i>
   <i name="AGGAC">      1.00000000</i>
   <i type="int" name="NKREDX">     1</i>
   <i type="int" name="NKREDY">     1</i>
   <i type="int" name="NKREDZ">     1</i>
   <i type="logical" name="SHIFTRED"> F  </i>
   <i type="logical" name="ODDONLY"> F  </i>
   <i type="logical" name="EVENONLY"> F  </i>
   <i type="int" name="LMAXFOCK">     0</i>
   <i type="int" name="NMAXFOCKAE">     0</i>
   <i type="logical" name="LFOCKAEDFT"> F  </i>
   <i name="HFSCREEN">      0.00000000</i>
   <i name="HFSCREENC">      0.00000000</i>
   <i type="int" name="NBANDSGWLOW">     0</i>
  </separator>
  <separator name="vdW DFT" >
   <i type="logical" name="LUSE_VDW"> F  </i>
   <i name="Zab_VDW">     -0.84910000</i>
   <i name="PARAM1">      0.12340000</i>
   <i name="PARAM2">      1.00000000</i>
   <i name="PARAM3">      0.00000000</i>
  </separator>
  <separator name="model GW" >
   <i type="int" name="MODEL_GW">     0</i>
   <i name="MODEL_EPS0">     31.62568521</i>
   <i name="MODEL_ALPHA">      1.00000000</i>
  </separator>
  <separator name="linear response parameters" >
   <i type="logical" name="LEPSILON"> F  </i>
   <i type="logical" name="LRPA"> F  </i>
   <i type="logical" name="LNABLA"> F  </i>
   <i type="logical" name="LVEL"> F  </i>
   <i type="int" name="KINTER">     0</i>
   <i name="CSHIFT">      0.10000000</i>
   <i name="OMEGAMAX">     -1.00000000</i>
   <i name="DEG_THRESHOLD">      0.00200000</i>
  </separator>
  <separator name="orbital magnetization" >
   <i type="logical" name="NUCIND"> F  </i>
   <v name="MAGPOS">      0.00000000      0.00000000      0.00000000</v>
   <i type="logical" name="LNICSALL"> T  </i>
   <i type="logical" name="ORBITALMAG"> F  </i>
   <i type="logical" name="LMAGBLOCH"> F  </i>
   <i type="logical" name="LCHIMAG"> F  </i>
   <i type="logical" name="LGAUGE"> T  </i>
   <i type="int" name="MAGATOM">     0</i>
   <v name="MAGDIPOL">      0.00000000      0.00000000      0.00000000</v>
   <v name="AVECCONST">      0.00000000      0.00000000      0.00000000</v>
  </separator>
  <separator name="response functions" >
   <i type="logical" name="LADDER"> F  </i>
   <i type="logical" name="LFXC"> F  </i>
   <i type="logical" name="LHARTREE"> T  </i>
   <i type="int" name="IBSE">     0</i>
   <i type="logical" name="LTCTE"> F  </i>
   <i type="logical" name="LTETE"> F  </i>
   <i type="logical" name="LTRIPLET"> F  </i>
   <i type="logical" name="LFXCEPS"> F  </i>
   <i type="logical" name="LFXHEG"> F  </i>
   <i type="logical" name="L2ORDER"> F  </i>
   <i type="logical" name="LUSEW"> F  </i>
   <i name="ENCUTGW">     -2.00000000</i>
   <i name="ENCUTGWSOFT">     -2.00000000</i>
   <i name="ENCUTLF">     -1.00000000</i>
   <i type="int" name="LMAXMP2">    -1</i>
   <i name="SCISSOR">      0.00000000</i>
   <i type="int" name="NOMEGA">     0</i>
   <i type="int" name="NOMEGAR">     0</i>
   <i type="int" name="NBANDSGW">    -1</i>
   <i type="int" name="NBANDSO">    -1</i>
   <i type="int" name="NBANDSV">    -1</i>
   <i type="int" name="NELM">   100</i>
   <i type="int" name="DIM">     3</i>
   <i type="int" name="ANTIRES">     0</i>
   <i name="OMEGAMAX">    -30.00000000</i>
   <i name="OMEGAMIN">    -30.00000000</i>
   <i name="OMEGATL">   -200.00000000</i>
   <i type="int" name="OMEGAGRID">     0</i>
   <i name="CSHIFT">     -0.10000000</i>
   <i type="logical" name="SELFENERGY"> F  </i>
   <i type="logical" name="LSPECTRAL"> F  </i>
   <i type="logical" name="ODDONLYGW"> F  </i>
   <i type="logical" name="EVENONLYGW"> F  </i>
   <i type="int" name="NKREDLFX">     1</i>
   <i type="int" name="NKREDLFY">     1</i>
   <i type="int" name="NKREDLFZ">     1</i>
   <i type="int" name="MAXMEM">  1800</i>
   <i type="int" name="TELESCOPE">     0</i>
   <i type="int" name="TAUPAR">     1</i>
  </separator>
  <separator name="External order field" >
   <i name="OFIELD_KAPPA">      0.00000000</i>
   <v name="OFIELD_K">      0.00000000      0.00000000      0.00000000</v>
   <i name="OFIELD_Q6_NEAR">      0.00000000</i>
   <i name="OFIELD_Q6_FAR">      0.00000000</i>
   <i name="OFIELD_A">      0.00000000</i>
  </separator>
 </parameters>
 <atominfo>
  <atoms>       4 </atoms>
  <types>       1 </types>
  <array name="atoms" >
   <dimension dim="1">ion</dimension>
   <field type="string">element</field>
   <field type="int">atomtype</field>
   <set>
    <rc><c>C </c><c>   1</c></rc>
    <rc><c>C </c><c>   1</c></rc>
    <rc><c>C </c><c>   1</c></rc>
    <rc><c>C </c><c>   1</c></rc>
   </set>
  </array>
  <array name="atomtypes" >
   <dimension dim="1">type</dimension>
   <field type="int">atomspertype</field>
   <field type="string">element</field>
   <field>mass</field>
   <field>valence</field>
   <field type="string">pseudopotential</field>
   <set>
    <rc><c>   4</c><c>C </c><c>     12.01100000</c><c>      4.00000000</c><c> PAW_PBE C 08Apr2002                    </c></rc>
   </set>
  </array>
 </atominfo>
 <structure name="initialpos" >
  <crystal>
   <varray name="basis" >
    <v>       4.26555261       0.00000000       0.00000000 </v>
    <v>       0.00000000       2.49222023       0.00000000 </v>
    <v>       0.00000000       0.00000000      19.83293391 </v>
   </varray>
   <i name="volume">    210.83790140 </i>
   <varray name="rec_basis" >
    <v>       0.23443621       0.00000000       0.00000000 </v>
    <v>       0.00000000       0.40124865       0.00000000 </v>
    <v>       0.00000000       0.00000000       0.05042118 </v>
   </varray>
  </crystal>
  <varray name="positions" >
   <v>       0.00026297       0.00000000       0.00000000 </v>
   <v>       0.16640370       0.50000000       0.00000000 </v>
   <v>       0.50026297       0.50000000       0.00000000 </v>
   <v>       0.66640370       0.00000000       0.00000000 </v>
  </varray>
 </structure>
 <calculation>
  <scstep>
   <time name="dav">  294.24  295.85</time>
   <time name="total">  296.68  298.44</time>
   <energy>
    <i name="alphaZ">      6.18334092 </i>
    <i name="ewald">   2530.44097105 </i>
    <i name="hartreedc">  -2957.50905348 </i>
    <i name="XCdc">     54.98351024 </i>
    <i name="pawpsdc">    151.32577238 </i>
    <i name="pawaedc">   -155.92769107 </i>
    <i name="eentropy">     -0.00139603 </i>
    <i name="bandstr">    -26.88063478 </i>
    <i name="atom">    588.62352690 </i>
    <i name="e_fr_energy">    191.23834614 </i>
    <i name="e_wo_entrp">    191.23974217 </i>
    <i name="e_0_energy">    191.23904415 </i>
   </energy>
  </scstep>
  <scstep>
   <time name="dav">  442.76  445.61</time>
   <time name="total">  442.76  445.65</time>
   <energy>
    <i name="e_fr_energy">     -9.09880474 </i>
    <i name="e_wo_entrp">     -9.09823421 </i>
    <i name="e_0_energy">     -9.09851948 </i>
   </energy>
  </scstep>
  <scstep>
   <time name="dav">  340.13  341.98</time>
   <time name="total">  370.68  373.37</time>
   <energy>
    <i name="e_fr_energy">    -38.29362094 </i>
    <i name="e_wo_entrp">    -38.29358738 </i>
    <i name="e_0_energy">    -38.29360416 </i>
   </energy>
  </scstep>
  <scstep>
   <time name="diag">   80.08   80.32</time>
   <time name="diis">  342.31  343.90</time>
   <time name="orth">    3.07    3.08</time>
   <time name="total">  458.38  460.41</time>
   <energy>
    <i name="e_fr_energy">    -37.67015038 </i>
    <i name="e_wo_entrp">    -37.67010415 </i>
    <i name="e_0_energy">    -37.67012727 </i>
   </energy>
  </scstep>
  <scstep>
   <time name="diag">   79.78   80.29</time>
   <time name="diis">  336.27  339.38</time>
   <time name="orth">    3.06    3.09</time>
   <time name="total">  451.82  455.83</time>
   <energy>
    <i name="e_fr_energy">    -36.92409400 </i>
    <i name="e_wo_entrp">    -36.92406344 </i>
    <i name="e_0_energy">    -36.92407872 </i>
   </energy>
  </scstep>
  <scstep>
   <time name="diag">   79.65   80.25</time>
   <time name="diis">  373.19  373.53</time>
   <time name="orth">    3.07    3.08</time>
   <time name="total">  488.86  489.90</time>
   <energy>
    <i name="e_fr_energy">    -36.92611154 </i>
    <i name="e_wo_entrp">    -36.92608299 </i>
    <i name="e_0_energy">    -36.92609726 </i>
   </energy>
  </scstep>
  <scstep>
   <time name="diag">   79.91   80.24</time>
   <time name="diis">  336.79  339.30</time>
   <time name="orth">    3.09    3.09</time>
   <time name="total">  452.78  455.91</time>
   <energy>
    <i name="e_fr_energy">    -36.91672985 </i>
    <i name="e_wo_entrp">    -36.91670285 </i>
    <i name="e_0_energy">    -36.91671635 </i>
   </energy>
  </scstep>
  <scstep>
   <time name="diag">   79.82   80.33</time>
   <time name="diis">  338.58  340.76</time>
   <time name="orth">    3.07    3.07</time>
   <time name="total">  454.32  457.24</time>
   <energy>
    <i name="e_fr_energy">    -36.91130368 </i>
    <i name="e_wo_entrp">    -36.91127613 </i>
    <i name="e_0_energy">    -36.91128991 </i>
   </energy>
  </scstep>
  <scstep>
   <time name="diag">   79.87   80.27</time>
   <time name="diis">  321.47  323.59</time>
   <time name="orth">    3.07    3.07</time>
   <time name="total">  437.14  440.10</time>
   <energy>
    <i name="e_fr_energy">    -36.91107247 </i>
    <i name="e_wo_entrp">    -36.91104398 </i>
    <i name="e_0_energy">    -36.91105822 </i>
   </energy>
  </scstep>
  <scstep>
   <time name="diag">   79.82   80.27</time>
   <time name="diis">  321.35  323.85</time>
   <time name="orth">    3.06    3.09</time>
   <time name="total">  436.92  440.89</time>
   <energy>
    <i name="e_fr_energy">    -36.91097686 </i>
    <i name="e_wo_entrp">    -36.91094892 </i>
    <i name="e_0_energy">    -36.91096289 </i>
   </energy>
  </scstep>
  <scstep>
   <time name="diag">   79.48   80.24</time>
   <time name="diis">  323.13  326.03</time>
   <time name="orth">    3.07    3.07</time>
   <time name="total">  438.49  443.05</time>
   <energy>
    <i name="e_fr_energy">    -36.91344557 </i>
    <i name="e_wo_entrp">    -36.91341787 </i>
    <i name="e_0_energy">    -36.91343172 </i>
   </energy>
  </scstep>
  <scstep>
   <time name="diag">   79.59   80.35</time>
   <time name="diis">  322.80  324.38</time>
   <time name="orth">    3.07    3.07</time>
   <time name="total">  438.39  440.89</time>
   <energy>
    <i name="e_fr_energy">    -36.91391694 </i>
    <i name="e_wo_entrp">    -36.91388901 </i>
    <i name="e_0_energy">    -36.91390298 </i>
   </energy>
  </scstep>
  <scstep>
   <time name="diag">   79.84   80.22</time>
   <time name="diis">  328.49  330.83</time>
   <time name="orth">    3.07    3.09</time>
   <time name="total">  444.20  447.47</time>
   <energy>
    <i name="e_fr_energy">    -36.91416226 </i>
    <i name="e_wo_entrp">    -36.91413430 </i>
    <i name="e_0_energy">    -36.91414828 </i>
   </energy>
  </scstep>
  <scstep>
   <time name="diag">   79.41   79.89</time>
   <time name="diis">  322.84  325.99</time>
   <time name="orth">    3.07    3.07</time>
   <time name="total">  438.40  442.12</time>
   <energy>
    <i name="e_fr_energy">    -36.91424545 </i>
    <i name="e_wo_entrp">    -36.91421755 </i>
    <i name="e_0_energy">    -36.91423150 </i>
   </energy>
  </scstep>
  <scstep>
   <time name="diag">   79.87   79.98</time>
   <time name="diis">  325.57  328.05</time>
   <time name="orth">    3.07    3.07</time>
   <time name="total">  441.21  445.19</time>
   <energy>
    <i name="e_fr_energy">    -36.91425382 </i>
    <i name="e_wo_entrp">    -36.91422590 </i>
    <i name="e_0_energy">    -36.91423986 </i>
   </energy>
  </scstep>
  <scstep>
   <time name="diag">   79.20   80.04</time>
   <time name="diis">  323.70  325.35</time>
   <time name="orth">    3.08    3.09</time>
   <time name="total">  438.99  441.61</time>
   <energy>
    <i name="e_fr_energy">    -36.91426588 </i>
    <i name="e_wo_entrp">    -36.91423794 </i>
    <i name="e_0_energy">    -36.91425191 </i>
   </energy>
  </scstep>
  <scstep>
   <time name="diag">   79.55   79.94</time>
   <time name="diis">  333.81  336.58</time>
   <time name="orth">    3.07    3.07</time>
   <time name="total">  449.29  453.09</time>
   <energy>
    <i name="e_fr_energy">    -36.91427049 </i>
    <i name="e_wo_entrp">    -36.91424257 </i>
    <i name="e_0_energy">    -36.91425653 </i>
   </energy>
  </scstep>
  <scstep>
   <time name="diag">   79.53   79.97</time>
   <time name="diis">  320.55  322.44</time>
   <time name="orth">    3.06    3.08</time>
   <time name="total">  436.01  439.25</time>
   <energy>
    <i name="e_fr_energy">    -36.91427173 </i>
    <i name="e_wo_entrp">    -36.91424380 </i>
    <i name="e_0_energy">    -36.91425777 </i>
   </energy>
  </scstep>
  <scstep>
   <time name="diag">   80.02   80.28</time>
   <time name="diis">  338.46  339.43</time>
   <time name="orth">    3.07    3.07</time>
   <time name="total">  454.59  455.94</time>
   <energy>
    <i name="e_fr_energy">    -36.91427247 </i>
    <i name="e_wo_entrp">    -36.91424454 </i>
    <i name="e_0_energy">    -36.91425851 </i>
   </energy>
  </scstep>
  <scstep>
   <time name="diag">   79.59   80.35</time>
   <time name="diis">  257.31  259.76</time>
   <time name="orth">    3.06    3.08</time>
   <time name="total">  372.71  376.30</time>
   <energy>
    <i name="e_fr_energy">    -36.91427252 </i>
    <i name="e_wo_entrp">    -36.91424460 </i>
    <i name="e_0_energy">    -36.91425856 </i>
   </energy>
  </scstep>
  <scstep>
   <time name="diag">   79.47   80.23</time>
   <time name="diis">  255.04  257.47</time>
   <time name="orth">    3.07    3.07</time>
   <time name="total">  370.30  374.57</time>
   <energy>
    <i name="e_fr_energy">    -36.91427254 </i>
    <i name="e_wo_entrp">    -36.91424461 </i>
    <i name="e_0_energy">    -36.91425858 </i>
   </energy>
  </scstep>
  <scstep>
   <time name="diag">   79.53   80.25</time>
   <time name="diis">  225.86  227.15</time>
   <time name="orth">    3.07    3.07</time>
   <time name="total">  310.81  313.68</time>
   <energy>
    <i name="alphaZ">      6.18334092 </i>
    <i name="ewald">   2530.44097105 </i>
    <i name="hartreedc">  -3024.52643403 </i>
    <i name="XCdc">     57.36767667 </i>
    <i name="pawpsdc">    273.68631404 </i>
    <i name="pawaedc">   -278.81975318 </i>
    <i name="eentropy">     -0.00002793 </i>
    <i name="bandstr">   -189.86988699 </i>
    <i name="atom">    588.62352690 </i>
    <i name="e_fr_energy">    -36.91427254 </i>
    <i name="e_wo_entrp">    -36.91424461 </i>
    <i name="e_0_energy">    -36.91425858 </i>
   </energy>
  </scstep>
  <structure>
   <crystal>
    <varray name="basis" >
     <v>       4.26555261       0.00000000       0.00000000 </v>
     <v>       0.00000000       2.49222023       0.00000000 </v>
     <v>       0.00000000       0.00000000      19.83293391 </v>
    </varray>
    <i name="volume">    210.83790140 </i>
    <varray name="rec_basis" >
     <v>       0.23443621       0.00000000       0.00000000 </v>
     <v>       0.00000000       0.40124865       0.00000000 </v>
     <v>       0.00000000       0.00000000       0.05042118 </v>
    </varray>
   </crystal>
   <varray name="positions" >
    <v>       0.00026297       0.00000000       0.00000000 </v>
    <v>       0.16640370       0.50000000       0.00000000 </v>
    <v>       0.50026297       0.50000000       0.00000000 </v>
    <v>       0.66640370       0.00000000       0.00000000 </v>
   </varray>
  </structure>
  <varray name="forces" >
   <v>       0.00061344       0.00000000       0.00000000 </v>
   <v>      -0.00061344      -0.00000000       0.00000000 </v>
   <v>       0.00061344      -0.00000000       0.00000000 </v>
   <v>      -0.00061344      -0.00000000       0.00000000 </v>
  </varray>
  <varray name="stress" >
   <v>       0.00350367       0.00000000       0.00000000 </v>
   <v>       0.00000000     -16.88071317       0.00000000 </v>
   <v>       0.00000000       0.00000000      -0.01018424 </v>
  </varray>
  <energy>
   <i name="e_fr_energy">    -36.91427254 </i>
   <i name="e_wo_entrp">    -36.91425858 </i>
   <i name="e_0_energy">     -0.00002793 </i>
  </energy>
  <time name="totalsc"> 9424.83 9500.52</time>
 </calculation>
 <calculation>
  <scstep>
   <time name="dav">  315.39  315.54</time>
   <time name="total">  347.89  348.04</time>
   <energy>
    <i name="alphaZ">      6.18334092 </i>
    <i name="ewald">   2530.44071165 </i>
    <i name="hartreedc">  -3024.52633522 </i>
    <i name="XCdc">     57.36766984 </i>
    <i name="pawpsdc">    273.68634621 </i>
    <i name="pawaedc">   -278.81978563 </i>
    <i name="eentropy">     -0.00002852 </i>
    <i name="bandstr">   -189.86971858 </i>
    <i name="atom">    588.62352690 </i>
    <i name="e_fr_energy">    -36.91427243 </i>
    <i name="e_wo_entrp">    -36.91424391 </i>
    <i name="e_0_energy">    -36.91425817 </i>
   </energy>
  </scstep>
  <scstep>
   <time name="diag">   80.15   80.36</time>
   <time name="diis">  330.04  331.36</time>
   <time name="orth">    3.07    3.07</time>
   <time name="total">  446.06  447.71</time>
   <energy>
    <i name="e_fr_energy">    -36.91427244 </i>
    <i name="e_wo_entrp">    -36.91424393 </i>
    <i name="e_0_energy">    -36.91425818 </i>
   </energy>
  </scstep>
  <scstep>
   <time name="diag">   79.91   80.34</time>
   <time name="diis">  328.33  328.92</time>
   <time name="orth">    3.07    3.07</time>
   <time name="total">  443.68  445.51</time>
   <energy>
    <i name="e_fr_energy">    -36.91427243 </i>
    <i name="e_wo_entrp">    -36.91424396 </i>
    <i name="e_0_energy">    -36.91425820 </i>
   </energy>
  </scstep>
  <scstep>
   <time name="diag">   79.91   80.36</time>
   <time name="diis">  327.78  328.22</time>
   <time name="orth">    3.06    3.07</time>
   <time name="total">  443.47  444.49</time>
   <energy>
    <i name="e_fr_energy">    -36.91427243 </i>
    <i name="e_wo_entrp">    -36.91424395 </i>
    <i name="e_0_energy">    -36.91425819 </i>
   </energy>
  </scstep>
  <scstep>
   <time name="diag">   80.04   80.29</time>
   <time name="diis">  224.15  225.01</time>
   <time name="orth">    3.10    3.13</time>
   <time name="total">  339.89  341.17</time>
   <energy>
    <i name="e_fr_energy">    -36.91427243 </i>
    <i name="e_wo_entrp">    -36.91424395 </i>
    <i name="e_0_energy">    -36.91425819 </i>
   </energy>
  </scstep>
  <scstep>
   <time name="diag">   79.83   80.34</time>
   <time name="diis">  211.17  212.68</time>
   <time name="orth">    3.07    3.07</time>
   <time name="total">  296.44  298.65</time>
   <energy>
    <i name="alphaZ">      6.18334092 </i>
    <i name="ewald">   2530.44071165 </i>
    <i name="hartreedc">  -3024.52623996 </i>
    <i name="XCdc">     57.36766588 </i>
    <i name="pawpsdc">    273.68590094 </i>
    <i name="pawaedc">   -278.81933862 </i>
    <i name="eentropy">     -0.00002847 </i>
    <i name="bandstr">   -189.86981167 </i>
    <i name="atom">    588.62352690 </i>
    <i name="e_fr_energy">    -36.91427243 </i>
    <i name="e_wo_entrp">    -36.91424395 </i>
    <i name="e_0_energy">    -36.91425819 </i>
   </energy>
  </scstep>
  <structure>
   <crystal>
    <varray name="basis" >
     <v>       4.26555261       0.00000000       0.00000000 </v>
     <v>       0.00000000       2.49222023       0.00000000 </v>
     <v>       0.00000000       0.00000000      19.83293391 </v>
    </varray>
    <i name="volume">    210.83790140 </i>
    <varray name="rec_basis" >
     <v>       0.23443621       0.00000000       0.00000000 </v>
     <v>       0.00000000       0.40124865       0.00000000 </v>
     <v>       0.00000000       0.00000000       0.05042118 </v>
    </varray>
   </crystal>
   <varray name="positions" >
    <v>       0.00026990       0.00000000       0.00000000 </v>
    <v>       0.16639676       0.50000000       0.00000000 </v>
    <v>       0.50026990       0.50000000       0.00000000 </v>
    <v>       0.66639676      -0.00000000       0.00000000 </v>
   </varray>
  </structure>
  <varray name="forces" >
   <v>      -0.00249881       0.00000000       0.00000000 </v>
   <v>       0.00249881       0.00000000      -0.00000000 </v>
   <v>      -0.00249881      -0.00000000       0.00000000 </v>
   <v>       0.00249881       0.00000000      -0.00000000 </v>
  </varray>
  <varray name="stress" >
   <v>      -0.00730194       0.00000000       0.00000000 </v>
   <v>       0.00000000     -16.87188636       0.00000000 </v>
   <v>       0.00000000       0.00000000      -0.01014331 </v>
  </varray>
  <energy>
   <i name="e_fr_energy">    -36.91427243 </i>
   <i name="e_wo_entrp">    -36.91425819 </i>
   <i name="e_0_energy">     -0.00002847 </i>
  </energy>
  <time name="totalsc"> 2418.32 2427.12</time>
 </calculation>
 <calculation>
  <scstep>
   <time name="dav">  315.65  316.43</time>
   <time name="total">  348.47  349.32</time>
   <energy>
    <i name="alphaZ">      6.18334092 </i>
    <i name="ewald">   2530.44091982 </i>
    <i name="hartreedc">  -3024.52632841 </i>
    <i name="XCdc">     57.36767176 </i>
    <i name="pawpsdc">    273.68589971 </i>
    <i name="pawaedc">   -278.81933737 </i>
    <i name="eentropy">     -0.00002800 </i>
    <i name="bandstr">   -189.86993788 </i>
    <i name="atom">    588.62352690 </i>
    <i name="e_fr_energy">    -36.91427255 </i>
    <i name="e_wo_entrp">    -36.91424455 </i>
    <i name="e_0_energy">    -36.91425855 </i>
   </energy>
  </scstep>
  <scstep>
   <time name="diag">   80.22   80.32</time>
   <time name="diis">  325.82  327.71</time>
   <time name="orth">    3.07    3.07</time>
   <time name="total">  441.53  443.92</time>
   <energy>
    <i name="e_fr_energy">    -36.91427255 </i>
    <i name="e_wo_entrp">    -36.91424454 </i>
    <i name="e_0_energy">    -36.91425854 </i>
   </energy>
  </scstep>
  <scstep>
   <time name="diag">   79.59   80.33</time>
   <time name="diis">  327.14  330.08</time>
   <time name="orth">    3.07    3.07</time>
   <time name="total">  442.31  446.25</time>
   <energy>
    <i name="e_fr_energy">    -36.91427255 </i>
    <i name="e_wo_entrp">    -36.91424451 </i>
    <i name="e_0_energy">    -36.91425853 </i>
   </energy>
  </scstep>
  <scstep>
   <time name="diag">   79.98   80.26</time>
   <time name="diis">  321.09  321.28</time>
   <time name="orth">    3.07    3.08</time>
   <time name="total">  437.05  437.59</time>
   <energy>
    <i name="e_fr_energy">    -36.91427255 </i>
    <i name="e_wo_entrp">    -36.91424451 </i>
    <i name="e_0_energy">    -36.91425853 </i>
   </energy>
  </scstep>
  <scstep>
   <time name="diag">   79.80   80.24</time>
   <time name="diis">  219.39  220.15</time>
   <time name="orth">    3.06    3.07</time>
   <time name="total">  335.12  336.61</time>
   <energy>
    <i name="e_fr_energy">    -36.91427255 </i>
    <i name="e_wo_entrp">    -36.91424452 </i>
    <i name="e_0_energy">    -36.91425853 </i>
   </energy>
  </scstep>
  <scstep>
   <time name="diag">   80.08   80.21</time>
   <time name="diis">  208.20  208.81</time>
   <time name="orth">    3.06    3.07</time>
   <time name="total">  293.74  294.49</time>
   <energy>
    <i name="alphaZ">      6.18334092 </i>
    <i name="ewald">   2530.44091982 </i>
    <i name="hartreedc">  -3024.52640565 </i>
    <i name="XCdc">     57.36767519 </i>
    <i name="pawpsdc">    273.68627064 </i>
    <i name="pawaedc">   -278.81970982 </i>
    <i name="eentropy">     -0.00002803 </i>
    <i name="bandstr">   -189.86986251 </i>
    <i name="atom">    588.62352690 </i>
    <i name="e_fr_energy">    -36.91427255 </i>
    <i name="e_wo_entrp">    -36.91424451 </i>
    <i name="e_0_energy">    -36.91425853 </i>
   </energy>
  </scstep>
  <structure>
   <crystal>
    <varray name="basis" >
     <v>       4.26555261       0.00000000       0.00000000 </v>
     <v>       0.00000000       2.49222023       0.00000000 </v>
     <v>       0.00000000       0.00000000      19.83293391 </v>
    </varray>
    <i name="volume">    210.83790140 </i>
    <varray name="rec_basis" >
     <v>       0.23443621       0.00000000       0.00000000 </v>
     <v>       0.00000000       0.40124865       0.00000000 </v>
     <v>       0.00000000       0.00000000       0.05042118 </v>
    </varray>
   </crystal>
   <varray name="positions" >
    <v>       0.00026433       0.00000000       0.00000000 </v>
    <v>       0.16640233       0.50000000      -0.00000000 </v>
    <v>       0.50026433       0.50000000       0.00000000 </v>
    <v>       0.66640233      -0.00000000      -0.00000000 </v>
   </varray>
  </structure>
  <varray name="forces" >
   <v>      -0.00000144       0.00000000      -0.00000000 </v>
   <v>       0.00000144      -0.00000000       0.00000000 </v>
   <v>      -0.00000144      -0.00000000      -0.00000000 </v>
   <v>       0.00000144       0.00000000       0.00000000 </v>
  </varray>
  <varray name="stress" >
   <v>       0.00132994       0.00000000       0.00000000 </v>
   <v>       0.00000000     -16.87889864       0.00000000 </v>
   <v>       0.00000000       0.00000000      -0.01013077 </v>
  </varray>
  <energy>
   <i name="e_fr_energy">    -36.91427255 </i>
   <i name="e_wo_entrp">    -36.91425853 </i>
   <i name="e_0_energy">     -0.00002803 </i>
  </energy>
  <time name="totalsc"> 2399.08 2411.54</time>
 </calculation>
 <calculation>
  <scstep>
   <time name="dav">  252.27  254.28</time>
   <time name="total">  285.24  287.31</time>
   <energy>
    <i name="alphaZ">      6.18334092 </i>
    <i name="ewald">   2530.44091994 </i>
    <i name="hartreedc">  -3024.52640629 </i>
    <i name="XCdc">     57.36767522 </i>
    <i name="pawpsdc">    273.68627144 </i>
    <i name="pawaedc">   -278.81971063 </i>
    <i name="eentropy">     -0.00002803 </i>
    <i name="bandstr">   -189.86986201 </i>
    <i name="atom">    588.62352690 </i>
    <i name="e_fr_energy">    -36.91427255 </i>
    <i name="e_wo_entrp">    -36.91424451 </i>
    <i name="e_0_energy">    -36.91425853 </i>
   </energy>
  </scstep>
  <scstep>
   <time name="diag">   80.15   80.22</time>
   <time name="diis">  158.04  158.28</time>
   <time name="orth">    3.06    3.06</time>
   <time name="total">  274.05  274.42</time>
   <energy>
    <i name="e_fr_energy">    -36.91427255 </i>
    <i name="e_wo_entrp">    -36.91424451 </i>
    <i name="e_0_energy">    -36.91425853 </i>
   </energy>
  </scstep>
  <scstep>
   <time name="diag">   79.94   80.20</time>
   <time name="diis">  154.02  154.35</time>
   <time name="orth">    3.06    3.06</time>
   <time name="total">  269.76  270.60</time>
   <energy>
    <i name="e_fr_energy">    -36.91427255 </i>
    <i name="e_wo_entrp">    -36.91424451 </i>
    <i name="e_0_energy">    -36.91425853 </i>
   </energy>
  </scstep>
  <scstep>
   <time name="diag">   79.71   80.22</time>
   <time name="diis">  149.91  151.20</time>
   <time name="orth">    3.06    3.08</time>
   <time name="total">  265.45  267.37</time>
   <energy>
    <i name="e_fr_energy">    -36.91427255 </i>
    <i name="e_wo_entrp">    -36.91424451 </i>
    <i name="e_0_energy">    -36.91425853 </i>
   </energy>
  </scstep>
  <scstep>
   <time name="diag">   80.24   80.29</time>
   <time name="diis">  149.56  149.81</time>
   <time name="orth">    3.06    3.06</time>
   <time name="total">  235.21  235.96</time>
   <energy>
    <i name="alphaZ">      6.18334092 </i>
    <i name="ewald">   2530.44091994 </i>
    <i name="hartreedc">  -3024.52640925 </i>
    <i name="XCdc">     57.36767528 </i>
    <i name="pawpsdc">    273.68626865 </i>
    <i name="pawaedc">   -278.81970787 </i>
    <i name="eentropy">     -0.00002803 </i>
    <i name="bandstr">   -189.86985909 </i>
    <i name="atom">    588.62352690 </i>
    <i name="e_fr_energy">    -36.91427255 </i>
    <i name="e_wo_entrp">    -36.91424451 </i>
    <i name="e_0_energy">    -36.91425853 </i>
   </energy>
  </scstep>
  <structure>
   <crystal>
    <varray name="basis" >
     <v>       4.26555261       0.00000000       0.00000000 </v>
     <v>       0.00000000       2.49222023       0.00000000 </v>
     <v>       0.00000000       0.00000000      19.83293391 </v>
    </varray>
    <i name="volume">    210.83790140 </i>
    <varray name="rec_basis" >
     <v>       0.23443621       0.00000000       0.00000000 </v>
     <v>       0.00000000       0.40124865       0.00000000 </v>
     <v>       0.00000000       0.00000000       0.05042118 </v>
    </varray>
   </crystal>
   <varray name="positions" >
    <v>       0.00026433       0.00000000      -0.00000000 </v>
    <v>       0.16640234       0.50000000       0.00000000 </v>
    <v>       0.50026433       0.50000000      -0.00000000 </v>
    <v>       0.66640234       0.00000000       0.00000000 </v>
   </varray>
  </structure>
  <varray name="forces" >
   <v>       0.00000210      -0.00000000      -0.00000000 </v>
   <v>      -0.00000210       0.00000000       0.00000000 </v>
   <v>       0.00000210       0.00000000      -0.00000000 </v>
   <v>      -0.00000210      -0.00000000       0.00000000 </v>
  </varray>
  <varray name="stress" >
   <v>       0.00139084       0.00000000       0.00000000 </v>
   <v>       0.00000000     -16.87895952       0.00000000 </v>
   <v>       0.00000000       0.00000000      -0.01013202 </v>
  </varray>
  <energy>
   <i name="e_fr_energy">    -36.91427255 </i>
   <i name="e_wo_entrp">    -36.91425853 </i>
   <i name="e_0_energy">     -0.00002803 </i>
  </energy>
  <time name="totalsc"> 1430.39 1437.22</time>
 </calculation>
 <calculation>
  <scstep>
   <time name="dav">  246.96  248.21</time>
   <time name="total">  279.58  281.19</time>
   <energy>
    <i name="alphaZ">      6.18334092 </i>
    <i name="ewald">   2530.44091987 </i>
    <i name="hartreedc">  -3024.52641003 </i>
    <i name="XCdc">     57.36767529 </i>
    <i name="pawpsdc">    273.68626858 </i>
    <i name="pawaedc">   -278.81970780 </i>
    <i name="eentropy">     -0.00002803 </i>
    <i name="bandstr">   -189.86985825 </i>
    <i name="atom">    588.62352690 </i>
    <i name="e_fr_energy">    -36.91427255 </i>
    <i name="e_wo_entrp">    -36.91424451 </i>
    <i name="e_0_energy">    -36.91425853 </i>
   </energy>
  </scstep>
  <scstep>
   <time name="diag">   79.52   80.32</time>
   <time name="diis">  138.35  140.14</time>
   <time name="orth">    3.06    3.08</time>
   <time name="total">  253.57  256.56</time>
   <energy>
    <i name="e_fr_energy">    -36.91427255 </i>
    <i name="e_wo_entrp">    -36.91424451 </i>
    <i name="e_0_energy">    -36.91425853 </i>
   </energy>
  </scstep>
  <scstep>
   <time name="diag">   80.13   80.31</time>
   <time name="diis">  140.91  141.04</time>
   <time name="orth">    3.06    3.06</time>
   <time name="total">  257.00  257.35</time>
   <energy>
    <i name="e_fr_energy">    -36.91427255 </i>
    <i name="e_wo_entrp">    -36.91424451 </i>
    <i name="e_0_energy">    -36.91425853 </i>
   </energy>
  </scstep>
  <scstep>
   <time name="diag">   80.17   80.27</time>
   <time name="diis">  140.73  141.01</time>
   <time name="orth">    3.19    3.23</time>
   <time name="total">  256.87  257.48</time>
   <energy>
    <i name="e_fr_energy">    -36.91427255 </i>
    <i name="e_wo_entrp">    -36.91424451 </i>
    <i name="e_0_energy">    -36.91425853 </i>
   </energy>
  </scstep>
  <scstep>
   <time name="diag">   80.00   80.32</time>
   <time name="diis">  135.19  135.68</time>
   <time name="orth">    3.06    3.06</time>
   <time name="total">  251.14  252.01</time>
   <energy>
    <i name="e_fr_energy">    -36.91427255 </i>
    <i name="e_wo_entrp">    -36.91424451 </i>
    <i name="e_0_energy">    -36.91425853 </i>
   </energy>
  </scstep>
  <scstep>
   <time name="diag">   79.63   80.27</time>
   <time name="diis">  140.02  140.79</time>
   <time name="orth">    3.09    3.09</time>
   <time name="total">  255.66  257.08</time>
   <energy>
    <i name="e_fr_energy">    -36.91427255 </i>
    <i name="e_wo_entrp">    -36.91424451 </i>
    <i name="e_0_energy">    -36.91425853 </i>
   </energy>
  </scstep>
  <scstep>
   <time name="diag">   80.23   80.31</time>
   <time name="diis">  132.24  132.26</time>
   <time name="orth">    3.07    3.07</time>
   <time name="total">  217.93  218.07</time>
   <energy>
    <i name="alphaZ">      6.18334092 </i>
    <i name="ewald">   2530.44091987 </i>
    <i name="hartreedc">  -3024.52640992 </i>
    <i name="XCdc">     57.36767527 </i>
    <i name="pawpsdc">    273.68626794 </i>
    <i name="pawaedc">   -278.81970715 </i>
    <i name="eentropy">     -0.00002803 </i>
    <i name="bandstr">   -189.86985835 </i>
    <i name="atom">    588.62352690 </i>
    <i name="e_fr_energy">    -36.91427255 </i>
    <i name="e_wo_entrp">    -36.91424451 </i>
    <i name="e_0_energy">    -36.91425853 </i>
   </energy>
  </scstep>
  <structure>
   <crystal>
    <varray name="basis" >
     <v>       4.26555261       0.00000000       0.00000000 </v>
     <v>       0.00000000       2.49222023       0.00000000 </v>
     <v>       0.00000000       0.00000000      19.83293391 </v>
    </varray>
    <i name="volume">    210.83790140 </i>
    <varray name="rec_basis" >
     <v>       0.23443621       0.00000000       0.00000000 </v>
     <v>       0.00000000       0.40124865       0.00000000 </v>
     <v>       0.00000000       0.00000000       0.05042118 </v>
    </varray>
   </crystal>
   <varray name="positions" >
    <v>       0.00026433       0.00000000      -0.00000000 </v>
    <v>       0.16640233       0.50000000       0.00000000 </v>
    <v>       0.50026433       0.50000000      -0.00000000 </v>
    <v>       0.66640233       0.00000000       0.00000000 </v>
   </varray>
  </structure>
  <varray name="forces" >
   <v>       0.00000094       0.00000000      -0.00000000 </v>
   <v>      -0.00000094      -0.00000000       0.00000000 </v>
   <v>       0.00000094      -0.00000000      -0.00000000 </v>
   <v>      -0.00000094       0.00000000       0.00000000 </v>
  </varray>
  <varray name="stress" >
   <v>       0.00139138       0.00000000       0.00000000 </v>
   <v>       0.00000000     -16.87896068       0.00000000 </v>
   <v>       0.00000000       0.00000000      -0.01013714 </v>
  </varray>
  <energy>
   <i name="e_fr_energy">    -36.91427255 </i>
   <i name="e_wo_entrp">    -36.91425853 </i>
   <i name="e_0_energy">     -0.00002803 </i>
  </energy>
  <time name="totalsc"> 1866.45 1874.52</time>
  <eigenvalues>
   <array>
    <dimension dim="1">band</dimension>
    <dimension dim="2">kpoint</dimension>
    <dimension dim="3">spin</dimension>
    <field>eigene</field>
    <field>occ</field>
    <set>
     <set comment="spin 1">
      <set comment="kpoint 1">
       <r>  -22.1838    1.0000 </r>
       <r>  -16.8912    1.0000 </r>
       <r>  -15.9279    1.0000 </r>
       <r>  -10.3050    1.0000 </r>
       <r>   -9.2937    1.0000 </r>
       <r>   -5.8760    1.0000 </r>
       <r>   -5.7634    1.0000 </r>
       <r>   -5.0261    1.0000 </r>
       <r>   -1.0995    0.0000 </r>
       <r>    0.5322    0.0000 </r>
       <r>    1.3321    0.0000 </r>
       <r>    1.7192    0.0000 </r>
      </set>
      <set comment="kpoint 2">
       <r>  -22.1735    1.0000 </r>
       <r>  -17.0680    1.0000 </r>
       <r>  -15.7359    1.0000 </r>
       <r>  -10.2927    1.0000 </r>
       <r>   -9.2835    1.0000 </r>
       <r>   -5.8990    1.0000 </r>
       <r>   -5.8051    1.0000 </r>
       <r>   -5.0940    1.0000 </r>
       <r>   -1.0160    0.0000 </r>
       <r>    0.5462    0.0000 </r>
       <r>    1.3462    0.0000 </r>
       <r>    1.7335    0.0000 </r>
      </set>
      <set comment="kpoint 3">
       <r>  -22.1426    1.0000 </r>
       <r>  -17.4171    1.0000 </r>
       <r>  -15.3414    1.0000 </r>
       <r>  -10.2559    1.0000 </r>
       <r>   -9.2527    1.0000 </r>
       <r>   -5.9669    1.0000 </r>
       <r>   -5.9286    1.0000 </r>
       <r>   -5.2821    1.0000 </r>
       <r>   -0.7816    0.0000 </r>
       <r>    0.5881    0.0000 </r>
       <r>    1.3886    0.0000 </r>
       <r>    1.7764    0.0000 </r>
      </set>
      <set comment="kpoint 4">
       <r>  -22.0911    1.0000 </r>
       <r>  -17.8005    1.0000 </r>
       <r>  -14.8826    1.0000 </r>
       <r>  -10.1946    1.0000 </r>
       <r>   -9.2015    1.0000 </r>
       <r>   -6.1293    1.0000 </r>
       <r>   -6.0758    1.0000 </r>
       <r>   -5.5554    1.0000 </r>
       <r>   -0.4316    0.0000 </r>
       <r>    0.6579    0.0000 </r>
       <r>    1.4593    0.0000 </r>
       <r>    1.8479    0.0000 </r>
      </set>
      <set comment="kpoint 5">
       <r>  -22.0191    1.0000 </r>
       <r>  -18.1842    1.0000 </r>
       <r>  -14.3940    1.0000 </r>
       <r>  -10.1090    1.0000 </r>
       <r>   -9.1303    1.0000 </r>
       <r>   -6.4002    1.0000 </r>
       <r>   -6.2205    1.0000 </r>
       <r>   -5.8800    1.0000 </r>
       <r>   -0.0007    0.0000 </r>
       <r>    0.7557    0.0000 </r>
       <r>    1.5582    0.0000 </r>
       <r>    1.9481    0.0000 </r>
      </set>
      <set comment="kpoint 6">
       <r>  -21.9266    1.0000 </r>
       <r>  -18.5579    1.0000 </r>
       <r>  -13.8865    1.0000 </r>
       <r>   -9.9991    1.0000 </r>
       <r>   -9.0393    1.0000 </r>
       <r>   -6.7329    1.0000 </r>
       <r>   -6.3943    1.0000 </r>
       <r>   -6.2311    1.0000 </r>
       <r>    0.4848    0.0000 </r>
       <r>    0.8814    0.0000 </r>
       <r>    1.6852    0.0000 </r>
       <r>    2.0769    0.0000 </r>
      </set>
      <set comment="kpoint 7">
       <r>  -21.8136    1.0000 </r>
       <r>  -18.9178    1.0000 </r>
       <r>  -13.3649    1.0000 </r>
       <r>   -9.8652    1.0000 </r>
       <r>   -8.9291    1.0000 </r>
       <r>   -7.1184    1.0000 </r>
       <r>   -6.5924    1.0000 </r>
       <r>   -6.5905    1.0000 </r>
       <r>    1.0071    0.0000 </r>
       <r>    1.0350    0.0000 </r>
       <r>    1.8405    0.0000 </r>
       <r>    2.2343    0.0000 </r>
      </set>
      <set comment="kpoint 8">
       <r>  -21.6803    1.0000 </r>
       <r>  -19.2617    1.0000 </r>
       <r>  -12.8323    1.0000 </r>
       <r>   -9.7074    1.0000 </r>
       <r>   -8.8003    1.0000 </r>
       <r>   -7.5480    1.0000 </r>
       <r>   -6.9534    1.0000 </r>
       <r>   -6.8026    1.0000 </r>
       <r>    1.2165    0.0000 </r>
       <r>    1.5534    0.0000 </r>
       <r>    2.0238    0.0000 </r>
       <r>    2.4202    0.0000 </r>
      </set>
      <set comment="kpoint 9">
       <r>  -21.5267    1.0000 </r>
       <r>  -19.5886    1.0000 </r>
       <r>  -12.2912    1.0000 </r>
       <r>   -9.5262    1.0000 </r>
       <r>   -8.6538    1.0000 </r>
       <r>   -8.0134    1.0000 </r>
       <r>   -7.3071    1.0000 </r>
       <r>   -7.0244    1.0000 </r>
       <r>    1.4258    0.0000 </r>
       <r>    2.1142    0.0000 </r>
       <r>    2.2351    0.0000 </r>
       <r>    2.6348    0.0000 </r>
      </set>
      <set comment="kpoint 10">
       <r>  -21.3530    1.0000 </r>
       <r>  -19.8976    1.0000 </r>
       <r>  -11.7442    1.0000 </r>
       <r>   -9.3219    1.0000 </r>
       <r>   -8.5070    1.0000 </r>
       <r>   -8.4905    1.0000 </r>
       <r>   -7.6489    1.0000 </r>
       <r>   -7.2507    1.0000 </r>
       <r>    1.6630    0.0000 </r>
       <r>    2.4741    0.0000 </r>
       <r>    2.6807    0.0000 </r>
       <r>    2.8780    0.0000 </r>
      </set>
      <set comment="kpoint 11">
       <r>  -21.1593    1.0000 </r>
       <r>  -20.1882    1.0000 </r>
       <r>  -11.1939    1.0000 </r>
       <r>   -9.0949    1.0000 </r>
       <r>   -9.0221    1.0000 </r>
       <r>   -8.3117    1.0000 </r>
       <r>   -7.9757    1.0000 </r>
       <r>   -7.4769    1.0000 </r>
       <r>    1.9278    0.0000 </r>
       <r>    2.7405    0.0000 </r>
       <r>    3.1498    0.0000 </r>
       <r>    3.2606    0.0000 </r>
      </set>
      <set comment="kpoint 12">
       <r>  -20.9458    1.0000 </r>
       <r>  -20.4599    1.0000 </r>
       <r>  -10.6430    1.0000 </r>
       <r>   -9.5531    1.0000 </r>
       <r>   -8.8460    1.0000 </r>
       <r>   -8.2852    1.0000 </r>
       <r>   -8.1189    1.0000 </r>
       <r>   -7.6990    1.0000 </r>
       <r>    2.2202    0.0000 </r>
       <r>    2.8871    0.0000 </r>
       <r>    3.0333    0.0000 </r>
       <r>    3.4501    0.0000 </r>
      </set>
      <set comment="kpoint 13">
       <r>  -20.7126    1.0000 </r>
       <r>  -20.7126    1.0000 </r>
       <r>  -10.0948    1.0000 </r>
       <r>  -10.0948    1.0000 </r>
       <r>   -8.5757    1.0000 </r>
       <r>   -8.5757    1.0000 </r>
       <r>   -7.9139    1.0000 </r>
       <r>   -7.9139    1.0000 </r>
       <r>    2.5401    0.0000 </r>
       <r>    2.5401    0.0000 </r>
       <r>    3.3482    0.0000 </r>
       <r>    3.3482    0.0000 </r>
      </set>
      <set comment="kpoint 14">
       <r>  -22.1704    1.0000 </r>
       <r>  -16.8797    1.0000 </r>
       <r>  -15.9168    1.0000 </r>
       <r>  -10.2890    1.0000 </r>
       <r>   -9.3539    1.0000 </r>
       <r>   -5.9314    1.0000 </r>
       <r>   -5.7944    1.0000 </r>
       <r>   -5.0098    1.0000 </r>
       <r>   -1.1044    0.0000 </r>
       <r>    0.5503    0.0000 </r>
       <r>    1.3505    0.0000 </r>
       <r>    1.7378    0.0000 </r>
      </set>
      <set comment="kpoint 15">
       <r>  -22.1601    1.0000 </r>
       <r>  -17.0563    1.0000 </r>
       <r>  -15.7250    1.0000 </r>
       <r>  -10.2768    1.0000 </r>
       <r>   -9.3436    1.0000 </r>
       <r>   -5.9595    1.0000 </r>
       <r>   -5.8304    1.0000 </r>
       <r>   -5.0779    1.0000 </r>
       <r>   -1.0209    0.0000 </r>
       <r>    0.5643    0.0000 </r>
       <r>    1.3646    0.0000 </r>
       <r>    1.7521    0.0000 </r>
      </set>
      <set comment="kpoint 16">
       <r>  -22.1292    1.0000 </r>
       <r>  -17.4052    1.0000 </r>
       <r>  -15.3309    1.0000 </r>
       <r>  -10.2400    1.0000 </r>
       <r>   -9.3128    1.0000 </r>
       <r>   -6.0480    1.0000 </r>
       <r>   -5.9312    1.0000 </r>
       <r>   -5.2663    1.0000 </r>
       <r>   -0.7864    0.0000 </r>
       <r>    0.6062    0.0000 </r>
       <r>    1.4070    0.0000 </r>
       <r>    1.7950    0.0000 </r>
      </set>
      <set comment="kpoint 17">
       <r>  -22.0777    1.0000 </r>
       <r>  -17.7884    1.0000 </r>
       <r>  -14.8726    1.0000 </r>
       <r>  -10.1787    1.0000 </r>
       <r>   -9.2615    1.0000 </r>
       <r>   -6.2128    1.0000 </r>
       <r>   -6.0732    1.0000 </r>
       <r>   -5.5400    1.0000 </r>
       <r>   -0.4367    0.0000 </r>
       <r>    0.6761    0.0000 </r>
       <r>    1.4777    0.0000 </r>
       <r>    1.8666    0.0000 </r>
      </set>
      <set comment="kpoint 18">
       <r>  -22.0057    1.0000 </r>
       <r>  -18.1718    1.0000 </r>
       <r>  -14.3846    1.0000 </r>
       <r>  -10.0931    1.0000 </r>
       <r>   -9.1901    1.0000 </r>
       <r>   -6.4614    1.0000 </r>
       <r>   -6.2367    1.0000 </r>
       <r>   -5.8649    1.0000 </r>
       <r>   -0.0064    0.0000 </r>
       <r>    0.7739    0.0000 </r>
       <r>    1.5766    0.0000 </r>
       <r>    1.9667    0.0000 </r>
      </set>
      <set comment="kpoint 19">
       <r>  -21.9132    1.0000 </r>
       <r>  -18.5454    1.0000 </r>
       <r>  -13.8778    1.0000 </r>
       <r>   -9.9832    1.0000 </r>
       <r>   -9.0988    1.0000 </r>
       <r>   -6.7799    1.0000 </r>
       <r>   -6.4212    1.0000 </r>
       <r>   -6.2162    1.0000 </r>
       <r>    0.4781    0.0000 </r>
       <r>    0.8996    0.0000 </r>
       <r>    1.7036    0.0000 </r>
       <r>    2.0955    0.0000 </r>
      </set>
      <set comment="kpoint 20">
       <r>  -21.8003    1.0000 </r>
       <r>  -18.9051    1.0000 </r>
       <r>  -13.3571    1.0000 </r>
       <r>   -9.8494    1.0000 </r>
       <r>   -8.9883    1.0000 </r>
       <r>   -7.1549    1.0000 </r>
       <r>   -6.6245    1.0000 </r>
       <r>   -6.5775    1.0000 </r>
       <r>    0.9991    0.0000 </r>
       <r>    1.0532    0.0000 </r>
       <r>    1.8588    0.0000 </r>
       <r>    2.2529    0.0000 </r>
      </set>
      <set comment="kpoint 21">
       <r>  -21.6670    1.0000 </r>
       <r>  -19.2490    1.0000 </r>
       <r>  -12.8255    1.0000 </r>
       <r>   -9.6917    1.0000 </r>
       <r>   -8.8591    1.0000 </r>
       <r>   -7.5759    1.0000 </r>
       <r>   -6.9384    1.0000 </r>
       <r>   -6.8420    1.0000 </r>
       <r>    1.2347    0.0000 </r>
       <r>    1.5438    0.0000 </r>
       <r>    2.0421    0.0000 </r>
       <r>    2.4389    0.0000 </r>
      </set>
      <set comment="kpoint 22">
       <r>  -21.5134    1.0000 </r>
       <r>  -19.5757    1.0000 </r>
       <r>  -12.2857    1.0000 </r>
       <r>   -9.5105    1.0000 </r>
       <r>   -8.7120    1.0000 </r>
       <r>   -8.0342    1.0000 </r>
       <r>   -7.2921    1.0000 </r>
       <r>   -7.0681    1.0000 </r>
       <r>    1.4440    0.0000 </r>
       <r>    2.1027    0.0000 </r>
       <r>    2.2534    0.0000 </r>
       <r>    2.6535    0.0000 </r>
      </set>
      <set comment="kpoint 23">
       <r>  -21.3398    1.0000 </r>
       <r>  -19.8846    1.0000 </r>
       <r>  -11.7402    1.0000 </r>
       <r>   -9.3063    1.0000 </r>
       <r>   -8.5480    1.0000 </r>
       <r>   -8.5219    1.0000 </r>
       <r>   -7.6339    1.0000 </r>
       <r>   -7.2979    1.0000 </r>
       <r>    1.6812    0.0000 </r>
       <r>    2.4924    0.0000 </r>
       <r>    2.6674    0.0000 </r>
       <r>    2.8967    0.0000 </r>
      </set>
      <set comment="kpoint 24">
       <r>  -21.1461    1.0000 </r>
       <r>  -20.1752    1.0000 </r>
       <r>  -11.1917    1.0000 </r>
       <r>   -9.0794    1.0000 </r>
       <r>   -9.0322    1.0000 </r>
       <r>   -8.3683    1.0000 </r>
       <r>   -7.9606    1.0000 </r>
       <r>   -7.5268    1.0000 </r>
       <r>    1.9460    0.0000 </r>
       <r>    2.7589    0.0000 </r>
       <r>    3.1684    0.0000 </r>
       <r>    3.2255    0.0000 </r>
      </set>
      <set comment="kpoint 25">
       <r>  -20.9326    1.0000 </r>
       <r>  -20.4469    1.0000 </r>
       <r>  -10.6430    1.0000 </r>
       <r>   -9.5591    1.0000 </r>
       <r>   -8.8305    1.0000 </r>
       <r>   -8.2700    1.0000 </r>
       <r>   -8.1744    1.0000 </r>
       <r>   -7.7512    1.0000 </r>
       <r>    2.2385    0.0000 </r>
       <r>    2.9055    0.0000 </r>
       <r>    3.0517    0.0000 </r>
       <r>    3.4688    0.0000 </r>
      </set>
      <set comment="kpoint 26">
       <r>  -20.6994    1.0000 </r>
       <r>  -20.6994    1.0000 </r>
       <r>  -10.0975    1.0000 </r>
       <r>  -10.0975    1.0000 </r>
       <r>   -8.5604    1.0000 </r>
       <r>   -8.5604    1.0000 </r>
       <r>   -7.9680    1.0000 </r>
       <r>   -7.9680    1.0000 </r>
       <r>    2.5584    0.0000 </r>
       <r>    2.5584    0.0000 </r>
       <r>    3.3666    0.0000 </r>
       <r>    3.3666    0.0000 </r>
      </set>
      <set comment="kpoint 27">
       <r>  -22.1302    1.0000 </r>
       <r>  -16.8451    1.0000 </r>
       <r>  -15.8836    1.0000 </r>
       <r>  -10.2412    1.0000 </r>
       <r>   -9.5296    1.0000 </r>
       <r>   -6.0933    1.0000 </r>
       <r>   -5.8868    1.0000 </r>
       <r>   -4.9610    1.0000 </r>
       <r>   -1.1198    0.0000 </r>
       <r>    0.6048    0.0000 </r>
       <r>    1.4057    0.0000 </r>
       <r>    1.7937    0.0000 </r>
      </set>
      <set comment="kpoint 28">
       <r>  -22.1199    1.0000 </r>
       <r>  -17.0213    1.0000 </r>
       <r>  -15.6925    1.0000 </r>
       <r>  -10.2289    1.0000 </r>
       <r>   -9.5192    1.0000 </r>
       <r>   -6.1286    1.0000 </r>
       <r>   -5.9135    1.0000 </r>
       <r>   -5.0296    1.0000 </r>
       <r>   -1.0362    0.0000 </r>
       <r>    0.6188    0.0000 </r>
       <r>    1.4198    0.0000 </r>
       <r>    1.8080    0.0000 </r>
      </set>
      <set comment="kpoint 29">
       <r>  -22.0890    1.0000 </r>
       <r>  -17.3695    1.0000 </r>
       <r>  -15.2996    1.0000 </r>
       <r>  -10.1922    1.0000 </r>
[...]
       <r>   -9.1245    1.0000 </r>
       <r>   -5.6241    1.0000 </r>
       <r>   -5.6241    1.0000 </r>
       <r>   -0.4845    0.0000 </r>
       <r>   -0.4845    0.0000 </r>
       <r>    4.8293    0.0000 </r>
       <r>    4.8293    0.0000 </r>
      </set>
      <set comment="kpoint 209">
       <r>  -18.8403    1.0000 </r>
       <r>  -17.0922    1.0000 </r>
       <r>  -13.9725    1.0000 </r>
       <r>  -12.3765    1.0000 </r>
       <r>  -12.3746    1.0000 </r>
       <r>  -10.8720    1.0000 </r>
       <r>   -6.4529    1.0000 </r>
       <r>   -4.5993    1.0000 </r>
       <r>   -0.9897    0.0000 </r>
       <r>    1.1314    0.0000 </r>
       <r>    5.1594    0.0000 </r>
       <r>    5.9482    0.0000 </r>
      </set>
      <set comment="kpoint 210">
       <r>  -18.8306    1.0000 </r>
       <r>  -17.0845    1.0000 </r>
       <r>  -14.0614    1.0000 </r>
       <r>  -12.4573    1.0000 </r>
       <r>  -12.2795    1.0000 </r>
       <r>  -10.7913    1.0000 </r>
       <r>   -6.4441    1.0000 </r>
       <r>   -4.6018    1.0000 </r>
       <r>   -1.0000    0.0000 </r>
       <r>    1.1056    0.0000 </r>
       <r>    5.1730    0.0000 </r>
       <r>    5.9644    0.0000 </r>
      </set>
      <set comment="kpoint 211">
       <r>  -18.8014    1.0000 </r>
       <r>  -17.0620    1.0000 </r>
       <r>  -14.2806    1.0000 </r>
       <r>  -12.6651    1.0000 </r>
       <r>  -12.0362    1.0000 </r>
       <r>  -10.5901    1.0000 </r>
       <r>   -6.4177    1.0000 </r>
       <r>   -4.6100    1.0000 </r>
       <r>   -1.0290    0.0000 </r>
       <r>    1.0303    0.0000 </r>
       <r>    5.2139    0.0000 </r>
       <r>    6.0123    0.0000 </r>
      </set>
      <set comment="kpoint 212">
       <r>  -18.7529    1.0000 </r>
       <r>  -17.0257    1.0000 </r>
       <r>  -14.5586    1.0000 </r>
       <r>  -12.9359    1.0000 </r>
       <r>  -11.7182    1.0000 </r>
       <r>  -10.3326    1.0000 </r>
       <r>   -6.3741    1.0000 </r>
       <r>   -4.6253    1.0000 </r>
       <r>   -1.0716    0.0000 </r>
       <r>    0.9107    0.0000 </r>
       <r>    5.2817    0.0000 </r>
       <r>    6.0911    0.0000 </r>
      </set>
      <set comment="kpoint 213">
       <r>  -18.6851    1.0000 </r>
       <r>  -16.9785    1.0000 </r>
       <r>  -14.8530    1.0000 </r>
       <r>  -13.2329    1.0000 </r>
       <r>  -11.3676    1.0000 </r>
       <r>  -10.0590    1.0000 </r>
       <r>   -6.3137    1.0000 </r>
       <r>   -4.6501    1.0000 </r>
       <r>   -1.1199    0.0000 </r>
       <r>    0.7547    0.0000 </r>
       <r>    5.3755    0.0000 </r>
       <r>    6.1994    0.0000 </r>
      </set>
      <set comment="kpoint 214">
       <r>  -18.5984    1.0000 </r>
       <r>  -16.9254    1.0000 </r>
       <r>  -15.1401    1.0000 </r>
       <r>  -13.5377    1.0000 </r>
       <r>  -11.0062    1.0000 </r>
       <r>   -9.7923    1.0000 </r>
       <r>   -6.2374    1.0000 </r>
       <r>   -4.6871    1.0000 </r>
       <r>   -1.1647    0.0000 </r>
       <r>    0.5711    0.0000 </r>
       <r>    5.4910    0.0000 </r>
       <r>    6.1786    0.0000 </r>
      </set>
      <set comment="kpoint 215">
       <r>  -18.4930    1.0000 </r>
       <r>  -16.8765    1.0000 </r>
       <r>  -15.4006    1.0000 </r>
       <r>  -13.8409    1.0000 </r>
       <r>  -10.6478    1.0000 </r>
       <r>   -9.5477    1.0000 </r>
       <r>   -6.1460    1.0000 </r>
       <r>   -4.7392    1.0000 </r>
       <r>   -1.1967    0.0000 </r>
       <r>    0.3690    0.0000 </r>
       <r>    5.5722    0.0000 </r>
       <r>    5.8032    0.0000 </r>
      </set>
      <set comment="kpoint 216">
       <r>  -18.3694    1.0000 </r>
       <r>  -16.8505    1.0000 </r>
       <r>  -15.6108    1.0000 </r>
       <r>  -14.1366    1.0000 </r>
       <r>  -10.3027    1.0000 </r>
       <r>   -9.3374    1.0000 </r>
       <r>   -6.0411    1.0000 </r>
       <r>   -4.8082    1.0000 </r>
       <r>   -1.2076    0.0000 </r>
       <r>    0.1567    0.0000 </r>
       <r>    5.3082    0.0000 </r>
       <r>    5.8651    0.0000 </r>
      </set>
      <set comment="kpoint 217">
       <r>  -18.2283    1.0000 </r>
       <r>  -16.8761    1.0000 </r>
       <r>  -15.7392    1.0000 </r>
       <r>  -14.4211    1.0000 </r>
       <r>   -9.9804    1.0000 </r>
       <r>   -9.1719    1.0000 </r>
       <r>   -5.9241    1.0000 </r>
       <r>   -4.8952    1.0000 </r>
       <r>   -1.1914    0.0000 </r>
       <r>   -0.0581    0.0000 </r>
       <r>    5.0138    0.0000 </r>
       <r>    5.8388    0.0000 </r>
      </set>
      <set comment="kpoint 218">
       <r>  -18.0707    1.0000 </r>
       <r>  -16.9735    1.0000 </r>
       <r>  -15.7638    1.0000 </r>
       <r>  -14.6913    1.0000 </r>
       <r>   -9.6903    1.0000 </r>
       <r>   -9.0601    1.0000 </r>
       <r>   -5.7971    1.0000 </r>
       <r>   -4.9990    1.0000 </r>
       <r>   -1.1443    0.0000 </r>
       <r>   -0.2685    0.0000 </r>
       <r>    4.7968    0.0000 </r>
       <r>    5.4403    0.0000 </r>
      </set>
      <set comment="kpoint 219">
       <r>  -17.8978    1.0000 </r>
       <r>  -17.1307    1.0000 </r>
       <r>  -15.6955    1.0000 </r>
       <r>  -14.9444    1.0000 </r>
       <r>   -9.4414    1.0000 </r>
       <r>   -9.0089    1.0000 </r>
       <r>   -5.6627    1.0000 </r>
       <r>   -5.1176    1.0000 </r>
       <r>   -1.0652    0.0000 </r>
       <r>   -0.4686    0.0000 </r>
       <r>    4.6700    0.0000 </r>
       <r>    5.1121    0.0000 </r>
      </set>
      <set comment="kpoint 220">
       <r>  -17.7120    1.0000 </r>
       <r>  -17.3191    1.0000 </r>
       <r>  -15.5623    1.0000 </r>
       <r>  -15.1772    1.0000 </r>
       <r>   -9.2425    1.0000 </r>
       <r>   -9.0222    1.0000 </r>
       <r>   -5.5239    1.0000 </r>
       <r>   -5.2473    1.0000 </r>
       <r>   -0.9551    0.0000 </r>
       <r>   -0.6528    0.0000 </r>
       <r>    4.6388    0.0000 </r>
       <r>    4.8641    0.0000 </r>
      </set>
      <set comment="kpoint 221">
       <r>  -17.5169    1.0000 </r>
       <r>  -17.5169    1.0000 </r>
       <r>  -15.3854    1.0000 </r>
       <r>  -15.3854    1.0000 </r>
       <r>   -9.1009    1.0000 </r>
       <r>   -9.1009    1.0000 </r>
       <r>   -5.3841    1.0000 </r>
       <r>   -5.3841    1.0000 </r>
       <r>   -0.8164    0.0000 </r>
       <r>   -0.8164    0.0000 </r>
       <r>    4.7044    0.0000 </r>
       <r>    4.7044    0.0000 </r>
      </set>
      <set comment="kpoint 222">
       <r>  -18.4271    1.0000 </r>
       <r>  -17.5493    1.0000 </r>
       <r>  -13.6026    1.0000 </r>
       <r>  -12.8028    1.0000 </r>
       <r>  -12.0339    1.0000 </r>
       <r>  -11.2770    1.0000 </r>
       <r>   -6.0022    1.0000 </r>
       <r>   -5.0703    1.0000 </r>
       <r>   -0.4921    0.0000 </r>
       <r>    0.5704    0.0000 </r>
       <r>    5.7466    0.0000 </r>
       <r>    6.5009    0.0000 </r>
      </set>
      <set comment="kpoint 223">
       <r>  -18.4176    1.0000 </r>
       <r>  -17.5406    1.0000 </r>
       <r>  -13.6917    1.0000 </r>
       <r>  -12.8883    1.0000 </r>
       <r>  -11.9395    1.0000 </r>
       <r>  -11.1910    1.0000 </r>
       <r>   -5.9947    1.0000 </r>
       <r>   -5.0677    1.0000 </r>
       <r>   -0.5088    0.0000 </r>
       <r>    0.5467    0.0000 </r>
       <r>    5.7602    0.0000 </r>
       <r>    6.5179    0.0000 </r>
      </set>
      <set comment="kpoint 224">
       <r>  -18.3889    1.0000 </r>
       <r>  -17.5145    1.0000 </r>
       <r>  -13.9122    1.0000 </r>
       <r>  -13.1018    1.0000 </r>
       <r>  -11.7033    1.0000 </r>
       <r>  -10.9764    1.0000 </r>
       <r>   -5.9722    1.0000 </r>
       <r>   -5.0605    1.0000 </r>
       <r>   -0.5571    0.0000 </r>
       <r>    0.4774    0.0000 </r>
       <r>    5.8009    0.0000 </r>
       <r>    6.5683    0.0000 </r>
      </set>
      <set comment="kpoint 225">
       <r>  -18.3414    1.0000 </r>
       <r>  -17.4717    1.0000 </r>
       <r>  -14.1941    1.0000 </r>
       <r>  -13.3782    1.0000 </r>
       <r>  -11.3965    1.0000 </r>
       <r>  -10.7002    1.0000 </r>
       <r>   -5.9354    1.0000 </r>
       <r>   -5.0498    1.0000 </r>
       <r>   -0.6317    0.0000 </r>
       <r>    0.3679    0.0000 </r>
       <r>    5.8682    0.0000 </r>
       <r>    6.6507    0.0000 </r>
      </set>
      <set comment="kpoint 226">
       <r>  -18.2751    1.0000 </r>
       <r>  -17.4130    1.0000 </r>
       <r>  -14.4972    1.0000 </r>
       <r>  -13.6795    1.0000 </r>
       <r>  -11.0608    1.0000 </r>
       <r>  -10.4033    1.0000 </r>
       <r>   -5.8849    1.0000 </r>
       <r>   -5.0373    1.0000 </r>
       <r>   -0.7247    0.0000 </r>
       <r>    0.2258    0.0000 </r>
       <r>    5.9603    0.0000 </r>
       <r>    6.7634    0.0000 </r>
      </set>
      <set comment="kpoint 227">
       <r>  -18.1905    1.0000 </r>
       <r>  -17.3401    1.0000 </r>
       <r>  -14.8014    1.0000 </r>
       <r>  -13.9872    1.0000 </r>
       <r>  -10.7186    1.0000 </r>
       <r>  -10.1084    1.0000 </r>
       <r>   -5.8219    1.0000 </r>
       <r>   -5.0257    1.0000 </r>
       <r>   -0.8265    0.0000 </r>
       <r>    0.0602    0.0000 </r>
       <r>    6.0634    0.0000 </r>
       <r>    6.4530    0.0000 </r>
      </set>
      <set comment="kpoint 228">
       <r>  -18.0881    1.0000 </r>
       <r>  -17.2561    1.0000 </r>
       <r>  -15.0946    1.0000 </r>
       <r>  -14.2916    1.0000 </r>
       <r>  -10.3836    1.0000 </r>
       <r>   -9.8304    1.0000 </r>
       <r>   -5.7479    1.0000 </r>
       <r>   -5.0181    1.0000 </r>
       <r>   -0.9269    0.0000 </r>
       <r>   -0.1197    0.0000 </r>
       <r>    5.9055    0.0000 </r>
       <r>    6.2829    0.0000 </r>
      </set>
      <set comment="kpoint 229">
       <r>  -17.9688    1.0000 </r>
       <r>  -17.1665    1.0000 </r>
       <r>  -15.3662    1.0000 </r>
       <r>  -14.5868    1.0000 </r>
       <r>  -10.0669    1.0000 </r>
       <r>   -9.5812    1.0000 </r>
       <r>   -5.6649    1.0000 </r>
       <r>   -5.0179    1.0000 </r>
       <r>   -1.0159    0.0000 </r>
       <r>   -0.3048    0.0000 </r>
       <r>    5.5062    0.0000 </r>
       <r>    6.0004    0.0000 </r>
      </set>
      <set comment="kpoint 230">
       <r>  -17.8339    1.0000 </r>
       <r>  -17.0820    1.0000 </r>
       <r>  -15.6026    1.0000 </r>
       <r>  -14.8682    1.0000 </r>
       <r>   -9.7783    1.0000 </r>
       <r>   -9.3712    1.0000 </r>
       <r>   -5.5755    1.0000 </r>
       <r>   -5.0287    1.0000 </r>
       <r>   -1.0844    0.0000 </r>
       <r>   -0.4867    0.0000 </r>
       <r>    5.1599    0.0000 </r>
       <r>    5.5741    0.0000 </r>
      </set>
      <set comment="kpoint 231">
       <r>  -17.6854    1.0000 </r>
       <r>  -17.0223    1.0000 </r>
       <r>  -15.7824    1.0000 </r>
       <r>  -15.1320    1.0000 </r>
       <r>   -9.5274    1.0000 </r>
       <r>   -9.2099    1.0000 </r>
       <r>   -5.4825    1.0000 </r>
       <r>   -5.0533    1.0000 </r>
       <r>   -1.1247    0.0000 </r>
       <r>   -0.6576    0.0000 </r>
       <r>    4.8906    0.0000 </r>
       <r>    5.2141    0.0000 </r>
      </set>
      <set comment="kpoint 232">
       <r>  -17.5267    1.0000 </r>
       <r>  -17.0167    1.0000 </r>
       <r>  -15.8750    1.0000 </r>
       <r>  -15.3732    1.0000 </r>
       <r>   -9.3234    1.0000 </r>
       <r>   -9.1053    1.0000 </r>
       <r>   -5.3896    1.0000 </r>
       <r>   -5.0933    1.0000 </r>
       <r>   -1.1318    0.0000 </r>
       <r>   -0.8104    0.0000 </r>
       <r>    4.7084    0.0000 </r>
       <r>    4.9309    0.0000 </r>
      </set>
      <set comment="kpoint 233">
       <r>  -17.3642    1.0000 </r>
       <r>  -17.0839    1.0000 </r>
       <r>  -15.8610    1.0000 </r>
       <r>  -15.5848    1.0000 </r>
       <r>   -9.1742    1.0000 </r>
       <r>   -9.0631    1.0000 </r>
       <r>   -5.3004    1.0000 </r>
       <r>   -5.1491    1.0000 </r>
       <r>   -1.1028    0.0000 </r>
       <r>   -0.9390    0.0000 </r>
       <r>    4.6199    0.0000 </r>
       <r>    4.7334    0.0000 </r>
      </set>
      <set comment="kpoint 234">
       <r>  -17.2095    1.0000 </r>
       <r>  -17.2095    1.0000 </r>
       <r>  -15.7546    1.0000 </r>
       <r>  -15.7546    1.0000 </r>
       <r>   -9.0862    1.0000 </r>
       <r>   -9.0862    1.0000 </r>
       <r>   -5.2190    1.0000 </r>
       <r>   -5.2190    1.0000 </r>
       <r>   -1.0378    0.0000 </r>
       <r>   -1.0378    0.0000 </r>
       <r>    4.6284    0.0000 </r>
       <r>    4.6284    0.0000 </r>
      </set>
      <set comment="kpoint 235">
       <r>  -17.9958    1.0000 </r>
       <r>  -17.9958    1.0000 </r>
       <r>  -13.2124    1.0000 </r>
       <r>  -13.2124    1.0000 </r>
       <r>  -11.6657    1.0000 </r>
       <r>  -11.6657    1.0000 </r>
       <r>   -5.5397    1.0000 </r>
       <r>   -5.5397    1.0000 </r>
       <r>    0.0285    0.0000 </r>
       <r>    0.0285    0.0000 </r>
       <r>    6.3643    0.0000 </r>
       <r>    6.3643    0.0000 </r>
      </set>
      <set comment="kpoint 236">
       <r>  -17.9865    1.0000 </r>
       <r>  -17.9865    1.0000 </r>
       <r>  -13.3002    1.0000 </r>
       <r>  -13.3002    1.0000 </r>
       <r>  -11.5750    1.0000 </r>
       <r>  -11.5750    1.0000 </r>
       <r>   -5.5342    1.0000 </r>
       <r>   -5.5342    1.0000 </r>
       <r>    0.0077    0.0000 </r>
       <r>    0.0077    0.0000 </r>
       <r>    6.3779    0.0000 </r>
       <r>    6.3779    0.0000 </r>
      </set>
      <set comment="kpoint 237">
       <r>  -17.9588    1.0000 </r>
       <r>  -17.9588    1.0000 </r>
       <r>  -13.5182    1.0000 </r>
       <r>  -13.5182    1.0000 </r>
       <r>  -11.3486    1.0000 </r>
       <r>  -11.3486    1.0000 </r>
       <r>   -5.5177    1.0000 </r>
       <r>   -5.5177    1.0000 </r>
       <r>   -0.0531    0.0000 </r>
       <r>   -0.0531    0.0000 </r>
       <r>    6.4183    0.0000 </r>
       <r>    6.4183    0.0000 </r>
      </set>
      <set comment="kpoint 238">
       <r>  -17.9129    1.0000 </r>
       <r>  -17.9129    1.0000 </r>
       <r>  -13.7987    1.0000 </r>
       <r>  -13.7987    1.0000 </r>
       <r>  -11.0559    1.0000 </r>
       <r>  -11.0559    1.0000 </r>
       <r>   -5.4910    1.0000 </r>
       <r>   -5.4910    1.0000 </r>
       <r>   -0.1485    0.0000 </r>
       <r>   -0.1485    0.0000 </r>
       <r>    6.4847    0.0000 </r>
       <r>    6.4847    0.0000 </r>
      </set>
      <set comment="kpoint 239">
       <r>  -17.8492    1.0000 </r>
       <r>  -17.8492    1.0000 </r>
       <r>  -14.1026    1.0000 </r>
       <r>  -14.1026    1.0000 </r>
       <r>  -10.7383    1.0000 </r>
       <r>  -10.7383    1.0000 </r>
       <r>   -5.4554    1.0000 </r>
       <r>   -5.4554    1.0000 </r>
       <r>   -0.2707    0.0000 </r>
       <r>   -0.2707    0.0000 </r>
       <r>    6.5733    0.0000 </r>
       <r>    6.5733    0.0000 </r>
      </set>
      <set comment="kpoint 240">
       <r>  -17.7684    1.0000 </r>
       <r>  -17.7684    1.0000 </r>
       <r>  -14.4110    1.0000 </r>
       <r>  -14.4110    1.0000 </r>
       <r>  -10.4182    1.0000 </r>
       <r>  -10.4182    1.0000 </r>
       <r>   -5.4125    1.0000 </r>
       <r>   -5.4125    1.0000 </r>
       <r>   -0.4106    0.0000 </r>
       <r>   -0.4106    0.0000 </r>
       <r>    6.6048    0.0000 </r>
       <r>    6.6048    0.0000 </r>
      </set>
      <set comment="kpoint 241">
       <r>  -17.6717    1.0000 </r>
       <r>  -17.6717    1.0000 </r>
       <r>  -14.7135    1.0000 </r>
       <r>  -14.7135    1.0000 </r>
       <r>  -10.1101    1.0000 </r>
       <r>  -10.1101    1.0000 </r>
       <r>   -5.3648    1.0000 </r>
       <r>   -5.3648    1.0000 </r>
       <r>   -0.5583    0.0000 </r>
       <r>   -0.5583    0.0000 </r>
       <r>    6.1837    0.0000 </r>
       <r>    6.1837    0.0000 </r>
      </set>
      <set comment="kpoint 242">
       <r>  -17.5610    1.0000 </r>
       <r>  -17.5610    1.0000 </r>
       <r>  -15.0034    1.0000 </r>
       <r>  -15.0034    1.0000 </r>
       <r>   -9.8253    1.0000 </r>
       <r>   -9.8253    1.0000 </r>
       <r>   -5.3151    1.0000 </r>
       <r>   -5.3151    1.0000 </r>
       <r>   -0.7041    0.0000 </r>
       <r>   -0.7041    0.0000 </r>
       <r>    5.7363    0.0000 </r>
       <r>    5.7363    0.0000 </r>
      </set>
      <set comment="kpoint 243">
       <r>  -17.4395    1.0000 </r>
       <r>  -17.4395    1.0000 </r>
       <r>  -15.2743    1.0000 </r>
       <r>  -15.2743    1.0000 </r>
       <r>   -9.5742    1.0000 </r>
       <r>   -9.5742    1.0000 </r>
       <r>   -5.2667    1.0000 </r>
       <r>   -5.2667    1.0000 </r>
       <r>   -0.8388    0.0000 </r>
       <r>   -0.8388    0.0000 </r>
       <r>    5.3471    0.0000 </r>
       <r>    5.3471    0.0000 </r>
      </set>
      <set comment="kpoint 244">
       <r>  -17.3132    1.0000 </r>
       <r>  -17.3132    1.0000 </r>
       <r>  -15.5183    1.0000 </r>
       <r>  -15.5183    1.0000 </r>
       <r>   -9.3664    1.0000 </r>
       <r>   -9.3664    1.0000 </r>
       <r>   -5.2236    1.0000 </r>
       <r>   -5.2236    1.0000 </r>
       <r>   -0.9539    0.0000 </r>
       <r>   -0.9539    0.0000 </r>
       <r>    5.0302    0.0000 </r>
       <r>    5.0302    0.0000 </r>
      </set>
      <set comment="kpoint 245">
       <r>  -17.1932    1.0000 </r>
       <r>  -17.1932    1.0000 </r>
       <r>  -15.7232    1.0000 </r>
       <r>  -15.7232    1.0000 </r>
       <r>   -9.2106    1.0000 </r>
       <r>   -9.2106    1.0000 </r>
       <r>   -5.1893    1.0000 </r>
       <r>   -5.1893    1.0000 </r>
       <r>   -1.0420    0.0000 </r>
       <r>   -1.0420    0.0000 </r>
       <r>    4.7957    0.0000 </r>
       <r>    4.7957    0.0000 </r>
      </set>
      <set comment="kpoint 246">
       <r>  -17.1002    1.0000 </r>
       <r>  -17.1002    1.0000 </r>
       <r>  -15.8674    1.0000 </r>
       <r>  -15.8674    1.0000 </r>
       <r>   -9.1140    1.0000 </r>
       <r>   -9.1140    1.0000 </r>
       <r>   -5.1672    1.0000 </r>
       <r>   -5.1672    1.0000 </r>
       <r>   -1.0974    0.0000 </r>
       <r>   -1.0974    0.0000 </r>
       <r>    4.6516    0.0000 </r>
       <r>    4.6516    0.0000 </r>
      </set>
      <set comment="kpoint 247">
       <r>  -17.0636    1.0000 </r>
       <r>  -17.0636    1.0000 </r>
       <r>  -15.9211    1.0000 </r>
       <r>  -15.9211    1.0000 </r>
       <r>   -9.0812    1.0000 </r>
       <r>   -9.0812    1.0000 </r>
       <r>   -5.1595    1.0000 </r>
       <r>   -5.1595    1.0000 </r>
       <r>   -1.1163    0.0000 </r>
       <r>   -1.1163    0.0000 </r>
       <r>    4.6030    0.0000 </r>
       <r>    4.6030    0.0000 </r>
      </set>
     </set>
    </set>
   </array>
  </eigenvalues>
  <separator name="orbital magnetization" >
   <v name="MAGDIPOLOUT">      0.00000000      0.00000000      0.00000000</v>
  </separator>
 </calculation>
 <structure name="finalpos" >
  <crystal>
   <varray name="basis" >
    <v>       4.26555261       0.00000000       0.00000000 </v>
    <v>       0.00000000       2.49222023       0.00000000 </v>
    <v>       0.00000000       0.00000000      19.83293391 </v>
   </varray>
   <i name="volume">    210.83790140 </i>
   <varray name="rec_basis" >
    <v>       0.23443621       0.00000000       0.00000000 </v>
    <v>       0.00000000       0.40124865       0.00000000 </v>
    <v>       0.00000000       0.00000000       0.05042118 </v>
   </varray>
  </crystal>
  <varray name="positions" >
   <v>       0.00026433       0.00000000      -0.00000000 </v>
   <v>       0.16640233       0.50000000       0.00000000 </v>
   <v>       0.50026433       0.50000000      -0.00000000 </v>
   <v>       0.66640233       0.00000000       0.00000000 </v>
  </varray>
 </structure>
</modeling>
