gr                                      
           1
     4.265553    0.000000    0.000000
     0.000000    2.492220    0.000000
     0.000000    0.000000   19.832934
   C 
   4
Direct configuration=     1
   0.00026297  0.00000000  0.00000000
   0.16640370  0.50000000  0.00000000
   0.50026297  0.50000000  0.00000000
   0.66640370  0.00000000  0.00000000
Direct configuration=     2
   0.00026990  0.00000000  0.00000000
   0.16639676  0.50000000  0.00000000
   0.50026990  0.50000000  0.00000000
   0.66639676 -0.00000000  0.00000000
Direct configuration=     3
   0.00026433  0.00000000  0.00000000
   0.16640233  0.50000000 -0.00000000
   0.50026433  0.50000000  0.00000000
   0.66640233 -0.00000000 -0.00000000
Direct configuration=     4
   0.00026433  0.00000000 -0.00000000
   0.16640234  0.50000000  0.00000000
   0.50026433  0.50000000 -0.00000000
   0.66640234  0.00000000  0.00000000
Direct configuration=     5
   0.00026433  0.00000000 -0.00000000
   0.16640233  0.50000000  0.00000000
   0.50026433  0.50000000 -0.00000000
   0.66640233  0.00000000  0.00000000
