    4    4  400    1
  0.5270948E+02  0.4381379E-09  0.2457054E-09  0.1958498E-08  0.5000000E-15
  1.000000000000000E-004
  CAR 
 gr                                      
     16    247     12
 
  0.0000000E+00  0.0000000E+00  0.0000000E+00  0.1157407E-02
    1      -22.078578
    2      -17.260307
    3      -15.830728
    4      -10.223774
    5       -8.800517
    6       -6.009024
    7       -5.726486
    8       -5.338070
    9       -1.187161
   10        0.545052
   11        1.343099
   12        1.736656
 
  0.4166667E-01  0.0000000E+00  0.0000000E+00  0.2314815E-02
    1      -22.068826
    2      -17.378030
    3      -15.698029
    4      -10.212203
    5       -8.791081
    6       -6.053331
    7       -5.746523
    8       -5.396691
    9       -1.112827
   10        0.558242
   11        1.356481
   12        1.750207
 
  0.8333333E-01  0.0000000E+00  0.0000000E+00  0.2314815E-02
    1      -22.039576
    2      -17.650752
    3      -15.380454
    4      -10.177511
    5       -8.762823
    6       -6.184137
    7       -5.805594
    8       -5.560742
    9       -0.901793
   10        0.597818
   11        1.396623
   12        1.790861
 
  0.1250000E+00  0.0000000E+00  0.0000000E+00  0.2314815E-02
    1      -21.990846
    2      -17.980546
    3      -14.976158
    4      -10.119755
    5       -8.715894
    6       -6.395500
    7       -5.900739
    8       -5.803058
    9       -0.581696
   10        0.663802
   11        1.463511
   12        1.858623
 
  0.1666667E+00  0.0000000E+00  0.0000000E+00  0.2314815E-02
    1      -21.922673
    2      -18.324946
    3      -14.527995
    4      -10.039032
    5       -8.650556
    6       -6.678743
    7       -6.095283
    8       -6.027508
    9       -0.181695
   10        0.756217
   11        1.557117
   12        1.953497
 
  0.2083333E+00  0.0000000E+00  0.0000000E+00  0.2314815E-02
    1      -21.835108
    2      -18.667531
    3      -14.052948
    4       -9.935486
    5       -8.567182
    6       -7.023743
    7       -6.415167
    8       -6.180533
    9        0.274801
   10        0.875081
   11        1.677398
   12        2.075486
 
  0.2500000E+00  0.0000000E+00  0.0000000E+00  0.2314815E-02
    1      -21.728215
    2      -19.001119
    3      -13.558944
    4       -9.809308
    5       -8.466272
    6       -7.420095
    7       -6.747228
    8       -6.354074
    9        0.770745
   10        1.020395
   11        1.824286
   12        2.224591
 
  0.2916667E+00  0.0000000E+00  0.0000000E+00  0.2314815E-02
    1      -21.602080
    2      -19.322100
    3      -13.050543
    4       -9.660746
    5       -8.348470
    6       -7.857915
    7       -7.081089
    8       -6.542463
    9        1.192144
   10        1.293699
   11        1.997675
   12        2.400812
 
  0.3333333E+00  0.0000000E+00  0.0000000E+00  0.2314815E-02
    1      -21.456805
    2      -19.628434
    3      -12.530978
    4       -9.490117
    5       -8.328287
    6       -8.214577
    7       -7.409792
    8       -6.740410
    9        1.390297
   10        1.833892
   11        2.197382
   12        2.604145
 
  0.3750000E+00  0.0000000E+00  0.0000000E+00  0.2314815E-02
    1      -21.292516
    2      -19.918854
    3      -12.002977
    4       -9.297815
    5       -8.823423
    6       -8.065585
    7       -7.728583
    8       -6.943155
    9        1.614807
   10        2.382162
   11        2.423060
   12        2.834580
 
  0.4166667E+00  0.0000000E+00  0.0000000E+00  0.2314815E-02
    1      -21.109363
    2      -20.192507
    3      -11.469176
    4       -9.336645
    5       -9.084341
    6       -8.034130
    7       -7.902704
    8       -7.146536
    9        1.865609
   10        2.673938
   11        2.924397
   12        3.092107
 
  0.4583333E+00  0.0000000E+00  0.0000000E+00  0.2314815E-02
    1      -20.907531
    2      -20.448788
    3      -10.932342
    4       -9.862285
    5       -8.850319
    6       -8.324040
    7       -7.727402
    8       -7.346978
    9        2.142617
   10        2.774742
   11        2.947747
   12        3.366938
 
  0.5000000E+00  0.0000000E+00  0.0000000E+00  0.1157407E-02
    1      -20.687246
    2      -20.687246
    3      -10.395544
    4      -10.395544
    5       -8.596545
    6       -8.596545
    7       -7.541449
    8       -7.541449
    9        2.445715
   10        2.445715
   11        3.233406
   12        3.233406
 
  0.0000000E+00  0.2777778E-01  0.0000000E+00  0.2314815E-02
    1      -22.064747
    2      -17.248299
    3      -15.818934
    4      -10.207360
    5       -8.863858
    6       -6.035069
    7       -5.785571
    8       -5.321382
    9       -1.189583
   10        0.563790
   11        1.362025
   12        1.755821
 
  0.4166667E-01  0.2777778E-01  0.0000000E+00  0.4629630E-02
    1      -22.054996
    2      -17.365904
    3      -15.686398
    4      -10.195793
    5       -8.854410
    6       -6.080076
    7       -5.804304
    8       -5.380117
    9       -1.115237
   10        0.576979
   11        1.375407
   12        1.769372
 
  0.8333333E-01  0.2777778E-01  0.0000000E+00  0.4629630E-02
    1      -22.025750
    2      -17.638406
    3      -15.369177
    4      -10.161113
    5       -8.826117
    6       -6.211699
    7       -5.860854
    8       -5.544435
    9       -0.904240
   10        0.616555
   11        1.415547
   12        1.810027
 
  0.1250000E+00  0.2777778E-01  0.0000000E+00  0.4629630E-02
    1      -21.977028
    2      -17.967987
    3      -14.965321
    4      -10.103375
    5       -8.779128
    6       -6.422419
    7       -5.954124
    8       -5.787040
    9       -0.584365
   10        0.682540
   11        1.482431
   12        1.877789
 
  0.1666667E+00  0.2777778E-01  0.0000000E+00  0.4629630E-02
    1      -21.908866
    2      -18.312202
    3      -14.517673
    4      -10.022680
    5       -8.713698
    6       -6.703378
    7       -6.080199
    8       -6.079490
    9       -0.184856
   10        0.774957
   11        1.576033
   12        1.972663
 
  0.2083333E+00  0.2777778E-01  0.0000000E+00  0.4629630E-02
    1      -21.821316
    2      -18.654627
    3      -14.043225
    4       -9.919168
    5       -8.630197
    6       -7.045002
    7       -6.399516
    8       -6.233485
    9        0.270859
   10        0.893825
   11        1.696309
   12        2.094653
 
  0.2500000E+00  0.2777778E-01  0.0000000E+00  0.4629630E-02
    1      -21.714442
    2      -18.988076
    3      -13.549921
    4       -9.793032
    5       -8.529117
    6       -7.437487
    7       -6.731642
    8       -6.407876
    9        0.765746
   10        1.039143
   11        1.843192
   12        2.243760
 
  0.2916667E+00  0.2777778E-01  0.0000000E+00  0.4629630E-02
    1      -21.588330
    2      -19.308938
    3      -13.042343
    4       -9.644520
    5       -8.411090
    6       -7.871392
    7       -7.065513
    8       -6.597407
    9        1.210898
   10        1.287403
   11        2.016577
   12        2.419984
 
  0.3333333E+00  0.2777778E-01  0.0000000E+00  0.4629630E-02
    1      -21.443082
    2      -19.615169
    3      -12.523745
    4       -9.473947
    5       -8.338065
    6       -8.276909
    7       -7.394186
    8       -6.796584
    9        1.409059
   10        1.826128
   11        2.216283
   12        2.623319
 
  0.3750000E+00  0.2777778E-01  0.0000000E+00  0.4629630E-02
    1      -21.278825
    2      -19.905499
    3      -11.996885
    4       -9.281709
    5       -8.829850
    6       -8.127551
    7       -7.712923
    8       -7.000526
    9        1.633577
   10        2.372932
   11        2.441968
   12        2.853759
 
  0.4166667E+00  0.2777778E-01  0.0000000E+00  0.4629630E-02
    1      -21.095710
    2      -20.179075
    3      -11.464430
    4       -9.340117
    5       -9.068304
    6       -8.018402
    7       -7.964212
    8       -7.205002
    9        1.884389
   10        2.692862
   11        2.914515
   12        3.111292
 
  0.4583333E+00  0.2777778E-01  0.0000000E+00  0.4629630E-02
    1      -20.893921
    2      -20.435287
    3      -10.929185
    4       -9.863196
    5       -8.834357
    6       -8.308235
    7       -7.788343
    8       -7.406408
    9        2.161409
   10        2.793579
   11        2.966681
   12        3.367978
 
  0.5000000E+00  0.2777778E-01  0.0000000E+00  0.2314815E-02
    1      -20.673687
    2      -20.673687
    3      -10.394259
    4      -10.394259
    5       -8.580661
    6       -8.580661
    7       -7.601703
    8       -7.601703
    9        2.464525
   10        2.464525
   11        3.251921
   12        3.251921
 
  0.0000000E+00  0.5555556E-01  0.0000000E+00  0.2314815E-02
    1      -22.023264
    2      -17.212280
    3      -15.783693
    4      -10.158153
    5       -9.048744
    6       -6.112817
    7       -5.957961
    8       -5.271340
    9       -1.197655
   10        0.620002
   11        1.418796
   12        1.813316
 
  0.4166667E-01  0.5555556E-01  0.0000000E+00  0.4629630E-02
    1      -22.013517
    2      -17.329536
    3      -15.651641
    4      -10.146598
    5       -9.039258
    6       -6.162652
    7       -5.970088
    8       -5.330424
    9       -1.123269
   10        0.633191
   11        1.432176
   12        1.826867
 
  0.8333333E-01  0.5555556E-01  0.0000000E+00  0.4629630E-02
    1      -21.984284
    2      -17.601382
    3      -15.335487
    4      -10.111953
    5       -9.010846
    6       -6.299531
    7       -6.016356
    8       -5.495567
    9       -0.912381
   10        0.672766
   11        1.472310
   12        1.867522
 
  0.1250000E+00  0.5555556E-01  0.0000000E+00  0.4629630E-02
    1      -21.935586
    2      -17.930328
    3      -14.932966
    4      -10.054274
    5       -8.963652
    6       -6.509027
    7       -6.103388
    8       -5.739057
    9       -0.593179
   10        0.738750
   11        1.539184
   12        1.935284
 
  0.1666667E+00  0.5555556E-01  0.0000000E+00  0.4629630E-02
    1      -21.867459
    2      -18.273987
    3      -14.486883
    4       -9.973660
    5       -8.897917
    6       -6.782874
    7       -6.227711
    8       -6.032196
    9       -0.195169
   10        0.831170
   11        1.632772
   12        2.030160
 
  0.2083333E+00  0.5555556E-01  0.0000000E+00  0.4629630E-02
    1      -21.779953
    2      -18.615932
    3      -14.014267
    4       -9.870254
    5       -8.813992
    6       -7.113753
    7       -6.382430
    8       -6.352649
    9        0.258155
   10        0.950043
   11        1.753032
   12        2.152152
 
  0.2500000E+00  0.5555556E-01  0.0000000E+00  0.4629630E-02
    1      -21.673134
    2      -18.948966
    3      -13.523112
    4       -9.744247
    5       -8.712343
    6       -7.493906
    7       -6.684973
    8       -6.560114
    9        0.749808
   10        1.095371
   11        1.899899
   12        2.301264
 
  0.2916667E+00  0.5555556E-01  0.0000000E+00  0.4629630E-02
    1      -21.547091
    2      -19.269469
    3      -13.018062
    4       -9.595886
    5       -8.593573
    6       -7.915325
    7       -7.018869
    8       -6.753794
    9        1.267140
   10        1.267492
   11        2.073272
   12        2.477493
 
  0.3333333E+00  0.5555556E-01  0.0000000E+00  0.4629630E-02
    1      -21.401925
    2      -19.575389
    3      -12.502448
    4       -9.425485
    5       -8.458436
    6       -8.370221
    7       -7.347451
    8       -6.957312
    9        1.465317
   10        1.801694
   11        2.272975
   12        2.680837
 
  0.3750000E+00  0.5555556E-01  0.0000000E+00  0.4629630E-02
    1      -21.237764
    2      -19.865449
    3      -11.979117
    4       -9.233441
    5       -8.851371
    6       -8.307865
    7       -7.666020
    8       -7.165394
    9        1.689855
   10        2.343895
   11        2.498678
   12        2.911287
 
  0.4166667E+00  0.5555556E-01  0.0000000E+00  0.4629630E-02
    1      -21.054762
    2      -20.138790
    3      -11.450841
    4       -9.352292
    5       -9.020248
    6       -8.143007
    7       -7.971287
    8       -7.373608
    9        1.940689
   10        2.749623
   11        2.882826
   12        3.168835
 
  0.4583333E+00  0.5555556E-01  0.0000000E+00  0.4629630E-02
    1      -20.853105
    2      -20.394800
    3      -10.920545
    4       -9.867300
    5       -8.786528
    6       -8.260885
    7       -7.965259
    8       -7.578267
    9        2.217735
   10        2.849995
   11        3.023478
   12        3.363113
 
  0.5000000E+00  0.5555556E-01  0.0000000E+00  0.2314815E-02
    1      -20.633023
    2      -20.633023
    3      -10.391469
    4      -10.391469
    5       -8.533071
    6       -8.533071
    7       -7.776322
    8       -7.776322
    9        2.520885
   10        2.520885
   11        3.307203
   12        3.307203
 
  0.0000000E+00  0.8333333E-01  0.0000000E+00  0.2314815E-02
    1      -21.954161
    2      -17.152261
    3      -15.725449
    4      -10.076260
    5       -9.341220
    6       -6.241100
    7       -6.230596
    8       -5.188008
    9       -1.213792
   10        0.713686
   11        1.513391
   12        1.909142
 
  0.4166667E-01  0.8333333E-01  0.0000000E+00  0.4629630E-02
    1      -21.944423
    2      -17.268953
    3      -15.594197
    4      -10.064725
    5       -9.331655
    6       -6.325358
    7       -6.205437
    8       -5.247710
    9       -1.139324
   10        0.726873
   11        1.526766
   12        1.922693
 
  0.8333333E-01  0.8333333E-01  0.0000000E+00  0.4629630E-02
    1      -21.915213
    2      -17.539727
    3      -15.279835
    4      -10.030140
    5       -9.303003
    6       -6.473321
    7       -6.232506
    8       -5.414301
    9       -0.928598
   10        0.766443
   11        1.566888
   12        1.963347
 
  0.1250000E+00  0.8333333E-01  0.0000000E+00  0.4629630E-02
    1      -21.866555
    2      -17.867625
    3      -14.879588
    4       -9.972561
    5       -9.255393
    6       -6.678395
    7       -6.311842
    8       -5.659333
    9       -0.610543
   10        0.832422
   11        1.633743
   12        2.031109
 
  0.1666667E+00  0.8333333E-01  0.0000000E+00  0.4629630E-02
    1      -21.798485
    2      -18.210357
    3      -14.436202
    4       -9.892089
    5       -9.189040
    6       -6.937842
    7       -6.436049
    8       -5.953660
    9       -0.215119
   10        0.924836
   11        1.727305
   12        2.125985
 
  0.2083333E+00  0.8333333E-01  0.0000000E+00  0.4629630E-02
    1      -21.711053
    2      -18.551499
    3      -13.966763
    4       -9.788863
    5       -9.104259
    6       -7.248144
    7       -6.595975
    8       -6.274842
    9        0.234075
   10        1.043706
   11        1.847535
   12        2.247979
 
  0.2500000E+00  0.8333333E-01  0.0000000E+00  0.4629630E-02
    1      -21.604329
    2      -18.883839
    3      -13.479359
    4       -9.663076
    5       -9.001467
    6       -7.604836
    7       -6.782085
    8       -6.607494
    9        0.720134
   10        1.189037
   11        1.994371
   12        2.397095
 
  0.2916667E+00  0.8333333E-01  0.0000000E+00  0.4629630E-02
    1      -21.478400
    2      -19.203740
    3      -12.978754
    4       -9.514974
    5       -8.881205
    6       -8.002494
    7       -6.985583
    8       -6.941423
    9        1.230934
   10        1.360813
   11        2.167718
   12        2.573331
 
  0.3333333E+00  0.8333333E-01  0.0000000E+00  0.4629630E-02
    1      -21.333371
    2      -19.509139
    3      -12.468421
    4       -9.344872
    5       -8.744149
    6       -8.435013
    7       -7.269836
    8       -7.198992
    9        1.559003
   10        1.757241
   11        2.367413
   12        2.776684
 
  0.3750000E+00  0.8333333E-01  0.0000000E+00  0.4629630E-02
    1      -21.169371
    2      -19.798748
    3      -11.951380
    4       -9.153161
    5       -8.896050
    6       -8.591138
    7       -7.588108
    8       -7.416256
    9        1.783555
   10        2.291154
   11        2.593145
   12        3.007147
 
  0.4166667E+00  0.8333333E-01  0.0000000E+00  0.4629630E-02
    1      -20.986557
    2      -20.071697
    3      -11.430607
    4       -9.379428
    5       -8.940333
    6       -8.423208
    7       -7.893003
    8       -7.632571
    9        2.034403
   10        2.823765
   11        2.844186
   12        3.264711
 
  0.4583333E+00  0.8333333E-01  0.0000000E+00  0.4629630E-02
    1      -20.785120
    2      -20.327367
    3      -10.909269
    4       -9.879419
    5       -8.707006
    6       -8.241628
    7       -8.182194
    8       -7.844142
    9        2.311465
   10        2.943778
   11        3.118118
   12        3.327336
 
  0.5000000E+00  0.8333333E-01  0.0000000E+00  0.2314815E-02
    1      -20.565294
    2      -20.565294
    3      -10.390879
    4      -10.390879
    5       -8.453961
    6       -8.453961
    7       -8.047962
    8       -8.047962
    9        2.614635
   10        2.614635
   11        3.397933
   12        3.397933
 
  0.0000000E+00  0.1111111E+00  0.0000000E+00  0.2314815E-02
    1      -21.857501
    2      -17.068262
    3      -15.645037
    4       -9.961860
    5       -9.721945
    6       -6.585742
    7       -6.417933
    8       -5.071496
    9       -1.242026
   10        0.844839
   11        1.645768
   12        2.043301
 
  0.4166667E-01  0.1111111E+00  0.0000000E+00  0.4629630E-02
    1      -21.847774
    2      -17.184205
    3      -15.514894
    4       -9.950355
    5       -9.712239
    6       -6.638976
    7       -6.420011
    8       -5.132144
    9       -1.167400
   10        0.858022
   11        1.659137
   12        2.056851
 
  0.8333333E-01  0.1111111E+00  0.0000000E+00  0.4629630E-02
    1      -21.818598
    2      -17.453525
    3      -15.203075
    4       -9.915858
    5       -9.683157
    6       -6.772943
    7       -6.450279
    8       -5.300929
    9       -0.956841
   10        0.897579
   11        1.699239
   12        2.097502
 
  0.1250000E+00  0.1111111E+00  0.0000000E+00  0.4629630E-02
    1      -21.769996
    2      -17.779973
    3      -14.806137
    4       -9.858426
    5       -9.634799
    6       -6.963291
    7       -6.528058
    8       -5.548271
    9       -0.640422
   10        0.963537
   11        1.766062
   12        2.165261
 
  0.1666667E+00  0.1111111E+00  0.0000000E+00  0.4629630E-02
    1      -21.702005
    2      -18.121411
    3      -14.366740
    4       -9.778159
    5       -9.567337
    6       -7.200697
    7       -6.654571
    8       -5.844350
    9       -0.248781
   10        1.055927
   11        1.859581
   12        2.260134
 
  0.2083333E+00  0.1111111E+00  0.0000000E+00  0.4629630E-02
    1      -21.614679
    2      -18.461423
    3      -13.902062
    4       -9.675198
    5       -9.481017
    6       -7.480913
    7       -6.823430
    8       -6.166585
    9        0.194346
   10        1.174775
   11        1.979758
   12        2.382126
 
  0.2500000E+00  0.1111111E+00  0.0000000E+00  0.4629630E-02
    1      -21.508087
    2      -18.792784
    3      -13.420346
    4       -9.549734
    5       -9.376168
    6       -7.801613
    7       -7.024612
    8       -6.499694
    9        0.672185
   10        1.320087
   11        2.126539
   12        2.531243
 
  0.2916667E+00  0.1111111E+00  0.0000000E+00  0.4629630E-02
    1      -21.382317
    2      -19.111837
    3      -12.926554
    4       -9.402013
    5       -9.253206
    6       -8.160828
    7       -7.246976
    8       -6.833644
    9        1.172853
   10        1.491851
   11        2.299837
   12        2.707483
 
  0.3333333E+00  0.1111111E+00  0.0000000E+00  0.4629630E-02
    1      -21.237480
    2      -19.416500
    3      -12.424412
    4       -9.232347
    5       -9.112655
    6       -8.555811
    7       -7.480281
    8       -7.161784
    9        1.687460
   10        1.690031
   11        2.499508
   12        2.910843
 
  0.3750000E+00  0.1111111E+00  0.0000000E+00  0.4629630E-02
    1      -21.073706
    2      -19.705469
    3      -11.917254
    4       -9.041127
    5       -8.982546
    6       -8.955155
    7       -7.716341
    8       -7.479599
    9        1.914575
   10        2.208732
   11        2.725277
   12        3.141317
 
  0.4166667E+00  0.1111111E+00  0.0000000E+00  0.4629630E-02
    1      -20.891158
    2      -19.977866
    3      -11.408439
    4       -9.435968
    5       -8.828838
    6       -8.781496
    7       -7.949190
    8       -7.783933
    9        2.165412
   10        2.729669
   11        2.976477
   12        3.398896
 
  0.4583333E+00  0.1111111E+00  0.0000000E+00  0.4629630E-02
    1      -20.690032
    2      -20.233056
    3      -10.901594
    4       -9.910536
    5       -8.596091
    6       -8.592654
    7       -8.174665
    8       -8.072512
    9        2.442456
   10        3.074711
   11        3.238351
   12        3.250569
 
  0.5000000E+00  0.1111111E+00  0.0000000E+00  0.2314815E-02
    1      -20.470566
    2      -20.470566
    3      -10.400773
    4      -10.400773
    5       -8.389853
    6       -8.389853
    7       -8.343656
    8       -8.343656
    9        2.745600
   10        2.745600
   11        3.516430
   12        3.516430
 
  0.0000000E+00  0.1388889E+00  0.0000000E+00  0.2314815E-02
    1      -21.733370
    2      -16.960315
    3      -15.543864
    4      -10.169727
    5       -9.815215
    6       -7.004676
    7       -6.640499
    8       -4.921963
    9       -1.287936
   10        1.013449
   11        1.815868
   12        2.215792
 
  0.4166667E-01  0.1388889E+00  0.0000000E+00  0.4629630E-02
    1      -21.723656
    2      -17.075368
    3      -15.415130
    4      -10.159780
    5       -9.803749
    6       -7.050660
    7       -6.645313
    8       -4.983983
    9       -1.213007
   10        1.026623
   11        1.829226
   12        2.229340
 
  0.8333333E-01  0.1388889E+00  0.0000000E+00  0.4629630E-02
    1      -21.694523
    2      -17.342903
    3      -15.106671
    4      -10.129957
    5       -9.769372
    6       -7.174397
    7       -6.672862
    8       -5.155920
    9       -1.002509
   10        1.066156
   11        1.869297
   12        2.269987
 
  0.1250000E+00  0.1388889E+00  0.0000000E+00  0.4629630E-02
    1      -21.645994
    2      -17.667520
    3      -14.714264
    4      -10.080311
    5       -9.712141
    6       -7.353760
    7       -6.741876
    8       -5.406514
    9       -0.688194
   10        1.132075
   11        1.936068
   12        2.337739
 
  0.1666667E+00  0.1388889E+00  0.0000000E+00  0.4629630E-02
    1      -21.578107
    2      -18.007297
    3      -14.280468
    4      -10.010927
    5       -9.632155
    6       -7.574600
    7       -6.860662
    8       -5.705005
    9       -0.301641
   10        1.224415
   11        2.029515
   12        2.432603
 
  0.2083333E+00  0.1388889E+00  0.0000000E+00  0.4629630E-02
    1      -21.490916
    2      -18.345848
    3      -13.822609
    4       -9.921924
    5       -9.529555
    6       -7.829243
    7       -7.028640
    8       -6.028647
    9        0.133263
   10        1.343208
   11        2.149605
   12        2.554587
 
  0.2500000E+00  0.1388889E+00  0.0000000E+00  0.4629630E-02
    1      -21.384494
    2      -18.675936
    3      -13.349183
    4       -9.813449
    5       -9.404532
    6       -8.114043
    7       -7.239171
    8       -6.362328
    9        0.599964
   10        1.488467
   11        2.296287
   12        2.703698
 
  0.2916667E+00  0.1388889E+00  0.0000000E+00  0.4629630E-02
    1      -21.258932
    2      -18.993884
    3      -12.865510
    4       -9.685673
    5       -9.257333
    6       -8.428115
    7       -7.481518
    8       -6.696250
    9        1.086913
   10        1.660182
   11        2.469488
   12        2.879935
 
  0.3333333E+00  0.1388889E+00  0.0000000E+00  0.4629630E-02
    1      -21.114342
    2      -19.297588
    3      -12.375777
    4       -9.538781
    5       -9.088266
    6       -8.772186
    7       -7.742848
    8       -7.023968
    9        1.585629
   10        1.858318
   11        2.669091
   12        3.083298
 
  0.3750000E+00  0.1388889E+00  0.0000000E+00  0.4629630E-02
    1      -20.950862
    2      -19.585726
    3      -11.883913
    4       -9.372979
    5       -9.147047
    6       -8.897718
    7       -8.010535
    8       -7.341118
    9        2.082817
   10        2.089414
   11        2.894883
   12        3.313778
 
  0.4166667E+00  0.1388889E+00  0.0000000E+00  0.4629630E-02
    1      -20.768658
    2      -19.857402
    3      -11.394030
    4       -9.552005
    5       -9.188492
    6       -8.686172
    7       -8.274260
    8       -7.644651
    9        2.333602
   10        2.592487
   11        3.146329
   12        3.571367
 
  0.4583333E+00  0.1388889E+00  0.0000000E+00  0.4629630E-02
    1      -20.567935
    2      -20.111968
    3      -10.910667
    4       -9.984173
    5       -8.985610
    6       -8.527019
    7       -8.454228
    8       -7.932368
    9        2.610579
   10        3.088817
   11        3.242626
   12        3.420772
 
  0.5000000E+00  0.1388889E+00  0.0000000E+00  0.2314815E-02
    1      -20.348937
    2      -20.348937
    3      -10.438887
    4      -10.438887
    5       -8.764805
    6       -8.764805
    7       -8.202641
    8       -8.202641
    9        2.913633
   10        2.913633
   11        3.553527
   12        3.553527
 
  0.0000000E+00  0.1666667E+00  0.0000000E+00  0.2314815E-02
    1      -21.581881
    2      -16.828461
    3      -15.424275
    4      -10.663795
    5       -9.636673
    6       -7.470137
    7       -6.905178
    8       -4.739616
    9       -1.358449
   10        1.219492
   11        2.023606
   12        2.426616
 
  0.4166667E-01  0.1666667E+00  0.0000000E+00  0.4629630E-02
    1      -21.572186
    2      -16.942550
    3      -15.297255
    4      -10.653434
    5       -9.625260
    6       -7.514775
    7       -6.906326
    8       -4.803607
    9       -1.282934
   10        1.232654
   11        2.036948
   12        2.440162
 
  0.8333333E-01  0.1666667E+00  0.0000000E+00  0.4629630E-02
    1      -21.543106
    2      -17.208051
    3      -14.993121
    4      -10.622337
    5       -9.591041
    6       -7.636281
    7       -6.921630
    8       -4.979993
    9       -1.072141
   10        1.272151
   11        2.076967
   12        2.480801
 
  0.1250000E+00  0.1666667E+00  0.0000000E+00  0.4629630E-02
    1      -21.494666
    2      -17.530483
    3      -14.606851
    4      -10.570459
    5       -9.534074
    6       -7.812460
    7       -6.971455
    8       -5.235052
    9       -0.760272
   10        1.338009
   11        2.143651
   12        2.548540
 
  0.1666667E+00  0.1666667E+00  0.0000000E+00  0.4629630E-02
    1      -21.426905
    2      -17.868233
    3      -14.180916
    4      -10.497712
    5       -9.454457
    6       -8.026545
    7       -7.069010
    8       -5.536748
    9       -0.380161
   10        1.430266
   11        2.236977
   12        2.643387
 
  0.2083333E+00  0.1666667E+00  0.0000000E+00  0.4629630E-02
    1      -21.339880
    2      -18.204978
    3      -13.732903
    4      -10.403946
    5       -9.352333
    6       -8.268130
    7       -7.219004
    8       -5.862177
    9        0.044199
   10        1.548961
   11        2.356910
   12        2.765351
 
  0.2500000E+00  0.1666667E+00  0.0000000E+00  0.4629630E-02
    1      -21.233667
    2      -18.533486
    3      -13.271788
    4      -10.288915
    5       -9.227894
    6       -8.531115
    7       -7.419624
    8       -6.196512
    9        0.496626
   10        1.694117
   11        2.503404
   12        2.914444
 
  0.2916667E+00  0.1666667E+00  0.0000000E+00  0.4629630E-02
    1      -21.108360
    2      -18.850058
    3      -12.803573
    4      -10.152235
    5       -9.081383
    6       -8.812527
    7       -7.664090
    8       -6.530295
    9        0.966068
   10        1.865732
   11        2.676395
   12        3.090668
 
  0.3333333E+00  0.1666667E+00  0.0000000E+00  0.4629630E-02
    1      -20.964076
    2      -19.152569
    3      -12.333376
    4       -9.993331
    5       -9.112039
    6       -8.913111
    7       -7.941837
    8       -6.857362
    9        1.444567
   10        2.063773
   11        2.875797
   12        3.294025
 
  0.3750000E+00  0.1666667E+00  0.0000000E+00  0.4629630E-02
    1      -20.800959
    2      -19.439672
    3      -11.866331
    4       -9.811406
    5       -9.431595
    6       -8.723459
    7       -8.239699
    8       -7.173557
    9        1.926005
   10        2.288179
   11        3.101481
   12        3.524504
 
  0.4166667E+00  0.1666667E+00  0.0000000E+00  0.4629630E-02
    1      -20.619183
    2      -19.710451
    3      -11.408004
    4       -9.774589
    5       -9.605473
    6       -8.543423
    7       -8.512905
    8       -7.475972
    9        2.405379
   10        2.538862
   11        3.353198
   12        3.782097
 
  0.4583333E+00  0.1666667E+00  0.0000000E+00  0.4629630E-02
    1      -20.418958
    2      -19.964241
    3      -10.964421
    4      -10.144232
    5       -9.374621
    6       -8.839766
    7       -8.282037
    8       -7.762506
    9        2.815715
   10        2.878347
   11        3.447392
   12        3.628480
 
  0.5000000E+00  0.1666667E+00  0.0000000E+00  0.2314815E-02
    1      -20.200541
    2      -20.200541
    3      -10.541567
    4      -10.541567
    5       -9.118721
    6       -9.118721
    7       -8.031594
    8       -8.031594
    9        3.118610
   10        3.118610
   11        3.340757
   12        3.340757
 