<?xml version="1.0" encoding="ISO-8859-1"?>
<modeling>
 <generator>
  <i name="program" type="string">vasp </i>
  <i name="version" type="string">5.3.5  </i>
  <i name="subversion" type="string">31Mar14 (build Mar 02 2015 18:14:16) complex                          parallel </i>
  <i name="platform" type="string">LinuxIFC </i>
  <i name="date" type="string">2018 08 09 </i>
  <i name="time" type="string">14:20:44 </i>
 </generator>
 <incar>
  <i type="string" name="SYSTEM">  gr</i>
  <i type="string" name="PREC">accurate : accuracy</i>
  <i type="string" name="ALGO"> FAST.</i>
  <i type="int" name="NELM">   100</i>
  <i type="int" name="NELMDL">    -3</i>
  <i type="int" name="NELMIN">     5</i>
  <i type="int" name="IBRION">     1</i>
  <i name="EDIFF">      0.00000000</i>
  <i name="EDIFFG">     -0.00000100</i>
  <i type="int" name="NSW">   400</i>
  <i type="int" name="ISIF">     2</i>
  <i name="ENCUT">   2000.00000000</i>
  <i type="int" name="ISMEAR">     0</i>
  <i name="SIGMA">      0.05000000</i>
  <i type="int" name="NWRITE">     2</i>
  <i type="logical" name="LWAVE"> F  </i>
  <i type="logical" name="LCHARG"> F  </i>
  <i type="int" name="NELM">   100</i>
 </incar>
 <kpoints>
  <generation param="Gamma">
   <v type="int" name="divisions">      24       36        1 </v>
   <v name="usershift">      0.00000000       0.00000000       0.00000000 </v>
   <v name="genvec1">      0.04166667       0.00000000       0.00000000 </v>
   <v name="genvec2">      0.00000000       0.02777778       0.00000000 </v>
   <v name="genvec3">      0.00000000       0.00000000       1.00000000 </v>
   <v name="shift">      0.00000000       0.00000000       0.00000000 </v>
  </generation>
  <varray name="kpointlist" >
   <v>       0.00000000       0.00000000       0.00000000 </v>
   <v>       0.04166667       0.00000000       0.00000000 </v>
   <v>       0.08333333       0.00000000       0.00000000 </v>
   <v>       0.12500000       0.00000000       0.00000000 </v>
   <v>       0.16666667       0.00000000       0.00000000 </v>
   <v>       0.20833333       0.00000000       0.00000000 </v>
   <v>       0.25000000       0.00000000       0.00000000 </v>
   <v>       0.29166667       0.00000000       0.00000000 </v>
   <v>       0.33333333       0.00000000       0.00000000 </v>
   <v>       0.37500000       0.00000000       0.00000000 </v>
   <v>       0.41666667       0.00000000       0.00000000 </v>
   <v>       0.45833333       0.00000000       0.00000000 </v>
   <v>       0.50000000       0.00000000       0.00000000 </v>
   <v>       0.00000000       0.02777778       0.00000000 </v>
   <v>       0.04166667       0.02777778       0.00000000 </v>
   <v>       0.08333333       0.02777778       0.00000000 </v>
   <v>       0.12500000       0.02777778       0.00000000 </v>
   <v>       0.16666667       0.02777778       0.00000000 </v>
   <v>       0.20833333       0.02777778       0.00000000 </v>
   <v>       0.25000000       0.02777778       0.00000000 </v>
   <v>       0.29166667       0.02777778       0.00000000 </v>
   <v>       0.33333333       0.02777778       0.00000000 </v>
   <v>       0.37500000       0.02777778       0.00000000 </v>
   <v>       0.41666667       0.02777778       0.00000000 </v>
   <v>       0.45833333       0.02777778       0.00000000 </v>
   <v>       0.50000000       0.02777778       0.00000000 </v>
   <v>       0.00000000       0.05555556       0.00000000 </v>
   <v>       0.04166667       0.05555556       0.00000000 </v>
   <v>       0.08333333       0.05555556       0.00000000 </v>
   <v>       0.12500000       0.05555556       0.00000000 </v>
   <v>       0.16666667       0.05555556       0.00000000 </v>
   <v>       0.20833333       0.05555556       0.00000000 </v>
   <v>       0.25000000       0.05555556       0.00000000 </v>
   <v>       0.29166667       0.05555556       0.00000000 </v>
   <v>       0.33333333       0.05555556       0.00000000 </v>
   <v>       0.37500000       0.05555556       0.00000000 </v>
   <v>       0.41666667       0.05555556       0.00000000 </v>
   <v>       0.45833333       0.05555556       0.00000000 </v>
   <v>       0.50000000       0.05555556       0.00000000 </v>
   <v>       0.00000000       0.08333333       0.00000000 </v>
   <v>       0.04166667       0.08333333       0.00000000 </v>
   <v>       0.08333333       0.08333333       0.00000000 </v>
   <v>       0.12500000       0.08333333       0.00000000 </v>
   <v>       0.16666667       0.08333333       0.00000000 </v>
   <v>       0.20833333       0.08333333       0.00000000 </v>
   <v>       0.25000000       0.08333333       0.00000000 </v>
   <v>       0.29166667       0.08333333       0.00000000 </v>
   <v>       0.33333333       0.08333333       0.00000000 </v>
   <v>       0.37500000       0.08333333       0.00000000 </v>
   <v>       0.41666667       0.08333333       0.00000000 </v>
   <v>       0.45833333       0.08333333       0.00000000 </v>
   <v>       0.50000000       0.08333333       0.00000000 </v>
   <v>       0.00000000       0.11111111       0.00000000 </v>
   <v>       0.04166667       0.11111111       0.00000000 </v>
   <v>       0.08333333       0.11111111       0.00000000 </v>
   <v>       0.12500000       0.11111111       0.00000000 </v>
   <v>       0.16666667       0.11111111       0.00000000 </v>
   <v>       0.20833333       0.11111111       0.00000000 </v>
   <v>       0.25000000       0.11111111       0.00000000 </v>
   <v>       0.29166667       0.11111111       0.00000000 </v>
   <v>       0.33333333       0.11111111       0.00000000 </v>
   <v>       0.37500000       0.11111111       0.00000000 </v>
   <v>       0.41666667       0.11111111       0.00000000 </v>
   <v>       0.45833333       0.11111111       0.00000000 </v>
   <v>       0.50000000       0.11111111       0.00000000 </v>
   <v>       0.00000000       0.13888889       0.00000000 </v>
   <v>       0.04166667       0.13888889       0.00000000 </v>
   <v>       0.08333333       0.13888889       0.00000000 </v>
   <v>       0.12500000       0.13888889       0.00000000 </v>
   <v>       0.16666667       0.13888889       0.00000000 </v>
   <v>       0.20833333       0.13888889       0.00000000 </v>
   <v>       0.25000000       0.13888889       0.00000000 </v>
   <v>       0.29166667       0.13888889       0.00000000 </v>
   <v>       0.33333333       0.13888889       0.00000000 </v>
   <v>       0.37500000       0.13888889       0.00000000 </v>
   <v>       0.41666667       0.13888889       0.00000000 </v>
   <v>       0.45833333       0.13888889       0.00000000 </v>
   <v>       0.50000000       0.13888889       0.00000000 </v>
   <v>       0.00000000       0.16666667       0.00000000 </v>
   <v>       0.04166667       0.16666667       0.00000000 </v>
   <v>       0.08333333       0.16666667       0.00000000 </v>
   <v>       0.12500000       0.16666667       0.00000000 </v>
   <v>       0.16666667       0.16666667       0.00000000 </v>
   <v>       0.20833333       0.16666667       0.00000000 </v>
   <v>       0.25000000       0.16666667       0.00000000 </v>
   <v>       0.29166667       0.16666667       0.00000000 </v>
   <v>       0.33333333       0.16666667       0.00000000 </v>
   <v>       0.37500000       0.16666667       0.00000000 </v>
   <v>       0.41666667       0.16666667       0.00000000 </v>
   <v>       0.45833333       0.16666667       0.00000000 </v>
   <v>       0.50000000       0.16666667       0.00000000 </v>
   <v>       0.00000000       0.19444444       0.00000000 </v>
   <v>       0.04166667       0.19444444       0.00000000 </v>
   <v>       0.08333333       0.19444444       0.00000000 </v>
   <v>       0.12500000       0.19444444       0.00000000 </v>
   <v>       0.16666667       0.19444444       0.00000000 </v>
   <v>       0.20833333       0.19444444       0.00000000 </v>
   <v>       0.25000000       0.19444444       0.00000000 </v>
   <v>       0.29166667       0.19444444       0.00000000 </v>
   <v>       0.33333333       0.19444444       0.00000000 </v>
   <v>       0.37500000       0.19444444       0.00000000 </v>
   <v>       0.41666667       0.19444444       0.00000000 </v>
   <v>       0.45833333       0.19444444       0.00000000 </v>
   <v>       0.50000000       0.19444444       0.00000000 </v>
   <v>       0.00000000       0.22222222       0.00000000 </v>
   <v>       0.04166667       0.22222222       0.00000000 </v>
   <v>       0.08333333       0.22222222       0.00000000 </v>
   <v>       0.12500000       0.22222222       0.00000000 </v>
   <v>       0.16666667       0.22222222       0.00000000 </v>
   <v>       0.20833333       0.22222222       0.00000000 </v>
   <v>       0.25000000       0.22222222       0.00000000 </v>
   <v>       0.29166667       0.22222222       0.00000000 </v>
   <v>       0.33333333       0.22222222       0.00000000 </v>
   <v>       0.37500000       0.22222222       0.00000000 </v>
   <v>       0.41666667       0.22222222       0.00000000 </v>
   <v>       0.45833333       0.22222222       0.00000000 </v>
   <v>       0.50000000       0.22222222       0.00000000 </v>
   <v>       0.00000000       0.25000000       0.00000000 </v>
   <v>       0.04166667       0.25000000       0.00000000 </v>
   <v>       0.08333333       0.25000000       0.00000000 </v>
   <v>       0.12500000       0.25000000       0.00000000 </v>
   <v>       0.16666667       0.25000000       0.00000000 </v>
   <v>       0.20833333       0.25000000       0.00000000 </v>
   <v>       0.25000000       0.25000000       0.00000000 </v>
   <v>       0.29166667       0.25000000       0.00000000 </v>
   <v>       0.33333333       0.25000000       0.00000000 </v>
   <v>       0.37500000       0.25000000       0.00000000 </v>
   <v>       0.41666667       0.25000000       0.00000000 </v>
   <v>       0.45833333       0.25000000       0.00000000 </v>
   <v>       0.50000000       0.25000000       0.00000000 </v>
   <v>       0.00000000       0.27777778       0.00000000 </v>
   <v>       0.04166667       0.27777778       0.00000000 </v>
   <v>       0.08333333       0.27777778       0.00000000 </v>
   <v>       0.12500000       0.27777778       0.00000000 </v>
   <v>       0.16666667       0.27777778       0.00000000 </v>
   <v>       0.20833333       0.27777778       0.00000000 </v>
   <v>       0.25000000       0.27777778       0.00000000 </v>
   <v>       0.29166667       0.27777778       0.00000000 </v>
   <v>       0.33333333       0.27777778       0.00000000 </v>
   <v>       0.37500000       0.27777778       0.00000000 </v>
   <v>       0.41666667       0.27777778       0.00000000 </v>
   <v>       0.45833333       0.27777778       0.00000000 </v>
   <v>       0.50000000       0.27777778       0.00000000 </v>
   <v>       0.00000000       0.30555556       0.00000000 </v>
   <v>       0.04166667       0.30555556       0.00000000 </v>
   <v>       0.08333333       0.30555556       0.00000000 </v>
   <v>       0.12500000       0.30555556       0.00000000 </v>
   <v>       0.16666667       0.30555556       0.00000000 </v>
   <v>       0.20833333       0.30555556       0.00000000 </v>
   <v>       0.25000000       0.30555556       0.00000000 </v>
   <v>       0.29166667       0.30555556       0.00000000 </v>
   <v>       0.33333333       0.30555556       0.00000000 </v>
   <v>       0.37500000       0.30555556       0.00000000 </v>
   <v>       0.41666667       0.30555556       0.00000000 </v>
   <v>       0.45833333       0.30555556       0.00000000 </v>
   <v>       0.50000000       0.30555556       0.00000000 </v>
   <v>       0.00000000       0.33333333       0.00000000 </v>
   <v>       0.04166667       0.33333333       0.00000000 </v>
   <v>       0.08333333       0.33333333       0.00000000 </v>
   <v>       0.12500000       0.33333333       0.00000000 </v>
   <v>       0.16666667       0.33333333       0.00000000 </v>
   <v>       0.20833333       0.33333333       0.00000000 </v>
   <v>       0.25000000       0.33333333       0.00000000 </v>
   <v>       0.29166667       0.33333333       0.00000000 </v>
   <v>       0.33333333       0.33333333       0.00000000 </v>
   <v>       0.37500000       0.33333333       0.00000000 </v>
   <v>       0.41666667       0.33333333       0.00000000 </v>
   <v>       0.45833333       0.33333333       0.00000000 </v>
   <v>       0.50000000       0.33333333       0.00000000 </v>
   <v>       0.00000000       0.36111111       0.00000000 </v>
   <v>       0.04166667       0.36111111       0.00000000 </v>
   <v>       0.08333333       0.36111111       0.00000000 </v>
   <v>       0.12500000       0.36111111       0.00000000 </v>
   <v>       0.16666667       0.36111111       0.00000000 </v>
   <v>       0.20833333       0.36111111       0.00000000 </v>
   <v>       0.25000000       0.36111111       0.00000000 </v>
   <v>       0.29166667       0.36111111       0.00000000 </v>
   <v>       0.33333333       0.36111111       0.00000000 </v>
   <v>       0.37500000       0.36111111       0.00000000 </v>
   <v>       0.41666667       0.36111111       0.00000000 </v>
   <v>       0.45833333       0.36111111       0.00000000 </v>
   <v>       0.50000000       0.36111111       0.00000000 </v>
   <v>       0.00000000       0.38888889       0.00000000 </v>
   <v>       0.04166667       0.38888889       0.00000000 </v>
   <v>       0.08333333       0.38888889       0.00000000 </v>
   <v>       0.12500000       0.38888889       0.00000000 </v>
   <v>       0.16666667       0.38888889       0.00000000 </v>
   <v>       0.20833333       0.38888889       0.00000000 </v>
   <v>       0.25000000       0.38888889       0.00000000 </v>
   <v>       0.29166667       0.38888889       0.00000000 </v>
   <v>       0.33333333       0.38888889       0.00000000 </v>
   <v>       0.37500000       0.38888889       0.00000000 </v>
   <v>       0.41666667       0.38888889       0.00000000 </v>
   <v>       0.45833333       0.38888889       0.00000000 </v>
   <v>       0.50000000       0.38888889       0.00000000 </v>
   <v>       0.00000000       0.41666667       0.00000000 </v>
   <v>       0.04166667       0.41666667       0.00000000 </v>
   <v>       0.08333333       0.41666667       0.00000000 </v>
   <v>       0.12500000       0.41666667       0.00000000 </v>
   <v>       0.16666667       0.41666667       0.00000000 </v>
   <v>       0.20833333       0.41666667       0.00000000 </v>
   <v>       0.25000000       0.41666667       0.00000000 </v>
   <v>       0.29166667       0.41666667       0.00000000 </v>
   <v>       0.33333333       0.41666667       0.00000000 </v>
   <v>       0.37500000       0.41666667       0.00000000 </v>
   <v>       0.41666667       0.41666667       0.00000000 </v>
   <v>       0.45833333       0.41666667       0.00000000 </v>
   <v>       0.50000000       0.41666667       0.00000000 </v>
   <v>       0.00000000       0.44444444       0.00000000 </v>
   <v>       0.04166667       0.44444444       0.00000000 </v>
   <v>       0.08333333       0.44444444       0.00000000 </v>
   <v>       0.12500000       0.44444444       0.00000000 </v>
   <v>       0.16666667       0.44444444       0.00000000 </v>
   <v>       0.20833333       0.44444444       0.00000000 </v>
   <v>       0.25000000       0.44444444       0.00000000 </v>
   <v>       0.29166667       0.44444444       0.00000000 </v>
   <v>       0.33333333       0.44444444       0.00000000 </v>
   <v>       0.37500000       0.44444444       0.00000000 </v>
   <v>       0.41666667       0.44444444       0.00000000 </v>
   <v>       0.45833333       0.44444444       0.00000000 </v>
   <v>       0.50000000       0.44444444       0.00000000 </v>
   <v>       0.00000000       0.47222222       0.00000000 </v>
   <v>       0.04166667       0.47222222       0.00000000 </v>
   <v>       0.08333333       0.47222222       0.00000000 </v>
   <v>       0.12500000       0.47222222       0.00000000 </v>
   <v>       0.16666667       0.47222222       0.00000000 </v>
   <v>       0.20833333       0.47222222       0.00000000 </v>
   <v>       0.25000000       0.47222222       0.00000000 </v>
   <v>       0.29166667       0.47222222       0.00000000 </v>
   <v>       0.33333333       0.47222222       0.00000000 </v>
   <v>       0.37500000       0.47222222       0.00000000 </v>
   <v>       0.41666667       0.47222222       0.00000000 </v>
   <v>       0.45833333       0.47222222       0.00000000 </v>
   <v>       0.50000000       0.47222222       0.00000000 </v>
   <v>       0.00000000       0.50000000       0.00000000 </v>
   <v>       0.04166667       0.50000000       0.00000000 </v>
   <v>       0.08333333       0.50000000       0.00000000 </v>
   <v>       0.12500000       0.50000000       0.00000000 </v>
   <v>       0.16666667       0.50000000       0.00000000 </v>
   <v>       0.20833333       0.50000000       0.00000000 </v>
   <v>       0.25000000       0.50000000       0.00000000 </v>
   <v>       0.29166667       0.50000000       0.00000000 </v>
   <v>       0.33333333       0.50000000       0.00000000 </v>
   <v>       0.37500000       0.50000000       0.00000000 </v>
   <v>       0.41666667       0.50000000       0.00000000 </v>
   <v>       0.45833333       0.50000000       0.00000000 </v>
   <v>       0.50000000       0.50000000       0.00000000 </v>
  </varray>
  <varray name="weights" >
   <v>       0.00115741 </v>
   <v>       0.00231481 </v>
   <v>       0.00231481 </v>
   <v>       0.00231481 </v>
   <v>       0.00231481 </v>
   <v>       0.00231481 </v>
   <v>       0.00231481 </v>
   <v>       0.00231481 </v>
   <v>       0.00231481 </v>
   <v>       0.00231481 </v>
   <v>       0.00231481 </v>
   <v>       0.00231481 </v>
   <v>       0.00115741 </v>
   <v>       0.00231481 </v>
   <v>       0.00462963 </v>
   <v>       0.00462963 </v>
   <v>       0.00462963 </v>
   <v>       0.00462963 </v>
   <v>       0.00462963 </v>
   <v>       0.00462963 </v>
   <v>       0.00462963 </v>
   <v>       0.00462963 </v>
   <v>       0.00462963 </v>
   <v>       0.00462963 </v>
   <v>       0.00462963 </v>
   <v>       0.00231481 </v>
   <v>       0.00231481 </v>
   <v>       0.00462963 </v>
   <v>       0.00462963 </v>
   <v>       0.00462963 </v>
   <v>       0.00462963 </v>
   <v>       0.00462963 </v>
   <v>       0.00462963 </v>
   <v>       0.00462963 </v>
   <v>       0.00462963 </v>
   <v>       0.00462963 </v>
   <v>       0.00462963 </v>
   <v>       0.00462963 </v>
   <v>       0.00231481 </v>
   <v>       0.00231481 </v>
   <v>       0.00462963 </v>
   <v>       0.00462963 </v>
   <v>       0.00462963 </v>
   <v>       0.00462963 </v>
   <v>       0.00462963 </v>
   <v>       0.00462963 </v>
   <v>       0.00462963 </v>
   <v>       0.00462963 </v>
   <v>       0.00462963 </v>
   <v>       0.00462963 </v>
   <v>       0.00462963 </v>
   <v>       0.00231481 </v>
   <v>       0.00231481 </v>
   <v>       0.00462963 </v>
   <v>       0.00462963 </v>
   <v>       0.00462963 </v>
   <v>       0.00462963 </v>
   <v>       0.00462963 </v>
   <v>       0.00462963 </v>
   <v>       0.00462963 </v>
   <v>       0.00462963 </v>
   <v>       0.00462963 </v>
   <v>       0.00462963 </v>
   <v>       0.00462963 </v>
   <v>       0.00231481 </v>
   <v>       0.00231481 </v>
   <v>       0.00462963 </v>
   <v>       0.00462963 </v>
   <v>       0.00462963 </v>
   <v>       0.00462963 </v>
   <v>       0.00462963 </v>
   <v>       0.00462963 </v>
   <v>       0.00462963 </v>
   <v>       0.00462963 </v>
   <v>       0.00462963 </v>
   <v>       0.00462963 </v>
   <v>       0.00462963 </v>
   <v>       0.00231481 </v>
   <v>       0.00231481 </v>
   <v>       0.00462963 </v>
   <v>       0.00462963 </v>
   <v>       0.00462963 </v>
   <v>       0.00462963 </v>
   <v>       0.00462963 </v>
   <v>       0.00462963 </v>
   <v>       0.00462963 </v>
   <v>       0.00462963 </v>
   <v>       0.00462963 </v>
   <v>       0.00462963 </v>
   <v>       0.00462963 </v>
   <v>       0.00231481 </v>
   <v>       0.00231481 </v>
   <v>       0.00462963 </v>
   <v>       0.00462963 </v>
   <v>       0.00462963 </v>
   <v>       0.00462963 </v>
   <v>       0.00462963 </v>
   <v>       0.00462963 </v>
   <v>       0.00462963 </v>
   <v>       0.00462963 </v>
   <v>       0.00462963 </v>
   <v>       0.00462963 </v>
   <v>       0.00462963 </v>
   <v>       0.00231481 </v>
   <v>       0.00231481 </v>
   <v>       0.00462963 </v>
   <v>       0.00462963 </v>
   <v>       0.00462963 </v>
   <v>       0.00462963 </v>
   <v>       0.00462963 </v>
   <v>       0.00462963 </v>
   <v>       0.00462963 </v>
   <v>       0.00462963 </v>
   <v>       0.00462963 </v>
   <v>       0.00462963 </v>
   <v>       0.00462963 </v>
   <v>       0.00231481 </v>
   <v>       0.00231481 </v>
   <v>       0.00462963 </v>
   <v>       0.00462963 </v>
   <v>       0.00462963 </v>
   <v>       0.00462963 </v>
   <v>       0.00462963 </v>
   <v>       0.00462963 </v>
   <v>       0.00462963 </v>
   <v>       0.00462963 </v>
   <v>       0.00462963 </v>
   <v>       0.00462963 </v>
   <v>       0.00462963 </v>
   <v>       0.00231481 </v>
   <v>       0.00231481 </v>
   <v>       0.00462963 </v>
   <v>       0.00462963 </v>
   <v>       0.00462963 </v>
   <v>       0.00462963 </v>
   <v>       0.00462963 </v>
   <v>       0.00462963 </v>
   <v>       0.00462963 </v>
   <v>       0.00462963 </v>
   <v>       0.00462963 </v>
   <v>       0.00462963 </v>
   <v>       0.00462963 </v>
   <v>       0.00231481 </v>
   <v>       0.00231481 </v>
   <v>       0.00462963 </v>
   <v>       0.00462963 </v>
   <v>       0.00462963 </v>
   <v>       0.00462963 </v>
   <v>       0.00462963 </v>
   <v>       0.00462963 </v>
   <v>       0.00462963 </v>
   <v>       0.00462963 </v>
   <v>       0.00462963 </v>
   <v>       0.00462963 </v>
   <v>       0.00462963 </v>
   <v>       0.00231481 </v>
   <v>       0.00231481 </v>
   <v>       0.00462963 </v>
   <v>       0.00462963 </v>
   <v>       0.00462963 </v>
   <v>       0.00462963 </v>
   <v>       0.00462963 </v>
   <v>       0.00462963 </v>
   <v>       0.00462963 </v>
   <v>       0.00462963 </v>
   <v>       0.00462963 </v>
   <v>       0.00462963 </v>
   <v>       0.00462963 </v>
   <v>       0.00231481 </v>
   <v>       0.00231481 </v>
   <v>       0.00462963 </v>
   <v>       0.00462963 </v>
   <v>       0.00462963 </v>
   <v>       0.00462963 </v>
   <v>       0.00462963 </v>
   <v>       0.00462963 </v>
   <v>       0.00462963 </v>
   <v>       0.00462963 </v>
   <v>       0.00462963 </v>
   <v>       0.00462963 </v>
   <v>       0.00462963 </v>
   <v>       0.00231481 </v>
   <v>       0.00231481 </v>
   <v>       0.00462963 </v>
   <v>       0.00462963 </v>
   <v>       0.00462963 </v>
   <v>       0.00462963 </v>
   <v>       0.00462963 </v>
   <v>       0.00462963 </v>
   <v>       0.00462963 </v>
   <v>       0.00462963 </v>
   <v>       0.00462963 </v>
   <v>       0.00462963 </v>
   <v>       0.00462963 </v>
   <v>       0.00231481 </v>
   <v>       0.00231481 </v>
   <v>       0.00462963 </v>
   <v>       0.00462963 </v>
   <v>       0.00462963 </v>
   <v>       0.00462963 </v>
   <v>       0.00462963 </v>
   <v>       0.00462963 </v>
   <v>       0.00462963 </v>
   <v>       0.00462963 </v>
   <v>       0.00462963 </v>
   <v>       0.00462963 </v>
   <v>       0.00462963 </v>
   <v>       0.00231481 </v>
   <v>       0.00231481 </v>
   <v>       0.00462963 </v>
   <v>       0.00462963 </v>
   <v>       0.00462963 </v>
   <v>       0.00462963 </v>
   <v>       0.00462963 </v>
   <v>       0.00462963 </v>
   <v>       0.00462963 </v>
   <v>       0.00462963 </v>
   <v>       0.00462963 </v>
   <v>       0.00462963 </v>
   <v>       0.00462963 </v>
   <v>       0.00231481 </v>
   <v>       0.00231481 </v>
   <v>       0.00462963 </v>
   <v>       0.00462963 </v>
   <v>       0.00462963 </v>
   <v>       0.00462963 </v>
   <v>       0.00462963 </v>
   <v>       0.00462963 </v>
   <v>       0.00462963 </v>
   <v>       0.00462963 </v>
   <v>       0.00462963 </v>
   <v>       0.00462963 </v>
   <v>       0.00462963 </v>
   <v>       0.00231481 </v>
   <v>       0.00115741 </v>
   <v>       0.00231481 </v>
   <v>       0.00231481 </v>
   <v>       0.00231481 </v>
   <v>       0.00231481 </v>
   <v>       0.00231481 </v>
   <v>       0.00231481 </v>
   <v>       0.00231481 </v>
   <v>       0.00231481 </v>
   <v>       0.00231481 </v>
   <v>       0.00231481 </v>
   <v>       0.00231481 </v>
   <v>       0.00115741 </v>
  </varray>
 </kpoints>
 <parameters>
  <separator name="general" >
   <i type="string" name="SYSTEM">gr</i>
   <i type="logical" name="LCOMPAT"> F  </i>
  </separator>
  <separator name="electronic" >
   <i type="string" name="PREC">accura</i>
   <i name="ENMAX">   2000.00000000</i>
   <i name="ENAUG">    644.87300000</i>
   <i name="EDIFF">      0.00000000</i>
   <i type="int" name="IALGO">    68</i>
   <i type="int" name="IWAVPR">    11</i>
   <i type="int" name="NBANDS">    12</i>
   <i name="NELECT">     16.00000000</i>
   <i type="int" name="TURBO">     0</i>
   <i type="int" name="IRESTART">     0</i>
   <i type="int" name="NREBOOT">     0</i>
   <i type="int" name="NMIN">     0</i>
   <i name="EREF">      0.00000000</i>
   <separator name="electronic smearing" >
    <i type="int" name="ISMEAR">     0</i>
    <i name="SIGMA">      0.05000000</i>
    <i name="KSPACING">      0.50000000</i>
    <i type="logical" name="KGAMMA"> T  </i>
   </separator>
   <separator name="electronic projectors" >
    <i type="logical" name="LREAL"> F  </i>
    <v name="ROPT">      0.00000000</v>
    <i type="int" name="LMAXPAW">  -100</i>
    <i type="int" name="LMAXMIX">     2</i>
    <i type="logical" name="NLSPLINE"> F  </i>
   </separator>
   <separator name="electronic startup" >
    <i type="int" name="ISTART">     0</i>
    <i type="int" name="ICHARG">     2</i>
    <i type="int" name="INIWAV">     1</i>
   </separator>
   <separator name="electronic spin" >
    <i type="int" name="ISPIN">     1</i>
    <i type="logical" name="LNONCOLLINEAR"> F  </i>
    <v name="MAGMOM">      1.00000000      1.00000000      1.00000000      1.00000000</v>
    <i name="NUPDOWN">     -1.00000000</i>
    <i type="logical" name="LSORBIT"> F  </i>
    <v name="SAXIS">      0.00000000      0.00000000      1.00000000</v>
    <i type="logical" name="LSPIRAL"> F  </i>
    <v name="QSPIRAL">      0.00000000      0.00000000      0.00000000</v>
    <i type="logical" name="LZEROZ"> F  </i>
   </separator>
   <separator name="electronic exchange-correlation" >
    <i type="logical" name="LASPH"> F  </i>
    <i type="logical" name="LMETAGGA"> F  </i>
   </separator>
   <separator name="electronic convergence" >
    <i type="int" name="NELM">   100</i>
    <i type="int" name="NELMDL">    -3</i>
    <i type="int" name="NELMIN">     5</i>
    <i name="ENINI">   2000.00000000</i>
    <separator name="electronic convergence detail" >
     <i type="logical" name="LDIAG"> T  </i>
     <i type="logical" name="LSUBROT"> F  </i>
     <i name="WEIMIN">      0.00100000</i>
     <i name="EBREAK">      0.00000000</i>
     <i name="DEPER">      0.30000000</i>
     <i type="int" name="NRMM">     4</i>
     <i name="TIME">      0.40000000</i>
    </separator>
   </separator>
   <separator name="electronic mixer" >
    <i name="AMIX">      0.40000000</i>
    <i name="BMIX">      1.00000000</i>
    <i name="AMIN">      0.10000000</i>
    <i name="AMIX_MAG">      1.60000000</i>
    <i name="BMIX_MAG">      1.00000000</i>
    <separator name="electronic mixer details" >
     <i type="int" name="IMIX">     4</i>
     <i type="int" name="MAXMIX">   -45</i>
     <i name="WC">    100.00000000</i>
     <i type="int" name="INIMIX">     1</i>
     <i type="int" name="MIXPRE">     1</i>
     <i type="int" name="MREMOVE">     5</i>
    </separator>
   </separator>
   <separator name="electronic dipolcorrection" >
    <i type="logical" name="LDIPOL"> F  </i>
    <i type="logical" name="LMONO"> F  </i>
    <i type="int" name="IDIPOL">     0</i>
    <i name="EPSILON">      1.00000000</i>
    <v name="DIPOL">   -100.00000000   -100.00000000   -100.00000000</v>
    <i name="EFIELD">      0.00000000</i>
   </separator>
  </separator>
  <separator name="grids" >
   <i type="int" name="NGX">    64</i>
   <i type="int" name="NGY">    36</i>
   <i type="int" name="NGZ">   288</i>
   <i type="int" name="NGXF">   128</i>
   <i type="int" name="NGYF">    72</i>
   <i type="int" name="NGZF">   576</i>
   <i type="logical" name="ADDGRID"> F  </i>
  </separator>
  <separator name="ionic" >
   <i type="int" name="NSW">   400</i>
   <i type="int" name="IBRION">     1</i>
   <i type="int" name="ISIF">     2</i>
   <i name="PSTRESS">      0.00000000</i>
   <i name="EDIFFG">     -0.00000100</i>
   <i type="int" name="NFREE">     0</i>
   <i name="POTIM">      0.50000000</i>
   <i name="SMASS">     -3.00000000</i>
   <i name="SCALEE">      1.00000000</i>
  </separator>
  <separator name="ionic md" >
   <i name="TEBEG">      0.00010000</i>
   <i name="TEEND">      0.00010000</i>
   <i type="int" name="NBLOCK">     1</i>
   <i type="int" name="KBLOCK">   400</i>
   <i type="int" name="NPACO">   256</i>
   <i name="APACO">     16.00000000</i>
  </separator>
  <separator name="symmetry" >
   <i type="int" name="ISYM">     2</i>
   <i name="SYMPREC">      0.00001000</i>
  </separator>
  <separator name="dos" >
   <i type="logical" name="LORBIT"> F  </i>
   <v name="RWIGS">     -1.00000000</v>
   <i type="int" name="NEDOS">   301</i>
   <i name="EMIN">     10.00000000</i>
   <i name="EMAX">    -10.00000000</i>
   <i name="EFERMI">      0.00000000</i>
  </separator>
  <separator name="writing" >
   <i type="int" name="NWRITE">     2</i>
   <i type="logical" name="LWAVE"> F  </i>
   <i type="logical" name="LCHARG"> F  </i>
   <i type="logical" name="LPARD"> F  </i>
   <i type="logical" name="LVTOT"> F  </i>
   <i type="logical" name="LVHAR"> F  </i>
   <i type="logical" name="LELF"> F  </i>
   <i type="logical" name="LOPTICS"> F  </i>
   <v name="STM">      0.00000000      0.00000000      0.00000000      0.00000000      0.00000000      0.00000000      0.00000000</v>
  </separator>
  <separator name="performance" >
   <i type="int" name="NPAR">     4</i>
   <i type="int" name="NSIM">     4</i>
   <i type="int" name="NBLK">    -1</i>
   <i type="logical" name="LPLANE"> T  </i>
   <i type="logical" name="LSCALAPACK"> F  </i>
   <i type="logical" name="LSCAAWARE"> F  </i>
   <i type="logical" name="LSCALU"> F  </i>
   <i type="logical" name="LASYNC"> F  </i>
   <i type="logical" name="LORBITALREAL"> F  </i>
  </separator>
  <separator name="miscellaneous" >
   <i type="int" name="IDIOT">     3</i>
   <i type="logical" name="LMUSIC"> F  </i>
   <v name="POMASS">     12.01100000</v>
   <v name="DARWINR">      0.00000000</v>
   <v name="DARWINV">      1.00000000</v>
   <i type="logical" name="LCORR"> T  </i>
  </separator>
  <i type="logical" name="GGA_COMPAT"> T  </i>
  <i type="logical" name="LBERRY"> F  </i>
  <i type="int" name="ICORELEVEL">     0</i>
  <i type="logical" name="LDAU"> F  </i>
  <i type="int" name="I_CONSTRAINED_M">     0</i>
  <separator name="electronic exchange-correlation" >
   <i type="string" name="GGA">--</i>
   <i type="int" name="VOSKOWN">     0</i>
   <i type="logical" name="LHFCALC"> F  </i>
   <i type="string" name="PRECFOCK"></i>
   <i type="logical" name="LSYMGRAD"> F  </i>
   <i type="logical" name="LHFONE"> F  </i>
   <i type="logical" name="LRHFCALC"> F  </i>
   <i type="logical" name="LTHOMAS"> F  </i>
   <i type="logical" name="LMODELHF"> F  </i>
   <i name="ENCUT4O">     -1.00000000</i>
   <i type="int" name="EXXOEP">     0</i>
   <i type="int" name="FOURORBIT">     0</i>
   <i name="AEXX">      0.00000000</i>
   <i name="HFALPHA">      0.00000000</i>
   <i name="MCALPHA">      0.00000000</i>
   <i name="ALDAX">      1.00000000</i>
   <i name="AGGAX">      1.00000000</i>
   <i name="ALDAC">      1.00000000</i>
   <i name="AGGAC">      1.00000000</i>
   <i type="int" name="NKREDX">     1</i>
   <i type="int" name="NKREDY">     1</i>
   <i type="int" name="NKREDZ">     1</i>
   <i type="logical" name="SHIFTRED"> F  </i>
   <i type="logical" name="ODDONLY"> F  </i>
   <i type="logical" name="EVENONLY"> F  </i>
   <i type="int" name="LMAXFOCK">     0</i>
   <i type="int" name="NMAXFOCKAE">     0</i>
   <i type="logical" name="LFOCKAEDFT"> F  </i>
   <i name="HFSCREEN">      0.00000000</i>
   <i name="HFSCREENC">      0.00000000</i>
   <i type="int" name="NBANDSGWLOW">     0</i>
  </separator>
  <separator name="vdW DFT" >
   <i type="logical" name="LUSE_VDW"> F  </i>
   <i name="Zab_VDW">     -0.84910000</i>
   <i name="PARAM1">      0.12340000</i>
   <i name="PARAM2">      1.00000000</i>
   <i name="PARAM3">      0.00000000</i>
  </separator>
  <separator name="model GW" >
   <i type="int" name="MODEL_GW">     0</i>
   <i name="MODEL_EPS0">     31.62568521</i>
   <i name="MODEL_ALPHA">      1.00000000</i>
  </separator>
  <separator name="linear response parameters" >
   <i type="logical" name="LEPSILON"> F  </i>
   <i type="logical" name="LRPA"> F  </i>
   <i type="logical" name="LNABLA"> F  </i>
   <i type="logical" name="LVEL"> F  </i>
   <i type="int" name="KINTER">     0</i>
   <i name="CSHIFT">      0.10000000</i>
   <i name="OMEGAMAX">     -1.00000000</i>
   <i name="DEG_THRESHOLD">      0.00200000</i>
  </separator>
  <separator name="orbital magnetization" >
   <i type="logical" name="NUCIND"> F  </i>
   <v name="MAGPOS">      0.00000000      0.00000000      0.00000000</v>
   <i type="logical" name="LNICSALL"> T  </i>
   <i type="logical" name="ORBITALMAG"> F  </i>
   <i type="logical" name="LMAGBLOCH"> F  </i>
   <i type="logical" name="LCHIMAG"> F  </i>
   <i type="logical" name="LGAUGE"> T  </i>
   <i type="int" name="MAGATOM">     0</i>
   <v name="MAGDIPOL">      0.00000000      0.00000000      0.00000000</v>
   <v name="AVECCONST">      0.00000000      0.00000000      0.00000000</v>
  </separator>
  <separator name="response functions" >
   <i type="logical" name="LADDER"> F  </i>
   <i type="logical" name="LFXC"> F  </i>
   <i type="logical" name="LHARTREE"> T  </i>
   <i type="int" name="IBSE">     0</i>
   <i type="logical" name="LTCTE"> F  </i>
   <i type="logical" name="LTETE"> F  </i>
   <i type="logical" name="LTRIPLET"> F  </i>
   <i type="logical" name="LFXCEPS"> F  </i>
   <i type="logical" name="LFXHEG"> F  </i>
   <i type="logical" name="L2ORDER"> F  </i>
   <i type="logical" name="LUSEW"> F  </i>
   <i name="ENCUTGW">     -2.00000000</i>
   <i name="ENCUTGWSOFT">     -2.00000000</i>
   <i name="ENCUTLF">     -1.00000000</i>
   <i type="int" name="LMAXMP2">    -1</i>
   <i name="SCISSOR">      0.00000000</i>
   <i type="int" name="NOMEGA">     0</i>
   <i type="int" name="NOMEGAR">     0</i>
   <i type="int" name="NBANDSGW">    -1</i>
   <i type="int" name="NBANDSO">    -1</i>
   <i type="int" name="NBANDSV">    -1</i>
   <i type="int" name="NELM">   100</i>
   <i type="int" name="DIM">     3</i>
   <i type="int" name="ANTIRES">     0</i>
   <i name="OMEGAMAX">    -30.00000000</i>
   <i name="OMEGAMIN">    -30.00000000</i>
   <i name="OMEGATL">   -200.00000000</i>
   <i type="int" name="OMEGAGRID">     0</i>
   <i name="CSHIFT">     -0.10000000</i>
   <i type="logical" name="SELFENERGY"> F  </i>
   <i type="logical" name="LSPECTRAL"> F  </i>
   <i type="logical" name="ODDONLYGW"> F  </i>
   <i type="logical" name="EVENONLYGW"> F  </i>
   <i type="int" name="NKREDLFX">     1</i>
   <i type="int" name="NKREDLFY">     1</i>
   <i type="int" name="NKREDLFZ">     1</i>
   <i type="int" name="MAXMEM">  1800</i>
   <i type="int" name="TELESCOPE">     0</i>
   <i type="int" name="TAUPAR">     1</i>
  </separator>
  <separator name="External order field" >
   <i name="OFIELD_KAPPA">      0.00000000</i>
   <v name="OFIELD_K">      0.00000000      0.00000000      0.00000000</v>
   <i name="OFIELD_Q6_NEAR">      0.00000000</i>
   <i name="OFIELD_Q6_FAR">      0.00000000</i>
   <i name="OFIELD_A">      0.00000000</i>
  </separator>
 </parameters>
 <atominfo>
  <atoms>       4 </atoms>
  <types>       1 </types>
  <array name="atoms" >
   <dimension dim="1">ion</dimension>
   <field type="string">element</field>
   <field type="int">atomtype</field>
   <set>
    <rc><c>C </c><c>   1</c></rc>
    <rc><c>C </c><c>   1</c></rc>
    <rc><c>C </c><c>   1</c></rc>
    <rc><c>C </c><c>   1</c></rc>
   </set>
  </array>
  <array name="atomtypes" >
   <dimension dim="1">type</dimension>
   <field type="int">atomspertype</field>
   <field type="string">element</field>
   <field>mass</field>
   <field>valence</field>
   <field type="string">pseudopotential</field>
   <set>
    <rc><c>   4</c><c>C </c><c>     12.01100000</c><c>      4.00000000</c><c> PAW_PBE C 08Apr2002                    </c></rc>
   </set>
  </array>
 </atominfo>
 <structure name="initialpos" >
  <crystal>
   <varray name="basis" >
    <v>       4.38137907       0.00000000       0.00000000 </v>
    <v>       0.00000000       2.45705428       0.00000000 </v>
    <v>       0.00000000       0.00000000      19.58497877 </v>
   </varray>
   <i name="volume">    210.83790140 </i>
   <varray name="rec_basis" >
    <v>       0.22823864       0.00000000       0.00000000 </v>
    <v>       0.00000000       0.40699142       0.00000000 </v>
    <v>       0.00000000       0.00000000       0.05105954 </v>
   </varray>
  </crystal>
  <varray name="positions" >
   <v>       0.99945869       0.00000000       0.00000000 </v>
   <v>       0.16720798       0.50000000       0.00000000 </v>
   <v>       0.49945869       0.50000000       0.00000000 </v>
   <v>       0.66720798       0.00000000       0.00000000 </v>
  </varray>
 </structure>
 <calculation>
  <scstep>
   <time name="dav">  297.06  297.78</time>
   <time name="total">  299.63  300.39</time>
   <energy>
    <i name="alphaZ">      6.18334092 </i>
    <i name="ewald">   2447.67840440 </i>
    <i name="hartreedc">  -2877.22528091 </i>
    <i name="XCdc">     54.81343058 </i>
    <i name="pawpsdc">    151.32577238 </i>
    <i name="pawaedc">   -155.92769107 </i>
    <i name="eentropy">     -0.00177554 </i>
    <i name="bandstr">    -28.43025407 </i>
    <i name="atom">    588.62352690 </i>
    <i name="e_fr_energy">    187.03947359 </i>
    <i name="e_wo_entrp">    187.04124913 </i>
    <i name="e_0_energy">    187.04036136 </i>
   </energy>
  </scstep>
  <scstep>
   <time name="dav">  447.16  447.72</time>
   <time name="total">  447.16  447.73</time>
   <energy>
    <i name="e_fr_energy">     -8.80185354 </i>
    <i name="e_wo_entrp">     -8.80155072 </i>
    <i name="e_0_energy">     -8.80170213 </i>
   </energy>
  </scstep>
  <scstep>
   <time name="dav">  340.09  340.43</time>
   <time name="total">  370.47  370.84</time>
   <energy>
    <i name="e_fr_energy">    -38.10361132 </i>
    <i name="e_wo_entrp">    -38.10361131 </i>
    <i name="e_0_energy">    -38.10361132 </i>
   </energy>
  </scstep>
  <scstep>
   <time name="diag">   80.45   80.51</time>
   <time name="diis">  339.89  339.98</time>
   <time name="orth">    3.07    3.07</time>
   <time name="total">  456.62  456.82</time>
   <energy>
    <i name="e_fr_energy">    -37.57522538 </i>
    <i name="e_wo_entrp">    -37.57522537 </i>
    <i name="e_0_energy">    -37.57522538 </i>
   </energy>
  </scstep>
  <scstep>
   <time name="diag">   80.38   80.55</time>
   <time name="diis">  338.70  339.03</time>
   <time name="orth">    3.10    3.10</time>
   <time name="total">  454.65  455.79</time>
   <energy>
    <i name="e_fr_energy">    -36.86616706 </i>
    <i name="e_wo_entrp">    -36.86616703 </i>
    <i name="e_0_energy">    -36.86616705 </i>
   </energy>
  </scstep>
  <scstep>
   <time name="diag">   80.42   80.54</time>
   <time name="diis">  370.46  371.16</time>
   <time name="orth">    3.09    3.10</time>
   <time name="total">  487.08  487.98</time>
   <energy>
    <i name="e_fr_energy">    -36.86755679 </i>
    <i name="e_wo_entrp">    -36.86755678 </i>
    <i name="e_0_energy">    -36.86755679 </i>
   </energy>
  </scstep>
  <scstep>
   <time name="diag">   80.49   80.51</time>
   <time name="diis">  339.25  339.33</time>
   <time name="orth">    3.09    3.09</time>
   <time name="total">  455.72  455.87</time>
   <energy>
    <i name="e_fr_energy">    -36.85863935 </i>
    <i name="e_wo_entrp">    -36.85863934 </i>
    <i name="e_0_energy">    -36.85863934 </i>
   </energy>
  </scstep>
  <scstep>
   <time name="diag">   80.47   80.49</time>
   <time name="diis">  338.39  339.84</time>
   <time name="orth">    3.09    3.09</time>
   <time name="total">  454.76  456.28</time>
   <energy>
    <i name="e_fr_energy">    -36.85397544 </i>
    <i name="e_wo_entrp">    -36.85397542 </i>
    <i name="e_0_energy">    -36.85397543 </i>
   </energy>
  </scstep>
  <scstep>
   <time name="diag">   80.50   80.51</time>
   <time name="diis">  326.48  326.57</time>
   <time name="orth">    3.08    3.08</time>
   <time name="total">  442.80  442.94</time>
   <energy>
    <i name="e_fr_energy">    -36.85372151 </i>
    <i name="e_wo_entrp">    -36.85372149 </i>
    <i name="e_0_energy">    -36.85372150 </i>
   </energy>
  </scstep>
  <scstep>
   <time name="diag">   80.49   80.52</time>
   <time name="diis">  327.48  327.59</time>
   <time name="orth">    3.10    3.10</time>
   <time name="total">  444.04  444.23</time>
   <energy>
    <i name="e_fr_energy">    -36.85368629 </i>
    <i name="e_wo_entrp">    -36.85368627 </i>
    <i name="e_0_energy">    -36.85368628 </i>
   </energy>
  </scstep>
  <scstep>
   <time name="diag">   80.46   80.47</time>
   <time name="diis">  328.96  329.04</time>
   <time name="orth">    3.08    3.08</time>
   <time name="total">  445.32  445.60</time>
   <energy>
    <i name="e_fr_energy">    -36.85593718 </i>
    <i name="e_wo_entrp">    -36.85593717 </i>
    <i name="e_0_energy">    -36.85593717 </i>
   </energy>
  </scstep>
  <scstep>
   <time name="diag">   80.48   80.50</time>
   <time name="diis">  329.05  329.12</time>
   <time name="orth">    3.08    3.08</time>
   <time name="total">  445.50  445.63</time>
   <energy>
    <i name="e_fr_energy">    -36.85645753 </i>
    <i name="e_wo_entrp">    -36.85645751 </i>
    <i name="e_0_energy">    -36.85645752 </i>
   </energy>
  </scstep>
  <scstep>
   <time name="diag">   80.49   80.52</time>
   <time name="diis">  335.96  336.04</time>
   <time name="orth">    3.10    3.10</time>
   <time name="total">  452.02  452.65</time>
   <energy>
    <i name="e_fr_energy">    -36.85669496 </i>
    <i name="e_wo_entrp">    -36.85669494 </i>
    <i name="e_0_energy">    -36.85669495 </i>
   </energy>
  </scstep>
  <scstep>
   <time name="diag">   80.47   80.50</time>
   <time name="diis">  333.96  334.06</time>
   <time name="orth">    3.09    3.09</time>
   <time name="total">  450.13  450.27</time>
   <energy>
    <i name="e_fr_energy">    -36.85677718 </i>
    <i name="e_wo_entrp">    -36.85677717 </i>
    <i name="e_0_energy">    -36.85677718 </i>
   </energy>
  </scstep>
  <scstep>
   <time name="diag">   80.46   80.48</time>
   <time name="diis">  327.63  328.03</time>
   <time name="orth">    3.10    3.10</time>
   <time name="total">  444.08  444.59</time>
   <energy>
    <i name="e_fr_energy">    -36.85678993 </i>
    <i name="e_wo_entrp">    -36.85678992 </i>
    <i name="e_0_energy">    -36.85678992 </i>
   </energy>
  </scstep>
  <scstep>
   <time name="diag">   80.47   80.49</time>
   <time name="diis">  327.66  327.74</time>
   <time name="orth">    3.11    3.11</time>
   <time name="total">  444.12  444.42</time>
   <energy>
    <i name="e_fr_energy">    -36.85680287 </i>
    <i name="e_wo_entrp">    -36.85680285 </i>
    <i name="e_0_energy">    -36.85680286 </i>
   </energy>
  </scstep>
  <scstep>
   <time name="diag">   80.40   80.53</time>
   <time name="diis">  328.00  328.15</time>
   <time name="orth">    3.10    3.10</time>
   <time name="total">  444.35  444.67</time>
   <energy>
    <i name="e_fr_energy">    -36.85680887 </i>
    <i name="e_wo_entrp">    -36.85680885 </i>
    <i name="e_0_energy">    -36.85680886 </i>
   </energy>
  </scstep>
  <scstep>
   <time name="diag">   80.52   80.54</time>
   <time name="diis">  332.18  332.89</time>
   <time name="orth">    3.08    3.08</time>
   <time name="total">  448.74  449.50</time>
   <energy>
    <i name="e_fr_energy">    -36.85680984 </i>
    <i name="e_wo_entrp">    -36.85680983 </i>
    <i name="e_0_energy">    -36.85680983 </i>
   </energy>
  </scstep>
  <scstep>
   <time name="diag">   80.58   80.61</time>
   <time name="diis">  299.79  299.86</time>
   <time name="orth">    3.09    3.09</time>
   <time name="total">  416.53  416.78</time>
   <energy>
    <i name="e_fr_energy">    -36.85681058 </i>
    <i name="e_wo_entrp">    -36.85681057 </i>
    <i name="e_0_energy">    -36.85681057 </i>
   </energy>
  </scstep>
  <scstep>
   <time name="diag">   80.55   80.57</time>
   <time name="diis">  258.42  258.50</time>
   <time name="orth">    3.10    3.10</time>
   <time name="total">  375.14  376.20</time>
   <energy>
    <i name="e_fr_energy">    -36.85681061 </i>
    <i name="e_wo_entrp">    -36.85681060 </i>
    <i name="e_0_energy">    -36.85681061 </i>
   </energy>
  </scstep>
  <scstep>
   <time name="diag">   80.55   80.56</time>
   <time name="diis">  245.31  245.80</time>
   <time name="orth">    3.07    3.10</time>
   <time name="total">  362.16  362.93</time>
   <energy>
    <i name="e_fr_energy">    -36.85681062 </i>
    <i name="e_wo_entrp">    -36.85681061 </i>
    <i name="e_0_energy">    -36.85681062 </i>
   </energy>
  </scstep>
  <scstep>
   <time name="diag">   79.80   80.58</time>
   <time name="diis">  224.57  226.56</time>
   <time name="orth">    3.08    3.08</time>
   <time name="total">  309.86  312.70</time>
   <energy>
    <i name="alphaZ">      6.18334092 </i>
    <i name="ewald">   2447.67840440 </i>
    <i name="hartreedc">  -2941.96779086 </i>
    <i name="XCdc">     57.13667614 </i>
    <i name="pawpsdc">    268.71447655 </i>
    <i name="pawaedc">   -273.82549724 </i>
    <i name="eentropy">     -0.00000001 </i>
    <i name="bandstr">   -189.39994742 </i>
    <i name="atom">    588.62352690 </i>
    <i name="e_fr_energy">    -36.85681062 </i>
    <i name="e_wo_entrp">    -36.85681061 </i>
    <i name="e_0_energy">    -36.85681062 </i>
   </energy>
  </scstep>
  <structure>
   <crystal>
    <varray name="basis" >
     <v>       4.38137907       0.00000000       0.00000000 </v>
     <v>       0.00000000       2.45705428       0.00000000 </v>
     <v>       0.00000000       0.00000000      19.58497877 </v>
    </varray>
    <i name="volume">    210.83790140 </i>
    <varray name="rec_basis" >
     <v>       0.22823864       0.00000000       0.00000000 </v>
     <v>       0.00000000       0.40699142       0.00000000 </v>
     <v>       0.00000000       0.00000000       0.05105954 </v>
    </varray>
   </crystal>
   <varray name="positions" >
    <v>       0.99945869       0.00000000       0.00000000 </v>
    <v>       0.16720798       0.50000000       0.00000000 </v>
    <v>       0.49945869       0.50000000       0.00000000 </v>
    <v>       0.66720798       0.00000000       0.00000000 </v>
   </varray>
  </structure>
  <varray name="forces" >
   <v>      -0.00133633      -0.00000000      -0.00000000 </v>
   <v>       0.00133633       0.00000000       0.00000000 </v>
   <v>      -0.00133633       0.00000000      -0.00000000 </v>
   <v>       0.00133633      -0.00000000       0.00000000 </v>
  </varray>
  <varray name="stress" >
   <v>     -41.61964583       0.00000000       0.00000000 </v>
   <v>       0.00000000       0.01129620       0.00000000 </v>
   <v>       0.00000000       0.00000000      -0.01028378 </v>
  </varray>
  <energy>
   <i name="e_fr_energy">    -36.85681062 </i>
   <i name="e_wo_entrp">    -36.85681062 </i>
   <i name="e_0_energy">     -0.00000001 </i>
  </energy>
  <time name="totalsc"> 9451.75 9466.89</time>
 </calculation>
 <calculation>
  <scstep>
   <time name="dav">  311.93  313.79</time>
   <time name="total">  344.52  346.66</time>
   <energy>
    <i name="alphaZ">      6.18334092 </i>
    <i name="ewald">   2447.67701103 </i>
    <i name="hartreedc">  -2941.96717513 </i>
    <i name="XCdc">     57.13663615 </i>
    <i name="pawpsdc">    268.71448298 </i>
    <i name="pawaedc">   -273.82550359 </i>
    <i name="eentropy">     -0.00000002 </i>
    <i name="bandstr">   -189.39912940 </i>
    <i name="atom">    588.62352690 </i>
    <i name="e_fr_energy">    -36.85681015 </i>
    <i name="e_wo_entrp">    -36.85681013 </i>
    <i name="e_0_energy">    -36.85681014 </i>
   </energy>
  </scstep>
  <scstep>
   <time name="diag">   79.90   80.62</time>
   <time name="diis">  333.72  334.92</time>
   <time name="orth">    3.08    3.09</time>
   <time name="total">  449.21  451.18</time>
   <energy>
    <i name="e_fr_energy">    -36.85681018 </i>
    <i name="e_wo_entrp">    -36.85681016 </i>
    <i name="e_0_energy">    -36.85681017 </i>
   </energy>
  </scstep>
  <scstep>
   <time name="diag">   79.67   80.54</time>
   <time name="diis">  335.11  337.62</time>
   <time name="orth">    3.10    3.11</time>
   <time name="total">  451.02  454.48</time>
   <energy>
    <i name="e_fr_energy">    -36.85681015 </i>
    <i name="e_wo_entrp">    -36.85681013 </i>
    <i name="e_0_energy">    -36.85681014 </i>
   </energy>
  </scstep>
  <scstep>
   <time name="diag">   80.45   80.51</time>
   <time name="diis">  346.96  347.21</time>
   <time name="orth">    3.10    3.11</time>
   <time name="total">  463.99  465.44</time>
   <energy>
    <i name="e_fr_energy">    -36.85681015 </i>
    <i name="e_wo_entrp">    -36.85681013 </i>
    <i name="e_0_energy">    -36.85681014 </i>
   </energy>
  </scstep>
  <scstep>
   <time name="diag">   79.83   80.56</time>
   <time name="diis">  266.98  269.62</time>
   <time name="orth">    3.09    3.11</time>
   <time name="total">  382.93  387.45</time>
   <energy>
    <i name="e_fr_energy">    -36.85681015 </i>
    <i name="e_wo_entrp">    -36.85681013 </i>
    <i name="e_0_energy">    -36.85681014 </i>
   </energy>
  </scstep>
  <scstep>
   <time name="diag">   79.86   80.54</time>
   <time name="diis">  219.39  221.74</time>
   <time name="orth">    3.09    3.09</time>
   <time name="total">  335.32  338.84</time>
   <energy>
    <i name="e_fr_energy">    -36.85681015 </i>
    <i name="e_wo_entrp">    -36.85681013 </i>
    <i name="e_0_energy">    -36.85681014 </i>
   </energy>
  </scstep>
  <scstep>
   <time name="diag">   80.27   80.52</time>
   <time name="diis">  221.68  221.88</time>
   <time name="orth">    3.08    3.09</time>
   <time name="total">  307.49  307.97</time>
   <energy>
    <i name="alphaZ">      6.18334092 </i>
    <i name="ewald">   2447.67701103 </i>
    <i name="hartreedc">  -2941.96665794 </i>
    <i name="XCdc">     57.13661406 </i>
    <i name="pawpsdc">    268.71214552 </i>
    <i name="pawaedc">   -273.82315619 </i>
    <i name="eentropy">     -0.00000002 </i>
    <i name="bandstr">   -189.39963443 </i>
    <i name="atom">    588.62352690 </i>
    <i name="e_fr_energy">    -36.85681015 </i>
    <i name="e_wo_entrp">    -36.85681013 </i>
    <i name="e_0_energy">    -36.85681014 </i>
   </energy>
  </scstep>
  <structure>
   <crystal>
    <varray name="basis" >
     <v>       4.38137907       0.00000000       0.00000000 </v>
     <v>       0.00000000       2.45705428       0.00000000 </v>
     <v>       0.00000000       0.00000000      19.58497877 </v>
    </varray>
    <i name="volume">    210.83790140 </i>
    <varray name="rec_basis" >
     <v>       0.22823864       0.00000000       0.00000000 </v>
     <v>       0.00000000       0.40699142       0.00000000 </v>
     <v>       0.00000000       0.00000000       0.05105954 </v>
    </varray>
   </crystal>
   <varray name="positions" >
    <v>       0.99944398      -0.00000000      -0.00000000 </v>
    <v>       0.16722269       0.50000000       0.00000000 </v>
    <v>       0.49944398       0.50000000      -0.00000000 </v>
    <v>       0.66722269      -0.00000000       0.00000000 </v>
   </varray>
  </structure>
  <varray name="forces" >
   <v>       0.00492072      -0.00000000       0.00000000 </v>
   <v>      -0.00492072       0.00000000      -0.00000000 </v>
   <v>       0.00492072       0.00000000       0.00000000 </v>
   <v>      -0.00492072      -0.00000000      -0.00000000 </v>
  </varray>
  <varray name="stress" >
   <v>     -41.60971487       0.00000000       0.00000000 </v>
   <v>       0.00000000      -0.00931885       0.00000000 </v>
   <v>       0.00000000       0.00000000      -0.01018870 </v>
  </varray>
  <energy>
   <i name="e_fr_energy">    -36.85681015 </i>
   <i name="e_wo_entrp">    -36.85681014 </i>
   <i name="e_0_energy">     -0.00000002 </i>
  </energy>
  <time name="totalsc"> 2838.02 2856.51</time>
 </calculation>
 <calculation>
  <scstep>
   <time name="dav">  326.01  328.41</time>
   <time name="total">  359.23  361.94</time>
   <energy>
    <i name="alphaZ">      6.18334092 </i>
    <i name="ewald">   2447.67810633 </i>
    <i name="hartreedc">  -2941.96712481 </i>
    <i name="XCdc">     57.13664516 </i>
    <i name="pawpsdc">    268.71214039 </i>
    <i name="pawaedc">   -273.82315109 </i>
    <i name="eentropy">     -0.00000001 </i>
    <i name="bandstr">   -189.40029444 </i>
    <i name="atom">    588.62352690 </i>
    <i name="e_fr_energy">    -36.85681064 </i>
    <i name="e_wo_entrp">    -36.85681063 </i>
    <i name="e_0_energy">    -36.85681063 </i>
   </energy>
  </scstep>
  <scstep>
   <time name="diag">   80.05   80.55</time>
   <time name="diis">  329.10  331.14</time>
   <time name="orth">    3.10    3.10</time>
   <time name="total">  445.47  448.10</time>
   <energy>
    <i name="e_fr_energy">    -36.85681067 </i>
    <i name="e_wo_entrp">    -36.85681065 </i>
    <i name="e_0_energy">    -36.85681066 </i>
   </energy>
  </scstep>
  <scstep>
   <time name="diag">   80.23   80.57</time>
   <time name="diis">  330.45  332.96</time>
   <time name="orth">    3.11    3.11</time>
   <time name="total">  447.09  450.16</time>
   <energy>
    <i name="e_fr_energy">    -36.85681066 </i>
    <i name="e_wo_entrp">    -36.85681065 </i>
    <i name="e_0_energy">    -36.85681065 </i>
   </energy>
  </scstep>
  <scstep>
   <time name="diag">   80.34   80.61</time>
   <time name="diis">  337.79  341.03</time>
   <time name="orth">    3.07    3.10</time>
   <time name="total">  454.06  457.94</time>
   <energy>
    <i name="e_fr_energy">    -36.85681066 </i>
    <i name="e_wo_entrp">    -36.85681064 </i>
    <i name="e_0_energy">    -36.85681065 </i>
   </energy>
  </scstep>
  <scstep>
   <time name="diag">   80.06   80.60</time>
   <time name="diis">  245.32  246.47</time>
   <time name="orth">    3.09    3.09</time>
   <time name="total">  361.99  364.30</time>
   <energy>
    <i name="e_fr_energy">    -36.85681066 </i>
    <i name="e_wo_entrp">    -36.85681064 </i>
    <i name="e_0_energy">    -36.85681065 </i>
   </energy>
  </scstep>
  <scstep>
   <time name="diag">   79.91   80.58</time>
   <time name="diis">  223.60  223.86</time>
   <time name="orth">    3.10    3.11</time>
   <time name="total">  309.05  310.01</time>
   <energy>
    <i name="alphaZ">      6.18334092 </i>
    <i name="ewald">   2447.67810633 </i>
    <i name="hartreedc">  -2941.96751315 </i>
    <i name="XCdc">     57.13666291 </i>
    <i name="pawpsdc">    268.71399816 </i>
    <i name="pawaedc">   -273.82501697 </i>
    <i name="eentropy">     -0.00000001 </i>
    <i name="bandstr">   -189.39991576 </i>
    <i name="atom">    588.62352690 </i>
    <i name="e_fr_energy">    -36.85681066 </i>
    <i name="e_wo_entrp">    -36.85681064 </i>
    <i name="e_0_energy">    -36.85681065 </i>
   </energy>
  </scstep>
  <structure>
   <crystal>
    <varray name="basis" >
     <v>       4.38137907       0.00000000       0.00000000 </v>
     <v>       0.00000000       2.45705428       0.00000000 </v>
     <v>       0.00000000       0.00000000      19.58497877 </v>
    </varray>
    <i name="volume">    210.83790140 </i>
    <varray name="rec_basis" >
     <v>       0.22823864       0.00000000       0.00000000 </v>
     <v>       0.00000000       0.40699142       0.00000000 </v>
     <v>       0.00000000       0.00000000       0.05105954 </v>
    </varray>
   </crystal>
   <varray name="positions" >
    <v>       0.99945555      -0.00000000       0.00000000 </v>
    <v>       0.16721112       0.50000000      -0.00000000 </v>
    <v>       0.49945555       0.50000000       0.00000000 </v>
    <v>       0.66721112      -0.00000000      -0.00000000 </v>
   </varray>
  </structure>
  <varray name="forces" >
   <v>       0.00001045       0.00000000      -0.00000000 </v>
   <v>      -0.00001045       0.00000000       0.00000000 </v>
   <v>       0.00001045       0.00000000      -0.00000000 </v>
   <v>      -0.00001045      -0.00000000       0.00000000 </v>
  </varray>
  <varray name="stress" >
   <v>     -41.61737930       0.00000000       0.00000000 </v>
   <v>       0.00000000       0.00677283       0.00000000 </v>
   <v>       0.00000000       0.00000000      -0.01005823 </v>
  </varray>
  <energy>
   <i name="e_fr_energy">    -36.85681066 </i>
   <i name="e_wo_entrp">    -36.85681065 </i>
   <i name="e_0_energy">     -0.00000001 </i>
  </energy>
  <time name="totalsc"> 2479.50 2495.28</time>
 </calculation>
 <calculation>
  <scstep>
   <time name="dav">  268.78  269.62</time>
   <time name="total">  301.82  302.71</time>
   <energy>
    <i name="alphaZ">      6.18334092 </i>
    <i name="ewald">   2447.67810867 </i>
    <i name="hartreedc">  -2941.96752790 </i>
    <i name="XCdc">     57.13666336 </i>
    <i name="pawpsdc">    268.71400432 </i>
    <i name="pawaedc">   -273.82502325 </i>
    <i name="eentropy">     -0.00000001 </i>
    <i name="bandstr">   -189.39990368 </i>
    <i name="atom">    588.62352690 </i>
    <i name="e_fr_energy">    -36.85681066 </i>
    <i name="e_wo_entrp">    -36.85681064 </i>
    <i name="e_0_energy">    -36.85681065 </i>
   </energy>
  </scstep>
  <scstep>
   <time name="diag">   80.09   80.47</time>
   <time name="diis">  195.74  197.10</time>
   <time name="orth">    3.08    3.08</time>
   <time name="total">  312.19  314.12</time>
   <energy>
    <i name="e_fr_energy">    -36.85681066 </i>
    <i name="e_wo_entrp">    -36.85681064 </i>
    <i name="e_0_energy">    -36.85681065 </i>
   </energy>
  </scstep>
  <scstep>
   <time name="diag">   80.37   80.53</time>
   <time name="diis">  194.01  194.47</time>
   <time name="orth">    3.11    3.11</time>
   <time name="total">  310.54  311.24</time>
   <energy>
    <i name="e_fr_energy">    -36.85681066 </i>
    <i name="e_wo_entrp">    -36.85681064 </i>
    <i name="e_0_energy">    -36.85681065 </i>
   </energy>
  </scstep>
  <scstep>
   <time name="diag">   79.73   80.48</time>
   <time name="diis">  178.26  179.76</time>
   <time name="orth">    3.10    3.11</time>
   <time name="total">  293.97  296.48</time>
   <energy>
    <i name="e_fr_energy">    -36.85681066 </i>
    <i name="e_wo_entrp">    -36.85681064 </i>
    <i name="e_0_energy">    -36.85681065 </i>
   </energy>
  </scstep>
  <scstep>
   <time name="diag">   80.11   80.52</time>
   <time name="diis">  174.76  175.38</time>
   <time name="orth">    3.09    3.11</time>
   <time name="total">  290.51  293.58</time>
   <energy>
    <i name="e_fr_energy">    -36.85681066 </i>
    <i name="e_wo_entrp">    -36.85681064 </i>
    <i name="e_0_energy">    -36.85681065 </i>
   </energy>
  </scstep>
  <scstep>
   <time name="diag">   79.82   80.44</time>
   <time name="diis">  165.34  166.75</time>
   <time name="orth">    3.08    3.08</time>
   <time name="total">  250.6422548.68</time>
   <energy>
    <i name="alphaZ">      6.18334092 </i>
    <i name="ewald">   2447.67810867 </i>
    <i name="hartreedc">  -2941.96755281 </i>
    <i name="XCdc">     57.13666352 </i>
    <i name="pawpsdc">    268.71400836 </i>
    <i name="pawaedc">   -273.82502723 </i>
    <i name="eentropy">     -0.00000001 </i>
    <i name="bandstr">   -189.39987898 </i>
    <i name="atom">    588.62352690 </i>
    <i name="e_fr_energy">    -36.85681066 </i>
    <i name="e_wo_entrp">    -36.85681064 </i>
    <i name="e_0_energy">    -36.85681065 </i>
   </energy>
  </scstep>
  <structure>
   <crystal>
    <varray name="basis" >
     <v>       4.38137907       0.00000000       0.00000000 </v>
     <v>       0.00000000       2.45705428       0.00000000 </v>
     <v>       0.00000000       0.00000000      19.58497877 </v>
    </varray>
    <i name="volume">    210.83790140 </i>
    <varray name="rec_basis" >
     <v>       0.22823864       0.00000000       0.00000000 </v>
     <v>       0.00000000       0.40699142       0.00000000 </v>
     <v>       0.00000000       0.00000000       0.05105954 </v>
    </varray>
   </crystal>
   <varray name="positions" >
    <v>       0.99945557      -0.00000000      -0.00000000 </v>
    <v>       0.16721109       0.50000000       0.00000000 </v>
    <v>       0.49945557       0.50000000      -0.00000000 </v>
    <v>       0.66721109      -0.00000000       0.00000000 </v>
   </varray>
  </structure>
  <varray name="forces" >
   <v>      -0.00001315      -0.00000000       0.00000000 </v>
   <v>       0.00001315       0.00000000      -0.00000000 </v>
   <v>      -0.00001315       0.00000000       0.00000000 </v>
   <v>       0.00001315      -0.00000000      -0.00000000 </v>
  </varray>
  <varray name="stress" >
   <v>     -41.61754922       0.00000000       0.00000000 </v>
   <v>       0.00000000       0.00695854       0.00000000 </v>
   <v>       0.00000000       0.00000000      -0.01012026 </v>
  </varray>
  <energy>
   <i name="e_fr_energy">    -36.85681066 </i>
   <i name="e_wo_entrp">    -36.85681065 </i>
   <i name="e_0_energy">     -0.00000001 </i>
  </energy>
  <time name="totalsc"> 1858.7224166.80</time>
 </calculation>
 <calculation>
  <scstep>
   <time name="dav">  253.00  254.55</time>
   <time name="total">  284.81  286.55</time>
   <energy>
    <i name="alphaZ">      6.18334092 </i>
    <i name="ewald">   2447.67810737 </i>
    <i name="hartreedc">  -2941.96755373 </i>
    <i name="XCdc">     57.13666349 </i>
    <i name="pawpsdc">    268.71400826 </i>
    <i name="pawaedc">   -273.82502712 </i>
    <i name="eentropy">     -0.00000001 </i>
    <i name="bandstr">   -189.39987673 </i>
    <i name="atom">    588.62352690 </i>
    <i name="e_fr_energy">    -36.85681066 </i>
    <i name="e_wo_entrp">    -36.85681064 </i>
    <i name="e_0_energy">    -36.85681065 </i>
   </energy>
  </scstep>
  <scstep>
   <time name="diag">   80.16   80.32</time>
   <time name="diis">  149.98  150.15</time>
   <time name="orth">    3.10    3.10</time>
   <time name="total">  265.44  265.80</time>
   <energy>
    <i name="e_fr_energy">    -36.85681066 </i>
    <i name="e_wo_entrp">    -36.85681064 </i>
    <i name="e_0_energy">    -36.85681065 </i>
   </energy>
  </scstep>
  <scstep>
   <time name="diag">   80.03   80.36</time>
   <time name="diis">  145.67  147.32</time>
   <time name="orth">    3.08    3.10</time>
   <time name="total">  260.45  262.71</time>
   <energy>
    <i name="e_fr_energy">    -36.85681066 </i>
    <i name="e_wo_entrp">    -36.85681064 </i>
    <i name="e_0_energy">    -36.85681065 </i>
   </energy>
  </scstep>
  <scstep>
   <time name="diag">   79.63   80.38</time>
   <time name="diis">  145.11  146.56</time>
   <time name="orth">    3.10    3.12</time>
   <time name="total">  259.68  262.33</time>
   <energy>
    <i name="e_fr_energy">    -36.85681066 </i>
    <i name="e_wo_entrp">    -36.85681064 </i>
    <i name="e_0_energy">    -36.85681065 </i>
   </energy>
  </scstep>
  <scstep>
   <time name="diag">   79.69   80.33</time>
   <time name="diis">  144.67  145.62</time>
   <time name="orth">    3.08    3.08</time>
   <time name="total">  259.44  261.55</time>
   <energy>
    <i name="e_fr_energy">    -36.85681066 </i>
    <i name="e_wo_entrp">    -36.85681064 </i>
    <i name="e_0_energy">    -36.85681065 </i>
   </energy>
  </scstep>
  <scstep>
   <time name="diag">   80.00   80.30</time>
   <time name="diis">  143.53  144.68</time>
   <time name="orth">    3.08    3.08</time>
   <time name="total">  258.92  261.06</time>
   <energy>
    <i name="e_fr_energy">    -36.85681066 </i>
    <i name="e_wo_entrp">    -36.85681064 </i>
    <i name="e_0_energy">    -36.85681065 </i>
   </energy>
  </scstep>
  <scstep>
   <time name="diag">   79.73   80.41</time>
   <time name="diis">  142.94  144.34</time>
   <time name="orth">    3.07    3.12</time>
   <time name="total">  258.25  260.77</time>
   <energy>
    <i name="e_fr_energy">    -36.85681066 </i>
    <i name="e_wo_entrp">    -36.85681064 </i>
    <i name="e_0_energy">    -36.85681065 </i>
   </energy>
  </scstep>
  <scstep>
   <time name="diag">   79.53   80.46</time>
   <time name="diis">  137.25  138.79</time>
   <time name="orth">    3.07    3.10</time>
   <time name="total">  222.34  224.85</time>
   <energy>
    <i name="alphaZ">      6.18334092 </i>
    <i name="ewald">   2447.67810737 </i>
    <i name="hartreedc">  -2941.96755119 </i>
    <i name="XCdc">     57.13666339 </i>
    <i name="pawpsdc">    268.71400590 </i>
    <i name="pawaedc">   -273.82502474 </i>
    <i name="eentropy">     -0.00000001 </i>
    <i name="bandstr">   -189.39987919 </i>
    <i name="atom">    588.62352690 </i>
    <i name="e_fr_energy">    -36.85681066 </i>
    <i name="e_wo_entrp">    -36.85681064 </i>
    <i name="e_0_energy">    -36.85681065 </i>
   </energy>
  </scstep>
  <structure>
   <crystal>
    <varray name="basis" >
     <v>       4.38137907       0.00000000       0.00000000 </v>
     <v>       0.00000000       2.45705428       0.00000000 </v>
     <v>       0.00000000       0.00000000      19.58497877 </v>
    </varray>
    <i name="volume">    210.83790140 </i>
    <varray name="rec_basis" >
     <v>       0.22823864       0.00000000       0.00000000 </v>
     <v>       0.00000000       0.40699142       0.00000000 </v>
     <v>       0.00000000       0.00000000       0.05105954 </v>
    </varray>
   </crystal>
   <varray name="positions" >
    <v>       0.99945556      -0.00000000      -0.00000000 </v>
    <v>       0.16721111       0.50000000       0.00000000 </v>
    <v>       0.49945556       0.50000000      -0.00000000 </v>
    <v>       0.66721111      -0.00000000       0.00000000 </v>
   </varray>
  </structure>
  <varray name="forces" >
   <v>      -0.00000126      -0.00000000      -0.00000000 </v>
   <v>       0.00000126      -0.00000000       0.00000000 </v>
   <v>      -0.00000126       0.00000000      -0.00000000 </v>
   <v>       0.00000126       0.00000000       0.00000000 </v>
  </varray>
  <varray name="stress" >
   <v>     -41.61750774       0.00000000       0.00000000 </v>
   <v>       0.00000000       0.00690844       0.00000000 </v>
   <v>       0.00000000       0.00000000      -0.01013462 </v>
  </varray>
  <energy>
   <i name="e_fr_energy">    -36.85681066 </i>
   <i name="e_wo_entrp">    -36.85681065 </i>
   <i name="e_0_energy">     -0.00000001 </i>
  </energy>
  <time name="totalsc"> 2172.72 2190.38</time>
 </calculation>
 <calculation>
  <scstep>
   <time name="dav">  258.83  259.50</time>
   <time name="total">  291.75  292.55</time>
   <energy>
    <i name="alphaZ">      6.18334092 </i>
    <i name="ewald">   2447.67810723 </i>
    <i name="hartreedc">  -2941.96755114 </i>
    <i name="XCdc">     57.13666339 </i>
    <i name="pawpsdc">    268.71400590 </i>
    <i name="pawaedc">   -273.82502475 </i>
    <i name="eentropy">     -0.00000001 </i>
    <i name="bandstr">   -189.39987910 </i>
    <i name="atom">    588.62352690 </i>
    <i name="e_fr_energy">    -36.85681066 </i>
    <i name="e_wo_entrp">    -36.85681064 </i>
    <i name="e_0_energy">    -36.85681065 </i>
   </energy>
  </scstep>
  <scstep>
   <time name="diag">   80.13   80.39</time>
   <time name="diis">  132.61  132.76</time>
   <time name="orth">    3.18    3.20</time>
   <time name="total">  249.15  249.63</time>
   <energy>
    <i name="e_fr_energy">    -36.85681066 </i>
    <i name="e_wo_entrp">    -36.85681064 </i>
    <i name="e_0_energy">    -36.85681065 </i>
   </energy>
  </scstep>
  <scstep>
   <time name="diag">   80.08   80.36</time>
   <time name="diis">  130.86  131.79</time>
   <time name="orth">    3.10    3.11</time>
   <time name="total">  247.27  248.79</time>
   <energy>
    <i name="e_fr_energy">    -36.85681066 </i>
    <i name="e_wo_entrp">    -36.85681064 </i>
    <i name="e_0_energy">    -36.85681065 </i>
   </energy>
  </scstep>
  <scstep>
   <time name="diag">   80.19   80.39</time>
   <time name="diis">  123.25  124.24</time>
   <time name="orth">    3.10    3.11</time>
   <time name="total">  239.19  240.78</time>
   <energy>
    <i name="e_fr_energy">    -36.85681066 </i>
    <i name="e_wo_entrp">    -36.85681064 </i>
    <i name="e_0_energy">    -36.85681065 </i>
   </energy>
  </scstep>
  <scstep>
   <time name="diag">   79.99   80.40</time>
   <time name="diis">  120.37  120.58</time>
   <time name="orth">    3.08    3.08</time>
   <time name="total">  205.88  206.59</time>
   <energy>
    <i name="alphaZ">      6.18334092 </i>
    <i name="ewald">   2447.67810723 </i>
    <i name="hartreedc">  -2941.96755175 </i>
    <i name="XCdc">     57.13666341 </i>
    <i name="pawpsdc">    268.71400606 </i>
    <i name="pawaedc">   -273.82502490 </i>
    <i name="eentropy">     -0.00000001 </i>
    <i name="bandstr">   -189.39987851 </i>
    <i name="atom">    588.62352690 </i>
    <i name="e_fr_energy">    -36.85681066 </i>
    <i name="e_wo_entrp">    -36.85681064 </i>
    <i name="e_0_energy">    -36.85681065 </i>
   </energy>
  </scstep>
  <structure>
   <crystal>
    <varray name="basis" >
     <v>       4.38137907       0.00000000       0.00000000 </v>
     <v>       0.00000000       2.45705428       0.00000000 </v>
     <v>       0.00000000       0.00000000      19.58497877 </v>
    </varray>
    <i name="volume">    210.83790140 </i>
    <varray name="rec_basis" >
     <v>       0.22823864       0.00000000       0.00000000 </v>
     <v>       0.00000000       0.40699142       0.00000000 </v>
     <v>       0.00000000       0.00000000       0.05105954 </v>
    </varray>
   </crystal>
   <varray name="positions" >
    <v>       0.99945556      -0.00000000      -0.00000000 </v>
    <v>       0.16721111       0.50000000       0.00000000 </v>
    <v>       0.49945556       0.50000000      -0.00000000 </v>
    <v>       0.66721111      -0.00000000       0.00000000 </v>
   </varray>
  </structure>
  <varray name="forces" >
   <v>      -0.00000138      -0.00000000      -0.00000000 </v>
   <v>       0.00000138       0.00000000       0.00000000 </v>
   <v>      -0.00000138      -0.00000000      -0.00000000 </v>
   <v>       0.00000138       0.00000000       0.00000000 </v>
  </varray>
  <varray name="stress" >
   <v>     -41.61751226       0.00000000       0.00000000 </v>
   <v>       0.00000000       0.00691092       0.00000000 </v>
   <v>       0.00000000       0.00000000      -0.01012746 </v>
  </varray>
  <energy>
   <i name="e_fr_energy">    -36.85681066 </i>
   <i name="e_wo_entrp">    -36.85681065 </i>
   <i name="e_0_energy">     -0.00000001 </i>
  </energy>
  <time name="totalsc"> 1335.60 1341.11</time>
 </calculation>
 <calculation>
  <scstep>
   <time name="dav">  230.81  231.58</time>
   <time name="total">  263.94  264.78</time>
   <energy>
    <i name="alphaZ">      6.18334092 </i>
    <i name="ewald">   2447.67810878 </i>
    <i name="hartreedc">  -2941.96755246 </i>
    <i name="XCdc">     57.13666345 </i>
    <i name="pawpsdc">    268.71400606 </i>
    <i name="pawaedc">   -273.82502490 </i>
    <i name="eentropy">     -0.00000001 </i>
    <i name="bandstr">   -189.39987940 </i>
    <i name="atom">    588.62352690 </i>
    <i name="e_fr_energy">    -36.85681066 </i>
    <i name="e_wo_entrp">    -36.85681064 </i>
    <i name="e_0_energy">    -36.85681065 </i>
   </energy>
  </scstep>
  <scstep>
   <time name="diag">   79.86   80.39</time>
   <time name="diis">  124.98  126.45</time>
   <time name="orth">    3.08    3.08</time>
   <time name="total">  240.87  243.20</time>
   <energy>
    <i name="e_fr_energy">    -36.85681066 </i>
    <i name="e_wo_entrp">    -36.85681064 </i>
    <i name="e_0_energy">    -36.85681065 </i>
   </energy>
  </scstep>
  <scstep>
   <time name="diag">   80.40   80.42</time>
   <time name="diis">  119.95  119.97</time>
   <time name="orth">    3.10    3.10</time>
   <time name="total">  236.78  236.86</time>
   <energy>
    <i name="e_fr_energy">    -36.85681066 </i>
    <i name="e_wo_entrp">    -36.85681064 </i>
    <i name="e_0_energy">    -36.85681065 </i>
   </energy>
  </scstep>
  <scstep>
   <time name="diag">   80.44   80.46</time>
   <time name="diis">  113.89  113.91</time>
   <time name="orth">    3.09    3.09</time>
   <time name="total">  230.58  230.63</time>
   <energy>
    <i name="e_fr_energy">    -36.85681066 </i>
    <i name="e_wo_entrp">    -36.85681064 </i>
    <i name="e_0_energy">    -36.85681065 </i>
   </energy>
  </scstep>
  <scstep>
   <time name="diag">   80.40   80.41</time>
   <time name="diis">  113.28  113.30</time>
   <time name="orth">    3.10    3.10</time>
   <time name="total">  199.23  199.38</time>
   <energy>
    <i name="alphaZ">      6.18334092 </i>
    <i name="ewald">   2447.67810878 </i>
    <i name="hartreedc">  -2941.96755268 </i>
    <i name="XCdc">     57.13666347 </i>
    <i name="pawpsdc">    268.71400710 </i>
    <i name="pawaedc">   -273.82502596 </i>
    <i name="eentropy">     -0.00000001 </i>
    <i name="bandstr">   -189.39987918 </i>
    <i name="atom">    588.62352690 </i>
    <i name="e_fr_energy">    -36.85681066 </i>
    <i name="e_wo_entrp">    -36.85681064 </i>
    <i name="e_0_energy">    -36.85681065 </i>
   </energy>
  </scstep>
  <structure>
   <crystal>
    <varray name="basis" >
     <v>       4.38137907       0.00000000       0.00000000 </v>
     <v>       0.00000000       2.45705428       0.00000000 </v>
     <v>       0.00000000       0.00000000      19.58497877 </v>
    </varray>
    <i name="volume">    210.83790140 </i>
    <varray name="rec_basis" >
     <v>       0.22823864       0.00000000       0.00000000 </v>
     <v>       0.00000000       0.40699142       0.00000000 </v>
     <v>       0.00000000       0.00000000       0.05105954 </v>
    </varray>
   </crystal>
   <varray name="positions" >
    <v>       0.99945557      -0.00000000       0.00000000 </v>
    <v>       0.16721109       0.50000000      -0.00000000 </v>
    <v>       0.49945557       0.50000000       0.00000000 </v>
    <v>       0.66721109      -0.00000000      -0.00000000 </v>
   </varray>
  </structure>
  <varray name="forces" >
   <v>      -0.00000970      -0.00000000       0.00000000 </v>
   <v>       0.00000970       0.00000000      -0.00000000 </v>
   <v>      -0.00000970       0.00000000       0.00000000 </v>
   <v>       0.00000970      -0.00000000      -0.00000000 </v>
  </varray>
  <varray name="stress" >
   <v>     -41.61751924       0.00000000       0.00000000 </v>
   <v>       0.00000000       0.00693808       0.00000000 </v>
   <v>       0.00000000       0.00000000      -0.01013237 </v>
  </varray>
  <energy>
   <i name="e_fr_energy">    -36.85681066 </i>
   <i name="e_wo_entrp">    -36.85681065 </i>
   <i name="e_0_energy">     -0.00000001 </i>
  </energy>
  <time name="totalsc"> 1274.30 1278.38</time>
 </calculation>
 <calculation>
  <scstep>
   <time name="dav">  215.54  216.49</time>
   <time name="total">  248.74  249.89</time>
   <energy>
    <i name="alphaZ">      6.18334092 </i>
    <i name="ewald">   2447.67810697 </i>
    <i name="hartreedc">  -2941.96755189 </i>
    <i name="XCdc">     57.13666342 </i>
    <i name="pawpsdc">    268.71400711 </i>
    <i name="pawaedc">   -273.82502597 </i>
    <i name="eentropy">     -0.00000001 </i>
    <i name="bandstr">   -189.39987812 </i>
    <i name="atom">    588.62352690 </i>
    <i name="e_fr_energy">    -36.85681066 </i>
    <i name="e_wo_entrp">    -36.85681064 </i>
    <i name="e_0_energy">    -36.85681065 </i>
   </energy>
  </scstep>
  <scstep>
   <time name="diag">   80.12   80.44</time>
   <time name="diis">  140.78  140.80</time>
   <time name="orth">    3.10    3.10</time>
   <time name="total">  257.00  257.39</time>
   <energy>
    <i name="e_fr_energy">    -36.85681066 </i>
    <i name="e_wo_entrp">    -36.85681064 </i>
    <i name="e_0_energy">    -36.85681065 </i>
   </energy>
  </scstep>
  <scstep>
   <time name="diag">   80.36   80.38</time>
   <time name="diis">  130.00  130.06</time>
   <time name="orth">    3.10    3.10</time>
   <time name="total">  246.67  246.79</time>
   <energy>
    <i name="e_fr_energy">    -36.85681066 </i>
    <i name="e_wo_entrp">    -36.85681064 </i>
    <i name="e_0_energy">    -36.85681065 </i>
   </energy>
  </scstep>
  <scstep>
   <time name="diag">   80.32   80.37</time>
   <time name="diis">  123.83  123.94</time>
   <time name="orth">    3.08    3.08</time>
   <time name="total">  240.54  240.73</time>
   <energy>
    <i name="e_fr_energy">    -36.85681066 </i>
    <i name="e_wo_entrp">    -36.85681064 </i>
    <i name="e_0_energy">    -36.85681065 </i>
   </energy>
  </scstep>
  <scstep>
   <time name="diag">   80.36   80.43</time>
   <time name="diis">  115.31  115.33</time>
   <time name="orth">    3.10    3.10</time>
   <time name="total">  201.21  201.35</time>
   <energy>
    <i name="alphaZ">      6.18334092 </i>
    <i name="ewald">   2447.67810697 </i>
    <i name="hartreedc">  -2941.96755125 </i>
    <i name="XCdc">     57.13666338 </i>
    <i name="pawpsdc">    268.71400548 </i>
    <i name="pawaedc">   -273.82502432 </i>
    <i name="eentropy">     -0.00000001 </i>
    <i name="bandstr">   -189.39987874 </i>
    <i name="atom">    588.62352690 </i>
    <i name="e_fr_energy">    -36.85681066 </i>
    <i name="e_wo_entrp">    -36.85681064 </i>
    <i name="e_0_energy">    -36.85681065 </i>
   </energy>
  </scstep>
  <structure>
   <crystal>
    <varray name="basis" >
     <v>       4.38137907       0.00000000       0.00000000 </v>
     <v>       0.00000000       2.45705428       0.00000000 </v>
     <v>       0.00000000       0.00000000      19.58497877 </v>
    </varray>
    <i name="volume">    210.83790140 </i>
    <varray name="rec_basis" >
     <v>       0.22823864       0.00000000       0.00000000 </v>
     <v>       0.00000000       0.40699142       0.00000000 </v>
     <v>       0.00000000       0.00000000       0.05105954 </v>
    </varray>
   </crystal>
   <varray name="positions" >
    <v>       0.99945556      -0.00000000      -0.00000000 </v>
    <v>       0.16721111       0.50000000       0.00000000 </v>
    <v>       0.49945556       0.50000000      -0.00000000 </v>
    <v>       0.66721111      -0.00000000       0.00000000 </v>
   </varray>
  </structure>
  <varray name="forces" >
   <v>       0.00000057      -0.00000000       0.00000000 </v>
   <v>      -0.00000057       0.00000000      -0.00000000 </v>
   <v>       0.00000057       0.00000000       0.00000000 </v>
   <v>      -0.00000057      -0.00000000      -0.00000000 </v>
  </varray>
  <varray name="stress" >
   <v>     -41.61751350       0.00000000       0.00000000 </v>
   <v>       0.00000000       0.00690640       0.00000000 </v>
   <v>       0.00000000       0.00000000      -0.01013109 </v>
  </varray>
  <energy>
   <i name="e_fr_energy">    -36.85681066 </i>
   <i name="e_wo_entrp">    -36.85681065 </i>
   <i name="e_0_energy">     -0.00000001 </i>
  </energy>
  <time name="totalsc"> 1291.30 1293.58</time>
  <eigenvalues>
   <array>
    <dimension dim="1">band</dimension>
    <dimension dim="2">kpoint</dimension>
[...]
       <r>   -9.3575    1.0000 </r>
       <r>   -5.5129    1.0000 </r>
       <r>   -5.5129    1.0000 </r>
       <r>   -0.4936    0.0000 </r>
       <r>   -0.4936    0.0000 </r>
       <r>    4.1322    0.0000 </r>
       <r>    4.1322    0.0000 </r>
      </set>
      <set comment="kpoint 209">
       <r>  -18.6203    1.0000 </r>
       <r>  -16.8035    1.0000 </r>
       <r>  -14.2172    1.0000 </r>
       <r>  -12.5500    1.0000 </r>
       <r>  -12.2973    1.0000 </r>
       <r>  -10.7849    1.0000 </r>
       <r>   -6.2743    1.0000 </r>
       <r>   -4.3975    1.0000 </r>
       <r>   -1.2064    0.0000 </r>
       <r>    0.9525    0.0000 </r>
       <r>    5.3155    0.0000 </r>
       <r>    6.0849    0.0000 </r>
      </set>
      <set comment="kpoint 210">
       <r>  -18.6111    1.0000 </r>
       <r>  -16.7964    1.0000 </r>
       <r>  -14.2839    1.0000 </r>
       <r>  -12.6127    1.0000 </r>
       <r>  -12.2229    1.0000 </r>
       <r>  -10.7246    1.0000 </r>
       <r>   -6.2660    1.0000 </r>
       <r>   -4.4015    1.0000 </r>
       <r>   -1.2128    0.0000 </r>
       <r>    0.9299    0.0000 </r>
       <r>    5.3284    0.0000 </r>
       <r>    6.1000    0.0000 </r>
      </set>
      <set comment="kpoint 211">
       <r>  -18.5835    1.0000 </r>
       <r>  -16.7753    1.0000 </r>
       <r>  -14.4579    1.0000 </r>
       <r>  -12.7787    1.0000 </r>
       <r>  -12.0259    1.0000 </r>
       <r>  -10.5668    1.0000 </r>
       <r>   -6.2412    1.0000 </r>
       <r>   -4.4140    1.0000 </r>
       <r>   -1.2302    0.0000 </r>
       <r>    0.8637    0.0000 </r>
       <r>    5.3669    0.0000 </r>
       <r>    6.1451    0.0000 </r>
      </set>
      <set comment="kpoint 212">
       <r>  -18.5376    1.0000 </r>
       <r>  -16.7418    1.0000 </r>
       <r>  -14.6912    1.0000 </r>
       <r>  -13.0069    1.0000 </r>
       <r>  -11.7542    1.0000 </r>
       <r>  -10.3544    1.0000 </r>
       <r>   -6.2002    1.0000 </r>
       <r>   -4.4363    1.0000 </r>
       <r>   -1.2547    0.0000 </r>
       <r>    0.7581    0.0000 </r>
       <r>    5.4301    0.0000 </r>
       <r>    6.2191    0.0000 </r>
      </set>
      <set comment="kpoint 213">
       <r>  -18.4734    1.0000 </r>
       <r>  -16.6986    1.0000 </r>
       <r>  -14.9469    1.0000 </r>
       <r>  -13.2662    1.0000 </r>
       <r>  -11.4438    1.0000 </r>
       <r>  -10.1215    1.0000 </r>
       <r>   -6.1434    1.0000 </r>
       <r>   -4.4702    1.0000 </r>
       <r>   -1.2799    0.0000 </r>
       <r>    0.6194    0.0000 </r>
       <r>    5.5113    0.0000 </r>
       <r>    5.8655    0.0000 </r>
      </set>
      <set comment="kpoint 214">
       <r>  -18.3913    1.0000 </r>
       <r>  -16.6519    1.0000 </r>
       <r>  -15.1999    1.0000 </r>
       <r>  -13.5386    1.0000 </r>
       <r>  -11.1169    1.0000 </r>
       <r>   -9.8908    1.0000 </r>
       <r>   -6.0714    1.0000 </r>
       <r>   -4.5179    1.0000 </r>
       <r>   -1.2986    0.0000 </r>
       <r>    0.4551    0.0000 </r>
       <r>    5.3458    0.0000 </r>
       <r>    5.6638    0.0000 </r>
      </set>
      <set comment="kpoint 215">
       <r>  -18.2915    1.0000 </r>
       <r>  -16.6138    1.0000 </r>
       <r>  -15.4276    1.0000 </r>
       <r>  -13.8136    1.0000 </r>
       <r>  -10.7882    1.0000 </r>
       <r>   -9.6780    1.0000 </r>
       <r>   -5.9853    1.0000 </r>
       <r>   -4.5811    1.0000 </r>
       <r>   -1.3038    0.0000 </r>
       <r>    0.2726    0.0000 </r>
       <r>    4.9290    0.0000 </r>
       <r>    5.7953    0.0000 </r>
      </set>
      <set comment="kpoint 216">
       <r>  -18.1743    1.0000 </r>
       <r>  -16.6078    1.0000 </r>
       <r>  -15.6004    1.0000 </r>
       <r>  -14.0846    1.0000 </r>
       <r>  -10.4686    1.0000 </r>
       <r>   -9.4955    1.0000 </r>
       <r>   -5.8860    1.0000 </r>
       <r>   -4.6608    1.0000 </r>
       <r>   -1.2893    0.0000 </r>
       <r>    0.0794    0.0000 </r>
       <r>    4.5681    0.0000 </r>
       <r>    5.5278    0.0000 </r>
      </set>
      <set comment="kpoint 217">
       <r>  -18.0403    1.0000 </r>
       <r>  -16.6648    1.0000 </r>
       <r>  -15.6839    1.0000 </r>
       <r>  -14.3474    1.0000 </r>
       <r>  -10.1679    1.0000 </r>
       <r>   -9.3537    1.0000 </r>
       <r>   -5.7750    1.0000 </r>
       <r>   -4.7566    1.0000 </r>
       <r>   -1.2508    0.0000 </r>
       <r>   -0.1180    0.0000 </r>
       <r>    4.2804    0.0000 </r>
       <r>    5.0878    0.0000 </r>
      </set>
      <set comment="kpoint 218">
       <r>  -17.8902    1.0000 </r>
       <r>  -16.7933    1.0000 </r>
       <r>  -15.6674    1.0000 </r>
       <r>  -14.5988    1.0000 </r>
       <r>   -9.8950    1.0000 </r>
       <r>   -9.2612    1.0000 </r>
       <r>   -5.6540    1.0000 </r>
       <r>   -4.8670    1.0000 </r>
       <r>   -1.1860    0.0000 </r>
       <r>   -0.3134    0.0000 </r>
       <r>    4.0745    0.0000 </r>
       <r>    4.7056    0.0000 </r>
      </set>
      <set comment="kpoint 219">
       <r>  -17.7251    1.0000 </r>
       <r>  -16.9681    1.0000 </r>
       <r>  -15.5746    1.0000 </r>
       <r>  -14.8361    1.0000 </r>
       <r>   -9.6589    1.0000 </r>
       <r>   -9.2243    1.0000 </r>
       <r>   -5.5253    1.0000 </r>
       <r>   -4.9892    1.0000 </r>
       <r>   -1.0945    0.0000 </r>
       <r>   -0.5016    0.0000 </r>
       <r>    3.9569    0.0000 </r>
       <r>    4.3908    0.0000 </r>
      </set>
      <set comment="kpoint 220">
       <r>  -17.5466    1.0000 </r>
       <r>  -17.1616    1.0000 </r>
       <r>  -15.4325    1.0000 </r>
       <r>  -15.0566    1.0000 </r>
       <r>   -9.4677    1.0000 </r>
       <r>   -9.2466    1.0000 </r>
       <r>   -5.3913    1.0000 </r>
       <r>   -5.1197    1.0000 </r>
       <r>   -0.9776    0.0000 </r>
       <r>   -0.6777    0.0000 </r>
       <r>    3.9309    0.0000 </r>
       <r>    4.1520    0.0000 </r>
      </set>
      <set comment="kpoint 221">
       <r>  -17.3572    1.0000 </r>
       <r>  -17.3572    1.0000 </r>
       <r>  -15.2570    1.0000 </r>
       <r>  -15.2570    1.0000 </r>
       <r>   -9.3286    1.0000 </r>
       <r>   -9.3286    1.0000 </r>
       <r>   -5.2550    1.0000 </r>
       <r>   -5.2550    1.0000 </r>
       <r>   -0.8377    0.0000 </r>
       <r>   -0.8377    0.0000 </r>
       <r>    3.9969    0.0000 </r>
       <r>    3.9969    0.0000 </r>
      </set>
      <set comment="kpoint 222">
       <r>  -18.1916    1.0000 </r>
       <r>  -17.2795    1.0000 </r>
       <r>  -13.8313    1.0000 </r>
       <r>  -12.9969    1.0000 </r>
       <r>  -11.9502    1.0000 </r>
       <r>  -11.1889    1.0000 </r>
       <r>   -5.8154    1.0000 </r>
       <r>   -4.8712    1.0000 </r>
       <r>   -0.6990    0.0000 </r>
       <r>    0.3828    0.0000 </r>
       <r>    5.9219    0.0000 </r>
       <r>    6.6462    0.0000 </r>
      </set>
      <set comment="kpoint 223">
       <r>  -18.1826    1.0000 </r>
       <r>  -17.2712    1.0000 </r>
       <r>  -13.8985    1.0000 </r>
       <r>  -13.0616    1.0000 </r>
       <r>  -11.8781    1.0000 </r>
       <r>  -11.1241    1.0000 </r>
       <r>   -5.8084    1.0000 </r>
       <r>   -4.8695    1.0000 </r>
       <r>   -0.7123    0.0000 </r>
       <r>    0.3622    0.0000 </r>
       <r>    5.9347    0.0000 </r>
       <r>    6.6622    0.0000 </r>
      </set>
      <set comment="kpoint 224">
       <r>  -18.1555    1.0000 </r>
       <r>  -17.2465    1.0000 </r>
       <r>  -14.0743    1.0000 </r>
       <r>  -13.2320    1.0000 </r>
       <r>  -11.6880    1.0000 </r>
       <r>  -10.9540    1.0000 </r>
       <r>   -5.7876    1.0000 </r>
       <r>   -4.8648    1.0000 </r>
       <r>   -0.7508    0.0000 </r>
       <r>    0.3020    0.0000 </r>
       <r>    5.9729    0.0000 </r>
       <r>    6.7098    0.0000 </r>
      </set>
      <set comment="kpoint 225">
       <r>  -18.1104    1.0000 </r>
       <r>  -17.2059    1.0000 </r>
       <r>  -14.3121    1.0000 </r>
       <r>  -13.4651    1.0000 </r>
       <r>  -11.4273    1.0000 </r>
       <r>  -10.7233    1.0000 </r>
       <r>   -5.7533    1.0000 </r>
       <r>   -4.8580    1.0000 </r>
       <r>   -0.8101    0.0000 </r>
       <r>    0.2064    0.0000 </r>
       <r>    6.0347    0.0000 </r>
       <r>    6.6833    0.0000 </r>
      </set>
      <set comment="kpoint 226">
       <r>  -18.0476    1.0000 </r>
       <r>  -17.1502    1.0000 </r>
       <r>  -14.5777    1.0000 </r>
       <r>  -13.7287    1.0000 </r>
       <r>  -11.1319    1.0000 </r>
       <r>  -10.4670    1.0000 </r>
       <r>   -5.7064    1.0000 </r>
       <r>   -4.8510    1.0000 </r>
       <r>   -0.8838    0.0000 </r>
       <r>    0.0817    0.0000 </r>
       <r>    6.0604    0.0000 </r>
       <r>    6.1979    0.0000 </r>
      </set>
      <set comment="kpoint 227">
       <r>  -17.9674    1.0000 </r>
       <r>  -17.0811    1.0000 </r>
       <r>  -14.8504    1.0000 </r>
       <r>  -14.0043    1.0000 </r>
       <r>  -10.8243    1.0000 </r>
       <r>  -10.2075    1.0000 </r>
       <r>   -5.6478    1.0000 </r>
       <r>   -4.8460    1.0000 </r>
       <r>   -0.9638    0.0000 </r>
       <r>   -0.0645    0.0000 </r>
       <r>    5.6064    0.0000 </r>
       <r>    6.2043    0.0000 </r>
      </set>
      <set comment="kpoint 228">
       <r>  -17.8701    1.0000 </r>
       <r>  -17.0015    1.0000 </r>
       <r>  -15.1170    1.0000 </r>
       <r>  -14.2810    1.0000 </r>
       <r>  -10.5193    1.0000 </r>
       <r>   -9.9606    1.0000 </r>
       <r>   -5.5788    1.0000 </r>
       <r>   -4.8457    1.0000 </r>
       <r>   -1.0415    0.0000 </r>
       <r>   -0.2245    0.0000 </r>
       <r>    5.1486    0.0000 </r>
       <r>    5.6947    0.0000 </r>
      </set>
      <set comment="kpoint 229">
       <r>  -17.7566    1.0000 </r>
       <r>  -16.9170    1.0000 </r>
       <r>  -15.3658    1.0000 </r>
       <r>  -14.5522    1.0000 </r>
       <r>  -10.2284    1.0000 </r>
       <r>   -9.7383    1.0000 </r>
       <r>   -5.5013    1.0000 </r>
       <r>   -4.8533    1.0000 </r>
       <r>   -1.1083    0.0000 </r>
       <r>   -0.3904    0.0000 </r>
       <r>    4.7476    0.0000 </r>
       <r>    5.2303    0.0000 </r>
      </set>
      <set comment="kpoint 230">
       <r>  -17.6278    1.0000 </r>
       <r>  -16.8389    1.0000 </r>
       <r>  -15.5822    1.0000 </r>
       <r>  -14.8132    1.0000 </r>
       <r>   -9.9616    1.0000 </r>
       <r>   -9.5513    1.0000 </r>
       <r>   -5.4174    1.0000 </r>
       <r>   -4.8714    1.0000 </r>
       <r>   -1.1565    0.0000 </r>
       <r>   -0.5548    0.0000 </r>
       <r>    4.4146    0.0000 </r>
       <r>    4.8211    0.0000 </r>
      </set>
      <set comment="kpoint 231">
       <r>  -17.4854    1.0000 </r>
       <r>  -16.7889    1.0000 </r>
       <r>  -15.7419    1.0000 </r>
       <r>  -15.0599    1.0000 </r>
       <r>   -9.7283    1.0000 </r>
       <r>   -9.4086    1.0000 </r>
       <r>   -5.3297    1.0000 </r>
       <r>   -4.9023    1.0000 </r>
       <r>   -1.1799    0.0000 </r>
       <r>   -0.7109    0.0000 </r>
       <r>    4.1585    0.0000 </r>
       <r>    4.4765    0.0000 </r>
      </set>
      <set comment="kpoint 232">
       <r>  -17.3320    1.0000 </r>
       <r>  -16.7984    1.0000 </r>
       <r>  -15.8123    1.0000 </r>
       <r>  -15.2882    1.0000 </r>
       <r>   -9.5372    1.0000 </r>
       <r>   -9.3178    1.0000 </r>
       <r>   -5.2413    1.0000 </r>
       <r>   -4.9471    1.0000 </r>
       <r>   -1.1742    0.0000 </r>
       <r>   -0.8524    0.0000 </r>
       <r>    3.9867    0.0000 </r>
       <r>    4.2055    0.0000 </r>
      </set>
      <set comment="kpoint 233">
       <r>  -17.1725    1.0000 </r>
       <r>  -16.8817    1.0000 </r>
       <r>  -15.7782    1.0000 </r>
       <r>  -15.4920    1.0000 </r>
       <r>   -9.3959    1.0000 </r>
       <r>   -9.2842    1.0000 </r>
       <r>   -5.1555    1.0000 </r>
       <r>   -5.0054    1.0000 </r>
       <r>   -1.1375    0.0000 </r>
       <r>   -0.9736    0.0000 </r>
       <r>    3.9046    0.0000 </r>
       <r>    4.0162    0.0000 </r>
      </set>
      <set comment="kpoint 234">
       <r>  -17.0163    1.0000 </r>
       <r>  -17.0163    1.0000 </r>
       <r>  -15.6615    1.0000 </r>
       <r>  -15.6615    1.0000 </r>
       <r>   -9.3104    1.0000 </r>
       <r>   -9.3104    1.0000 </r>
       <r>   -5.0758    1.0000 </r>
       <r>   -5.0758    1.0000 </r>
       <r>   -1.0699    0.0000 </r>
       <r>   -1.0699    0.0000 </r>
       <r>    3.9147    0.0000 </r>
       <r>    3.9147    0.0000 </r>
      </set>
      <set comment="kpoint 235">
       <r>  -17.7437    1.0000 </r>
       <r>  -17.7437    1.0000 </r>
       <r>  -13.4243    1.0000 </r>
       <r>  -13.4243    1.0000 </r>
       <r>  -11.5788    1.0000 </r>
       <r>  -11.5788    1.0000 </r>
       <r>   -5.3459    1.0000 </r>
       <r>   -5.3459    1.0000 </r>
       <r>   -0.1685    0.0000 </r>
       <r>   -0.1685    0.0000 </r>
       <r>    6.5605    0.0000 </r>
       <r>    6.5605    0.0000 </r>
      </set>
      <set comment="kpoint 236">
       <r>  -17.7349    1.0000 </r>
       <r>  -17.7349    1.0000 </r>
       <r>  -13.4906    1.0000 </r>
       <r>  -13.4906    1.0000 </r>
       <r>  -11.5100    1.0000 </r>
       <r>  -11.5100    1.0000 </r>
       <r>   -5.3410    1.0000 </r>
       <r>   -5.3410    1.0000 </r>
       <r>   -0.1862    0.0000 </r>
       <r>   -0.1862    0.0000 </r>
       <r>    6.5732    0.0000 </r>
       <r>    6.5732    0.0000 </r>
      </set>
      <set comment="kpoint 237">
       <r>  -17.7086    1.0000 </r>
       <r>  -17.7086    1.0000 </r>
       <r>  -13.6645    1.0000 </r>
       <r>  -13.6645    1.0000 </r>
       <r>  -11.3290    1.0000 </r>
       <r>  -11.3290    1.0000 </r>
       <r>   -5.3263    1.0000 </r>
       <r>   -5.3263    1.0000 </r>
       <r>   -0.2377    0.0000 </r>
       <r>   -0.2377    0.0000 </r>
       <r>    6.6109    0.0000 </r>
       <r>    6.6109    0.0000 </r>
      </set>
      <set comment="kpoint 238">
       <r>  -17.6651    1.0000 </r>
       <r>  -17.6651    1.0000 </r>
       <r>  -13.9012    1.0000 </r>
       <r>  -13.9012    1.0000 </r>
       <r>  -11.0822    1.0000 </r>
       <r>  -11.0822    1.0000 </r>
       <r>   -5.3025    1.0000 </r>
       <r>   -5.3025    1.0000 </r>
       <r>   -0.3189    0.0000 </r>
       <r>   -0.3189    0.0000 </r>
       <r>    6.6676    0.0000 </r>
       <r>    6.6676    0.0000 </r>
      </set>
      <set comment="kpoint 239">
       <r>  -17.6046    1.0000 </r>
       <r>  -17.6046    1.0000 </r>
       <r>  -14.1675    1.0000 </r>
       <r>  -14.1675    1.0000 </r>
       <r>  -10.8050    1.0000 </r>
       <r>  -10.8050    1.0000 </r>
       <r>   -5.2709    1.0000 </r>
       <r>   -5.2709    1.0000 </r>
       <r>   -0.4233    0.0000 </r>
       <r>   -0.4233    0.0000 </r>
       <r>    6.4158    0.0000 </r>
       <r>    6.4158    0.0000 </r>
      </set>
      <set comment="kpoint 240">
       <r>  -17.5278    1.0000 </r>
       <r>  -17.5278    1.0000 </r>
       <r>  -14.4441    1.0000 </r>
       <r>  -14.4441    1.0000 </r>
       <r>  -10.5199    1.0000 </r>
       <r>  -10.5199    1.0000 </r>
       <r>   -5.2329    1.0000 </r>
       <r>   -5.2329    1.0000 </r>
       <r>   -0.5432    0.0000 </r>
       <r>   -0.5432    0.0000 </r>
       <r>    5.8916    0.0000 </r>
       <r>    5.8916    0.0000 </r>
      </set>
      <set comment="kpoint 241">
       <r>  -17.4357    1.0000 </r>
       <r>  -17.4357    1.0000 </r>
       <r>  -14.7198    1.0000 </r>
       <r>  -14.7198    1.0000 </r>
       <r>  -10.2422    1.0000 </r>
       <r>  -10.2422    1.0000 </r>
       <r>   -5.1907    1.0000 </r>
       <r>   -5.1907    1.0000 </r>
       <r>   -0.6703    0.0000 </r>
       <r>   -0.6703    0.0000 </r>
       <r>    5.4046    0.0000 </r>
       <r>    5.4046    0.0000 </r>
      </set>
      <set comment="kpoint 242">
       <r>  -17.3299    1.0000 </r>
       <r>  -17.3299    1.0000 </r>
       <r>  -14.9869    1.0000 </r>
       <r>  -14.9869    1.0000 </r>
       <r>   -9.9838    1.0000 </r>
       <r>   -9.9838    1.0000 </r>
       <r>   -5.1469    1.0000 </r>
       <r>   -5.1469    1.0000 </r>
       <r>   -0.7961    0.0000 </r>
       <r>   -0.7961    0.0000 </r>
       <r>    4.9693    0.0000 </r>
       <r>    4.9693    0.0000 </r>
      </set>
      <set comment="kpoint 243">
       <r>  -17.2132    1.0000 </r>
       <r>  -17.2132    1.0000 </r>
       <r>  -15.2389    1.0000 </r>
       <r>  -15.2389    1.0000 </r>
       <r>   -9.7549    1.0000 </r>
       <r>   -9.7549    1.0000 </r>
       <r>   -5.1044    1.0000 </r>
       <r>   -5.1044    1.0000 </r>
       <r>   -0.9125    0.0000 </r>
       <r>   -0.9125    0.0000 </r>
       <r>    4.5957    0.0000 </r>
       <r>    4.5957    0.0000 </r>
      </set>
      <set comment="kpoint 244">
       <r>  -17.0909    1.0000 </r>
       <r>  -17.0909    1.0000 </r>
       <r>  -15.4683    1.0000 </r>
       <r>  -15.4683    1.0000 </r>
       <r>   -9.5651    1.0000 </r>
       <r>   -9.5651    1.0000 </r>
       <r>   -5.0666    1.0000 </r>
       <r>   -5.0666    1.0000 </r>
       <r>   -1.0121    0.0000 </r>
       <r>   -1.0121    0.0000 </r>
       <r>    4.2932    0.0000 </r>
       <r>    4.2932    0.0000 </r>
      </set>
      <set comment="kpoint 245">
       <r>  -16.9732    1.0000 </r>
       <r>  -16.9732    1.0000 </r>
       <r>  -15.6635    1.0000 </r>
       <r>  -15.6635    1.0000 </r>
       <r>   -9.4227    1.0000 </r>
       <r>   -9.4227    1.0000 </r>
       <r>   -5.0366    1.0000 </r>
       <r>   -5.0366    1.0000 </r>
       <r>   -1.0885    0.0000 </r>
       <r>   -1.0885    0.0000 </r>
       <r>    4.0701    0.0000 </r>
       <r>    4.0701    0.0000 </r>
      </set>
      <set comment="kpoint 246">
       <r>  -16.8803    1.0000 </r>
       <r>  -16.8803    1.0000 </r>
       <r>  -15.8032    1.0000 </r>
       <r>  -15.8032    1.0000 </r>
       <r>   -9.3342    1.0000 </r>
       <r>   -9.3342    1.0000 </r>
       <r>   -5.0173    1.0000 </r>
       <r>   -5.0173    1.0000 </r>
       <r>   -1.1365    0.0000 </r>
       <r>   -1.1365    0.0000 </r>
       <r>    3.9332    0.0000 </r>
       <r>    3.9332    0.0000 </r>
      </set>
      <set comment="kpoint 247">
       <r>  -16.8430    1.0000 </r>
       <r>  -16.8430    1.0000 </r>
       <r>  -15.8561    1.0000 </r>
       <r>  -15.8561    1.0000 </r>
       <r>   -9.3042    1.0000 </r>
       <r>   -9.3042    1.0000 </r>
       <r>   -5.0107    1.0000 </r>
       <r>   -5.0107    1.0000 </r>
       <r>   -1.1529    0.0000 </r>
       <r>   -1.1529    0.0000 </r>
       <r>    3.8871    0.0000 </r>
       <r>    3.8871    0.0000 </r>
      </set>
     </set>
    </set>
   </array>
  </eigenvalues>
  <separator name="orbital magnetization" >
   <v name="MAGDIPOLOUT">      0.00000000      0.00000000      0.00000000</v>
  </separator>
 </calculation>
 <structure name="finalpos" >
  <crystal>
   <varray name="basis" >
    <v>       4.38137907       0.00000000       0.00000000 </v>
    <v>       0.00000000       2.45705428       0.00000000 </v>
    <v>       0.00000000       0.00000000      19.58497877 </v>
   </varray>
   <i name="volume">    210.83790140 </i>
   <varray name="rec_basis" >
    <v>       0.22823864       0.00000000       0.00000000 </v>
    <v>       0.00000000       0.40699142       0.00000000 </v>
    <v>       0.00000000       0.00000000       0.05105954 </v>
   </varray>
  </crystal>
  <varray name="positions" >
   <v>       0.99945556      -0.00000000      -0.00000000 </v>
   <v>       0.16721111       0.50000000       0.00000000 </v>
   <v>       0.49945556       0.50000000      -0.00000000 </v>
   <v>       0.66721111      -0.00000000       0.00000000 </v>
  </varray>
 </structure>
</modeling>
