gr                                      
           1
     4.381379    0.000000    0.000000
     0.000000    2.457054    0.000000
     0.000000    0.000000   19.584979
   C 
   4
Direct configuration=     1
   0.99945869  0.00000000  0.00000000
   0.16720798  0.50000000  0.00000000
   0.49945869  0.50000000  0.00000000
   0.66720798  0.00000000  0.00000000
Direct configuration=     2
   0.99944398 -0.00000000 -0.00000000
   0.16722269  0.50000000  0.00000000
   0.49944398  0.50000000 -0.00000000
   0.66722269 -0.00000000  0.00000000
Direct configuration=     3
   0.99945555 -0.00000000  0.00000000
   0.16721112  0.50000000 -0.00000000
   0.49945555  0.50000000  0.00000000
   0.66721112 -0.00000000 -0.00000000
Direct configuration=     4
   0.99945557 -0.00000000 -0.00000000
   0.16721109  0.50000000  0.00000000
   0.49945557  0.50000000 -0.00000000
   0.66721109 -0.00000000  0.00000000
Direct configuration=     5
   0.99945556 -0.00000000 -0.00000000
   0.16721111  0.50000000  0.00000000
   0.49945556  0.50000000 -0.00000000
   0.66721111 -0.00000000  0.00000000
Direct configuration=     6
   0.99945556 -0.00000000 -0.00000000
   0.16721111  0.50000000  0.00000000
   0.49945556  0.50000000 -0.00000000
   0.66721111 -0.00000000  0.00000000
Direct configuration=     7
   0.99945557 -0.00000000  0.00000000
   0.16721109  0.50000000 -0.00000000
   0.49945557  0.50000000  0.00000000
   0.66721109 -0.00000000 -0.00000000
Direct configuration=     8
   0.99945556 -0.00000000 -0.00000000
   0.16721111  0.50000000  0.00000000
   0.49945556  0.50000000 -0.00000000
   0.66721111 -0.00000000  0.00000000
