    4    4  400    1
  0.5270948E+02  0.4315564E-09  0.2462900E-09  0.1983647E-08  0.5000000E-15
  1.000000000000000E-004
  CAR 
 gr                                      
     16    247     12
 
  0.0000000E+00  0.0000000E+00  0.0000000E+00  0.1157407E-02
    1      -22.185289
    2      -17.118238
    3      -15.919749
    4      -10.306144
    5       -9.014777
    6       -5.876405
    7       -5.761502
    8       -5.202022
    9       -1.121198
   10        0.532014
   11        1.331968
   12        1.718958
 
  0.4166667E-01  0.0000000E+00  0.0000000E+00  0.2314815E-02
    1      -22.175238
    2      -17.261949
    3      -15.760885
    4      -10.294168
    5       -9.004888
    6       -5.919790
    7       -5.783055
    8       -5.265332
    9       -1.041990
   10        0.545633
   11        1.345773
   12        1.732931
 
  0.8333333E-01  0.0000000E+00  0.0000000E+00  0.2314815E-02
    1      -22.145088
    2      -17.572575
    3      -15.404880
    4      -10.258258
    5       -8.975273
    6       -6.048043
    7       -5.846552
    8       -5.441612
    9       -0.818181
   10        0.586492
   11        1.387182
   12        1.774854
 
  0.1250000E+00  0.0000000E+00  0.0000000E+00  0.2314815E-02
    1      -22.094860
    2      -17.930847
    3      -14.971250
    4      -10.198472
    5       -8.926086
    6       -6.255809
    7       -5.948691
    8       -5.700084
    9       -0.481046
   10        0.654604
   11        1.456184
   12        1.844727
 
  0.1666667E+00  0.0000000E+00  0.0000000E+00  0.2314815E-02
    1      -22.024589
    2      -18.296612
    3      -14.500568
    4      -10.114907
    5       -8.857586
    6       -6.535162
    7       -6.084539
    8       -6.009602
    9       -0.062574
   10        0.749979
   11        1.552754
   12        1.942554
 
  0.2083333E+00  0.0000000E+00  0.0000000E+00  0.2314815E-02
    1      -21.934323
    2      -18.656327
    3      -14.006985
    4      -10.007705
    5       -8.770150
    6       -6.876722
    7       -6.346494
    8       -6.248186
    9        0.412349
   10        0.872622
   11        1.676854
   12        2.068335
 
  0.2500000E+00  0.0000000E+00  0.0000000E+00  0.2314815E-02
    1      -21.824126
    2      -19.004389
    3      -13.496903
    4       -9.877055
    5       -8.664284
    6       -7.270678
    7       -6.694714
    8       -6.433365
    9        0.926049
   10        1.022527
   11        1.828430
   12        2.222070
 
  0.2916667E+00  0.0000000E+00  0.0000000E+00  0.2314815E-02
    1      -21.694079
    2      -19.338030
    3      -12.974120
    4       -9.723204
    5       -8.540636
    6       -7.707547
    7       -7.043720
    8       -6.633947
    9        1.199673
   10        1.465851
   11        2.007392
   12        2.403758
 
  0.3333333E+00  0.0000000E+00  0.0000000E+00  0.2314815E-02
    1      -21.544282
    2      -19.655673
    3      -12.441488
    4       -9.546464
    5       -8.400017
    6       -8.178620
    7       -7.386535
    8       -6.844258
    9        1.404026
   10        2.021895
   11        2.213597
   12        2.613395
 
  0.3750000E+00  0.0000000E+00  0.0000000E+00  0.2314815E-02
    1      -21.374851
    2      -19.956324
    3      -11.901572
    4       -9.347226
    5       -8.676170
    6       -8.243433
    7       -7.718438
    8       -7.059245
    9        1.635535
   10        2.446784
   11        2.584888
   12        2.850971
 
  0.4166667E+00  0.0000000E+00  0.0000000E+00  0.2314815E-02
    1      -21.185927
    2      -20.239297
    3      -11.356959
    4       -9.193486
    5       -9.125983
    6       -8.072112
    7       -8.036137
    8       -7.274521
    9        1.894133
   10        2.706401
   11        3.116474
   12        3.139201
 
  0.4583333E+00  0.0000000E+00  0.0000000E+00  0.2314815E-02
    1      -20.977681
    2      -20.504089
    3      -10.810450
    4       -9.724801
    5       -8.883352
    6       -8.337275
    7       -7.887552
    8       -7.486345
    9        2.179727
   10        2.831337
   11        2.990939
   12        3.409881
 
  0.5000000E+00  0.0000000E+00  0.0000000E+00  0.1157407E-02
    1      -20.750319
    2      -20.750319
    3      -10.265192
    4      -10.265192
    5       -8.620115
    6       -8.620115
    7       -7.691566
    8       -7.691566
    9        2.492191
   10        2.492191
   11        3.293883
   12        3.293883
 
  0.0000000E+00  0.2777778E-01  0.0000000E+00  0.2314815E-02
    1      -22.171555
    2      -17.106399
    3      -15.908077
    4      -10.289780
    5       -9.077073
    6       -5.904923
    7       -5.819239
    8       -5.185365
    9       -1.124514
   10        0.550636
   11        1.350810
   12        1.738031
 
  0.4166667E-01  0.2777778E-01  0.0000000E+00  0.4629630E-02
    1      -22.161505
    2      -17.249963
    3      -15.749408
    4      -10.277808
    5       -9.067170
    6       -5.951793
    7       -5.836662
    8       -5.248807
    9       -1.045285
   10        0.564255
   11        1.364614
   12        1.752005
 
  0.8333333E-01  0.2777778E-01  0.0000000E+00  0.4629630E-02
    1      -22.131360
    2      -17.560344
    3      -15.393795
    4      -10.241911
    5       -9.037511
    6       -6.083614
    7       -5.894770
    8       -5.425393
    9       -0.821505
   10        0.605115
   11        1.406021
   12        1.793928
 
  0.1250000E+00  0.2777778E-01  0.0000000E+00  0.4629630E-02
    1      -22.081140
    2      -17.918393
    3      -14.960637
    4      -10.182145
    5       -8.988245
    6       -6.291157
    7       -5.994437
    8       -5.684186
    9       -0.484609
   10        0.673229
   11        1.475019
   12        1.863802
 
  0.1666667E+00  0.2777778E-01  0.0000000E+00  0.4629630E-02
    1      -22.010879
    2      -18.283966
    3      -14.490507
    4      -10.098608
    5       -8.919630
    6       -6.567472
    7       -6.130137
    8       -5.993947
    9       -0.066681
   10        0.768608
   11        1.571583
   12        1.961629
 
  0.2083333E+00  0.2777778E-01  0.0000000E+00  0.4629630E-02
    1      -21.920628
    2      -18.643518
    3      -13.997571
    4       -9.991443
    5       -8.832034
    6       -6.904533
    7       -6.330984
    8       -6.294946
    9        0.407374
   10        0.891257
   11        1.695678
   12        2.087412
 
  0.2500000E+00  0.2777778E-01  0.0000000E+00  0.4629630E-02
    1      -21.810449
    2      -18.991441
    3      -13.488252
    4       -9.860838
    5       -8.725951
    6       -7.293481
    7       -6.679266
    8       -6.481905
    9        0.919904
   10        1.041170
   11        1.847247
   12        2.241149
 
  0.2916667E+00  0.2777778E-01  0.0000000E+00  0.4629630E-02
    1      -21.680424
    2      -19.324961
    3      -12.966372
    4       -9.707039
    5       -8.602017
    6       -7.725404
    7       -7.028273
    8       -6.684469
    9        1.218325
   10        1.458273
   11        2.026203
   12        2.422840
 
  0.3333333E+00  0.2777778E-01  0.0000000E+00  0.4629630E-02
    1      -21.530653
    2      -19.642500
    3      -12.434811
    4       -9.530359
    5       -8.461028
    6       -8.191901
    7       -7.371050
    8       -6.896726
    9        1.422689
   10        2.012697
   11        2.232404
   12        2.632480
 
  0.3750000E+00  0.2777778E-01  0.0000000E+00  0.4629630E-02
    1      -21.361254
    2      -19.943061
    3      -11.896170
    4       -9.331189
    5       -8.685379
    6       -8.303972
    7       -7.702889
    8       -7.113497
    9        1.654211
   10        2.465593
   11        2.574087
   12        2.870061
 
  0.4166667E+00  0.2777778E-01  0.0000000E+00  0.4629630E-02
    1      -21.172367
    2      -20.225956
    3      -11.353077
    4       -9.199158
    5       -9.110021
    6       -8.132055
    7       -8.020511
    8       -7.330342
    9        1.912823
   10        2.725224
   11        3.127898
   12        3.135571
 
  0.4583333E+00  0.2777778E-01  0.0000000E+00  0.4629630E-02
    1      -20.964164
    2      -20.490681
    3      -10.808379
    4       -9.727449
    5       -8.867470
    6       -8.321563
    7       -7.946750
    8       -7.543506
    9        2.198435
   10        2.850109
   11        3.009790
   12        3.428988
 
  0.5000000E+00  0.2777778E-01  0.0000000E+00  0.2314815E-02
    1      -20.736852
    2      -20.736852
    3      -10.265278
    4      -10.265278
    5       -8.604317
    6       -8.604317
    7       -7.749846
    8       -7.749846
    9        2.510923
   10        2.510923
   11        3.312615
   12        3.312615
 
  0.0000000E+00  0.5555556E-01  0.0000000E+00  0.2314815E-02
    1      -22.130364
    2      -17.070885
    3      -15.873207
    4      -10.240724
    5       -9.258949
    6       -5.989891
    7       -5.987793
    8       -5.135414
    9       -1.135284
   10        0.606503
   11        1.407329
   12        1.795253
 
  0.4166667E-01  0.5555556E-01  0.0000000E+00  0.4629630E-02
    1      -22.120317
    2      -17.214016
    3      -15.715120
    4      -10.228764
    5       -9.248998
    6       -6.064369
    7       -5.975713
    8       -5.199265
    9       -1.055987
   10        0.620122
   11        1.421130
   12        1.809227
 
  0.8333333E-01  0.5555556E-01  0.0000000E+00  0.4629630E-02
    1      -22.090185
    2      -17.523668
    3      -15.360686
    4      -10.192903
    5       -9.219192
    6       -6.204353
    7       -6.020302
    8       -5.376794
    9       -0.832286
   10        0.660984
   11        1.462530
   12        1.851150
 
  0.1250000E+00  0.5555556E-01  0.0000000E+00  0.4629630E-02
    1      -22.039988
    2      -17.881051
    3      -14.928962
    4      -10.133199
    5       -9.169671
    6       -6.408407
    7       -6.115500
    8       -5.636572
    9       -0.496115
   10        0.729102
   11        1.531515
   12        1.921026
 
  0.1666667E+00  0.5555556E-01  0.0000000E+00  0.4629630E-02
    1      -21.969761
    2      -18.246052
    3      -14.460518
    4      -10.049749
    5       -9.100673
    6       -6.673838
    7       -6.252615
    8       -5.947073
    9       -0.079848
   10        0.824489
   11        1.628063
   12        2.018855
 
  0.2083333E+00  0.5555556E-01  0.0000000E+00  0.4629630E-02
    1      -21.879553
    2      -18.605113
    3      -13.969564
    4       -9.942695
    5       -9.012544
    6       -6.995941
    7       -6.422434
    8       -6.284548
    9        0.391555
   10        0.947151
   11        1.752138
   12        2.144641
 
  0.2500000E+00  0.5555556E-01  0.0000000E+00  0.4629630E-02
    1      -21.769429
    2      -18.952614
    3      -13.462592
    4       -9.812226
    5       -8.905744
    6       -7.368462
    7       -6.633016
    8       -6.616164
    9        0.900503
   10        1.097082
   11        1.903685
   12        2.298384
 
  0.2916667E+00  0.5555556E-01  0.0000000E+00  0.4629630E-02
    1      -21.639472
    2      -19.285770
    3      -12.943497
    4       -9.658587
    5       -8.780867
    6       -7.784240
    7       -6.982025
    8       -6.825976
    9        1.274261
   10        1.434486
   11        2.082621
   12        2.480082
 
  0.3333333E+00  0.5555556E-01  0.0000000E+00  0.4629630E-02
    1      -21.489781
    2      -19.602997
    3      -12.415256
    4       -9.482091
    5       -8.638658
    6       -8.235864
    7       -7.324681
    8       -7.045190
    9        1.478651
   10        1.983926
   11        2.288809
   12        2.689731
 
  0.3750000E+00  0.5555556E-01  0.0000000E+00  0.4629630E-02
    1      -21.320476
    2      -19.903287
    3      -11.880581
    4       -9.283128
    5       -8.716177
    6       -8.480039
    7       -7.656323
    8       -7.268229
    9        1.710203
   10        2.522004
   11        2.540269
   12        2.927324
 
  0.4166667E+00  0.5555556E-01  0.0000000E+00  0.4629630E-02
    1      -21.131700
    2      -20.185948
    3      -11.342234
    4       -9.218592
    5       -9.062186
    6       -8.306142
    7       -7.973704
    8       -7.490501
    9        1.968849
   10        2.781678
   11        3.091618
   12        3.192850
 
  0.4583333E+00  0.5555556E-01  0.0000000E+00  0.4629630E-02
    1      -20.923627
    2      -20.450470
    3      -10.803222
    4       -9.737226
    5       -8.819880
    6       -8.274497
    7       -8.118354
    8       -7.708240
    9        2.254502
   10        2.906320
   11        3.066333
   12        3.486293
 
  0.5000000E+00  0.5555556E-01  0.0000000E+00  0.2314815E-02
    1      -20.696466
    2      -20.696466
    3      -10.266927
    4      -10.266927
    5       -8.556986
    6       -8.556986
    7       -7.918365
    8       -7.918365
    9        2.567046
   10        2.567046
   11        3.368744
   12        3.368744
 
  0.0000000E+00  0.8333333E-01  0.0000000E+00  0.2314815E-02
    1      -22.061749
    2      -17.011707
    3      -15.815608
    4      -10.159078
    5       -9.546774
    6       -6.254615
    7       -6.129570
    8       -5.052232
    9       -1.155973
   10        0.699622
   11        1.501503
   12        1.890625
 
  0.4166667E-01  0.8333333E-01  0.0000000E+00  0.4629630E-02
    1      -22.051710
    2      -17.154144
    3      -15.658476
    4      -10.147139
    5       -9.536727
    6       -6.306444
    7       -6.137110
    8       -5.116804
    9       -1.076541
   10        0.713240
   11        1.515299
   12        1.904599
 
  0.8333333E-01  0.8333333E-01  0.0000000E+00  0.4629630E-02
    1      -22.021601
    2      -17.462606
    3      -15.306024
    4      -10.111342
    5       -9.506626
    6       -6.438913
    7       -6.180620
    8       -5.295993
    9       -0.852944
   10        0.754099
   11        1.556685
   12        1.946522
 
  0.1250000E+00  0.8333333E-01  0.0000000E+00  0.4629630E-02
    1      -21.971443
    2      -17.818886
    3      -14.876754
    4      -10.051744
    5       -9.456591
    6       -6.632022
    7       -6.273909
    8       -5.557485
    9       -0.518004
   10        0.822216
   11        1.625648
   12        2.016398
 
  0.1666667E+00  0.8333333E-01  0.0000000E+00  0.4629630E-02
    1      -21.901271
    2      -18.182930
    3      -14.411223
    4       -9.968442
    5       -9.386829
    6       -6.878510
    7       -6.414545
    8       -5.869260
    9       -0.104598
   10        0.917605
   11        1.722165
   12        2.114229
 
  0.2083333E+00  0.8333333E-01  0.0000000E+00  0.4629630E-02
    1      -21.811136
    2      -18.541169
    3      -13.923731
    4       -9.861578
    5       -9.297635
    6       -7.174586
    7       -6.594038
    8       -6.207481
    9        0.362227
   10        1.040276
   11        1.846202
   12        2.240018
 
  0.2500000E+00  0.8333333E-01  0.0000000E+00  0.4629630E-02
    1      -21.701104
    2      -18.887963
    3      -13.420884
    4       -9.731342
    5       -9.189405
    6       -7.517105
    7       -6.801765
    8       -6.556253
    9        0.864993
   10        1.190223
   11        1.997707
   12        2.393768
 
  0.2916667E+00  0.8333333E-01  0.0000000E+00  0.4629630E-02
    1      -21.571258
    2      -19.220511
    3      -12.906727
    4       -9.577978
    5       -9.062644
    6       -7.902275
    7       -7.027346
    8       -6.905251
    9        1.367424
   10        1.391388
   11        2.176603
   12        2.575474
 
  0.3333333E+00  0.8333333E-01  0.0000000E+00  0.4629630E-02
    1      -21.421701
    2      -19.537211
    3      -12.384417
    4       -9.401798
    5       -8.917986
    6       -8.325170
    7       -7.262017
    8       -7.247687
    9        1.571843
   10        1.932143
   11        2.382763
   12        2.785135
 
  0.3750000E+00  0.8333333E-01  0.0000000E+00  0.4629630E-02
    1      -21.252554
    2      -19.837047
    3      -11.856891
    4       -9.203191
    5       -8.779955
    6       -8.756216
    7       -7.578980
    8       -7.498990
    9        1.803425
   10        2.479390
   11        2.615962
   12        3.022743
 
  0.4166667E+00  0.8333333E-01  0.0000000E+00  0.4629630E-02
    1      -21.063964
    2      -20.119316
    3      -11.327185
    4       -9.260452
    5       -8.982641
    6       -8.578293
    7       -7.895940
    8       -7.733190
    9        2.062105
   10        2.875712
   11        3.024137
   12        3.288289
 
  0.4583333E+00  0.8333333E-01  0.0000000E+00  0.4629630E-02
    1      -20.856108
    2      -20.383498
    3      -10.798637
    4       -9.760651
    5       -8.740758
    6       -8.385395
    7       -8.196280
    8       -7.960816
    9        2.347794
   10        2.999733
   11        3.160545
   12        3.528250
 
  0.5000000E+00  0.8333333E-01  0.0000000E+00  0.2314815E-02
    1      -20.629201
    2      -20.629201
    3      -10.275021
    4      -10.275021
    5       -8.478311
    6       -8.478311
    7       -8.178971
    8       -8.178971
    9        2.660385
   10        2.660385
   11        3.461955
   12        3.461955
 
  0.0000000E+00  0.1111111E+00  0.0000000E+00  0.2314815E-02
    1      -21.965773
    2      -16.928887
    3      -15.736159
    4      -10.045018
    5       -9.921584
    6       -6.602593
    7       -6.321117
    8       -4.935924
    9       -1.190671
   10        0.829997
   11        1.633293
   12        2.024149
 
  0.4166667E-01  0.1111111E+00  0.0000000E+00  0.4629630E-02
    1      -21.955745
    2      -17.070412
    3      -15.580335
    4      -10.033111
    5       -9.911366
    6       -6.649764
    7       -6.329342
    8       -5.001602
    9       -1.110994
   10        0.843611
   11        1.647082
   12        2.038122
 
  0.8333333E-01  0.1111111E+00  0.0000000E+00  0.4629630E-02
    1      -21.925668
    2      -17.377262
    3      -15.230702
    4       -9.997406
    5       -9.880741
    6       -6.776462
    7       -6.367285
    8       -5.183310
    9       -0.887463
   10        0.884460
   11        1.688446
   12        2.080044
 
  0.1250000E+00  0.1111111E+00  0.0000000E+00  0.4629630E-02
    1      -21.875565
    2      -17.732011
    3      -14.805028
    4       -9.937962
    5       -9.829794
    6       -6.961387
    7       -6.451624
    8       -5.447368
    9       -0.554271
   10        0.952561
   11        1.757371
   12        2.149918
 
  0.1666667E+00  0.1111111E+00  0.0000000E+00  0.4629630E-02
    1      -21.805470
    2      -18.094714
    3      -14.343848
    4       -9.854877
    5       -9.758670
    6       -7.192054
    7       -6.587261
    8       -5.761017
    9       -0.145042
   10        1.047936
   11        1.853836
   12        2.247748
 
  0.2083333E+00  0.1111111E+00  0.0000000E+00  0.4629630E-02
    1      -21.715437
    2      -18.451792
    3      -13.861593
    4       -9.748292
    5       -9.667573
    6       -7.462111
    7       -6.770406
    8       -6.100309
    9        0.315073
   10        1.170597
   11        1.977810
   12        2.373539
 
  0.2500000E+00  0.1111111E+00  0.0000000E+00  0.4629630E-02
    1      -21.605534
    2      -18.797586
    3      -13.365072
    4       -9.618397
    5       -9.556772
    6       -7.768801
    7       -6.991804
    8       -6.449497
    9        0.808777
   10        1.320542
   11        2.129242
   12        2.527292
 
  0.2916667E+00  0.1111111E+00  0.0000000E+00  0.4629630E-02
    1      -21.475845
    2      -19.129271
    3      -12.858587
    4       -9.465437
    5       -9.426600
    6       -8.111401
    7       -7.239204
    8       -6.798445
    9        1.324040
   10        1.497749
   11        2.308064
   12        2.709006
 
  0.3333333E+00  0.1111111E+00  0.0000000E+00  0.4629630E-02
    1      -21.326476
    2      -19.445227
    3      -12.345630
    4       -9.289721
    5       -9.277462
    6       -8.489564
    7       -7.499911
    8       -7.140529
    9        1.702179
   10        1.851972
   11        2.514165
   12        2.918676
 
  0.3750000E+00  0.1111111E+00  0.0000000E+00  0.4629630E-02
    1      -21.157552
    2      -19.744420
    3      -11.829559
    4       -9.109844
    5       -9.091636
    6       -8.901738
    7       -7.763081
    8       -7.471286
    9        1.933775
   10        2.385378
   11        2.747353
   12        3.156298
 
  0.4166667E+00  0.1111111E+00  0.0000000E+00  0.4629630E-02
    1      -20.969223
    2      -20.026134
    3      -11.313946
    4       -9.344442
    5       -8.924322
    6       -8.871663
    7       -8.020891
    8       -7.787611
    9        2.192465
   10        2.917427
   11        3.007211
   12        3.421862
 
  0.4583333E+00  0.1111111E+00  0.0000000E+00  0.4629630E-02
    1      -20.761675
    2      -20.289837
    3      -10.802787
    4       -9.812644
    5       -8.721595
    6       -8.630406
    7       -8.268370
    8       -8.087273
    9        2.478162
   10        3.130113
   11        3.292370
   12        3.435450
 
  0.5000000E+00  0.1111111E+00  0.0000000E+00  0.2314815E-02
    1      -20.535124
    2      -20.535124
    3      -10.300636
    4      -10.300636
    5       -8.502543
    6       -8.502543
    7       -8.368621
    8       -8.368621
    9        2.790758
   10        2.790758
   11        3.590707
   12        3.590707
 
  0.0000000E+00  0.1388889E+00  0.0000000E+00  0.2314815E-02
    1      -21.842522
    2      -16.822453
    3      -15.636352
    4      -10.362494
    5       -9.898799
    6       -7.013553
    7       -6.560694
    8       -4.786641
    9       -1.244999
   10        0.997629
   11        1.802642
   12        2.195828
 
  0.4166667E-01  0.1388889E+00  0.0000000E+00  0.4629630E-02
    1      -21.832508
    2      -16.962919
    3      -15.482166
    4      -10.351983
    5       -9.886933
    6       -7.060290
    7       -6.564667
    8       -4.853933
    9       -1.164877
   10        1.011234
   11        1.816419
   12        2.209800
 
  0.8333333E-01  0.1388889E+00  0.0000000E+00  0.4629630E-02
    1      -21.802473
    2      -17.267798
    3      -15.136268
    4      -10.320460
    5       -9.851355
    6       -7.186711
    7       -6.589424
    8       -5.039264
    9       -0.941226
   10        1.052059
   11        1.857747
   12        2.251718
 
  0.1250000E+00  0.1388889E+00  0.0000000E+00  0.4629630E-02
    1      -21.752440
    2      -17.620603
    3      -14.715573
    4      -10.267944
    5       -9.792121
    6       -7.369791
    7       -6.655015
    8       -5.306934
    9       -0.610263
   10        1.120124
   11        1.926612
   12        2.321586
 
  0.1666667E+00  0.1388889E+00  0.0000000E+00  0.4629630E-02
    1      -21.682447
    2      -17.981573
    3      -14.260581
    4      -10.194460
    5       -9.709331
    6       -7.593445
    7       -6.772254
    8       -5.623152
    9       -0.206638
   10        1.215457
   11        2.022993
   12        2.419410
 
  0.2083333E+00  0.1388889E+00  0.0000000E+00  0.4629630E-02
    1      -21.592547
    2      -18.337141
    3      -13.785944
    4      -10.100036
    5       -9.603127
    6       -7.848213
    7       -6.942927
    8       -5.963861
    9        0.244412
   10        1.338076
   11        2.146860
   12        2.545196
 
  0.2500000E+00  0.1388889E+00  0.0000000E+00  0.4629630E-02
    1      -21.482809
    2      -18.681629
    3      -13.298811
    4       -9.984682
    5       -9.473698
    6       -8.128975
    7       -7.162312
    8       -6.313550
    9        0.725885
   10        1.487986
   11        2.298166
   12        2.698947
 
  0.2916667E+00  0.1388889E+00  0.0000000E+00  0.4629630E-02
    1      -21.353323
    2      -19.012186
    3      -12.803966
    4       -9.848370
    5       -9.321289
    6       -8.433866
    7       -7.420895
    8       -6.662366
    9        1.226150
   10        1.665167
   11        2.476849
   12        2.880663
 
  0.3333333E+00  0.1388889E+00  0.0000000E+00  0.4629630E-02
    1      -21.204197
    2      -19.327170
    3      -12.305533
    4       -9.691011
    5       -9.146209
    6       -8.763637
    7       -7.705842
    8       -7.003911
    9        1.736770
   10        1.869577
   11        2.682820
   12        3.090341
 
  0.3750000E+00  0.1388889E+00  0.0000000E+00  0.4629630E-02
    1      -21.035561
    2      -19.625523
    3      -11.807708
    4       -9.512423
    5       -9.120672
    6       -8.948842
    7       -8.002786
    8       -7.333889
    9        2.101154
   10        2.251161
   11        2.915935
   12        3.327972
 
  0.4166667E+00  0.1388889E+00  0.0000000E+00  0.4629630E-02
    1      -20.847574
    2      -19.906512
    3      -11.315122
    4       -9.507265
    5       -9.312325
    6       -8.729665
    7       -8.298167
    8       -7.649307
    9        2.359819
   10        2.763745
   11        3.175904
   12        3.593549
 
  0.4583333E+00  0.1388889E+00  0.0000000E+00  0.4629630E-02
    1      -20.640424
    2      -20.169590
    3      -10.833030
    4       -9.923677
    5       -9.090400
    6       -8.581526
    7       -8.489272
    8       -7.948013
    9        2.645477
   10        3.268929
   11        3.297291
   12        3.461668
 
  0.5000000E+00  0.1388889E+00  0.0000000E+00  0.2314815E-02
    1      -20.414339
    2      -20.414339
    3      -10.367248
    4      -10.367248
    5       -8.846545
    6       -8.846545
    7       -8.228407
    8       -8.228407
    9        2.958015
   10        2.958015
   11        3.719499
   12        3.719499
 
  0.0000000E+00  0.1666667E+00  0.0000000E+00  0.2314815E-02
    1      -21.692114
    2      -16.692446
    3      -15.518685
    4      -10.848875
    5       -9.720759
    6       -7.470645
    7       -6.843627
    8       -4.604584
    9       -1.325855
   10        1.202501
   11        2.009468
   12        2.405663
 
  0.4166667E-01  0.1666667E+00  0.0000000E+00  0.4629630E-02
    1      -21.682117
    2      -16.831814
    3      -15.366448
    4      -10.837863
    5       -9.708948
    6       -7.518342
    7       -6.841489
    8       -4.674206
    9       -1.244908
   10        1.216094
   11        2.023226
   12        2.419633
 
  0.8333333E-01  0.1666667E+00  0.0000000E+00  0.4629630E-02
    1      -21.652134
    2      -17.134457
    3      -15.025389
    4      -10.804791
    5       -9.673535
    6       -7.647286
    7       -6.848824
    8       -4.864666
    9       -1.020641
   10        1.256881
   11        2.064495
   12        2.461544
 
  0.1250000E+00  0.1666667E+00  0.0000000E+00  0.4629630E-02
    1      -21.602188
    2      -17.484926
    3      -14.611548
    4      -10.749543
    5       -9.614579
    6       -7.832454
    7       -6.889232
    8       -5.137287
    9       -0.692231
   10        1.324886
   11        2.133261
   12        2.531401
 
  0.1666667E+00  0.1666667E+00  0.0000000E+00  0.4629630E-02
    1      -21.532318
    2      -17.843760
    3      -14.165413
    4      -10.671904
    5       -9.532177
    6       -8.055191
    7       -6.978388
    8       -5.456898
    9       -0.295674
   10        1.420141
   11        2.229502
   12        2.629212
 
  0.2083333E+00  0.1666667E+00  0.0000000E+00  0.4629630E-02
    1      -21.442580
    2      -18.197446
    3      -13.702025
    4      -10.571517
    5       -9.426474
    6       -8.303894
    7       -7.122823
    8       -5.799380
    9        0.143797
   10        1.542676
   11        2.353182
   12        2.754984
 
  0.2500000E+00  0.1666667E+00  0.0000000E+00  0.4629630E-02
    1      -21.333047
    2      -18.540300
    3      -13.229199
    4      -10.447830
    5       -9.297660
    6       -8.571480
    7       -7.322247
    8       -6.149605
    9        0.609681
   10        1.692502
   11        2.504255
   12        2.908724
 
  0.2916667E+00  0.1666667E+00  0.0000000E+00  0.4629630E-02
    1      -21.203811
    2      -18.869447
    3      -12.752670
    4      -10.300008
    5       -9.145980
    6       -8.853971
    7       -7.571235
    8       -6.498122
    9        1.090938
   10        1.869608
   11        2.682658
   12        3.090433
 
  0.3333333E+00  0.1666667E+00  0.0000000E+00  0.4629630E-02
    1      -21.054985
    2      -19.183214
    3      -12.277857
    4      -10.126846
    5       -9.149965
    6       -8.971744
    7       -7.860422
    8       -6.838850
    9        1.579723
   10        2.073951
   11        2.888309
   12        3.300110
 
  0.3750000E+00  0.1666667E+00  0.0000000E+00  0.4629630E-02
    1      -20.886707
    2      -19.480518
    3      -11.810595
    4       -9.926742
    5       -9.460508
    6       -8.775331
    7       -8.177455
    8       -7.167712
    9        2.070079
   10        2.305465
   11        3.121102
   12        3.537746
 
  0.4166667E+00  0.1666667E+00  0.0000000E+00  0.4629630E-02
    1      -20.699142
    2      -19.760601
    3      -11.357332
    4       -9.788928
    5       -9.697860
    6       -8.557216
    7       -8.507933
    8       -7.481868
    9        2.557198
   10        2.564059
   11        3.380898
   12        3.803331
 
  0.4583333E+00  0.1666667E+00  0.0000000E+00  0.4629630E-02
    1      -20.492488
    2      -20.022901
    3      -10.924679
    4      -10.140007
    5       -9.438830
    6       -8.836743
    7       -8.317981
    8       -7.779261
    9        2.849627
   10        3.036987
   11        3.501144
   12        3.667498
 
  0.5000000E+00  0.1666667E+00  0.0000000E+00  0.2314815E-02
    1      -20.266980
    2      -20.266980
    3      -10.518087
    4      -10.518087
    5       -9.150259
    6       -9.150259
    7       -8.058357
    8       -8.058357
    9        3.162039
   10        3.162039
   11        3.505793
   12        3.505793
 