       N       E                     dE             d eps       ncg     rms          rms(c)
DAV:   1     0.189071332656E+03    0.18907E+03   -0.10588E+04  5928   0.274E+03
DAV:   2    -0.915636887760E+01   -0.19823E+03   -0.17579E+03 10460   0.258E+02
DAV:   3    -0.383091875008E+02   -0.29153E+02   -0.28597E+02  7308   0.119E+02    0.726E+00
RMM:   4    -0.376720515015E+02    0.63714E+00   -0.93305E+00  5928   0.265E+01    0.420E+00
RMM:   5    -0.369251111435E+02    0.74694E+00   -0.27650E+00  5930   0.114E+01    0.717E-01
RMM:   6    -0.369266311099E+02   -0.15200E-02   -0.81188E-02  6365   0.202E+00    0.513E-01
RMM:   7    -0.369172889385E+02    0.93422E-02   -0.32376E-02  5941   0.157E+00    0.337E-01
RMM:   8    -0.369119510045E+02    0.53379E-02   -0.69539E-03  5928   0.554E-01    0.137E-01
RMM:   9    -0.369116303005E+02    0.32070E-03   -0.20680E-02  5928   0.852E-01    0.158E-01
RMM:  10    -0.369115042990E+02    0.12600E-03   -0.24905E-03  5928   0.361E-01    0.295E-02
RMM:  11    -0.369139937904E+02   -0.24895E-02   -0.73155E-04  5929   0.177E-01    0.452E-02
RMM:  12    -0.369144455221E+02   -0.45173E-03   -0.22603E-04  5936   0.994E-02    0.496E-03
RMM:  13    -0.369147022075E+02   -0.25669E-03   -0.50769E-05  6010   0.394E-02    0.409E-03
RMM:  14    -0.369147849605E+02   -0.82753E-04   -0.10793E-05  5958   0.180E-02    0.179E-03
RMM:  15    -0.369147945751E+02   -0.96146E-05   -0.15886E-06  6005   0.725E-03    0.118E-03
RMM:  16    -0.369148064632E+02   -0.11888E-04   -0.72799E-07  5928   0.545E-03    0.855E-04
RMM:  17    -0.369148109544E+02   -0.44912E-05   -0.47749E-08  6092   0.139E-03    0.644E-04
RMM:  18    -0.369148122268E+02   -0.12724E-05   -0.58872E-08  5928   0.180E-03    0.128E-04
RMM:  19    -0.369148129090E+02   -0.68221E-06   -0.92676E-09  6018   0.494E-04    0.177E-05
RMM:  20    -0.369148129579E+02   -0.48826E-07   -0.77925E-10  4531   0.142E-04    0.246E-05
RMM:  21    -0.369148129767E+02   -0.18839E-07   -0.25178E-10  4385   0.909E-05    0.612E-06
RMM:  22    -0.369148129764E+02    0.28899E-09   -0.14573E-11  3890   0.497E-05    0.236E-06
RMM:  23    -0.369148129771E+02   -0.72646E-09   -0.19704E-11  3481   0.378E-05    0.183E-06
RMM:  24    -0.369148129773E+02   -0.18872E-09   -0.55382E-12  3023   0.282E-05    0.720E-07
RMM:  25    -0.369148129773E+02    0.20805E-10   -0.41863E-12  2743   0.240E-05
   1 F= -.36914813E+02 E0= -.36914797E+02  d E =-.369148E+02
       N       E                     dE             d eps       ncg     rms          rms(c)
DAV:   1    -0.369148117368E+02    0.12406E-05   -0.11175E-04  6396   0.993E-02    0.207E-03
RMM:   2    -0.369148118079E+02   -0.71119E-07   -0.17851E-06  5944   0.119E-02    0.149E-03
RMM:   3    -0.369148117597E+02    0.48209E-07   -0.31098E-07  5958   0.449E-03    0.385E-04
RMM:   4    -0.369148117533E+02    0.63717E-08   -0.19953E-08  6102   0.113E-03    0.110E-04
RMM:   5    -0.369148117542E+02   -0.94360E-09   -0.14749E-09  5735   0.273E-04    0.510E-05
RMM:   6    -0.369148117537E+02    0.52535E-09   -0.21397E-10  4013   0.120E-04    0.484E-06
RMM:   7    -0.369148117540E+02   -0.28115E-09   -0.82970E-12  3737   0.524E-05    0.208E-06
RMM:   8    -0.369148117538E+02    0.17519E-09   -0.14318E-11  3391   0.420E-05    0.140E-06
RMM:   9    -0.369148117538E+02    0.23078E-10   -0.40595E-12  3062   0.311E-05
   2 F= -.36914812E+02 E0= -.36914797E+02  d E =0.122350E-05
       N       E                     dE             d eps       ncg     rms          rms(c)
DAV:   1    -0.369148130678E+02   -0.13140E-05   -0.71152E-05  6688   0.793E-02    0.165E-03
RMM:   2    -0.369148131022E+02   -0.34415E-07   -0.11175E-06  5940   0.948E-03    0.118E-03
RMM:   3    -0.369148130661E+02    0.36105E-07   -0.19620E-07  5953   0.357E-03    0.301E-04
RMM:   4    -0.369148130634E+02    0.27098E-08   -0.12352E-08  6088   0.890E-04    0.871E-05
RMM:   5    -0.369148130632E+02    0.22681E-09   -0.93395E-10  5158   0.218E-04    0.405E-05
RMM:   6    -0.369148130631E+02    0.64460E-10   -0.13232E-10  3844   0.976E-05
   3 F= -.36914813E+02 E0= -.36914798E+02  d E =-.130930E-05
       N       E                     dE             d eps       ncg     rms          rms(c)
DAV:   1    -0.369148130622E+02    0.95895E-09    0.56548E-09  4712   0.737E-05    0.275E-06
RMM:   2    -0.369148130629E+02   -0.71975E-09    0.15369E-12  2906   0.271E-05    0.170E-06
RMM:   3    -0.369148130630E+02   -0.69235E-10   -0.78166E-13  2769   0.282E-05    0.134E-07
RMM:   4    -0.369148130632E+02   -0.18827E-09   -0.39219E-12  2520   0.269E-05    0.109E-07
RMM:   5    -0.369148130629E+02    0.28263E-09   -0.32332E-12  2370   0.246E-05    0.472E-08
RMM:   6    -0.369148130631E+02   -0.18110E-09   -0.15179E-12  2217   0.230E-05    0.362E-08
RMM:   7    -0.369148130628E+02    0.29308E-09   -0.42898E-13  2100   0.222E-05    0.381E-08
RMM:   8    -0.369148130630E+02   -0.17667E-09   -0.33651E-12  1953   0.209E-05    0.534E-08
RMM:   9    -0.369148130629E+02    0.49681E-10   -0.51101E-13  1852   0.199E-05
   4 F= -.36914813E+02 E0= -.36914798E+02  d E =0.184855E-09
       N       E                     dE             d eps       ncg     rms          rms(c)
DAV:   1    -0.369148130625E+02    0.45213E-09    0.56911E-09  4620   0.441E-05    0.443E-07
RMM:   2    -0.369148130631E+02   -0.56934E-09    0.66580E-13  1415   0.131E-05    0.274E-07
RMM:   3    -0.369148130630E+02    0.87539E-10   -0.35542E-13  1388   0.129E-05    0.208E-08
RMM:   4    -0.369148130629E+02    0.61164E-10   -0.12032E-13  1380   0.129E-05    0.768E-09
RMM:   5    -0.369148130629E+02    0.12506E-11    0.88160E-14  1345   0.127E-05
   5 F= -.36914813E+02 E0= -.36914798E+02  d E =-.169393E-10
       N       E                     dE             d eps       ncg     rms          rms(c)
DAV:   1    -0.369148130622E+02    0.79388E-09    0.57085E-09  4728   0.177E-05    0.460E-07
RMM:   2    -0.369148130629E+02   -0.72907E-09    0.18833E-13   983   0.611E-06    0.284E-07
RMM:   3    -0.369148130630E+02   -0.16576E-09    0.13816E-14  1016   0.602E-06    0.605E-09
RMM:   4    -0.369148130631E+02   -0.92200E-10   -0.14400E-13   932   0.606E-06    0.249E-09
RMM:   5    -0.369148130627E+02    0.44395E-09   -0.65298E-14   725   0.601E-06    0.104E-09
RMM:   6    -0.369148130628E+02   -0.10664E-09    0.11217E-13   920   0.602E-06    0.846E-10
RMM:   7    -0.369148130629E+02   -0.96634E-10   -0.82732E-14   638   0.601E-06
   6 F= -.36914813E+02 E0= -.36914798E+02  d E =0.462705E-10
       N       E                     dE             d eps       ncg     rms          rms(c)
DAV:   1    -0.369148130621E+02    0.69940E-09    0.56781E-09  4300   0.576E-05    0.108E-06
RMM:   2    -0.369148130630E+02   -0.86800E-09   -0.71383E-14   815   0.147E-05    0.668E-07
RMM:   3    -0.369148130629E+02    0.37630E-10   -0.22402E-13   556   0.146E-05    0.133E-08
RMM:   4    -0.369148130629E+02    0.93223E-11   -0.23685E-14   340   0.146E-05    0.497E-09
RMM:   5    -0.369148130631E+02   -0.14370E-09    0.14601E-13   523   0.146E-05    0.369E-09
RMM:   6    -0.369148130631E+02    0.12278E-10   -0.26563E-13   546   0.145E-05
   7 F= -.36914813E+02 E0= -.36914798E+02  d E =-.156433E-09
       N       E                     dE             d eps       ncg     rms          rms(c)
DAV:   1    -0.369148130624E+02    0.67791E-09    0.56914E-09  3472   0.386E-05    0.688E-07
RMM:   2    -0.369148130632E+02   -0.79410E-09   -0.14803E-14   328   0.102E-05    0.426E-07
RMM:   3    -0.369148130629E+02    0.30911E-09   -0.19408E-14   600   0.980E-06    0.104E-08
RMM:   4    -0.369148130627E+02    0.15234E-09    0.00000E+00   545   0.979E-06    0.339E-09
RMM:   5    -0.369148130631E+02   -0.40859E-09    0.00000E+00   750   0.979E-06    0.497E-10
RMM:   6    -0.369148130627E+02    0.39756E-09    0.00000E+00   580   0.979E-06    0.481E-10
RMM:   7    -0.369148130628E+02   -0.41382E-10    0.00000E+00   774   0.979E-06
   8 F= -.36914813E+02 E0= -.36914798E+02  d E =0.280579E-09
       N       E                     dE             d eps       ncg     rms          rms(c)
DAV:   1    -0.369148130622E+02    0.52876E-09    0.57089E-09  3360   0.118E-05    0.177E-07
RMM:   2    -0.369148130630E+02   -0.82798E-09    0.00000E+00   244   0.318E-06    0.109E-07
RMM:   3    -0.369148130631E+02   -0.44565E-10    0.00000E+00   393   0.311E-06    0.310E-09
RMM:   4    -0.369148130631E+02    0.18531E-10    0.00000E+00   123   0.311E-06    0.885E-10
RMM:   5    -0.369148130629E+02    0.18417E-09    0.00000E+00   110   0.311E-06    0.178E-10
RMM:   6    -0.369148130630E+02   -0.12972E-09    0.00000E+00   380   0.311E-06    0.110E-10
RMM:   7    -0.369148130630E+02   -0.14666E-10    0.00000E+00   278   0.311E-06
   9 F= -.36914813E+02 E0= -.36914798E+02  d E =-.244086E-09
       N       E                     dE             d eps       ncg     rms          rms(c)
DAV:   1    -0.369148130622E+02    0.76511E-09    0.57122E-09  3224   0.523E-06    0.771E-08
RMM:   2    -0.369148130631E+02   -0.81491E-09    0.00000E+00   391   0.176E-06    0.474E-08
RMM:   3    -0.369148130630E+02    0.42974E-10    0.00000E+00   413   0.179E-06    0.109E-09
RMM:   4    -0.369148130627E+02    0.27967E-09    0.00000E+00   129   0.179E-06    0.608E-10
RMM:   5    -0.369148130630E+02   -0.25511E-09    0.00000E+00   419   0.179E-06    0.276E-10
RMM:   6    -0.369148130631E+02   -0.16325E-09    0.00000E+00   416   0.179E-06    0.292E-10
RMM:   7    -0.369148130628E+02    0.30741E-09    0.00000E+00   349   0.179E-06    0.120E-10
RMM:   8    -0.369148130629E+02   -0.10539E-09    0.00000E+00   400   0.179E-06    0.100E-10
RMM:   9    -0.369148130629E+02    0.72987E-10    0.00000E+00   262   0.179E-06
  10 F= -.36914813E+02 E0= -.36914798E+02  d E =0.144155E-09
