gr                                      
           1
     4.315564    0.000000    0.000000
     0.000000    2.462900    0.000000
     0.000000    0.000000   19.836465
   C 
   4
Direct configuration=     1
   0.99975412  0.00000000  0.00000000
   0.16691255  0.50000000  0.00000000
   0.49975412  0.50000000  0.00000000
   0.66691255  0.00000000  0.00000000
Direct configuration=     2
   0.99977734  0.00000000 -0.00000000
   0.16688932  0.50000000  0.00000000
   0.49977734  0.50000000 -0.00000000
   0.66688932 -0.00000000  0.00000000
Direct configuration=     3
   0.99975880  0.00000000 -0.00000000
   0.16690787  0.50000000  0.00000000
   0.49975880  0.50000000 -0.00000000
   0.66690787 -0.00000000  0.00000000
Direct configuration=     4
   0.99975878  0.00000000 -0.00000000
   0.16690788  0.50000000  0.00000000
   0.49975878  0.50000000 -0.00000000
   0.66690788 -0.00000000  0.00000000
Direct configuration=     5
   0.99975879  0.00000000 -0.00000000
   0.16690787  0.50000000  0.00000000
   0.49975879  0.50000000 -0.00000000
   0.66690787 -0.00000000  0.00000000
Direct configuration=     6
   0.99975880  0.00000000 -0.00000000
   0.16690787  0.50000000  0.00000000
   0.49975880  0.50000000 -0.00000000
   0.66690787  0.00000000  0.00000000
Direct configuration=     7
   0.99975881  0.00000000 -0.00000000
   0.16690786  0.50000000  0.00000000
   0.49975881  0.50000000 -0.00000000
   0.66690786  0.00000000  0.00000000
Direct configuration=     8
   0.99975880  0.00000000 -0.00000000
   0.16690787  0.50000000  0.00000000
   0.49975880  0.50000000 -0.00000000
   0.66690787  0.00000000  0.00000000
Direct configuration=     9
   0.99975880  0.00000000 -0.00000000
   0.16690786  0.50000000  0.00000000
   0.49975880  0.50000000 -0.00000000
   0.66690786  0.00000000  0.00000000
Direct configuration=    10
   0.99975880  0.00000000 -0.00000000
   0.16690787  0.50000000  0.00000000
   0.49975880  0.50000000 -0.00000000
   0.66690787  0.00000000  0.00000000
