    4    4  400    1
  0.5270948E+02  0.4316419E-09  0.2462808E-09  0.1983328E-08  0.5000000E-15
  1.000000000000000E-004
  CAR 
 gr                                      
     16    247     12
 
  0.0000000E+00  0.0000000E+00  0.0000000E+00  0.1157407E-02
    1      -22.183941
    2      -17.120204
    3      -15.918676
    4      -10.305103
    5       -9.011861
    6       -5.878224
    7       -5.760958
    8       -5.203855
    9       -1.122106
   10        0.532176
   11        1.332105
   12        1.719172
 
  0.4166667E-01  0.0000000E+00  0.0000000E+00  0.2314815E-02
    1      -22.173894
    2      -17.263524
    3      -15.760204
    4      -10.293132
    5       -9.001979
    6       -5.921622
    7       -5.782491
    8       -5.267102
    9       -1.042962
   10        0.545789
   11        1.345904
   12        1.733140
 
  0.8333333E-01  0.0000000E+00  0.0000000E+00  0.2314815E-02
    1      -22.143756
    2      -17.573631
    3      -15.404725
    4      -10.257238
    5       -8.972382
    6       -6.049909
    7       -5.845929
    8       -5.443218
    9       -0.819322
   10        0.586631
   11        1.387297
   12        1.775046
 
  0.1250000E+00  0.0000000E+00  0.0000000E+00  0.2314815E-02
    1      -22.093548
    2      -17.931533
    3      -14.971476
    4      -10.197479
    5       -8.923224
    6       -6.257725
    7       -5.947975
    8       -5.701476
    9       -0.482410
   10        0.654715
   11        1.456271
   12        1.844891
 
  0.1666667E+00  0.0000000E+00  0.0000000E+00  0.2314815E-02
    1      -22.023304
    2      -18.297023
    3      -14.501084
    4      -10.113951
    5       -8.854765
    6       -6.537132
    7       -6.083703
    8       -6.010766
    9       -0.064177
   10        0.750050
   11        1.552801
   12        1.942678
 
  0.2083333E+00  0.0000000E+00  0.0000000E+00  0.2314815E-02
    1      -21.933074
    2      -18.656519
    3      -14.007737
    4      -10.006797
    5       -8.767384
    6       -6.878742
    7       -6.347435
    8       -6.247208
    9        0.410509
   10        0.872644
   11        1.676852
   12        2.068409
 
  0.2500000E+00  0.0000000E+00  0.0000000E+00  0.2314815E-02
    1      -21.822921
    2      -19.004395
    3      -13.497862
    4       -9.876207
    5       -8.661583
    6       -7.272735
    7       -6.695444
    8       -6.432232
    9        0.923984
   10        1.022488
   11        1.828365
   12        2.222083
 
  0.2916667E+00  0.0000000E+00  0.0000000E+00  0.2314815E-02
    1      -21.692926
    2      -19.337872
    3      -12.975264
    4       -9.722426
    5       -8.538012
    6       -7.709621
    7       -7.044251
    8       -6.632652
    9        1.199563
   10        1.463573
   11        2.007254
   12        2.403699
 
  0.3333333E+00  0.0000000E+00  0.0000000E+00  0.2314815E-02
    1      -21.543188
    2      -19.655369
    3      -12.442800
    4       -9.545765
    5       -8.397482
    6       -8.180690
    7       -7.386882
    8       -6.842800
    9        1.403833
   10        2.019418
   11        2.213373
   12        2.613251
 
  0.3750000E+00  0.0000000E+00  0.0000000E+00  0.2314815E-02
    1      -21.373824
    2      -19.955887
    3      -11.903037
    4       -9.346619
    5       -8.678214
    6       -8.240997
    7       -7.718612
    8       -7.057625
    9        1.635250
   10        2.446461
   11        2.582228
   12        2.850733
 
  0.4166667E+00  0.0000000E+00  0.0000000E+00  0.2314815E-02
    1      -21.184977
    2      -20.238737
    3      -11.358563
    4       -9.195481
    5       -9.125478
    6       -8.069788
    7       -8.036152
    8       -7.272744
    9        1.893744
   10        2.705964
   11        3.116130
   12        3.136394
 
  0.4583333E+00  0.0000000E+00  0.0000000E+00  0.2314815E-02
    1      -20.976815
    2      -20.503418
    3      -10.812178
    4       -9.726726
    5       -8.882960
    6       -8.337143
    7       -7.885350
    8       -7.484417
    9        2.179224
   10        2.830576
   11        2.990365
   12        3.409472
 
  0.5000000E+00  0.0000000E+00  0.0000000E+00  0.1157407E-02
    1      -20.749546
    2      -20.749546
    3      -10.267027
    4      -10.267027
    5       -8.619847
    6       -8.619847
    7       -7.689497
    8       -7.689497
    9        2.491563
   10        2.491563
   11        3.293102
   12        3.293102
 
  0.0000000E+00  0.2777778E-01  0.0000000E+00  0.2314815E-02
    1      -22.170206
    2      -17.108362
    3      -15.907002
    4      -10.288739
    5       -9.074172
    6       -5.906709
    7       -5.818715
    8       -5.187197
    9       -1.125410
   10        0.550800
   11        1.350949
   12        1.738247
 
  0.4166667E-01  0.2777778E-01  0.0000000E+00  0.4629630E-02
    1      -22.160159
    2      -17.251536
    3      -15.748725
    4      -10.276772
    5       -9.064275
    6       -5.953497
    7       -5.836212
    8       -5.250576
    9       -1.046245
   10        0.564413
   11        1.364747
   12        1.752215
 
  0.8333333E-01  0.2777778E-01  0.0000000E+00  0.4629630E-02
    1      -22.130026
    2      -17.561398
    3      -15.393638
    4      -10.240890
    5       -9.034634
    6       -6.085299
    7       -5.894316
    8       -5.426998
    9       -0.822634
   10        0.605256
   11        1.406137
   12        1.794121
 
  0.1250000E+00  0.2777778E-01  0.0000000E+00  0.4629630E-02
    1      -22.079826
    2      -17.919077
    3      -14.960860
    4      -10.181151
    5       -8.985399
    6       -6.292904
    7       -5.993881
    8       -5.685577
    9       -0.485960
   10        0.673342
   11        1.475107
   12        1.863967
 
  0.1666667E+00  0.2777778E-01  0.0000000E+00  0.4629630E-02
    1      -22.009593
    2      -18.284377
    3      -14.491019
    4      -10.097652
    5       -8.916825
    6       -6.569300
    7       -6.129435
    8       -5.995109
    9       -0.068270
   10        0.768681
   11        1.571632
   12        1.961755
 
  0.2083333E+00  0.2777778E-01  0.0000000E+00  0.4629630E-02
    1      -21.919378
    2      -18.643709
    3      -13.998319
    4       -9.990534
    5       -8.829283
    6       -6.906438
    7       -6.331923
    8       -6.294078
    9        0.405550
   10        0.891281
   11        1.695677
   12        2.087487
 
  0.2500000E+00  0.2777778E-01  0.0000000E+00  0.4629630E-02
    1      -21.809242
    2      -18.991445
    3      -13.489206
    4       -9.859988
    5       -8.723266
    6       -7.295447
    7       -6.679994
    8       -6.480862
    9        0.917855
   10        1.041132
   11        1.847183
   12        2.241163
 
  0.2916667E+00  0.2777778E-01  0.0000000E+00  0.4629630E-02
    1      -21.679269
    2      -19.324802
    3      -12.967509
    4       -9.706259
    5       -8.599410
    6       -7.727407
    7       -7.028802
    8       -6.683247
    9        1.218216
   10        1.456014
   11        2.026066
   12        2.422782
 
  0.3333333E+00  0.2777778E-01  0.0000000E+00  0.4629630E-02
    1      -21.529558
    2      -19.642194
    3      -12.436115
    4       -9.529660
    5       -8.458512
    6       -8.193916
    7       -7.371395
    8       -6.895327
    9        1.422498
   10        2.010241
   11        2.232181
   12        2.632338
 
  0.3750000E+00  0.2777778E-01  0.0000000E+00  0.4629630E-02
    1      -21.360226
    2      -19.942622
    3      -11.897625
    4       -9.330581
    5       -8.687379
    6       -8.301557
    7       -7.703062
    8       -7.111926
    9        1.653927
   10        2.465272
   11        2.571450
   12        2.869824
 
  0.4166667E+00  0.2777778E-01  0.0000000E+00  0.4629630E-02
    1      -21.171416
    2      -20.225395
    3      -11.354668
    4       -9.201119
    5       -9.109514
    6       -8.129754
    7       -8.020524
    8       -7.328605
    9        1.912435
   10        2.724788
   11        3.125111
   12        3.135228
 
  0.4583333E+00  0.2777778E-01  0.0000000E+00  0.4629630E-02
    1      -20.963297
    2      -20.490008
    3      -10.810091
    4       -9.729348
    5       -8.867076
    6       -8.321430
    7       -7.944574
    8       -7.541612
    9        2.197933
   10        2.849349
   11        3.009216
   12        3.428548
 
  0.5000000E+00  0.2777778E-01  0.0000000E+00  0.2314815E-02
    1      -20.736078
    2      -20.736078
    3      -10.267093
    4      -10.267093
    5       -8.604048
    6       -8.604048
    7       -7.747805
    8       -7.747805
    9        2.510297
   10        2.510297
   11        3.311834
   12        3.311834
 
  0.0000000E+00  0.5555556E-01  0.0000000E+00  0.2314815E-02
    1      -22.129010
    2      -17.072841
    3      -15.872127
    4      -10.239679
    5       -9.256091
    6       -5.991579
    7       -5.987323
    8       -5.137244
    9       -1.136141
   10        0.606672
   11        1.407472
   12        1.795473
 
  0.4166667E-01  0.5555556E-01  0.0000000E+00  0.4629630E-02
    1      -22.118968
    2      -17.215584
    3      -15.714430
    4      -10.227725
    5       -9.246146
    6       -6.065190
    7       -5.976105
    8       -5.201031
    9       -1.056909
   10        0.620285
   11        1.421267
   12        1.809441
 
  0.8333333E-01  0.5555556E-01  0.0000000E+00  0.4629630E-02
    1      -22.088848
    2      -17.524717
    3      -15.360521
    4      -10.191880
    5       -9.216358
    6       -6.205333
    7       -6.020516
    8       -5.378395
    9       -0.833377
   10        0.661130
   11        1.462650
   12        1.851348
 
  0.1250000E+00  0.5555556E-01  0.0000000E+00  0.4629630E-02
    1      -22.038670
    2      -17.881731
    3      -14.929176
    4      -10.132203
    5       -9.166867
    6       -6.409569
    7       -6.115498
    8       -5.637957
    9       -0.497428
   10        0.729220
   11        1.531608
   12        1.921195
 
  0.1666667E+00  0.5555556E-01  0.0000000E+00  0.4629630E-02
    1      -21.968471
    2      -18.246457
    3      -14.461018
    4      -10.048790
    5       -9.097913
    6       -6.675183
    7       -6.252375
    8       -5.948229
    9       -0.081397
   10        0.824568
   11        1.628117
   12        2.018985
 
  0.2083333E+00  0.5555556E-01  0.0000000E+00  0.4629630E-02
    1      -21.878298
    2      -18.605299
    3      -13.970298
    4       -9.941784
    5       -9.009840
    6       -6.997455
    7       -6.421945
    8       -6.285481
    9        0.389774
   10        0.947180
   11        1.752141
   12        2.144721
 
  0.2500000E+00  0.5555556E-01  0.0000000E+00  0.4629630E-02
    1      -21.768218
    2      -18.952614
    3      -13.463528
    4       -9.811373
    5       -8.903108
    6       -7.370117
    7       -6.633737
    8       -6.615427
    9        0.898504
   10        1.097050
   11        1.903626
   12        2.298402
 
  0.2916667E+00  0.5555556E-01  0.0000000E+00  0.4629630E-02
    1      -21.638313
    2      -19.285607
    3      -12.944614
    4       -9.657804
    5       -8.778313
    6       -7.786000
    7       -6.982548
    8       -6.825000
    9        1.274156
   10        1.432281
   11        2.082488
   12        2.480028
 
  0.3333333E+00  0.5555556E-01  0.0000000E+00  0.4629630E-02
    1      -21.488681
    2      -19.602687
    3      -12.416535
    4       -9.481388
    5       -8.636198
    6       -8.237691
    7       -7.325020
    8       -7.043988
    9        1.478464
   10        1.981532
   11        2.288591
   12        2.689593
 
  0.3750000E+00  0.5555556E-01  0.0000000E+00  0.4629630E-02
    1      -21.319444
    2      -19.902844
    3      -11.882004
    4       -9.282516
    5       -8.718033
    6       -8.477685
    7       -7.656490
    8       -7.266817
    9        1.709923
   10        2.521687
   11        2.537700
   12        2.927092
 
  0.4166667E+00  0.5555556E-01  0.0000000E+00  0.4629630E-02
    1      -21.130745
    2      -20.185383
    3      -11.343785
    4       -9.220441
    5       -9.061676
    6       -8.303910
    7       -7.973713
    8       -7.488894
    9        1.968466
   10        2.781247
   11        3.088896
   12        3.192512
 
  0.4583333E+00  0.5555556E-01  0.0000000E+00  0.4629630E-02
    1      -20.922756
    2      -20.449794
    3      -10.804882
    4       -9.739039
    5       -8.819483
    6       -8.274359
    7       -8.116256
    8       -7.706454
    9        2.254004
   10        2.905563
   11        3.065764
   12        3.485885
 
  0.5000000E+00  0.5555556E-01  0.0000000E+00  0.2314815E-02
    1      -20.695688
    2      -20.695688
    3      -10.268675
    4      -10.268675
    5       -8.556713
    6       -8.556713
    7       -7.916416
    8       -7.916416
    9        2.566423
   10        2.566423
   11        3.367958
   12        3.367958
 
  0.0000000E+00  0.8333333E-01  0.0000000E+00  0.2314815E-02
    1      -22.060388
    2      -17.013651
    3      -15.814517
    4      -10.158029
    5       -9.543981
    6       -6.254226
    7       -6.131105
    8       -5.054059
    9       -1.156766
   10        0.699800
   11        1.501652
   12        1.890852
 
  0.4166667E-01  0.8333333E-01  0.0000000E+00  0.4629630E-02
    1      -22.050353
    2      -17.155702
    3      -15.657773
    4      -10.146096
    5       -9.533941
    6       -6.306318
    7       -6.138379
    8       -5.118565
    9       -1.077400
   10        0.713412
   11        1.515443
   12        1.904820
 
  0.8333333E-01  0.8333333E-01  0.0000000E+00  0.4629630E-02
    1      -22.020256
    2      -17.463647
    3      -15.305844
    4      -10.110314
    5       -9.503858
    6       -6.439069
    7       -6.181596
    8       -5.297586
    9       -0.853973
   10        0.754254
   11        1.556813
   12        1.946727
 
  0.1250000E+00  0.8333333E-01  0.0000000E+00  0.4629630E-02
    1      -21.970118
    2      -17.819557
    3      -14.876951
    4      -10.050743
    5       -9.453856
    6       -6.632389
    7       -6.274650
    8       -5.558860
    9       -0.519254
   10        0.822342
   11        1.625747
   12        2.016574
 
  0.1666667E+00  0.8333333E-01  0.0000000E+00  0.4629630E-02
    1      -21.899974
    2      -18.183329
    3      -14.411704
    4       -9.967478
    5       -9.384140
    6       -6.879089
    7       -6.415030
    8       -5.870405
    9       -0.106080
   10        0.917693
   11        1.722225
   12        2.114366
 
  0.2083333E+00  0.8333333E-01  0.0000000E+00  0.4629630E-02
    1      -21.809874
    2      -18.541348
    3      -13.924442
    4       -9.860662
    5       -9.295005
    6       -7.175396
    7       -6.594226
    8       -6.208402
    9        0.360520
   10        1.040313
   11        1.846212
   12        2.240105
 
  0.2500000E+00  0.8333333E-01  0.0000000E+00  0.4629630E-02
    1      -21.699886
    2      -18.887957
    3      -13.421791
    4       -9.730485
    5       -9.186847
    6       -7.518152
    7       -6.801622
    8       -6.556964
    9        0.863076
   10        1.190199
   11        1.997655
   12        2.393793
 
  0.2916667E+00  0.8333333E-01  0.0000000E+00  0.4629630E-02
    1      -21.570092
    2      -19.220341
    3      -12.907807
    4       -9.577190
    5       -9.060173
    6       -7.903537
    7       -7.026867
    8       -6.905764
    9        1.367328
   10        1.389275
   11        2.176477
   12        2.575427
 
  0.3333333E+00  0.8333333E-01  0.0000000E+00  0.4629630E-02
    1      -21.420594
    2      -19.536894
    3      -12.385649
    4       -9.401090
    5       -8.915618
    6       -8.326604
    7       -7.261217
    8       -7.248017
    9        1.571664
   10        1.929852
   11        2.382552
   12        2.785004
 
  0.3750000E+00  0.8333333E-01  0.0000000E+00  0.4629630E-02
    1      -21.251515
    2      -19.836597
    3      -11.858255
    4       -9.202573
    5       -8.781508
    6       -8.753966
    7       -7.579139
    8       -7.497899
    9        1.803153
   10        2.476936
   11        2.615654
   12        3.022517
 
  0.4166667E+00  0.8333333E-01  0.0000000E+00  0.4629630E-02
    1      -21.063001
    2      -20.118744
    3      -11.328659
    4       -9.262072
    5       -8.982125
    6       -8.576179
    7       -7.895941
    8       -7.731839
    9        2.061728
   10        2.875289
   11        3.021535
   12        3.287957
 
  0.4583333E+00  0.8333333E-01  0.0000000E+00  0.4629630E-02
    1      -20.855230
    2      -20.382815
    3      -10.800197
    4       -9.762290
    5       -8.740355
    6       -8.383437
    7       -8.196135
    8       -7.959235
    9        2.347303
   10        2.998981
   11        3.159984
   12        3.525691
 
  0.5000000E+00  0.8333333E-01  0.0000000E+00  0.2314815E-02
    1      -20.628416
    2      -20.628416
    3      -10.276637
    4      -10.276637
    5       -8.478031
    6       -8.478031
    7       -8.177189
    8       -8.177189
    9        2.659769
   10        2.659769
   11        3.461155
   12        3.461155
 
  0.0000000E+00  0.1111111E+00  0.0000000E+00  0.2314815E-02
    1      -21.964402
    2      -16.930815
    3      -15.735054
    4      -10.043964
    5       -9.918875
    6       -6.602306
    7       -6.322454
    8       -4.937747
    9       -1.191374
   10        0.830187
   11        1.633452
   12        2.024386
 
  0.4166667E-01  0.1111111E+00  0.0000000E+00  0.4629630E-02
    1      -21.954378
    2      -17.071956
    3      -15.579616
    4      -10.032061
    5       -9.908664
    6       -6.649529
    7       -6.330628
    8       -5.003357
    9       -1.111764
   10        0.843795
   11        1.647236
   12        2.038354
 
  0.8333333E-01  0.1111111E+00  0.0000000E+00  0.4629630E-02
    1      -21.924313
    2      -17.378290
    3      -15.230501
    4       -9.996372
    5       -9.878059
    6       -6.776299
    7       -6.368494
    8       -5.184892
    9       -0.888404
   10        0.884627
   11        1.688582
   12        2.080259
 
  0.1250000E+00  0.1111111E+00  0.0000000E+00  0.4629630E-02
    1      -21.874229
    2      -17.732671
    3      -14.805200
    4       -9.936955
    5       -9.827147
    6       -6.961281
    7       -6.452763
    8       -5.448729
    9       -0.555431
   10        0.952699
   11        1.757480
   12        2.150104
 
  0.1666667E+00  0.1111111E+00  0.0000000E+00  0.4629630E-02
    1      -21.804163
    2      -18.095102
    3      -14.344298
    4       -9.853907
    5       -9.756073
    6       -7.192021
    7       -6.588299
    8       -5.762146
    9       -0.146428
   10        1.048035
   11        1.853906
   12        2.247895
 
  0.2083333E+00  0.1111111E+00  0.0000000E+00  0.4629630E-02
    1      -21.714165
    2      -18.451961
    3      -13.862267
    4       -9.747370
    5       -9.665041
    6       -7.462199
    7       -6.771273
    8       -6.101215
    9        0.313471
   10        1.170645
   11        1.977829
   12        2.373636
 
  0.2500000E+00  0.1111111E+00  0.0000000E+00  0.4629630E-02
    1      -21.604306
    2      -18.797570
    3      -13.365933
    4       -9.617533
    5       -9.554320
    6       -7.769071
    7       -6.992412
    8       -6.450192
    9        0.806976
   10        1.320529
   11        2.129200
   12        2.527327
 
  0.2916667E+00  0.1111111E+00  0.0000000E+00  0.4629630E-02
    1      -21.474669
    2      -19.129091
    3      -12.859608
    4       -9.464642
    5       -9.424246
    6       -8.111906
    7       -7.239471
    8       -6.798944
    9        1.322058
   10        1.497664
   11        2.307949
   12        2.708968
 
  0.3333333E+00  0.1111111E+00  0.0000000E+00  0.4629630E-02
    1      -21.325359
    2      -19.444901
    3      -12.346785
    4       -9.289005
    5       -9.275226
    6       -8.490327
    7       -7.499786
    8       -7.140845
    9        1.702011
   10        1.849827
   11        2.513965
   12        2.918555
 
  0.3750000E+00  0.1111111E+00  0.0000000E+00  0.4629630E-02
    1      -21.156503
    2      -19.743960
    3      -11.830822
    4       -9.107748
    5       -9.091011
    6       -8.902739
    7       -7.762557
    8       -7.471433
    9        1.933513
   10        2.383087
   11        2.747056
   12        3.156082
 
  0.4166667E+00  0.1111111E+00  0.0000000E+00  0.4629630E-02
    1      -20.968251
    2      -20.025552
    3      -11.315285
    4       -9.345632
    5       -8.922392
    6       -8.871139
    7       -8.019995
    8       -7.787601
    9        2.192099
   10        2.915003
   11        3.006801
   12        3.421540
 
  0.4583333E+00  0.1111111E+00  0.0000000E+00  0.4629630E-02
    1      -20.760787
    2      -20.289144
    3      -10.804166
    4       -9.813957
    5       -8.719862
    6       -8.629993
    7       -8.267149
    8       -8.087117
    9        2.477681
   10        3.129371
   11        3.291820
   12        3.432913
 
  0.5000000E+00  0.1111111E+00  0.0000000E+00  0.2314815E-02
    1      -20.534330
    2      -20.534330
    3      -10.302009
    4      -10.302009
    5       -8.501044
    6       -8.501044
    7       -8.368331
    8       -8.368331
    9        2.790151
   10        2.790151
   11        3.589845
   12        3.589845
 
  0.0000000E+00  0.1388889E+00  0.0000000E+00  0.2314815E-02
    1      -21.841138
    2      -16.824360
    3      -15.635227
    4      -10.359882
    5       -9.897737
    6       -7.013380
    7       -6.561804
    8       -4.788459
    9       -1.245584
   10        0.997834
   11        1.802813
   12        2.196078
 
  0.4166667E-01  0.1388889E+00  0.0000000E+00  0.4629630E-02
    1      -21.831128
    2      -16.964444
    3      -15.481423
    4      -10.349380
    5       -9.885876
    6       -7.060105
    7       -6.565790
    8       -4.855679
    9       -1.165531
   10        1.011433
   11        1.816585
   12        2.210044
 
  0.8333333E-01  0.1388889E+00  0.0000000E+00  0.4629630E-02
    1      -21.801105
    2      -17.268809
    3      -15.136039
    4      -10.317880
    5       -9.850313
    6       -7.186489
    7       -6.590587
    8       -5.040831
    9       -0.942053
   10        1.052241
   11        1.857895
   12        2.251945
 
  0.1250000E+00  0.1388889E+00  0.0000000E+00  0.4629630E-02
    1      -21.751091
    2      -17.621248
    3      -14.715710
    4      -10.265402
    5       -9.791107
    6       -7.369515
    7       -6.656231
    8       -5.308274
    9       -0.611307
   10        1.120278
   11        1.926733
   12        2.321785
 
  0.1666667E+00  0.1388889E+00  0.0000000E+00  0.4629630E-02
    1      -21.681126
    2      -17.981946
    3      -14.260988
    4      -10.191975
    5       -9.708354
    6       -7.593122
    7       -6.773505
    8       -5.624259
    9       -0.207901
   10        1.215571
   11        2.023075
   12        2.419570
 
  0.2083333E+00  0.1388889E+00  0.0000000E+00  0.4629630E-02
    1      -21.591262
    2      -18.337296
    3      -13.786561
    4      -10.097626
    5       -9.602196
    6       -7.847872
    7       -6.944162
    8       -5.964744
    9        0.242944
   10        1.338140
   11        2.146892
   12        2.545306
 
  0.2500000E+00  0.1388889E+00  0.0000000E+00  0.4629630E-02
    1      -21.481568
    2      -18.681599
    3      -13.299600
    4       -9.982366
    5       -9.472826
    6       -8.128666
    7       -7.163456
    8       -6.314224
    9        0.724234
   10        1.487988
   11        2.298137
   12        2.698995
 
  0.2916667E+00  0.1388889E+00  0.0000000E+00  0.4629630E-02
    1      -21.352134
    2      -19.011993
    3      -12.804891
    4       -9.846173
    5       -9.320485
    6       -8.433658
    7       -7.421851
    8       -6.662845
    9        1.224335
   10        1.665096
   11        2.476748
   12        2.880639
 
  0.3333333E+00  0.1388889E+00  0.0000000E+00  0.4629630E-02
    1      -21.203068
    2      -19.326831
    3      -12.306560
    4       -9.688962
    5       -9.145485
    6       -8.763606
    7       -7.706503
    8       -7.004209
    9        1.734812
   10        1.869422
   11        2.682635
   12        3.090232
 
  0.3750000E+00  0.1388889E+00  0.0000000E+00  0.4629630E-02
    1      -21.034500
    2      -19.625051
    3      -11.808796
    4       -9.510557
    5       -9.120884
    6       -8.948207
    7       -8.003058
    8       -7.334019
    9        2.100905
   10        2.249078
   11        2.915653
   12        3.327769
 
  0.4166667E+00  0.1388889E+00  0.0000000E+00  0.4629630E-02
    1      -20.846589
    2      -19.905918
    3      -11.316222
    4       -9.507749
    5       -9.310685
    6       -8.729130
    7       -8.297996
    8       -7.649282
    9        2.359466
   10        2.761552
   11        3.175512
   12        3.593240
 
  0.4583333E+00  0.1388889E+00  0.0000000E+00  0.4629630E-02
    1      -20.639523
    2      -20.168885
    3      -10.834082
    4       -9.924414
    5       -9.089040
    6       -8.580910
    7       -8.488848
    8       -7.947844
    9        2.645009
   10        3.266633
   11        3.296561
   12        3.461137
 
  0.5000000E+00  0.1388889E+00  0.0000000E+00  0.2314815E-02
    1      -20.413531
    2      -20.413531
    3      -10.368180
    4      -10.368180
    5       -8.845526
    6       -8.845526
    7       -8.228105
    8       -8.228105
    9        2.957421
   10        2.957421
   11        3.717663
   12        3.717690
 
  0.0000000E+00  0.1666667E+00  0.0000000E+00  0.2314815E-02
    1      -21.690713
    2      -16.694327
    3      -15.517531
    4      -10.846374
    5       -9.719688
    6       -7.470590
    7       -6.844495
    8       -4.606395
    9       -1.326296
   10        1.202724
   11        2.009653
   12        2.405928
 
  0.4166667E-01  0.1666667E+00  0.0000000E+00  0.4629630E-02
    1      -21.680721
    2      -16.833314
    3      -15.365673
    4      -10.835371
    5       -9.707882
    6       -7.518249
    7       -6.842399
    8       -4.675941
    9       -1.245421
   10        1.216311
   11        2.023406
   12        2.419892
 
  0.8333333E-01  0.1666667E+00  0.0000000E+00  0.4629630E-02
    1      -21.650750
    2      -17.135447
    3      -15.025120
    4      -10.802326
    5       -9.672485
    6       -7.647097
    7       -6.849838
    8       -4.866212
    9       -1.021332
   10        1.257081
   11        2.064658
   12        2.461787
 
  0.1250000E+00  0.1666667E+00  0.0000000E+00  0.4629630E-02
    1      -21.600824
    2      -17.485551
    3      -14.611635
    4      -10.747125
    5       -9.613555
    6       -7.832148
    7       -6.890372
    8       -5.138600
    9       -0.693137
   10        1.325058
   11        2.133397
   12        2.531616
 
  0.1666667E+00  0.1666667E+00  0.0000000E+00  0.4629630E-02
    1      -21.530982
    2      -17.844115
    3      -14.165755
    4      -10.669554
    5       -9.531190
    6       -8.054768
    7       -6.979645
    8       -5.457975
    9       -0.296790
   10        1.420273
   11        2.229599
   12        2.629388
 
  0.2083333E+00  0.1666667E+00  0.0000000E+00  0.4629630E-02
    1      -21.441280
    2      -18.197584
    3      -13.702557
    4      -10.569261
    5       -9.425534
    6       -8.303370
    7       -7.124165
    8       -5.800234
    9        0.142492
   10        1.542757
   11        2.353230
   12        2.755109
 
  0.2500000E+00  0.1666667E+00  0.0000000E+00  0.4629630E-02
    1      -21.331790
    2      -18.540254
    3      -13.229872
    4      -10.445697
    5       -9.296777
    6       -8.570885
    7       -7.323620
    8       -6.150251
    9        0.608210
   10        1.692521
   11        2.504242
   12        2.908787
 
  0.2916667E+00  0.1666667E+00  0.0000000E+00  0.4629630E-02
    1      -21.202606
    2      -18.869239
    3      -12.753435
    4      -10.298034
    5       -9.145166
    6       -8.853347
    7       -7.572569
    8       -6.498576
    9        1.089324
   10        1.869554
   11        2.682573
   12        3.090424
 
  0.3333333E+00  0.1666667E+00  0.0000000E+00  0.4629630E-02
    1      -21.053840
    2      -19.182859
    3      -12.278659
    4      -10.125081
    5       -9.149368
    6       -8.971008
    7       -7.861629
    8       -6.839125
    9        1.577987
   10        2.073814
   11        2.888142
   12        3.300016
 
  0.3750000E+00  0.1666667E+00  0.0000000E+00  0.4629630E-02
    1      -20.885630
    2      -19.480030
    3      -11.811369
    4       -9.925244
    5       -9.460011
    6       -8.774684
    7       -8.178434
    8       -7.167822
    9        2.068241
   10        2.305233
   11        3.120842
   12        3.537558
 
  0.4166667E+00  0.1666667E+00  0.0000000E+00  0.4629630E-02
    1      -20.698142
    2      -19.759992
    3      -11.357998
    4       -9.788610
    5       -9.696703
    6       -8.556668
    7       -8.508576
    8       -7.481824
    9        2.555273
   10        2.563722
   11        3.380534
   12        3.803037
 
  0.4583333E+00  0.1666667E+00  0.0000000E+00  0.4629630E-02
    1      -20.491572
    2      -20.022180
    3      -10.925153
    4      -10.139939
    5       -9.438090
    6       -8.836957
    7       -8.317544
    8       -7.779074
    9        2.849174
   10        3.034988
   11        3.500428
   12        3.667015
 
  0.5000000E+00  0.1666667E+00  0.0000000E+00  0.2314815E-02
    1      -20.266157
    2      -20.266157
    3      -10.518302
    4      -10.518302
    5       -9.149993
    6       -9.149993
    7       -8.058040
    8       -8.058040
    9        3.161460
   10        3.161460
   11        3.503729
   12        3.503729
 