<?xml version="1.0" encoding="ISO-8859-1"?>
<modeling>
 <generator>
  <i name="program" type="string">vasp </i>
  <i name="version" type="string">5.3.5  </i>
  <i name="subversion" type="string">31Mar14 (build Mar 02 2015 18:14:16) complex                          parallel </i>
  <i name="platform" type="string">LinuxIFC </i>
  <i name="date" type="string">2018 08 09 </i>
  <i name="time" type="string">14:55:30 </i>
 </generator>
 <incar>
  <i type="string" name="SYSTEM">  gr</i>
  <i type="string" name="PREC">accurate : accuracy</i>
  <i type="string" name="ALGO"> FAST.</i>
  <i type="int" name="NELM">   100</i>
  <i type="int" name="NELMDL">    -3</i>
  <i type="int" name="NELMIN">     5</i>
  <i type="int" name="IBRION">     1</i>
  <i name="EDIFF">      0.00000000</i>
  <i name="EDIFFG">     -0.00000100</i>
  <i type="int" name="NSW">   400</i>
  <i type="int" name="ISIF">     2</i>
  <i name="ENCUT">   2000.00000000</i>
  <i type="int" name="ISMEAR">     0</i>
  <i name="SIGMA">      0.05000000</i>
  <i type="int" name="NWRITE">     2</i>
  <i type="logical" name="LWAVE"> F  </i>
  <i type="logical" name="LCHARG"> F  </i>
  <i type="int" name="NELM">   100</i>
 </incar>
 <kpoints>
  <generation param="Gamma">
   <v type="int" name="divisions">      24       36        1 </v>
   <v name="usershift">      0.00000000       0.00000000       0.00000000 </v>
   <v name="genvec1">      0.04166667       0.00000000       0.00000000 </v>
   <v name="genvec2">      0.00000000       0.02777778       0.00000000 </v>
   <v name="genvec3">      0.00000000       0.00000000       1.00000000 </v>
   <v name="shift">      0.00000000       0.00000000       0.00000000 </v>
  </generation>
  <varray name="kpointlist" >
   <v>       0.00000000       0.00000000       0.00000000 </v>
   <v>       0.04166667       0.00000000       0.00000000 </v>
   <v>       0.08333333       0.00000000       0.00000000 </v>
   <v>       0.12500000       0.00000000       0.00000000 </v>
   <v>       0.16666667       0.00000000       0.00000000 </v>
   <v>       0.20833333       0.00000000       0.00000000 </v>
   <v>       0.25000000       0.00000000       0.00000000 </v>
   <v>       0.29166667       0.00000000       0.00000000 </v>
   <v>       0.33333333       0.00000000       0.00000000 </v>
   <v>       0.37500000       0.00000000       0.00000000 </v>
   <v>       0.41666667       0.00000000       0.00000000 </v>
   <v>       0.45833333       0.00000000       0.00000000 </v>
   <v>       0.50000000       0.00000000       0.00000000 </v>
   <v>       0.00000000       0.02777778       0.00000000 </v>
   <v>       0.04166667       0.02777778       0.00000000 </v>
   <v>       0.08333333       0.02777778       0.00000000 </v>
   <v>       0.12500000       0.02777778       0.00000000 </v>
   <v>       0.16666667       0.02777778       0.00000000 </v>
   <v>       0.20833333       0.02777778       0.00000000 </v>
   <v>       0.25000000       0.02777778       0.00000000 </v>
   <v>       0.29166667       0.02777778       0.00000000 </v>
   <v>       0.33333333       0.02777778       0.00000000 </v>
   <v>       0.37500000       0.02777778       0.00000000 </v>
   <v>       0.41666667       0.02777778       0.00000000 </v>
   <v>       0.45833333       0.02777778       0.00000000 </v>
   <v>       0.50000000       0.02777778       0.00000000 </v>
   <v>       0.00000000       0.05555556       0.00000000 </v>
   <v>       0.04166667       0.05555556       0.00000000 </v>
   <v>       0.08333333       0.05555556       0.00000000 </v>
   <v>       0.12500000       0.05555556       0.00000000 </v>
   <v>       0.16666667       0.05555556       0.00000000 </v>
   <v>       0.20833333       0.05555556       0.00000000 </v>
   <v>       0.25000000       0.05555556       0.00000000 </v>
   <v>       0.29166667       0.05555556       0.00000000 </v>
   <v>       0.33333333       0.05555556       0.00000000 </v>
   <v>       0.37500000       0.05555556       0.00000000 </v>
   <v>       0.41666667       0.05555556       0.00000000 </v>
   <v>       0.45833333       0.05555556       0.00000000 </v>
   <v>       0.50000000       0.05555556       0.00000000 </v>
   <v>       0.00000000       0.08333333       0.00000000 </v>
   <v>       0.04166667       0.08333333       0.00000000 </v>
   <v>       0.08333333       0.08333333       0.00000000 </v>
   <v>       0.12500000       0.08333333       0.00000000 </v>
   <v>       0.16666667       0.08333333       0.00000000 </v>
   <v>       0.20833333       0.08333333       0.00000000 </v>
   <v>       0.25000000       0.08333333       0.00000000 </v>
   <v>       0.29166667       0.08333333       0.00000000 </v>
   <v>       0.33333333       0.08333333       0.00000000 </v>
   <v>       0.37500000       0.08333333       0.00000000 </v>
   <v>       0.41666667       0.08333333       0.00000000 </v>
   <v>       0.45833333       0.08333333       0.00000000 </v>
   <v>       0.50000000       0.08333333       0.00000000 </v>
   <v>       0.00000000       0.11111111       0.00000000 </v>
   <v>       0.04166667       0.11111111       0.00000000 </v>
   <v>       0.08333333       0.11111111       0.00000000 </v>
   <v>       0.12500000       0.11111111       0.00000000 </v>
   <v>       0.16666667       0.11111111       0.00000000 </v>
   <v>       0.20833333       0.11111111       0.00000000 </v>
   <v>       0.25000000       0.11111111       0.00000000 </v>
   <v>       0.29166667       0.11111111       0.00000000 </v>
   <v>       0.33333333       0.11111111       0.00000000 </v>
   <v>       0.37500000       0.11111111       0.00000000 </v>
   <v>       0.41666667       0.11111111       0.00000000 </v>
   <v>       0.45833333       0.11111111       0.00000000 </v>
   <v>       0.50000000       0.11111111       0.00000000 </v>
   <v>       0.00000000       0.13888889       0.00000000 </v>
   <v>       0.04166667       0.13888889       0.00000000 </v>
   <v>       0.08333333       0.13888889       0.00000000 </v>
   <v>       0.12500000       0.13888889       0.00000000 </v>
   <v>       0.16666667       0.13888889       0.00000000 </v>
   <v>       0.20833333       0.13888889       0.00000000 </v>
   <v>       0.25000000       0.13888889       0.00000000 </v>
   <v>       0.29166667       0.13888889       0.00000000 </v>
   <v>       0.33333333       0.13888889       0.00000000 </v>
   <v>       0.37500000       0.13888889       0.00000000 </v>
   <v>       0.41666667       0.13888889       0.00000000 </v>
   <v>       0.45833333       0.13888889       0.00000000 </v>
   <v>       0.50000000       0.13888889       0.00000000 </v>
   <v>       0.00000000       0.16666667       0.00000000 </v>
   <v>       0.04166667       0.16666667       0.00000000 </v>
   <v>       0.08333333       0.16666667       0.00000000 </v>
   <v>       0.12500000       0.16666667       0.00000000 </v>
   <v>       0.16666667       0.16666667       0.00000000 </v>
   <v>       0.20833333       0.16666667       0.00000000 </v>
   <v>       0.25000000       0.16666667       0.00000000 </v>
   <v>       0.29166667       0.16666667       0.00000000 </v>
   <v>       0.33333333       0.16666667       0.00000000 </v>
   <v>       0.37500000       0.16666667       0.00000000 </v>
   <v>       0.41666667       0.16666667       0.00000000 </v>
   <v>       0.45833333       0.16666667       0.00000000 </v>
   <v>       0.50000000       0.16666667       0.00000000 </v>
   <v>       0.00000000       0.19444444       0.00000000 </v>
   <v>       0.04166667       0.19444444       0.00000000 </v>
   <v>       0.08333333       0.19444444       0.00000000 </v>
   <v>       0.12500000       0.19444444       0.00000000 </v>
   <v>       0.16666667       0.19444444       0.00000000 </v>
   <v>       0.20833333       0.19444444       0.00000000 </v>
   <v>       0.25000000       0.19444444       0.00000000 </v>
   <v>       0.29166667       0.19444444       0.00000000 </v>
   <v>       0.33333333       0.19444444       0.00000000 </v>
   <v>       0.37500000       0.19444444       0.00000000 </v>
   <v>       0.41666667       0.19444444       0.00000000 </v>
   <v>       0.45833333       0.19444444       0.00000000 </v>
   <v>       0.50000000       0.19444444       0.00000000 </v>
   <v>       0.00000000       0.22222222       0.00000000 </v>
   <v>       0.04166667       0.22222222       0.00000000 </v>
   <v>       0.08333333       0.22222222       0.00000000 </v>
   <v>       0.12500000       0.22222222       0.00000000 </v>
   <v>       0.16666667       0.22222222       0.00000000 </v>
   <v>       0.20833333       0.22222222       0.00000000 </v>
   <v>       0.25000000       0.22222222       0.00000000 </v>
   <v>       0.29166667       0.22222222       0.00000000 </v>
   <v>       0.33333333       0.22222222       0.00000000 </v>
   <v>       0.37500000       0.22222222       0.00000000 </v>
   <v>       0.41666667       0.22222222       0.00000000 </v>
   <v>       0.45833333       0.22222222       0.00000000 </v>
   <v>       0.50000000       0.22222222       0.00000000 </v>
   <v>       0.00000000       0.25000000       0.00000000 </v>
   <v>       0.04166667       0.25000000       0.00000000 </v>
   <v>       0.08333333       0.25000000       0.00000000 </v>
   <v>       0.12500000       0.25000000       0.00000000 </v>
   <v>       0.16666667       0.25000000       0.00000000 </v>
   <v>       0.20833333       0.25000000       0.00000000 </v>
   <v>       0.25000000       0.25000000       0.00000000 </v>
   <v>       0.29166667       0.25000000       0.00000000 </v>
   <v>       0.33333333       0.25000000       0.00000000 </v>
   <v>       0.37500000       0.25000000       0.00000000 </v>
   <v>       0.41666667       0.25000000       0.00000000 </v>
   <v>       0.45833333       0.25000000       0.00000000 </v>
   <v>       0.50000000       0.25000000       0.00000000 </v>
   <v>       0.00000000       0.27777778       0.00000000 </v>
   <v>       0.04166667       0.27777778       0.00000000 </v>
   <v>       0.08333333       0.27777778       0.00000000 </v>
   <v>       0.12500000       0.27777778       0.00000000 </v>
   <v>       0.16666667       0.27777778       0.00000000 </v>
   <v>       0.20833333       0.27777778       0.00000000 </v>
   <v>       0.25000000       0.27777778       0.00000000 </v>
   <v>       0.29166667       0.27777778       0.00000000 </v>
   <v>       0.33333333       0.27777778       0.00000000 </v>
   <v>       0.37500000       0.27777778       0.00000000 </v>
   <v>       0.41666667       0.27777778       0.00000000 </v>
   <v>       0.45833333       0.27777778       0.00000000 </v>
   <v>       0.50000000       0.27777778       0.00000000 </v>
   <v>       0.00000000       0.30555556       0.00000000 </v>
   <v>       0.04166667       0.30555556       0.00000000 </v>
   <v>       0.08333333       0.30555556       0.00000000 </v>
   <v>       0.12500000       0.30555556       0.00000000 </v>
   <v>       0.16666667       0.30555556       0.00000000 </v>
   <v>       0.20833333       0.30555556       0.00000000 </v>
   <v>       0.25000000       0.30555556       0.00000000 </v>
   <v>       0.29166667       0.30555556       0.00000000 </v>
   <v>       0.33333333       0.30555556       0.00000000 </v>
   <v>       0.37500000       0.30555556       0.00000000 </v>
   <v>       0.41666667       0.30555556       0.00000000 </v>
   <v>       0.45833333       0.30555556       0.00000000 </v>
   <v>       0.50000000       0.30555556       0.00000000 </v>
   <v>       0.00000000       0.33333333       0.00000000 </v>
   <v>       0.04166667       0.33333333       0.00000000 </v>
   <v>       0.08333333       0.33333333       0.00000000 </v>
   <v>       0.12500000       0.33333333       0.00000000 </v>
   <v>       0.16666667       0.33333333       0.00000000 </v>
   <v>       0.20833333       0.33333333       0.00000000 </v>
   <v>       0.25000000       0.33333333       0.00000000 </v>
   <v>       0.29166667       0.33333333       0.00000000 </v>
   <v>       0.33333333       0.33333333       0.00000000 </v>
   <v>       0.37500000       0.33333333       0.00000000 </v>
   <v>       0.41666667       0.33333333       0.00000000 </v>
   <v>       0.45833333       0.33333333       0.00000000 </v>
   <v>       0.50000000       0.33333333       0.00000000 </v>
   <v>       0.00000000       0.36111111       0.00000000 </v>
   <v>       0.04166667       0.36111111       0.00000000 </v>
   <v>       0.08333333       0.36111111       0.00000000 </v>
   <v>       0.12500000       0.36111111       0.00000000 </v>
   <v>       0.16666667       0.36111111       0.00000000 </v>
   <v>       0.20833333       0.36111111       0.00000000 </v>
   <v>       0.25000000       0.36111111       0.00000000 </v>
   <v>       0.29166667       0.36111111       0.00000000 </v>
   <v>       0.33333333       0.36111111       0.00000000 </v>
   <v>       0.37500000       0.36111111       0.00000000 </v>
   <v>       0.41666667       0.36111111       0.00000000 </v>
   <v>       0.45833333       0.36111111       0.00000000 </v>
   <v>       0.50000000       0.36111111       0.00000000 </v>
   <v>       0.00000000       0.38888889       0.00000000 </v>
   <v>       0.04166667       0.38888889       0.00000000 </v>
   <v>       0.08333333       0.38888889       0.00000000 </v>
   <v>       0.12500000       0.38888889       0.00000000 </v>
   <v>       0.16666667       0.38888889       0.00000000 </v>
   <v>       0.20833333       0.38888889       0.00000000 </v>
   <v>       0.25000000       0.38888889       0.00000000 </v>
   <v>       0.29166667       0.38888889       0.00000000 </v>
   <v>       0.33333333       0.38888889       0.00000000 </v>
   <v>       0.37500000       0.38888889       0.00000000 </v>
   <v>       0.41666667       0.38888889       0.00000000 </v>
   <v>       0.45833333       0.38888889       0.00000000 </v>
   <v>       0.50000000       0.38888889       0.00000000 </v>
   <v>       0.00000000       0.41666667       0.00000000 </v>
   <v>       0.04166667       0.41666667       0.00000000 </v>
   <v>       0.08333333       0.41666667       0.00000000 </v>
   <v>       0.12500000       0.41666667       0.00000000 </v>
   <v>       0.16666667       0.41666667       0.00000000 </v>
   <v>       0.20833333       0.41666667       0.00000000 </v>
   <v>       0.25000000       0.41666667       0.00000000 </v>
   <v>       0.29166667       0.41666667       0.00000000 </v>
   <v>       0.33333333       0.41666667       0.00000000 </v>
   <v>       0.37500000       0.41666667       0.00000000 </v>
   <v>       0.41666667       0.41666667       0.00000000 </v>
   <v>       0.45833333       0.41666667       0.00000000 </v>
   <v>       0.50000000       0.41666667       0.00000000 </v>
   <v>       0.00000000       0.44444444       0.00000000 </v>
   <v>       0.04166667       0.44444444       0.00000000 </v>
   <v>       0.08333333       0.44444444       0.00000000 </v>
   <v>       0.12500000       0.44444444       0.00000000 </v>
   <v>       0.16666667       0.44444444       0.00000000 </v>
   <v>       0.20833333       0.44444444       0.00000000 </v>
   <v>       0.25000000       0.44444444       0.00000000 </v>
   <v>       0.29166667       0.44444444       0.00000000 </v>
   <v>       0.33333333       0.44444444       0.00000000 </v>
   <v>       0.37500000       0.44444444       0.00000000 </v>
   <v>       0.41666667       0.44444444       0.00000000 </v>
   <v>       0.45833333       0.44444444       0.00000000 </v>
   <v>       0.50000000       0.44444444       0.00000000 </v>
   <v>       0.00000000       0.47222222       0.00000000 </v>
   <v>       0.04166667       0.47222222       0.00000000 </v>
   <v>       0.08333333       0.47222222       0.00000000 </v>
   <v>       0.12500000       0.47222222       0.00000000 </v>
   <v>       0.16666667       0.47222222       0.00000000 </v>
   <v>       0.20833333       0.47222222       0.00000000 </v>
   <v>       0.25000000       0.47222222       0.00000000 </v>
   <v>       0.29166667       0.47222222       0.00000000 </v>
   <v>       0.33333333       0.47222222       0.00000000 </v>
   <v>       0.37500000       0.47222222       0.00000000 </v>
   <v>       0.41666667       0.47222222       0.00000000 </v>
   <v>       0.45833333       0.47222222       0.00000000 </v>
   <v>       0.50000000       0.47222222       0.00000000 </v>
   <v>       0.00000000       0.50000000       0.00000000 </v>
   <v>       0.04166667       0.50000000       0.00000000 </v>
   <v>       0.08333333       0.50000000       0.00000000 </v>
   <v>       0.12500000       0.50000000       0.00000000 </v>
   <v>       0.16666667       0.50000000       0.00000000 </v>
   <v>       0.20833333       0.50000000       0.00000000 </v>
   <v>       0.25000000       0.50000000       0.00000000 </v>
   <v>       0.29166667       0.50000000       0.00000000 </v>
   <v>       0.33333333       0.50000000       0.00000000 </v>
   <v>       0.37500000       0.50000000       0.00000000 </v>
   <v>       0.41666667       0.50000000       0.00000000 </v>
   <v>       0.45833333       0.50000000       0.00000000 </v>
   <v>       0.50000000       0.50000000       0.00000000 </v>
  </varray>
  <varray name="weights" >
   <v>       0.00115741 </v>
   <v>       0.00231481 </v>
   <v>       0.00231481 </v>
   <v>       0.00231481 </v>
   <v>       0.00231481 </v>
   <v>       0.00231481 </v>
   <v>       0.00231481 </v>
   <v>       0.00231481 </v>
   <v>       0.00231481 </v>
   <v>       0.00231481 </v>
   <v>       0.00231481 </v>
   <v>       0.00231481 </v>
   <v>       0.00115741 </v>
   <v>       0.00231481 </v>
   <v>       0.00462963 </v>
   <v>       0.00462963 </v>
   <v>       0.00462963 </v>
   <v>       0.00462963 </v>
   <v>       0.00462963 </v>
   <v>       0.00462963 </v>
   <v>       0.00462963 </v>
   <v>       0.00462963 </v>
   <v>       0.00462963 </v>
   <v>       0.00462963 </v>
   <v>       0.00462963 </v>
   <v>       0.00231481 </v>
   <v>       0.00231481 </v>
   <v>       0.00462963 </v>
   <v>       0.00462963 </v>
   <v>       0.00462963 </v>
   <v>       0.00462963 </v>
   <v>       0.00462963 </v>
   <v>       0.00462963 </v>
   <v>       0.00462963 </v>
   <v>       0.00462963 </v>
   <v>       0.00462963 </v>
   <v>       0.00462963 </v>
   <v>       0.00462963 </v>
   <v>       0.00231481 </v>
   <v>       0.00231481 </v>
   <v>       0.00462963 </v>
   <v>       0.00462963 </v>
   <v>       0.00462963 </v>
   <v>       0.00462963 </v>
   <v>       0.00462963 </v>
   <v>       0.00462963 </v>
   <v>       0.00462963 </v>
   <v>       0.00462963 </v>
   <v>       0.00462963 </v>
   <v>       0.00462963 </v>
   <v>       0.00462963 </v>
   <v>       0.00231481 </v>
   <v>       0.00231481 </v>
   <v>       0.00462963 </v>
   <v>       0.00462963 </v>
   <v>       0.00462963 </v>
   <v>       0.00462963 </v>
   <v>       0.00462963 </v>
   <v>       0.00462963 </v>
   <v>       0.00462963 </v>
   <v>       0.00462963 </v>
   <v>       0.00462963 </v>
   <v>       0.00462963 </v>
   <v>       0.00462963 </v>
   <v>       0.00231481 </v>
   <v>       0.00231481 </v>
   <v>       0.00462963 </v>
   <v>       0.00462963 </v>
   <v>       0.00462963 </v>
   <v>       0.00462963 </v>
   <v>       0.00462963 </v>
   <v>       0.00462963 </v>
   <v>       0.00462963 </v>
   <v>       0.00462963 </v>
   <v>       0.00462963 </v>
   <v>       0.00462963 </v>
   <v>       0.00462963 </v>
   <v>       0.00231481 </v>
   <v>       0.00231481 </v>
   <v>       0.00462963 </v>
   <v>       0.00462963 </v>
   <v>       0.00462963 </v>
   <v>       0.00462963 </v>
   <v>       0.00462963 </v>
   <v>       0.00462963 </v>
   <v>       0.00462963 </v>
   <v>       0.00462963 </v>
   <v>       0.00462963 </v>
   <v>       0.00462963 </v>
   <v>       0.00462963 </v>
   <v>       0.00231481 </v>
   <v>       0.00231481 </v>
   <v>       0.00462963 </v>
   <v>       0.00462963 </v>
   <v>       0.00462963 </v>
   <v>       0.00462963 </v>
   <v>       0.00462963 </v>
   <v>       0.00462963 </v>
   <v>       0.00462963 </v>
   <v>       0.00462963 </v>
   <v>       0.00462963 </v>
   <v>       0.00462963 </v>
   <v>       0.00462963 </v>
   <v>       0.00231481 </v>
   <v>       0.00231481 </v>
   <v>       0.00462963 </v>
   <v>       0.00462963 </v>
   <v>       0.00462963 </v>
   <v>       0.00462963 </v>
   <v>       0.00462963 </v>
   <v>       0.00462963 </v>
   <v>       0.00462963 </v>
   <v>       0.00462963 </v>
   <v>       0.00462963 </v>
   <v>       0.00462963 </v>
   <v>       0.00462963 </v>
   <v>       0.00231481 </v>
   <v>       0.00231481 </v>
   <v>       0.00462963 </v>
   <v>       0.00462963 </v>
   <v>       0.00462963 </v>
   <v>       0.00462963 </v>
   <v>       0.00462963 </v>
   <v>       0.00462963 </v>
   <v>       0.00462963 </v>
   <v>       0.00462963 </v>
   <v>       0.00462963 </v>
   <v>       0.00462963 </v>
   <v>       0.00462963 </v>
   <v>       0.00231481 </v>
   <v>       0.00231481 </v>
   <v>       0.00462963 </v>
   <v>       0.00462963 </v>
   <v>       0.00462963 </v>
   <v>       0.00462963 </v>
   <v>       0.00462963 </v>
   <v>       0.00462963 </v>
   <v>       0.00462963 </v>
   <v>       0.00462963 </v>
   <v>       0.00462963 </v>
   <v>       0.00462963 </v>
   <v>       0.00462963 </v>
   <v>       0.00231481 </v>
   <v>       0.00231481 </v>
   <v>       0.00462963 </v>
   <v>       0.00462963 </v>
   <v>       0.00462963 </v>
   <v>       0.00462963 </v>
   <v>       0.00462963 </v>
   <v>       0.00462963 </v>
   <v>       0.00462963 </v>
   <v>       0.00462963 </v>
   <v>       0.00462963 </v>
   <v>       0.00462963 </v>
   <v>       0.00462963 </v>
   <v>       0.00231481 </v>
   <v>       0.00231481 </v>
   <v>       0.00462963 </v>
   <v>       0.00462963 </v>
   <v>       0.00462963 </v>
   <v>       0.00462963 </v>
   <v>       0.00462963 </v>
   <v>       0.00462963 </v>
   <v>       0.00462963 </v>
   <v>       0.00462963 </v>
   <v>       0.00462963 </v>
   <v>       0.00462963 </v>
   <v>       0.00462963 </v>
   <v>       0.00231481 </v>
   <v>       0.00231481 </v>
   <v>       0.00462963 </v>
   <v>       0.00462963 </v>
   <v>       0.00462963 </v>
   <v>       0.00462963 </v>
   <v>       0.00462963 </v>
   <v>       0.00462963 </v>
   <v>       0.00462963 </v>
   <v>       0.00462963 </v>
   <v>       0.00462963 </v>
   <v>       0.00462963 </v>
   <v>       0.00462963 </v>
   <v>       0.00231481 </v>
   <v>       0.00231481 </v>
   <v>       0.00462963 </v>
   <v>       0.00462963 </v>
   <v>       0.00462963 </v>
   <v>       0.00462963 </v>
   <v>       0.00462963 </v>
   <v>       0.00462963 </v>
   <v>       0.00462963 </v>
   <v>       0.00462963 </v>
   <v>       0.00462963 </v>
   <v>       0.00462963 </v>
   <v>       0.00462963 </v>
   <v>       0.00231481 </v>
   <v>       0.00231481 </v>
   <v>       0.00462963 </v>
   <v>       0.00462963 </v>
   <v>       0.00462963 </v>
   <v>       0.00462963 </v>
   <v>       0.00462963 </v>
   <v>       0.00462963 </v>
   <v>       0.00462963 </v>
   <v>       0.00462963 </v>
   <v>       0.00462963 </v>
   <v>       0.00462963 </v>
   <v>       0.00462963 </v>
   <v>       0.00231481 </v>
   <v>       0.00231481 </v>
   <v>       0.00462963 </v>
   <v>       0.00462963 </v>
   <v>       0.00462963 </v>
   <v>       0.00462963 </v>
   <v>       0.00462963 </v>
   <v>       0.00462963 </v>
   <v>       0.00462963 </v>
   <v>       0.00462963 </v>
   <v>       0.00462963 </v>
   <v>       0.00462963 </v>
   <v>       0.00462963 </v>
   <v>       0.00231481 </v>
   <v>       0.00231481 </v>
   <v>       0.00462963 </v>
   <v>       0.00462963 </v>
   <v>       0.00462963 </v>
   <v>       0.00462963 </v>
   <v>       0.00462963 </v>
   <v>       0.00462963 </v>
   <v>       0.00462963 </v>
   <v>       0.00462963 </v>
   <v>       0.00462963 </v>
   <v>       0.00462963 </v>
   <v>       0.00462963 </v>
   <v>       0.00231481 </v>
   <v>       0.00115741 </v>
   <v>       0.00231481 </v>
   <v>       0.00231481 </v>
   <v>       0.00231481 </v>
   <v>       0.00231481 </v>
   <v>       0.00231481 </v>
   <v>       0.00231481 </v>
   <v>       0.00231481 </v>
   <v>       0.00231481 </v>
   <v>       0.00231481 </v>
   <v>       0.00231481 </v>
   <v>       0.00231481 </v>
   <v>       0.00115741 </v>
  </varray>
 </kpoints>
 <parameters>
  <separator name="general" >
   <i type="string" name="SYSTEM">gr</i>
   <i type="logical" name="LCOMPAT"> F  </i>
  </separator>
  <separator name="electronic" >
   <i type="string" name="PREC">accura</i>
   <i name="ENMAX">   2000.00000000</i>
   <i name="ENAUG">    644.87300000</i>
   <i name="EDIFF">      0.00000000</i>
   <i type="int" name="IALGO">    68</i>
   <i type="int" name="IWAVPR">    11</i>
   <i type="int" name="NBANDS">    12</i>
   <i name="NELECT">     16.00000000</i>
   <i type="int" name="TURBO">     0</i>
   <i type="int" name="IRESTART">     0</i>
   <i type="int" name="NREBOOT">     0</i>
   <i type="int" name="NMIN">     0</i>
   <i name="EREF">      0.00000000</i>
   <separator name="electronic smearing" >
    <i type="int" name="ISMEAR">     0</i>
    <i name="SIGMA">      0.05000000</i>
    <i name="KSPACING">      0.50000000</i>
    <i type="logical" name="KGAMMA"> T  </i>
   </separator>
   <separator name="electronic projectors" >
    <i type="logical" name="LREAL"> F  </i>
    <v name="ROPT">      0.00000000</v>
    <i type="int" name="LMAXPAW">  -100</i>
    <i type="int" name="LMAXMIX">     2</i>
    <i type="logical" name="NLSPLINE"> F  </i>
   </separator>
   <separator name="electronic startup" >
    <i type="int" name="ISTART">     0</i>
    <i type="int" name="ICHARG">     2</i>
    <i type="int" name="INIWAV">     1</i>
   </separator>
   <separator name="electronic spin" >
    <i type="int" name="ISPIN">     1</i>
    <i type="logical" name="LNONCOLLINEAR"> F  </i>
    <v name="MAGMOM">      1.00000000      1.00000000      1.00000000      1.00000000</v>
    <i name="NUPDOWN">     -1.00000000</i>
    <i type="logical" name="LSORBIT"> F  </i>
    <v name="SAXIS">      0.00000000      0.00000000      1.00000000</v>
    <i type="logical" name="LSPIRAL"> F  </i>
    <v name="QSPIRAL">      0.00000000      0.00000000      0.00000000</v>
    <i type="logical" name="LZEROZ"> F  </i>
   </separator>
   <separator name="electronic exchange-correlation" >
    <i type="logical" name="LASPH"> F  </i>
    <i type="logical" name="LMETAGGA"> F  </i>
   </separator>
   <separator name="electronic convergence" >
    <i type="int" name="NELM">   100</i>
    <i type="int" name="NELMDL">    -3</i>
    <i type="int" name="NELMIN">     5</i>
    <i name="ENINI">   2000.00000000</i>
    <separator name="electronic convergence detail" >
     <i type="logical" name="LDIAG"> T  </i>
     <i type="logical" name="LSUBROT"> F  </i>
     <i name="WEIMIN">      0.00100000</i>
     <i name="EBREAK">      0.00000000</i>
     <i name="DEPER">      0.30000000</i>
     <i type="int" name="NRMM">     4</i>
     <i name="TIME">      0.40000000</i>
    </separator>
   </separator>
   <separator name="electronic mixer" >
    <i name="AMIX">      0.40000000</i>
    <i name="BMIX">      1.00000000</i>
    <i name="AMIN">      0.10000000</i>
    <i name="AMIX_MAG">      1.60000000</i>
    <i name="BMIX_MAG">      1.00000000</i>
    <separator name="electronic mixer details" >
     <i type="int" name="IMIX">     4</i>
     <i type="int" name="MAXMIX">   -45</i>
     <i name="WC">    100.00000000</i>
     <i type="int" name="INIMIX">     1</i>
     <i type="int" name="MIXPRE">     1</i>
     <i type="int" name="MREMOVE">     5</i>
    </separator>
   </separator>
   <separator name="electronic dipolcorrection" >
    <i type="logical" name="LDIPOL"> F  </i>
    <i type="logical" name="LMONO"> F  </i>
    <i type="int" name="IDIPOL">     0</i>
    <i name="EPSILON">      1.00000000</i>
    <v name="DIPOL">   -100.00000000   -100.00000000   -100.00000000</v>
    <i name="EFIELD">      0.00000000</i>
   </separator>
  </separator>
  <separator name="grids" >
   <i type="int" name="NGX">    64</i>
   <i type="int" name="NGY">    36</i>
   <i type="int" name="NGZ">   294</i>
   <i type="int" name="NGXF">   128</i>
   <i type="int" name="NGYF">    72</i>
   <i type="int" name="NGZF">   588</i>
   <i type="logical" name="ADDGRID"> F  </i>
  </separator>
  <separator name="ionic" >
   <i type="int" name="NSW">   400</i>
   <i type="int" name="IBRION">     1</i>
   <i type="int" name="ISIF">     2</i>
   <i name="PSTRESS">      0.00000000</i>
   <i name="EDIFFG">     -0.00000100</i>
   <i type="int" name="NFREE">     0</i>
   <i name="POTIM">      0.50000000</i>
   <i name="SMASS">     -3.00000000</i>
   <i name="SCALEE">      1.00000000</i>
  </separator>
  <separator name="ionic md" >
   <i name="TEBEG">      0.00010000</i>
   <i name="TEEND">      0.00010000</i>
   <i type="int" name="NBLOCK">     1</i>
   <i type="int" name="KBLOCK">   400</i>
   <i type="int" name="NPACO">   256</i>
   <i name="APACO">     16.00000000</i>
  </separator>
  <separator name="symmetry" >
   <i type="int" name="ISYM">     2</i>
   <i name="SYMPREC">      0.00001000</i>
  </separator>
  <separator name="dos" >
   <i type="logical" name="LORBIT"> F  </i>
   <v name="RWIGS">     -1.00000000</v>
   <i type="int" name="NEDOS">   301</i>
   <i name="EMIN">     10.00000000</i>
   <i name="EMAX">    -10.00000000</i>
   <i name="EFERMI">      0.00000000</i>
  </separator>
  <separator name="writing" >
   <i type="int" name="NWRITE">     2</i>
   <i type="logical" name="LWAVE"> F  </i>
   <i type="logical" name="LCHARG"> F  </i>
   <i type="logical" name="LPARD"> F  </i>
   <i type="logical" name="LVTOT"> F  </i>
   <i type="logical" name="LVHAR"> F  </i>
   <i type="logical" name="LELF"> F  </i>
   <i type="logical" name="LOPTICS"> F  </i>
   <v name="STM">      0.00000000      0.00000000      0.00000000      0.00000000      0.00000000      0.00000000      0.00000000</v>
  </separator>
  <separator name="performance" >
   <i type="int" name="NPAR">     4</i>
   <i type="int" name="NSIM">     4</i>
   <i type="int" name="NBLK">    -1</i>
   <i type="logical" name="LPLANE"> T  </i>
   <i type="logical" name="LSCALAPACK"> F  </i>
   <i type="logical" name="LSCAAWARE"> F  </i>
   <i type="logical" name="LSCALU"> F  </i>
   <i type="logical" name="LASYNC"> F  </i>
   <i type="logical" name="LORBITALREAL"> F  </i>
  </separator>
  <separator name="miscellaneous" >
   <i type="int" name="IDIOT">     3</i>
   <i type="logical" name="LMUSIC"> F  </i>
   <v name="POMASS">     12.01100000</v>
   <v name="DARWINR">      0.00000000</v>
   <v name="DARWINV">      1.00000000</v>
   <i type="logical" name="LCORR"> T  </i>
  </separator>
  <i type="logical" name="GGA_COMPAT"> T  </i>
  <i type="logical" name="LBERRY"> F  </i>
  <i type="int" name="ICORELEVEL">     0</i>
  <i type="logical" name="LDAU"> F  </i>
  <i type="int" name="I_CONSTRAINED_M">     0</i>
  <separator name="electronic exchange-correlation" >
   <i type="string" name="GGA">--</i>
   <i type="int" name="VOSKOWN">     0</i>
   <i type="logical" name="LHFCALC"> F  </i>
   <i type="string" name="PRECFOCK"></i>
   <i type="logical" name="LSYMGRAD"> F  </i>
   <i type="logical" name="LHFONE"> F  </i>
   <i type="logical" name="LRHFCALC"> F  </i>
   <i type="logical" name="LTHOMAS"> F  </i>
   <i type="logical" name="LMODELHF"> F  </i>
   <i name="ENCUT4O">     -1.00000000</i>
   <i type="int" name="EXXOEP">     0</i>
   <i type="int" name="FOURORBIT">     0</i>
   <i name="AEXX">      0.00000000</i>
   <i name="HFALPHA">      0.00000000</i>
   <i name="MCALPHA">      0.00000000</i>
   <i name="ALDAX">      1.00000000</i>
   <i name="AGGAX">      1.00000000</i>
   <i name="ALDAC">      1.00000000</i>
   <i name="AGGAC">      1.00000000</i>
   <i type="int" name="NKREDX">     1</i>
   <i type="int" name="NKREDY">     1</i>
   <i type="int" name="NKREDZ">     1</i>
   <i type="logical" name="SHIFTRED"> F  </i>
   <i type="logical" name="ODDONLY"> F  </i>
   <i type="logical" name="EVENONLY"> F  </i>
   <i type="int" name="LMAXFOCK">     0</i>
   <i type="int" name="NMAXFOCKAE">     0</i>
   <i type="logical" name="LFOCKAEDFT"> F  </i>
   <i name="HFSCREEN">      0.00000000</i>
   <i name="HFSCREENC">      0.00000000</i>
   <i type="int" name="NBANDSGWLOW">     0</i>
  </separator>
  <separator name="vdW DFT" >
   <i type="logical" name="LUSE_VDW"> F  </i>
   <i name="Zab_VDW">     -0.84910000</i>
   <i name="PARAM1">      0.12340000</i>
   <i name="PARAM2">      1.00000000</i>
   <i name="PARAM3">      0.00000000</i>
  </separator>
  <separator name="model GW" >
   <i type="int" name="MODEL_GW">     0</i>
   <i name="MODEL_EPS0">     31.62568521</i>
   <i name="MODEL_ALPHA">      1.00000000</i>
  </separator>
  <separator name="linear response parameters" >
   <i type="logical" name="LEPSILON"> F  </i>
   <i type="logical" name="LRPA"> F  </i>
   <i type="logical" name="LNABLA"> F  </i>
   <i type="logical" name="LVEL"> F  </i>
   <i type="int" name="KINTER">     0</i>
   <i name="CSHIFT">      0.10000000</i>
   <i name="OMEGAMAX">     -1.00000000</i>
   <i name="DEG_THRESHOLD">      0.00200000</i>
  </separator>
  <separator name="orbital magnetization" >
   <i type="logical" name="NUCIND"> F  </i>
   <v name="MAGPOS">      0.00000000      0.00000000      0.00000000</v>
   <i type="logical" name="LNICSALL"> T  </i>
   <i type="logical" name="ORBITALMAG"> F  </i>
   <i type="logical" name="LMAGBLOCH"> F  </i>
   <i type="logical" name="LCHIMAG"> F  </i>
   <i type="logical" name="LGAUGE"> T  </i>
   <i type="int" name="MAGATOM">     0</i>
   <v name="MAGDIPOL">      0.00000000      0.00000000      0.00000000</v>
   <v name="AVECCONST">      0.00000000      0.00000000      0.00000000</v>
  </separator>
  <separator name="response functions" >
   <i type="logical" name="LADDER"> F  </i>
   <i type="logical" name="LFXC"> F  </i>
   <i type="logical" name="LHARTREE"> T  </i>
   <i type="int" name="IBSE">     0</i>
   <i type="logical" name="LTCTE"> F  </i>
   <i type="logical" name="LTETE"> F  </i>
   <i type="logical" name="LTRIPLET"> F  </i>
   <i type="logical" name="LFXCEPS"> F  </i>
   <i type="logical" name="LFXHEG"> F  </i>
   <i type="logical" name="L2ORDER"> F  </i>
   <i type="logical" name="LUSEW"> F  </i>
   <i name="ENCUTGW">     -2.00000000</i>
   <i name="ENCUTGWSOFT">     -2.00000000</i>
   <i name="ENCUTLF">     -1.00000000</i>
   <i type="int" name="LMAXMP2">    -1</i>
   <i name="SCISSOR">      0.00000000</i>
   <i type="int" name="NOMEGA">     0</i>
   <i type="int" name="NOMEGAR">     0</i>
   <i type="int" name="NBANDSGW">    -1</i>
   <i type="int" name="NBANDSO">    -1</i>
   <i type="int" name="NBANDSV">    -1</i>
   <i type="int" name="NELM">   100</i>
   <i type="int" name="DIM">     3</i>
   <i type="int" name="ANTIRES">     0</i>
   <i name="OMEGAMAX">    -30.00000000</i>
   <i name="OMEGAMIN">    -30.00000000</i>
   <i name="OMEGATL">   -200.00000000</i>
   <i type="int" name="OMEGAGRID">     0</i>
   <i name="CSHIFT">     -0.10000000</i>
   <i type="logical" name="SELFENERGY"> F  </i>
   <i type="logical" name="LSPECTRAL"> F  </i>
   <i type="logical" name="ODDONLYGW"> F  </i>
   <i type="logical" name="EVENONLYGW"> F  </i>
   <i type="int" name="NKREDLFX">     1</i>
   <i type="int" name="NKREDLFY">     1</i>
   <i type="int" name="NKREDLFZ">     1</i>
   <i type="int" name="MAXMEM">  1800</i>
   <i type="int" name="TELESCOPE">     0</i>
   <i type="int" name="TAUPAR">     1</i>
  </separator>
  <separator name="External order field" >
   <i name="OFIELD_KAPPA">      0.00000000</i>
   <v name="OFIELD_K">      0.00000000      0.00000000      0.00000000</v>
   <i name="OFIELD_Q6_NEAR">      0.00000000</i>
   <i name="OFIELD_Q6_FAR">      0.00000000</i>
   <i name="OFIELD_A">      0.00000000</i>
  </separator>
 </parameters>
 <atominfo>
  <atoms>       4 </atoms>
  <types>       1 </types>
  <array name="atoms" >
   <dimension dim="1">ion</dimension>
   <field type="string">element</field>
   <field type="int">atomtype</field>
   <set>
    <rc><c>C </c><c>   1</c></rc>
    <rc><c>C </c><c>   1</c></rc>
    <rc><c>C </c><c>   1</c></rc>
    <rc><c>C </c><c>   1</c></rc>
   </set>
  </array>
  <array name="atomtypes" >
   <dimension dim="1">type</dimension>
   <field type="int">atomspertype</field>
   <field type="string">element</field>
   <field>mass</field>
   <field>valence</field>
   <field type="string">pseudopotential</field>
   <set>
    <rc><c>   4</c><c>C </c><c>     12.01100000</c><c>      4.00000000</c><c> PAW_PBE C 08Apr2002                    </c></rc>
   </set>
  </array>
 </atominfo>
 <structure name="initialpos" >
  <crystal>
   <varray name="basis" >
    <v>       4.31641910       0.00000000       0.00000000 </v>
    <v>       0.00000000       2.46280781       0.00000000 </v>
    <v>       0.00000000       0.00000000      19.83328062 </v>
   </varray>
   <i name="volume">    210.83790140 </i>
   <varray name="rec_basis" >
    <v>       0.23167352       0.00000000       0.00000000 </v>
    <v>       0.00000000       0.40604062       0.00000000 </v>
    <v>       0.00000000       0.00000000       0.05042030 </v>
   </varray>
  </crystal>
  <varray name="positions" >
   <v>       0.99975412       0.00000000       0.00000000 </v>
   <v>       0.16691255       0.50000000       0.00000000 </v>
   <v>       0.49975412       0.50000000       0.00000000 </v>
   <v>       0.66691255       0.00000000       0.00000000 </v>
  </varray>
 </structure>
 <calculation>
  <scstep>
   <time name="dav">  291.93  294.50</time>
   <time name="total">  294.38  297.00</time>
   <energy>
    <i name="alphaZ">      6.18334092 </i>
    <i name="ewald">   2530.55792518 </i>
    <i name="hartreedc">  -2957.62230026 </i>
    <i name="XCdc">     54.98375820 </i>
    <i name="pawpsdc">    151.32577238 </i>
    <i name="pawaedc">   -155.92769107 </i>
    <i name="eentropy">     -0.00148611 </i>
    <i name="bandstr">    -29.88352487 </i>
    <i name="atom">    588.62352690 </i>
    <i name="e_fr_energy">    188.23932128 </i>
    <i name="e_wo_entrp">    188.24080740 </i>
    <i name="e_0_energy">    188.24006434 </i>
   </energy>
  </scstep>
  <scstep>
   <time name="dav">  446.72  450.23</time>
   <time name="total">  446.73  450.24</time>
   <energy>
    <i name="e_fr_energy">     -9.26352165 </i>
    <i name="e_wo_entrp">     -9.26317024 </i>
    <i name="e_0_energy">     -9.26334595 </i>
   </energy>
  </scstep>
  <scstep>
   <time name="dav">  343.34  345.51</time>
   <time name="total">  373.44  375.93</time>
   <energy>
    <i name="e_fr_energy">    -38.30196010 </i>
    <i name="e_wo_entrp">    -38.30195757 </i>
    <i name="e_0_energy">    -38.30195883 </i>
   </energy>
  </scstep>
  <scstep>
   <time name="diag">   79.46   79.53</time>
   <time name="diis">  344.07  344.40</time>
   <time name="orth">    3.10    3.10</time>
   <time name="total">  459.27  459.76</time>
   <energy>
    <i name="e_fr_energy">    -37.66780270 </i>
    <i name="e_wo_entrp">    -37.66778114 </i>
    <i name="e_0_energy">    -37.66779192 </i>
   </energy>
  </scstep>
  <scstep>
   <time name="diag">   79.48   79.53</time>
   <time name="diis">  340.21  340.36</time>
   <time name="orth">    3.10    3.10</time>
   <time name="total">  455.53  455.76</time>
   <energy>
    <i name="e_fr_energy">    -36.92454359 </i>
    <i name="e_wo_entrp">    -36.92451364 </i>
    <i name="e_0_energy">    -36.92452862 </i>
   </energy>
  </scstep>
  <scstep>
   <time name="diag">   79.46   79.52</time>
   <time name="diis">  370.15  370.47</time>
   <time name="orth">    3.08    3.08</time>
   <time name="total">  485.45  485.86</time>
   <energy>
    <i name="e_fr_energy">    -36.92621485 </i>
    <i name="e_wo_entrp">    -36.92618509 </i>
    <i name="e_0_energy">    -36.92619997 </i>
   </energy>
  </scstep>
  <scstep>
   <time name="diag">   79.51   79.55</time>
   <time name="diis">  340.03  340.09</time>
   <time name="orth">    3.07    3.07</time>
   <time name="total">  455.38  455.53</time>
   <energy>
    <i name="e_fr_energy">    -36.91695898 </i>
    <i name="e_wo_entrp">    -36.91693114 </i>
    <i name="e_0_energy">    -36.91694506 </i>
   </energy>
  </scstep>
  <scstep>
   <time name="diag">   79.37   79.58</time>
   <time name="diis">  340.62  340.99</time>
   <time name="orth">    3.09    3.10</time>
   <time name="total">  455.84  456.47</time>
   <energy>
    <i name="e_fr_energy">    -36.91149835 </i>
    <i name="e_wo_entrp">    -36.91146990 </i>
    <i name="e_0_energy">    -36.91148412 </i>
   </energy>
  </scstep>
  <scstep>
   <time name="diag">   79.38   79.49</time>
   <time name="diis">  321.09  322.93</time>
   <time name="orth">    3.08    3.08</time>
   <time name="total">  436.03  438.33</time>
   <energy>
    <i name="e_fr_energy">    -36.91119744 </i>
    <i name="e_wo_entrp">    -36.91116800 </i>
    <i name="e_0_energy">    -36.91118272 </i>
   </energy>
  </scstep>
  <scstep>
   <time name="diag">   79.31   79.53</time>
   <time name="diis">  322.30  323.27</time>
   <time name="orth">    3.09    3.10</time>
   <time name="total">  437.02  438.69</time>
   <energy>
    <i name="e_fr_energy">    -36.91107556 </i>
    <i name="e_wo_entrp">    -36.91104673 </i>
    <i name="e_0_energy">    -36.91106115 </i>
   </energy>
  </scstep>
  <scstep>
   <time name="diag">   78.81   79.56</time>
   <time name="diis">  322.11  325.33</time>
   <time name="orth">    3.08    3.08</time>
   <time name="total">  436.50  440.80</time>
   <energy>
    <i name="e_fr_energy">    -36.91355395 </i>
    <i name="e_wo_entrp">    -36.91352535 </i>
    <i name="e_0_energy">    -36.91353965 </i>
   </energy>
  </scstep>
  <scstep>
   <time name="diag">   79.31   79.58</time>
   <time name="diis">  323.35  324.12</time>
   <time name="orth">    3.11    3.14</time>
   <time name="total">  438.52  439.67</time>
   <energy>
    <i name="e_fr_energy">    -36.91400984 </i>
    <i name="e_wo_entrp">    -36.91398101 </i>
    <i name="e_0_energy">    -36.91399543 </i>
   </energy>
  </scstep>
  <scstep>
   <time name="diag">   78.99   79.56</time>
   <time name="diis">  326.55  329.86</time>
   <time name="orth">    3.08    3.08</time>
   <time name="total">  441.14  445.30</time>
   <energy>
    <i name="e_fr_energy">    -36.91426762 </i>
    <i name="e_wo_entrp">    -36.91423875 </i>
    <i name="e_0_energy">    -36.91425319 </i>
   </energy>
  </scstep>
  <scstep>
   <time name="diag">   78.92   79.42</time>
   <time name="diis">  324.80  327.43</time>
   <time name="orth">    3.09    3.09</time>
   <time name="total">  439.32  442.77</time>
   <energy>
    <i name="e_fr_energy">    -36.91435059 </i>
    <i name="e_wo_entrp">    -36.91432179 </i>
    <i name="e_0_energy">    -36.91433619 </i>
   </energy>
  </scstep>
  <scstep>
   <time name="diag">   78.83   79.47</time>
   <time name="diis">  325.99  329.54</time>
   <time name="orth">    3.08    3.10</time>
   <time name="total">  440.33  444.95</time>
   <energy>
    <i name="e_fr_energy">    -36.91436009 </i>
    <i name="e_wo_entrp">    -36.91433128 </i>
    <i name="e_0_energy">    -36.91434569 </i>
   </energy>
  </scstep>
  <scstep>
   <time name="diag">   78.84   79.45</time>
   <time name="diis">  320.92  324.62</time>
   <time name="orth">    3.10    3.10</time>
   <time name="total">  435.40  440.02</time>
   <energy>
    <i name="e_fr_energy">    -36.91437196 </i>
    <i name="e_wo_entrp">    -36.91434313 </i>
    <i name="e_0_energy">    -36.91435754 </i>
   </energy>
  </scstep>
  <scstep>
   <time name="diag">   78.66   79.42</time>
   <time name="diis">  331.06  334.73</time>
   <time name="orth">    3.09    3.10</time>
   <time name="total">  445.36  450.10</time>
   <energy>
    <i name="e_fr_energy">    -36.91437655 </i>
    <i name="e_wo_entrp">    -36.91434773 </i>
    <i name="e_0_energy">    -36.91436214 </i>
   </energy>
  </scstep>
  <scstep>
   <time name="diag">   79.00   79.47</time>
   <time name="diis">  318.90  321.89</time>
   <time name="orth">    3.08    3.08</time>
   <time name="total">  433.52  437.26</time>
   <energy>
    <i name="e_fr_energy">    -36.91437777 </i>
    <i name="e_wo_entrp">    -36.91434895 </i>
    <i name="e_0_energy">    -36.91436336 </i>
   </energy>
  </scstep>
  <scstep>
   <time name="diag">   78.84   79.59</time>
   <time name="diis">  328.78  331.35</time>
   <time name="orth">    3.07    3.09</time>
   <time name="total">  443.29  446.90</time>
   <energy>
    <i name="e_fr_energy">    -36.91437846 </i>
    <i name="e_wo_entrp">    -36.91434963 </i>
    <i name="e_0_energy">    -36.91436405 </i>
   </energy>
  </scstep>
  <scstep>
   <time name="diag">   79.50   79.52</time>
   <time name="diis">  260.30  260.37</time>
   <time name="orth">    3.10    3.10</time>
   <time name="total">  375.65  375.75</time>
   <energy>
    <i name="e_fr_energy">    -36.91437851 </i>
    <i name="e_wo_entrp">    -36.91434969 </i>
    <i name="e_0_energy">    -36.91436410 </i>
   </energy>
  </scstep>
  <scstep>
   <time name="diag">   79.52   79.53</time>
   <time name="diis">  253.15  253.20</time>
   <time name="orth">    3.08    3.08</time>
   <time name="total">  368.50  368.63</time>
   <energy>
    <i name="e_fr_energy">    -36.91437853 </i>
    <i name="e_wo_entrp">    -36.91434971 </i>
    <i name="e_0_energy">    -36.91436412 </i>
   </energy>
  </scstep>
  <scstep>
   <time name="diag">   79.13   79.56</time>
   <time name="diis">  223.62  224.85</time>
   <time name="orth">    3.09    3.09</time>
   <time name="total">  338.38  340.27</time>
   <energy>
    <i name="e_fr_energy">    -36.91437853 </i>
    <i name="e_wo_entrp">    -36.91434971 </i>
    <i name="e_0_energy">    -36.91436412 </i>
   </energy>
  </scstep>
  <scstep>
   <time name="diag">   79.16   79.52</time>
   <time name="diis">  213.09  213.93</time>
   <time name="orth">    3.08    3.08</time>
   <time name="total">  327.88  329.35</time>
   <energy>
    <i name="e_fr_energy">    -36.91437853 </i>
    <i name="e_wo_entrp">    -36.91434971 </i>
    <i name="e_0_energy">    -36.91436412 </i>
   </energy>
  </scstep>
  <scstep>
   <time name="diag">   79.09   79.49</time>
   <time name="diis">  204.91  205.22</time>
   <time name="orth">    3.08    3.08</time>
   <time name="total">  319.86  320.60</time>
   <energy>
    <i name="e_fr_energy">    -36.91437853 </i>
    <i name="e_wo_entrp">    -36.91434971 </i>
    <i name="e_0_energy">    -36.91436412 </i>
   </energy>
  </scstep>
  <scstep>
   <time name="diag">   79.40   79.44</time>
   <time name="diis">  196.18  196.27</time>
   <time name="orth">    3.08    3.10</time>
   <time name="total">  281.04  281.20</time>
   <energy>
    <i name="alphaZ">      6.18334092 </i>
    <i name="ewald">   2530.55792518 </i>
    <i name="hartreedc">  -3024.64306365 </i>
    <i name="XCdc">     57.36801520 </i>
    <i name="pawpsdc">    273.69372478 </i>
    <i name="pawaedc">   -278.82719759 </i>
    <i name="eentropy">     -0.00002882 </i>
    <i name="bandstr">   -189.87062144 </i>
    <i name="atom">    588.62352690 </i>
    <i name="e_fr_energy">    -36.91437853 </i>
    <i name="e_wo_entrp">    -36.91434971 </i>
    <i name="e_0_energy">    -36.91436412 </i>
   </energy>
  </scstep>
  <structure>
   <crystal>
    <varray name="basis" >
     <v>       4.31641910       0.00000000       0.00000000 </v>
     <v>       0.00000000       2.46280781       0.00000000 </v>
     <v>       0.00000000       0.00000000      19.83328062 </v>
    </varray>
    <i name="volume">    210.83790140 </i>
    <varray name="rec_basis" >
     <v>       0.23167352       0.00000000       0.00000000 </v>
     <v>       0.00000000       0.40604062       0.00000000 </v>
     <v>       0.00000000       0.00000000       0.05042030 </v>
    </varray>
   </crystal>
   <varray name="positions" >
    <v>       0.99975412       0.00000000       0.00000000 </v>
    <v>       0.16691255       0.50000000       0.00000000 </v>
    <v>       0.49975412       0.50000000       0.00000000 </v>
    <v>       0.66691255       0.00000000       0.00000000 </v>
   </varray>
  </structure>
  <varray name="forces" >
   <v>      -0.00004921      -0.00000000       0.00000000 </v>
   <v>       0.00004921       0.00000000      -0.00000000 </v>
   <v>      -0.00004921       0.00000000       0.00000000 </v>
   <v>       0.00004921      -0.00000000      -0.00000000 </v>
  </varray>
  <varray name="stress" >
   <v>     -16.84035276       0.00000000       0.00000000 </v>
   <v>       0.00000000      -0.00096423       0.00000000 </v>
   <v>       0.00000000       0.00000000      -0.01010841 </v>
  </varray>
  <energy>
   <i name="e_fr_energy">    -36.91437853 </i>
   <i name="e_wo_entrp">    -36.91436412 </i>
   <i name="e_0_energy">     -0.00002882 </i>
  </energy>
  <time name="totalsc">10364.8910419.03</time>
 </calculation>
 <calculation>
  <scstep>
   <time name="dav">  304.70  304.96</time>
   <time name="total">  337.50  337.79</time>
   <energy>
    <i name="alphaZ">      6.18334092 </i>
    <i name="ewald">   2530.55790434 </i>
    <i name="hartreedc">  -3024.64305711 </i>
    <i name="XCdc">     57.36801473 </i>
    <i name="pawpsdc">    273.69372736 </i>
    <i name="pawaedc">   -278.82720018 </i>
    <i name="eentropy">     -0.00002887 </i>
    <i name="bandstr">   -189.87060663 </i>
    <i name="atom">    588.62352690 </i>
    <i name="e_fr_energy">    -36.91437853 </i>
    <i name="e_wo_entrp">    -36.91434966 </i>
    <i name="e_0_energy">    -36.91436409 </i>
   </energy>
  </scstep>
  <scstep>
   <time name="diag">   79.50   79.55</time>
   <time name="diis">  297.16  297.24</time>
   <time name="orth">    3.08    3.08</time>
   <time name="total">  412.52  412.66</time>
   <energy>
    <i name="e_fr_energy">    -36.91437853 </i>
    <i name="e_wo_entrp">    -36.91434966 </i>
    <i name="e_0_energy">    -36.91436409 </i>
   </energy>
  </scstep>
  <scstep>
   <time name="diag">   79.45   79.49</time>
   <time name="diis">  227.01  227.06</time>
   <time name="orth">    3.11    3.11</time>
   <time name="total">  342.31  342.44</time>
   <energy>
    <i name="e_fr_energy">    -36.91437853 </i>
    <i name="e_wo_entrp">    -36.91434966 </i>
    <i name="e_0_energy">    -36.91436410 </i>
   </energy>
  </scstep>
  <scstep>
   <time name="diag">   79.55   79.60</time>
   <time name="diis">  221.26  221.40</time>
   <time name="orth">    3.10    3.10</time>
   <time name="total">  336.70  336.92</time>
   <energy>
    <i name="e_fr_energy">    -36.91437853 </i>
    <i name="e_wo_entrp">    -36.91434966 </i>
    <i name="e_0_energy">    -36.91436410 </i>
   </energy>
  </scstep>
  <scstep>
   <time name="diag">   79.33   79.56</time>
   <time name="diis">  216.64  217.10</time>
   <time name="orth">    3.10    3.10</time>
   <time name="total">  331.79  332.52</time>
   <energy>
    <i name="e_fr_energy">    -36.91437853 </i>
    <i name="e_wo_entrp">    -36.91434966 </i>
    <i name="e_0_energy">    -36.91436410 </i>
   </energy>
  </scstep>
  <scstep>
   <time name="diag">   79.50   79.56</time>
   <time name="diis">  197.68  197.81</time>
   <time name="orth">    3.08    3.08</time>
   <time name="total">  312.99  313.21</time>
   <energy>
    <i name="e_fr_energy">    -36.91437853 </i>
    <i name="e_wo_entrp">    -36.91434966 </i>
    <i name="e_0_energy">    -36.91436410 </i>
   </energy>
  </scstep>
  <scstep>
   <time name="diag">   79.54   79.59</time>
   <time name="diis">  185.42  185.56</time>
   <time name="orth">    3.08    3.08</time>
   <time name="total">  270.45  270.65</time>
   <energy>
    <i name="alphaZ">      6.18334092 </i>
    <i name="ewald">   2530.55790434 </i>
    <i name="hartreedc">  -3024.64304738 </i>
    <i name="XCdc">     57.36801431 </i>
    <i name="pawpsdc">    273.69369330 </i>
    <i name="pawaedc">   -278.82716601 </i>
    <i name="eentropy">     -0.00002887 </i>
    <i name="bandstr">   -189.87061605 </i>
    <i name="atom">    588.62352690 </i>
    <i name="e_fr_energy">    -36.91437853 </i>
    <i name="e_wo_entrp">    -36.91434966 </i>
    <i name="e_0_energy">    -36.91436410 </i>
   </energy>
  </scstep>
  <structure>
   <crystal>
    <varray name="basis" >
     <v>       4.31641910       0.00000000       0.00000000 </v>
     <v>       0.00000000       2.46280781       0.00000000 </v>
     <v>       0.00000000       0.00000000      19.83328062 </v>
    </varray>
    <i name="volume">    210.83790140 </i>
    <varray name="rec_basis" >
     <v>       0.23167352       0.00000000       0.00000000 </v>
     <v>       0.00000000       0.40604062       0.00000000 </v>
     <v>       0.00000000       0.00000000       0.05042030 </v>
    </varray>
   </crystal>
   <varray name="positions" >
    <v>       0.99975357      -0.00000000       0.00000000 </v>
    <v>       0.16691310       0.50000000      -0.00000000 </v>
    <v>       0.49975357       0.50000000       0.00000000 </v>
    <v>       0.66691310      -0.00000000      -0.00000000 </v>
   </varray>
  </structure>
  <varray name="forces" >
   <v>       0.00019506       0.00000000      -0.00000000 </v>
   <v>      -0.00019506      -0.00000000       0.00000000 </v>
   <v>       0.00019506      -0.00000000      -0.00000000 </v>
   <v>      -0.00019506       0.00000000       0.00000000 </v>
  </varray>
  <varray name="stress" >
   <v>     -16.83973621       0.00000000       0.00000000 </v>
   <v>       0.00000000      -0.00171788       0.00000000 </v>
   <v>       0.00000000       0.00000000      -0.01012119 </v>
  </varray>
  <energy>
   <i name="e_fr_energy">    -36.91437853 </i>
   <i name="e_wo_entrp">    -36.91436410 </i>
   <i name="e_0_energy">     -0.00002887 </i>
  </energy>
  <time name="totalsc"> 2446.72 2448.96</time>
 </calculation>
 <calculation>
  <scstep>
   <time name="dav">  305.29  307.80</time>
   <time name="total">  337.74  340.79</time>
   <energy>
    <i name="alphaZ">      6.18334092 </i>
    <i name="ewald">   2530.55792098 </i>
    <i name="hartreedc">  -3024.64305449 </i>
    <i name="XCdc">     57.36801478 </i>
    <i name="pawpsdc">    273.69369343 </i>
    <i name="pawaedc">   -278.82716613 </i>
    <i name="eentropy">     -0.00002883 </i>
    <i name="bandstr">   -189.87062609 </i>
    <i name="atom">    588.62352690 </i>
    <i name="e_fr_energy">    -36.91437853 </i>
    <i name="e_wo_entrp">    -36.91434970 </i>
    <i name="e_0_energy">    -36.91436411 </i>
   </energy>
  </scstep>
  <scstep>
   <time name="diag">   78.71   79.59</time>
   <time name="diis">  271.83  274.98</time>
   <time name="orth">    3.08    3.08</time>
   <time name="total">  386.16  390.63</time>
   <energy>
    <i name="e_fr_energy">    -36.91437853 </i>
    <i name="e_wo_entrp">    -36.91434970 </i>
    <i name="e_0_energy">    -36.91436412 </i>
   </energy>
  </scstep>
  <scstep>
   <time name="diag">   79.57   79.59</time>
   <time name="diis">  212.98  213.05</time>
   <time name="orth">    3.10    3.10</time>
   <time name="total">  328.58  328.70</time>
   <energy>
    <i name="e_fr_energy">    -36.91437853 </i>
    <i name="e_wo_entrp">    -36.91434970 </i>
    <i name="e_0_energy">    -36.91436411 </i>
   </energy>
  </scstep>
  <scstep>
   <time name="diag">   79.58   79.59</time>
   <time name="diis">  210.26  210.31</time>
   <time name="orth">    3.08    3.08</time>
   <time name="total">  325.97  326.06</time>
   <energy>
    <i name="e_fr_energy">    -36.91437853 </i>
    <i name="e_wo_entrp">    -36.91434970 </i>
    <i name="e_0_energy">    -36.91436411 </i>
   </energy>
  </scstep>
  <scstep>
   <time name="diag">   79.64   79.65</time>
   <time name="diis">  208.35  208.39</time>
   <time name="orth">    3.10    3.10</time>
   <time name="total">  293.50  293.59</time>
   <energy>
    <i name="alphaZ">      6.18334092 </i>
    <i name="ewald">   2530.55792098 </i>
    <i name="hartreedc">  -3024.64305897 </i>
    <i name="XCdc">     57.36801498 </i>
    <i name="pawpsdc">    273.69371663 </i>
    <i name="pawaedc">   -278.82718943 </i>
    <i name="eentropy">     -0.00002883 </i>
    <i name="bandstr">   -189.87062171 </i>
    <i name="atom">    588.62352690 </i>
    <i name="e_fr_energy">    -36.91437853 </i>
    <i name="e_wo_entrp">    -36.91434970 </i>
    <i name="e_0_energy">    -36.91436411 </i>
   </energy>
  </scstep>
  <structure>
   <crystal>
    <varray name="basis" >
     <v>       4.31641910       0.00000000       0.00000000 </v>
     <v>       0.00000000       2.46280781       0.00000000 </v>
     <v>       0.00000000       0.00000000      19.83328062 </v>
    </varray>
    <i name="volume">    210.83790140 </i>
    <varray name="rec_basis" >
     <v>       0.23167352       0.00000000       0.00000000 </v>
     <v>       0.00000000       0.40604062       0.00000000 </v>
     <v>       0.00000000       0.00000000       0.05042030 </v>
    </varray>
   </crystal>
   <varray name="positions" >
    <v>       0.99975401      -0.00000000       0.00000000 </v>
    <v>       0.16691266       0.50000000      -0.00000000 </v>
    <v>       0.49975401       0.50000000       0.00000000 </v>
    <v>       0.66691266      -0.00000000      -0.00000000 </v>
   </varray>
  </structure>
  <varray name="forces" >
   <v>      -0.00000578       0.00000000       0.00000000 </v>
   <v>       0.00000578      -0.00000000      -0.00000000 </v>
   <v>      -0.00000578      -0.00000000       0.00000000 </v>
   <v>       0.00000578       0.00000000      -0.00000000 </v>
  </varray>
  <varray name="stress" >
   <v>     -16.84018408       0.00000000       0.00000000 </v>
   <v>       0.00000000      -0.00113111       0.00000000 </v>
   <v>       0.00000000       0.00000000      -0.01011594 </v>
  </varray>
  <energy>
   <i name="e_fr_energy">    -36.91437853 </i>
   <i name="e_wo_entrp">    -36.91436411 </i>
   <i name="e_0_energy">     -0.00002883 </i>
  </energy>
  <time name="totalsc"> 1776.45 1790.50</time>
 </calculation>
 <calculation>
  <scstep>
   <time name="dav">  256.83  256.90</time>
   <time name="total">  289.87  289.95</time>
   <energy>
    <i name="alphaZ">      6.18334092 </i>
    <i name="ewald">   2530.55792050 </i>
    <i name="hartreedc">  -3024.64305988 </i>
    <i name="XCdc">     57.36801504 </i>
    <i name="pawpsdc">    273.69371639 </i>
    <i name="pawaedc">   -278.82718923 </i>
    <i name="eentropy">     -0.00002883 </i>
    <i name="bandstr">   -189.87062035 </i>
    <i name="atom">    588.62352690 </i>
    <i name="e_fr_energy">    -36.91437853 </i>
    <i name="e_wo_entrp">    -36.91434970 </i>
    <i name="e_0_energy">    -36.91436411 </i>
   </energy>
  </scstep>
  <scstep>
   <time name="diag">   79.64   79.67</time>
   <time name="diis">  171.07  171.11</time>
   <time name="orth">    3.08    3.08</time>
   <time name="total">  286.84  286.91</time>
   <energy>
    <i name="e_fr_energy">    -36.91437853 </i>
    <i name="e_wo_entrp">    -36.91434970 </i>
    <i name="e_0_energy">    -36.91436411 </i>
   </energy>
  </scstep>
  <scstep>
   <time name="diag">   79.61   79.63</time>
   <time name="diis">  165.10  165.15</time>
   <time name="orth">    3.08    3.08</time>
   <time name="total">  280.83  280.91</time>
   <energy>
    <i name="e_fr_energy">    -36.91437853 </i>
    <i name="e_wo_entrp">    -36.91434970 </i>
    <i name="e_0_energy">    -36.91436411 </i>
   </energy>
  </scstep>
  <scstep>
   <time name="diag">   79.54   79.58</time>
   <time name="diis">  146.09  146.19</time>
   <time name="orth">    3.10    3.10</time>
   <time name="total">  261.70  261.87</time>
   <energy>
    <i name="e_fr_energy">    -36.91437853 </i>
    <i name="e_wo_entrp">    -36.91434970 </i>
    <i name="e_0_energy">    -36.91436411 </i>
   </energy>
  </scstep>
  <scstep>
   <time name="diag">   79.56   79.61</time>
   <time name="diis">  153.85  153.96</time>
   <time name="orth">    3.09    3.10</time>
   <time name="total">  238.90  239.80</time>
   <energy>
    <i name="alphaZ">      6.18334092 </i>
    <i name="ewald">   2530.55792050 </i>
    <i name="hartreedc">  -3024.64306013 </i>
    <i name="XCdc">     57.36801504 </i>
    <i name="pawpsdc">    273.69371874 </i>
    <i name="pawaedc">   -278.82719157 </i>
    <i name="eentropy">     -0.00002883 </i>
    <i name="bandstr">   -189.87062010 </i>
    <i name="atom">    588.62352690 </i>
    <i name="e_fr_energy">    -36.91437853 </i>
    <i name="e_wo_entrp">    -36.91434970 </i>
    <i name="e_0_energy">    -36.91436411 </i>
   </energy>
  </scstep>
  <structure>
   <crystal>
    <varray name="basis" >
     <v>       4.31641910       0.00000000       0.00000000 </v>
     <v>       0.00000000       2.46280781       0.00000000 </v>
     <v>       0.00000000       0.00000000      19.83328062 </v>
    </varray>
    <i name="volume">    210.83790140 </i>
    <varray name="rec_basis" >
     <v>       0.23167352       0.00000000       0.00000000 </v>
     <v>       0.00000000       0.40604062       0.00000000 </v>
     <v>       0.00000000       0.00000000       0.05042030 </v>
    </varray>
   </crystal>
   <varray name="positions" >
    <v>       0.99975400       0.00000000       0.00000000 </v>
    <v>       0.16691267       0.50000000      -0.00000000 </v>
    <v>       0.49975400       0.50000000       0.00000000 </v>
    <v>       0.66691267       0.00000000      -0.00000000 </v>
   </varray>
  </structure>
  <varray name="forces" >
   <v>       0.00000735       0.00000000       0.00000000 </v>
   <v>      -0.00000735       0.00000000       0.00000000 </v>
   <v>       0.00000735      -0.00000000       0.00000000 </v>
   <v>      -0.00000735       0.00000000       0.00000000 </v>
  </varray>
  <varray name="stress" >
   <v>     -16.84018841       0.00000000       0.00000000 </v>
   <v>       0.00000000      -0.00114153       0.00000000 </v>
   <v>       0.00000000       0.00000000      -0.01011466 </v>
  </varray>
  <energy>
   <i name="e_fr_energy">    -36.91437853 </i>
   <i name="e_wo_entrp">    -36.91436411 </i>
   <i name="e_0_energy">     -0.00002883 </i>
  </energy>
  <time name="totalsc"> 1463.11 1464.54</time>
 </calculation>
 <calculation>
  <scstep>
   <time name="dav">  250.04  250.13</time>
   <time name="total">  283.05  283.15</time>
   <energy>
    <i name="alphaZ">      6.18334092 </i>
    <i name="ewald">   2530.55792077 </i>
    <i name="hartreedc">  -3024.64306031 </i>
    <i name="XCdc">     57.36801505 </i>
    <i name="pawpsdc">    273.69371870 </i>
    <i name="pawaedc">   -278.82719153 </i>
    <i name="eentropy">     -0.00002883 </i>
    <i name="bandstr">   -189.87062019 </i>
    <i name="atom">    588.62352690 </i>
    <i name="e_fr_energy">    -36.91437853 </i>
    <i name="e_wo_entrp">    -36.91434970 </i>
    <i name="e_0_energy">    -36.91436411 </i>
   </energy>
  </scstep>
  <scstep>
   <time name="diag">   79.58   79.59</time>
   <time name="diis">  127.21  127.25</time>
   <time name="orth">    3.10    3.10</time>
   <time name="total">  242.85  242.95</time>
   <energy>
    <i name="e_fr_energy">    -36.91437853 </i>
    <i name="e_wo_entrp">    -36.91434970 </i>
    <i name="e_0_energy">    -36.91436411 </i>
   </energy>
  </scstep>
  <scstep>
   <time name="diag">   79.64   79.66</time>
   <time name="diis">  121.46  121.49</time>
   <time name="orth">    3.10    3.10</time>
   <time name="total">  237.15  237.23</time>
   <energy>
    <i name="e_fr_energy">    -36.91437853 </i>
    <i name="e_wo_entrp">    -36.91434970 </i>
    <i name="e_0_energy">    -36.91436411 </i>
   </energy>
  </scstep>
  <scstep>
   <time name="diag">   79.64   79.66</time>
   <time name="diis">  122.36  122.39</time>
   <time name="orth">    3.08    3.08</time>
   <time name="total">  238.06  238.12</time>
   <energy>
    <i name="e_fr_energy">    -36.91437853 </i>
    <i name="e_wo_entrp">    -36.91434970 </i>
    <i name="e_0_energy">    -36.91436411 </i>
   </energy>
  </scstep>
  <scstep>
   <time name="diag">   79.64   79.66</time>
   <time name="diis">  118.39  118.42</time>
   <time name="orth">    3.10    3.10</time>
   <time name="total">  203.56  203.63</time>
   <energy>
    <i name="alphaZ">      6.18334092 </i>
    <i name="ewald">   2530.55792077 </i>
    <i name="hartreedc">  -3024.64306016 </i>
    <i name="XCdc">     57.36801505 </i>
    <i name="pawpsdc">    273.69371870 </i>
    <i name="pawaedc">   -278.82719153 </i>
    <i name="eentropy">     -0.00002883 </i>
    <i name="bandstr">   -189.87062034 </i>
    <i name="atom">    588.62352690 </i>
    <i name="e_fr_energy">    -36.91437853 </i>
    <i name="e_wo_entrp">    -36.91434970 </i>
    <i name="e_0_energy">    -36.91436411 </i>
   </energy>
  </scstep>
  <structure>
   <crystal>
    <varray name="basis" >
     <v>       4.31641910       0.00000000       0.00000000 </v>
     <v>       0.00000000       2.46280781       0.00000000 </v>
     <v>       0.00000000       0.00000000      19.83328062 </v>
    </varray>
    <i name="volume">    210.83790140 </i>
    <varray name="rec_basis" >
     <v>       0.23167352       0.00000000       0.00000000 </v>
     <v>       0.00000000       0.40604062       0.00000000 </v>
     <v>       0.00000000       0.00000000       0.05042030 </v>
    </varray>
   </crystal>
   <varray name="positions" >
    <v>       0.99975400       0.00000000       0.00000000 </v>
    <v>       0.16691266       0.50000000      -0.00000000 </v>
    <v>       0.49975400       0.50000000       0.00000000 </v>
    <v>       0.66691266       0.00000000      -0.00000000 </v>
   </varray>
  </structure>
  <varray name="forces" >
   <v>       0.00000061       0.00000000      -0.00000000 </v>
   <v>      -0.00000061      -0.00000000       0.00000000 </v>
   <v>       0.00000061       0.00000000      -0.00000000 </v>
   <v>      -0.00000061       0.00000000       0.00000000 </v>
  </varray>
  <varray name="stress" >
   <v>     -16.84021404       0.00000000       0.00000000 </v>
   <v>       0.00000000      -0.00110867       0.00000000 </v>
   <v>       0.00000000       0.00000000      -0.01011824 </v>
  </varray>
  <energy>
   <i name="e_fr_energy">    -36.91437853 </i>
   <i name="e_wo_entrp">    -36.91436411 </i>
   <i name="e_0_energy">     -0.00002883 </i>
  </energy>
  <time name="totalsc"> 1302.77 1303.23</time>
  <eigenvalues>
   <array>
    <dimension dim="1">band</dimension>
    <dimension dim="2">kpoint</dimension>
    <dimension dim="3">spin</dimension>
    <field>eigene</field>
    <field>occ</field>
    <set>
     <set comment="spin 1">
      <set comment="kpoint 1">
       <r>  -22.1839    1.0000 </r>
       <r>  -17.1202    1.0000 </r>
       <r>  -15.9187    1.0000 </r>
       <r>  -10.3051    1.0000 </r>
       <r>   -9.0119    1.0000 </r>
       <r>   -5.8782    1.0000 </r>
       <r>   -5.7610    1.0000 </r>
       <r>   -5.2039    1.0000 </r>
       <r>   -1.1221    0.0000 </r>
       <r>    0.5322    0.0000 </r>
       <r>    1.3321    0.0000 </r>
       <r>    1.7192    0.0000 </r>
      </set>
      <set comment="kpoint 2">
       <r>  -22.1739    1.0000 </r>
       <r>  -17.2635    1.0000 </r>
       <r>  -15.7602    1.0000 </r>
       <r>  -10.2931    1.0000 </r>
       <r>   -9.0020    1.0000 </r>
       <r>   -5.9216    1.0000 </r>
       <r>   -5.7825    1.0000 </r>
       <r>   -5.2671    1.0000 </r>
       <r>   -1.0430    0.0000 </r>
       <r>    0.5458    0.0000 </r>
       <r>    1.3459    0.0000 </r>
       <r>    1.7331    0.0000 </r>
      </set>
      <set comment="kpoint 3">
       <r>  -22.1438    1.0000 </r>
       <r>  -17.5736    1.0000 </r>
       <r>  -15.4047    1.0000 </r>
       <r>  -10.2572    1.0000 </r>
       <r>   -8.9724    1.0000 </r>
       <r>   -6.0499    1.0000 </r>
       <r>   -5.8459    1.0000 </r>
       <r>   -5.4432    1.0000 </r>
       <r>   -0.8193    0.0000 </r>
       <r>    0.5866    0.0000 </r>
       <r>    1.3873    0.0000 </r>
       <r>    1.7750    0.0000 </r>
      </set>
      <set comment="kpoint 4">
       <r>  -22.0935    1.0000 </r>
       <r>  -17.9315    1.0000 </r>
       <r>  -14.9715    1.0000 </r>
       <r>  -10.1975    1.0000 </r>
       <r>   -8.9232    1.0000 </r>
       <r>   -6.2577    1.0000 </r>
       <r>   -5.9480    1.0000 </r>
       <r>   -5.7015    1.0000 </r>
       <r>   -0.4824    0.0000 </r>
       <r>    0.6547    0.0000 </r>
       <r>    1.4563    0.0000 </r>
       <r>    1.8449    0.0000 </r>
      </set>
      <set comment="kpoint 5">
       <r>  -22.0233    1.0000 </r>
       <r>  -18.2970    1.0000 </r>
       <r>  -14.5011    1.0000 </r>
       <r>  -10.1140    1.0000 </r>
       <r>   -8.8548    1.0000 </r>
       <r>   -6.5371    1.0000 </r>
       <r>   -6.0837    1.0000 </r>
       <r>   -6.0108    1.0000 </r>
       <r>   -0.0642    0.0000 </r>
       <r>    0.7501    0.0000 </r>
       <r>    1.5528    0.0000 </r>
       <r>    1.9427    0.0000 </r>
      </set>
      <set comment="kpoint 6">
       <r>  -21.9331    1.0000 </r>
       <r>  -18.6565    1.0000 </r>
       <r>  -14.0077    1.0000 </r>
       <r>  -10.0068    1.0000 </r>
       <r>   -8.7674    1.0000 </r>
       <r>   -6.8787    1.0000 </r>
       <r>   -6.3474    1.0000 </r>
       <r>   -6.2472    1.0000 </r>
       <r>    0.4105    0.0000 </r>
       <r>    0.8726    0.0000 </r>
       <r>    1.6769    0.0000 </r>
       <r>    2.0684    0.0000 </r>
      </set>
      <set comment="kpoint 7">
       <r>  -21.8229    1.0000 </r>
       <r>  -19.0044    1.0000 </r>
       <r>  -13.4979    1.0000 </r>
       <r>   -9.8762    1.0000 </r>
       <r>   -8.6616    1.0000 </r>
       <r>   -7.2727    1.0000 </r>
       <r>   -6.6954    1.0000 </r>
       <r>   -6.4322    1.0000 </r>
       <r>    0.9240    0.0000 </r>
       <r>    1.0225    0.0000 </r>
       <r>    1.8284    0.0000 </r>
       <r>    2.2221    0.0000 </r>
      </set>
      <set comment="kpoint 8">
       <r>  -21.6929    1.0000 </r>
       <r>  -19.3379    1.0000 </r>
       <r>  -12.9753    1.0000 </r>
       <r>   -9.7224    1.0000 </r>
       <r>   -8.5380    1.0000 </r>
       <r>   -7.7096    1.0000 </r>
       <r>   -7.0443    1.0000 </r>
       <r>   -6.6327    1.0000 </r>
       <r>    1.1996    0.0000 </r>
       <r>    1.4636    0.0000 </r>
       <r>    2.0073    0.0000 </r>
       <r>    2.4037    0.0000 </r>
      </set>
      <set comment="kpoint 9">
       <r>  -21.5432    1.0000 </r>
       <r>  -19.6554    1.0000 </r>
       <r>  -12.4428    1.0000 </r>
       <r>   -9.5458    1.0000 </r>
       <r>   -8.3975    1.0000 </r>
       <r>   -8.1807    1.0000 </r>
       <r>   -7.3869    1.0000 </r>
       <r>   -6.8428    1.0000 </r>
       <r>    1.4038    0.0000 </r>
       <r>    2.0194    0.0000 </r>
       <r>    2.2134    0.0000 </r>
       <r>    2.6133    0.0000 </r>
      </set>
      <set comment="kpoint 10">
       <r>  -21.3738    1.0000 </r>
       <r>  -19.9559    1.0000 </r>
       <r>  -11.9030    1.0000 </r>
       <r>   -9.3466    1.0000 </r>
       <r>   -8.6782    1.0000 </r>
       <r>   -8.2410    1.0000 </r>
       <r>   -7.7186    1.0000 </r>
       <r>   -7.0576    1.0000 </r>
       <r>    1.6352    0.0000 </r>
       <r>    2.4465    0.0000 </r>
       <r>    2.5822    0.0000 </r>
       <r>    2.8507    0.0000 </r>
      </set>
      <set comment="kpoint 11">
       <r>  -21.1850    1.0000 </r>
       <r>  -20.2387    1.0000 </r>
       <r>  -11.3586    1.0000 </r>
       <r>   -9.1955    1.0000 </r>
       <r>   -9.1255    1.0000 </r>
       <r>   -8.0698    1.0000 </r>
       <r>   -8.0362    1.0000 </r>
       <r>   -7.2727    1.0000 </r>
       <r>    1.8937    0.0000 </r>
       <r>    2.7060    0.0000 </r>
       <r>    3.1161    0.0000 </r>
       <r>    3.1364    0.0000 </r>
      </set>
      <set comment="kpoint 12">
       <r>  -20.9768    1.0000 </r>
       <r>  -20.5034    1.0000 </r>
       <r>  -10.8122    1.0000 </r>
       <r>   -9.7267    1.0000 </r>
       <r>   -8.8830    1.0000 </r>
       <r>   -8.3371    1.0000 </r>
       <r>   -7.8854    1.0000 </r>
       <r>   -7.4844    1.0000 </r>
       <r>    2.1792    0.0000 </r>
       <r>    2.8306    0.0000 </r>
       <r>    2.9904    0.0000 </r>
       <r>    3.4095    0.0000 </r>
      </set>
      <set comment="kpoint 13">
       <r>  -20.7495    1.0000 </r>
       <r>  -20.7495    1.0000 </r>
       <r>  -10.2670    1.0000 </r>
       <r>  -10.2670    1.0000 </r>
       <r>   -8.6198    1.0000 </r>
       <r>   -8.6198    1.0000 </r>
       <r>   -7.6895    1.0000 </r>
       <r>   -7.6895    1.0000 </r>
       <r>    2.4916    0.0000 </r>
       <r>    2.4916    0.0000 </r>
       <r>    3.2931    0.0000 </r>
       <r>    3.2931    0.0000 </r>
      </set>
      <set comment="kpoint 14">
       <r>  -22.1702    1.0000 </r>
       <r>  -17.1084    1.0000 </r>
       <r>  -15.9070    1.0000 </r>
       <r>  -10.2887    1.0000 </r>
       <r>   -9.0742    1.0000 </r>
       <r>   -5.9067    1.0000 </r>
       <r>   -5.8187    1.0000 </r>
       <r>   -5.1872    1.0000 </r>
       <r>   -1.1254    0.0000 </r>
       <r>    0.5508    0.0000 </r>
       <r>    1.3509    0.0000 </r>
       <r>    1.7382    0.0000 </r>
      </set>
      <set comment="kpoint 15">
       <r>  -22.1602    1.0000 </r>
       <r>  -17.2515    1.0000 </r>
       <r>  -15.7487    1.0000 </r>
       <r>  -10.2768    1.0000 </r>
       <r>   -9.0643    1.0000 </r>
       <r>   -5.9535    1.0000 </r>
       <r>   -5.8362    1.0000 </r>
       <r>   -5.2506    1.0000 </r>
       <r>   -1.0462    0.0000 </r>
       <r>    0.5644    0.0000 </r>
       <r>    1.3647    0.0000 </r>
       <r>    1.7522    0.0000 </r>
      </set>
      <set comment="kpoint 16">
       <r>  -22.1300    1.0000 </r>
       <r>  -17.5614    1.0000 </r>
       <r>  -15.3936    1.0000 </r>
       <r>  -10.2409    1.0000 </r>
       <r>   -9.0346    1.0000 </r>
       <r>   -6.0853    1.0000 </r>
       <r>   -5.8943    1.0000 </r>
       <r>   -5.4270    1.0000 </r>
       <r>   -0.8226    0.0000 </r>
       <r>    0.6053    0.0000 </r>
       <r>    1.4061    0.0000 </r>
       <r>    1.7941    0.0000 </r>
      </set>
      <set comment="kpoint 17">
       <r>  -22.0798    1.0000 </r>
       <r>  -17.9191    1.0000 </r>
       <r>  -14.9609    1.0000 </r>
       <r>  -10.1812    1.0000 </r>
       <r>   -8.9854    1.0000 </r>
       <r>   -6.2929    1.0000 </r>
       <r>   -5.9939    1.0000 </r>
       <r>   -5.6856    1.0000 </r>
       <r>   -0.4860    0.0000 </r>
       <r>    0.6733    0.0000 </r>
       <r>    1.4751    0.0000 </r>
       <r>    1.8640    0.0000 </r>
      </set>
      <set comment="kpoint 18">
       <r>  -22.0096    1.0000 </r>
       <r>  -18.2844    1.0000 </r>
       <r>  -14.4910    1.0000 </r>
       <r>  -10.0977    1.0000 </r>
       <r>   -8.9168    1.0000 </r>
       <r>   -6.5693    1.0000 </r>
       <r>   -6.1294    1.0000 </r>
       <r>   -5.9951    1.0000 </r>
       <r>   -0.0683    0.0000 </r>
       <r>    0.7687    0.0000 </r>
       <r>    1.5716    0.0000 </r>
       <r>    1.9618    0.0000 </r>
      </set>
      <set comment="kpoint 19">
       <r>  -21.9194    1.0000 </r>
       <r>  -18.6437    1.0000 </r>
       <r>  -13.9983    1.0000 </r>
       <r>   -9.9905    1.0000 </r>
       <r>   -8.8293    1.0000 </r>
       <r>   -6.9064    1.0000 </r>
       <r>   -6.3319    1.0000 </r>
       <r>   -6.2941    1.0000 </r>
       <r>    0.4055    0.0000 </r>
       <r>    0.8913    0.0000 </r>
       <r>    1.6957    0.0000 </r>
       <r>    2.0875    0.0000 </r>
      </set>
      <set comment="kpoint 20">
       <r>  -21.8092    1.0000 </r>
       <r>  -18.9914    1.0000 </r>
       <r>  -13.4892    1.0000 </r>
       <r>   -9.8600    1.0000 </r>
       <r>   -8.7233    1.0000 </r>
       <r>   -7.2954    1.0000 </r>
       <r>   -6.6800    1.0000 </r>
       <r>   -6.4809    1.0000 </r>
       <r>    0.9179    0.0000 </r>
       <r>    1.0411    0.0000 </r>
       <r>    1.8472    0.0000 </r>
       <r>    2.2412    0.0000 </r>
      </set>
      <set comment="kpoint 21">
       <r>  -21.6793    1.0000 </r>
       <r>  -19.3248    1.0000 </r>
       <r>  -12.9675    1.0000 </r>
       <r>   -9.7063    1.0000 </r>
       <r>   -8.5994    1.0000 </r>
       <r>   -7.7274    1.0000 </r>
       <r>   -7.0288    1.0000 </r>
       <r>   -6.6832    1.0000 </r>
       <r>    1.2182    0.0000 </r>
       <r>    1.4560    0.0000 </r>
       <r>    2.0261    0.0000 </r>
       <r>    2.4228    0.0000 </r>
      </set>
      <set comment="kpoint 22">
       <r>  -21.5296    1.0000 </r>
       <r>  -19.6422    1.0000 </r>
       <r>  -12.4361    1.0000 </r>
       <r>   -9.5297    1.0000 </r>
       <r>   -8.4585    1.0000 </r>
       <r>   -8.1939    1.0000 </r>
       <r>   -7.3714    1.0000 </r>
       <r>   -6.8953    1.0000 </r>
       <r>    1.4225    0.0000 </r>
       <r>    2.0102    0.0000 </r>
       <r>    2.2322    0.0000 </r>
       <r>    2.6323    0.0000 </r>
      </set>
      <set comment="kpoint 23">
       <r>  -21.3602    1.0000 </r>
       <r>  -19.9426    1.0000 </r>
       <r>  -11.8976    1.0000 </r>
       <r>   -9.3306    1.0000 </r>
       <r>   -8.6874    1.0000 </r>
       <r>   -8.3016    1.0000 </r>
       <r>   -7.7031    1.0000 </r>
       <r>   -7.1119    1.0000 </r>
       <r>    1.6539    0.0000 </r>
       <r>    2.4653    0.0000 </r>
       <r>    2.5714    0.0000 </r>
       <r>    2.8698    0.0000 </r>
      </set>
      <set comment="kpoint 24">
       <r>  -21.1714    1.0000 </r>
       <r>  -20.2254    1.0000 </r>
       <r>  -11.3547    1.0000 </r>
       <r>   -9.2011    1.0000 </r>
       <r>   -9.1095    1.0000 </r>
       <r>   -8.1298    1.0000 </r>
       <r>   -8.0205    1.0000 </r>
       <r>   -7.3286    1.0000 </r>
       <r>    1.9124    0.0000 </r>
       <r>    2.7248    0.0000 </r>
       <r>    3.1251    0.0000 </r>
       <r>    3.1352    0.0000 </r>
      </set>
      <set comment="kpoint 25">
       <r>  -20.9633    1.0000 </r>
       <r>  -20.4900    1.0000 </r>
       <r>  -10.8101    1.0000 </r>
       <r>   -9.7293    1.0000 </r>
       <r>   -8.8671    1.0000 </r>
       <r>   -8.3214    1.0000 </r>
       <r>   -7.9446    1.0000 </r>
       <r>   -7.5416    1.0000 </r>
       <r>    2.1979    0.0000 </r>
       <r>    2.8493    0.0000 </r>
       <r>    3.0092    0.0000 </r>
       <r>    3.4285    0.0000 </r>
      </set>
      <set comment="kpoint 26">
       <r>  -20.7361    1.0000 </r>
       <r>  -20.7361    1.0000 </r>
       <r>  -10.2671    1.0000 </r>
       <r>  -10.2671    1.0000 </r>
       <r>   -8.6040    1.0000 </r>
       <r>   -8.6040    1.0000 </r>
       <r>   -7.7478    1.0000 </r>
       <r>   -7.7478    1.0000 </r>
       <r>    2.5103    0.0000 </r>
       <r>    2.5103    0.0000 </r>
       <r>    3.3118    0.0000 </r>
       <r>    3.3118    0.0000 </r>
      </set>
      <set comment="kpoint 27">
       <r>  -22.1290    1.0000 </r>
       <r>  -17.0728    1.0000 </r>
       <r>  -15.8721    1.0000 </r>
       <r>  -10.2397    1.0000 </r>
       <r>   -9.2561    1.0000 </r>
       <r>   -5.9916    1.0000 </r>
       <r>   -5.9873    1.0000 </r>
       <r>   -5.1372    1.0000 </r>
       <r>   -1.1361    0.0000 </r>
       <r>    0.6067    0.0000 </r>
       <r>    1.4075    0.0000 </r>
       <r>    1.7955    0.0000 </r>
      </set>
      <set comment="kpoint 28">
       <r>  -22.1190    1.0000 </r>
       <r>  -17.2156    1.0000 </r>
       <r>  -15.7144    1.0000 </r>
       <r>  -10.2277    1.0000 </r>
       <r>   -9.2461    1.0000 </r>
       <r>   -6.0652    1.0000 </r>
       <r>   -5.9761    1.0000 </r>
[...]
       <r>   -9.2708    1.0000 </r>
       <r>   -5.5624    1.0000 </r>
       <r>   -5.5624    1.0000 </r>
       <r>   -0.4489    0.0000 </r>
       <r>   -0.4489    0.0000 </r>
       <r>    4.5518    0.0000 </r>
       <r>    4.5518    0.0000 </r>
      </set>
      <set comment="kpoint 209">
       <r>  -18.7513    1.0000 </r>
       <r>  -16.9496    1.0000 </r>
       <r>  -14.1189    1.0000 </r>
       <r>  -12.4747    1.0000 </r>
       <r>  -12.3725    1.0000 </r>
       <r>  -10.8477    1.0000 </r>
       <r>   -6.3609    1.0000 </r>
       <r>   -4.4753    1.0000 </r>
       <r>   -1.0742    0.0000 </r>
       <r>    1.0908    0.0000 </r>
       <r>    5.2766    0.0000 </r>
       <r>    6.0575    0.0000 </r>
      </set>
      <set comment="kpoint 210">
       <r>  -18.7418    1.0000 </r>
       <r>  -16.9421    1.0000 </r>
       <r>  -14.1967    1.0000 </r>
       <r>  -12.5469    1.0000 </r>
       <r>  -12.2870    1.0000 </r>
       <r>  -10.7779    1.0000 </r>
       <r>   -6.3523    1.0000 </r>
       <r>   -4.4787    1.0000 </r>
       <r>   -1.0824    0.0000 </r>
       <r>    1.0665    0.0000 </r>
       <r>    5.2899    0.0000 </r>
       <r>    6.0731    0.0000 </r>
      </set>
      <set comment="kpoint 211">
       <r>  -18.7133    1.0000 </r>
       <r>  -16.9198    1.0000 </r>
       <r>  -14.3940    1.0000 </r>
       <r>  -12.7332    1.0000 </r>
       <r>  -12.0667    1.0000 </r>
       <r>  -10.5994    1.0000 </r>
       <r>   -6.3266    1.0000 </r>
       <r>   -4.4893    1.0000 </r>
       <r>   -1.1056    0.0000 </r>
       <r>    0.9952    0.0000 </r>
       <r>    5.3297    0.0000 </r>
       <r>    6.1198    0.0000 </r>
      </set>
      <set comment="kpoint 212">
       <r>  -18.6658    1.0000 </r>
       <r>  -16.8842    1.0000 </r>
       <r>  -14.6513    1.0000 </r>
       <r>  -12.9828    1.0000 </r>
       <r>  -11.7709    1.0000 </r>
       <r>  -10.3651    1.0000 </r>
       <r>   -6.2840    1.0000 </r>
       <r>   -4.5085    1.0000 </r>
       <r>   -1.1388    0.0000 </r>
       <r>    0.8818    0.0000 </r>
       <r>    5.3956    0.0000 </r>
       <r>    6.1964    0.0000 </r>
      </set>
      <set comment="kpoint 213">
       <r>  -18.5996    1.0000 </r>
       <r>  -16.8378    1.0000 </r>
       <r>  -14.9286    1.0000 </r>
       <r>  -13.2614    1.0000 </r>
       <r>  -11.4394    1.0000 </r>
       <r>  -10.1124    1.0000 </r>
       <r>   -6.2251    1.0000 </r>
       <r>   -4.5386    1.0000 </r>
       <r>   -1.1751    0.0000 </r>
       <r>    0.7335    0.0000 </r>
       <r>    5.4856    0.0000 </r>
       <r>    6.3309    0.0000 </r>
      </set>
      <set comment="kpoint 214">
       <r>  -18.5148    1.0000 </r>
       <r>  -16.7863    1.0000 </r>
       <r>  -15.2014    1.0000 </r>
       <r>  -13.5506    1.0000 </r>
       <r>  -11.0945    1.0000 </r>
       <r>   -9.8643    1.0000 </r>
       <r>   -6.1505    1.0000 </r>
       <r>   -4.5819    1.0000 </r>
       <r>   -1.2062    0.0000 </r>
       <r>    0.5583    0.0000 </r>
       <r>    5.5815    0.0000 </r>
       <r>    5.8674    0.0000 </r>
      </set>
      <set comment="kpoint 215">
       <r>  -18.4117    1.0000 </r>
       <r>  -16.7406    1.0000 </r>
       <r>  -15.4485    1.0000 </r>
       <r>  -13.8403    1.0000 </r>
       <r>  -10.7503    1.0000 </r>
       <r>   -9.6365    1.0000 </r>
       <r>   -6.0612    1.0000 </r>
       <r>   -4.6407    1.0000 </r>
       <r>   -1.2239    0.0000 </r>
       <r>    0.3647    0.0000 </r>
       <r>    5.3698    0.0000 </r>
       <r>    5.7888    0.0000 </r>
      </set>
      <set comment="kpoint 216">
       <r>  -18.2908    1.0000 </r>
       <r>  -16.7226    1.0000 </r>
       <r>  -15.6427    1.0000 </r>
       <r>  -14.1244    1.0000 </r>
       <r>  -10.4175    1.0000 </r>
       <r>   -9.4411    1.0000 </r>
       <r>   -5.9584    1.0000 </r>
       <r>   -4.7165    1.0000 </r>
       <r>   -1.2211    0.0000 </r>
       <r>    0.1605    0.0000 </r>
       <r>    5.0102    0.0000 </r>
       <r>    5.9505    0.0000 </r>
      </set>
      <set comment="kpoint 217">
       <r>  -18.1524    1.0000 </r>
       <r>  -16.7644    1.0000 </r>
       <r>  -15.7487    1.0000 </r>
       <r>  -14.3989    1.0000 </r>
       <r>  -10.1056    1.0000 </r>
       <r>   -9.2886    1.0000 </r>
       <r>   -5.8436    1.0000 </r>
       <r>   -4.8094    1.0000 </r>
       <r>   -1.1924    0.0000 </r>
       <r>   -0.0470    0.0000 </r>
       <r>    4.7163    0.0000 </r>
       <r>    5.5360    0.0000 </r>
      </set>
      <set comment="kpoint 218">
       <r>  -17.9976    1.0000 </r>
       <r>  -16.8818    1.0000 </r>
       <r>  -15.7488    1.0000 </r>
       <r>  -14.6607    1.0000 </r>
       <r>   -9.8237    1.0000 </r>
       <r>   -9.1876    1.0000 </r>
       <r>   -5.7188    1.0000 </r>
       <r>   -4.9181    1.0000 </r>
       <r>   -1.1350    0.0000 </r>
       <r>   -0.2515    0.0000 </r>
       <r>    4.5046    0.0000 </r>
       <r>    5.1448    0.0000 </r>
      </set>
      <set comment="kpoint 219">
       <r>  -17.8273    1.0000 </r>
       <r>  -17.0535    1.0000 </r>
       <r>  -15.6629    1.0000 </r>
       <r>  -14.9071    1.0000 </r>
       <r>   -9.5809    1.0000 </r>
       <r>   -9.1445    1.0000 </r>
       <r>   -5.5862    1.0000 </r>
       <r>   -5.0401    1.0000 </r>
       <r>   -1.0482    0.0000 </r>
       <r>   -0.4471    0.0000 </r>
       <r>    4.3826    0.0000 </r>
       <r>    4.8226    0.0000 </r>
      </set>
      <set comment="kpoint 220">
       <r>  -17.6434    1.0000 </r>
       <r>  -17.2489    1.0000 </r>
       <r>  -15.5210    1.0000 </r>
       <r>  -15.1353    1.0000 </r>
       <r>   -9.3853    1.0000 </r>
       <r>   -9.1633    1.0000 </r>
       <r>   -5.4486    1.0000 </r>
       <r>   -5.1718    1.0000 </r>
       <r>   -0.9331    0.0000 </r>
       <r>   -0.6289    0.0000 </r>
       <r>    4.3544    0.0000 </r>
       <r>    4.5786    0.0000 </r>
      </set>
      <set comment="kpoint 221">
       <r>  -17.4489    1.0000 </r>
       <r>  -17.4489    1.0000 </r>
       <r>  -15.3418    1.0000 </r>
       <r>  -15.3418    1.0000 </r>
       <r>   -9.2444    1.0000 </r>
       <r>   -9.2444    1.0000 </r>
       <r>   -5.3093    1.0000 </r>
       <r>   -5.3093    1.0000 </r>
       <r>   -0.7922    0.0000 </r>
       <r>   -0.7922    0.0000 </r>
       <r>    4.4207    0.0000 </r>
       <r>    4.4207    0.0000 </r>
      </set>
      <set comment="kpoint 222">
       <r>  -18.3261    1.0000 </r>
       <r>  -17.4215    1.0000 </r>
       <r>  -13.7384    1.0000 </r>
       <r>  -12.9155    1.0000 </r>
       <r>  -12.0233    1.0000 </r>
       <r>  -11.2561    1.0000 </r>
       <r>   -5.9010    1.0000 </r>
       <r>   -4.9527    1.0000 </r>
       <r>   -0.5659    0.0000 </r>
       <r>    0.5188    0.0000 </r>
       <r>    5.8795    0.0000 </r>
       <r>    6.6201    0.0000 </r>
      </set>
      <set comment="kpoint 223">
       <r>  -18.3167    1.0000 </r>
       <r>  -17.4129    1.0000 </r>
       <r>  -13.8162    1.0000 </r>
       <r>  -12.9900    1.0000 </r>
       <r>  -11.9405    1.0000 </r>
       <r>  -11.1814    1.0000 </r>
       <r>   -5.8937    1.0000 </r>
       <r>   -4.9506    1.0000 </r>
       <r>   -0.5809    0.0000 </r>
       <r>    0.4965    0.0000 </r>
       <r>    5.8927    0.0000 </r>
       <r>    6.6366    0.0000 </r>
      </set>
      <set comment="kpoint 224">
       <r>  -18.2887    1.0000 </r>
       <r>  -17.3872    1.0000 </r>
       <r>  -14.0146    1.0000 </r>
       <r>  -13.1817    1.0000 </r>
       <r>  -11.7275    1.0000 </r>
       <r>  -10.9897    1.0000 </r>
       <r>   -5.8720    1.0000 </r>
       <r>   -4.9446    1.0000 </r>
       <r>   -0.6245    0.0000 </r>
       <r>    0.4313    0.0000 </r>
       <r>    5.9323    0.0000 </r>
       <r>    6.6858    0.0000 </r>
      </set>
      <set comment="kpoint 225">
       <r>  -18.2421    1.0000 </r>
       <r>  -17.3450    1.0000 </r>
       <r>  -14.2757    1.0000 </r>
       <r>  -13.4368    1.0000 </r>
       <r>  -11.4432    1.0000 </r>
       <r>  -10.7365    1.0000 </r>
       <r>   -5.8362    1.0000 </r>
       <r>   -4.9360    1.0000 </r>
       <r>   -0.6917    0.0000 </r>
       <r>    0.3281    0.0000 </r>
       <r>    5.9974    0.0000 </r>
       <r>    6.7663    0.0000 </r>
      </set>
      <set comment="kpoint 226">
       <r>  -18.1772    1.0000 </r>
       <r>  -17.2871    1.0000 </r>
       <r>  -14.5616    1.0000 </r>
       <r>  -13.7200    1.0000 </r>
       <r>  -11.1272    1.0000 </r>
       <r>  -10.4601    1.0000 </r>
       <r>   -5.7872    1.0000 </r>
       <r>   -4.9263    1.0000 </r>
       <r>   -0.7753    0.0000 </r>
       <r>    0.1938    0.0000 </r>
       <r>    6.0834    0.0000 </r>
       <r>    6.6229    0.0000 </r>
      </set>
      <set comment="kpoint 227">
       <r>  -18.0943    1.0000 </r>
       <r>  -17.2151    1.0000 </r>
       <r>  -14.8518    1.0000 </r>
       <r>  -14.0125    1.0000 </r>
       <r>  -10.8018    1.0000 </r>
       <r>  -10.1833    1.0000 </r>
       <r>   -5.7260    1.0000 </r>
       <r>   -4.9182    1.0000 </r>
       <r>   -0.8664    0.0000 </r>
       <r>    0.0369    0.0000 </r>
       <r>    6.0421    0.0000 </r>
       <r>    6.2649    0.0000 </r>
      </set>
      <set comment="kpoint 228">
       <r>  -17.9939    1.0000 </r>
       <r>  -17.1318    1.0000 </r>
       <r>  -15.1338    1.0000 </r>
       <r>  -14.3040    1.0000 </r>
       <r>  -10.4815    1.0000 </r>
       <r>   -9.9212    1.0000 </r>
       <r>   -5.6541    1.0000 </r>
       <r>   -4.9146    1.0000 </r>
       <r>   -0.9556    0.0000 </r>
       <r>   -0.1342    0.0000 </r>
       <r>    5.6050    0.0000 </r>
       <r>    6.1620    0.0000 </r>
      </set>
      <set comment="kpoint 229">
       <r>  -17.8767    1.0000 </r>
       <r>  -17.0428    1.0000 </r>
       <r>  -15.3966    1.0000 </r>
       <r>  -14.5883    1.0000 </r>
       <r>  -10.1776    1.0000 </r>
       <r>   -9.6861    1.0000 </r>
       <r>   -5.5734    1.0000 </r>
       <r>   -4.9187    1.0000 </r>
       <r>   -1.0336    0.0000 </r>
       <r>   -0.3109    0.0000 </r>
       <r>    5.1974    0.0000 </r>
       <r>    5.6876    0.0000 </r>
      </set>
      <set comment="kpoint 230">
       <r>  -17.7437    1.0000 </r>
       <r>  -16.9589    1.0000 </r>
       <r>  -15.6260    1.0000 </r>
       <r>  -14.8608    1.0000 </r>
       <r>   -9.8999    1.0000 </r>
       <r>   -9.4883    1.0000 </r>
       <r>   -5.4861    1.0000 </r>
       <r>   -4.9337    1.0000 </r>
       <r>   -1.0918    0.0000 </r>
       <r>   -0.4852    0.0000 </r>
       <r>    4.8566    0.0000 </r>
       <r>    5.2688    0.0000 </r>
      </set>
      <set comment="kpoint 231">
       <r>  -17.5967    1.0000 </r>
       <r>  -16.9015    1.0000 </r>
       <r>  -15.7986    1.0000 </r>
       <r>  -15.1176    1.0000 </r>
       <r>   -9.6578    1.0000 </r>
       <r>   -9.3370    1.0000 </r>
       <r>   -5.3952    1.0000 </r>
       <r>   -4.9621    1.0000 </r>
       <r>   -1.1233    0.0000 </r>
       <r>   -0.6499    0.0000 </r>
       <r>    4.5935    0.0000 </r>
       <r>    4.9159    0.0000 </r>
      </set>
      <set comment="kpoint 232">
       <r>  -17.4387    1.0000 </r>
       <r>  -16.9030    1.0000 </r>
       <r>  -15.8809    1.0000 </r>
       <r>  -15.3544    1.0000 </r>
       <r>   -9.4602    1.0000 </r>
       <r>   -9.2400    1.0000 </r>
       <r>   -5.3037    1.0000 </r>
       <r>   -5.0052    1.0000 </r>
       <r>   -1.1235    0.0000 </r>
       <r>   -0.7982    0.0000 </r>
       <r>    4.4166    0.0000 </r>
       <r>    4.6383    0.0000 </r>
      </set>
      <set comment="kpoint 233">
       <r>  -17.2749    1.0000 </r>
       <r>  -16.9812    1.0000 </r>
       <r>  -15.8540    1.0000 </r>
       <r>  -15.5649    1.0000 </r>
       <r>   -9.3148    1.0000 </r>
       <r>   -9.2027    1.0000 </r>
       <r>   -5.2155    1.0000 </r>
       <r>   -5.0631    1.0000 </r>
       <r>   -1.0899    0.0000 </r>
       <r>   -0.9242    0.0000 </r>
       <r>    4.3315    0.0000 </r>
       <r>    4.4446    0.0000 </r>
      </set>
      <set comment="kpoint 234">
       <r>  -17.1157    1.0000 </r>
       <r>  -17.1157    1.0000 </r>
       <r>  -15.7382    1.0000 </r>
       <r>  -15.7382    1.0000 </r>
       <r>   -9.2278    1.0000 </r>
       <r>   -9.2278    1.0000 </r>
       <r>   -5.1341    1.0000 </r>
       <r>   -5.1341    1.0000 </r>
       <r>   -1.0227    0.0000 </r>
       <r>   -1.0227    0.0000 </r>
       <r>    4.3411    0.0000 </r>
       <r>    4.3411    0.0000 </r>
      </set>
      <set comment="kpoint 235">
       <r>  -17.8818    1.0000 </r>
       <r>  -17.8818    1.0000 </r>
       <r>  -13.3370    1.0000 </r>
       <r>  -13.3370    1.0000 </r>
       <r>  -11.6494    1.0000 </r>
       <r>  -11.6494    1.0000 </r>
       <r>   -5.4299    1.0000 </r>
       <r>   -5.4299    1.0000 </r>
       <r>   -0.0342    0.0000 </r>
       <r>   -0.0342    0.0000 </r>
       <r>    6.5141    0.0000 </r>
       <r>    6.5141    0.0000 </r>
      </set>
      <set comment="kpoint 236">
       <r>  -17.8727    1.0000 </r>
       <r>  -17.8727    1.0000 </r>
       <r>  -13.4136    1.0000 </r>
       <r>  -13.4136    1.0000 </r>
       <r>  -11.5702    1.0000 </r>
       <r>  -11.5702    1.0000 </r>
       <r>   -5.4246    1.0000 </r>
       <r>   -5.4246    1.0000 </r>
       <r>   -0.0536    0.0000 </r>
       <r>   -0.0536    0.0000 </r>
       <r>    6.5273    0.0000 </r>
       <r>    6.5273    0.0000 </r>
      </set>
      <set comment="kpoint 237">
       <r>  -17.8455    1.0000 </r>
       <r>  -17.8455    1.0000 </r>
       <r>  -13.6095    1.0000 </r>
       <r>  -13.6095    1.0000 </r>
       <r>  -11.3670    1.0000 </r>
       <r>  -11.3670    1.0000 </r>
       <r>   -5.4090    1.0000 </r>
       <r>   -5.4090    1.0000 </r>
       <r>   -0.1101    0.0000 </r>
       <r>   -0.1101    0.0000 </r>
       <r>    6.5665    0.0000 </r>
       <r>    6.5665    0.0000 </r>
      </set>
      <set comment="kpoint 238">
       <r>  -17.8005    1.0000 </r>
       <r>  -17.8005    1.0000 </r>
       <r>  -13.8688    1.0000 </r>
       <r>  -13.8688    1.0000 </r>
       <r>  -11.0971    1.0000 </r>
       <r>  -11.0971    1.0000 </r>
       <r>   -5.3836    1.0000 </r>
       <r>   -5.3836    1.0000 </r>
       <r>   -0.1989    0.0000 </r>
       <r>   -0.1989    0.0000 </r>
       <r>    6.6303    0.0000 </r>
       <r>    6.6303    0.0000 </r>
      </set>
      <set comment="kpoint 239">
       <r>  -17.7379    1.0000 </r>
       <r>  -17.7379    1.0000 </r>
       <r>  -14.1550    1.0000 </r>
       <r>  -14.1550    1.0000 </r>
       <r>  -10.7995    1.0000 </r>
       <r>  -10.7995    1.0000 </r>
       <r>   -5.3498    1.0000 </r>
       <r>   -5.3498    1.0000 </r>
       <r>   -0.3128    0.0000 </r>
       <r>   -0.3128    0.0000 </r>
       <r>    6.6995    0.0000 </r>
       <r>    6.6995    0.0000 </r>
      </set>
      <set comment="kpoint 240">
       <r>  -17.6584    1.0000 </r>
       <r>  -17.6584    1.0000 </r>
       <r>  -14.4487    1.0000 </r>
       <r>  -14.4487    1.0000 </r>
       <r>  -10.4969    1.0000 </r>
       <r>  -10.4969    1.0000 </r>
       <r>   -5.3093    1.0000 </r>
       <r>   -5.3093    1.0000 </r>
       <r>   -0.4435    0.0000 </r>
       <r>   -0.4435    0.0000 </r>
       <r>    6.3591    0.0000 </r>
       <r>    6.3591    0.0000 </r>
      </set>
      <set comment="kpoint 241">
       <r>  -17.5631    1.0000 </r>
       <r>  -17.5631    1.0000 </r>
       <r>  -14.7392    1.0000 </r>
       <r>  -14.7392    1.0000 </r>
       <r>  -10.2040    1.0000 </r>
       <r>  -10.2040    1.0000 </r>
       <r>   -5.2641    1.0000 </r>
       <r>   -5.2641    1.0000 </r>
       <r>   -0.5817    0.0000 </r>
       <r>   -0.5817    0.0000 </r>
       <r>    5.8680    0.0000 </r>
       <r>    5.8680    0.0000 </r>
      </set>
      <set comment="kpoint 242">
       <r>  -17.4535    1.0000 </r>
       <r>  -17.4535    1.0000 </r>
       <r>  -15.0194    1.0000 </r>
       <r>  -15.0194    1.0000 </r>
       <r>   -9.9327    1.0000 </r>
       <r>   -9.9327    1.0000 </r>
       <r>   -5.2171    1.0000 </r>
       <r>   -5.2171    1.0000 </r>
       <r>   -0.7182    0.0000 </r>
       <r>   -0.7182    0.0000 </r>
       <r>    5.4238    0.0000 </r>
       <r>    5.4238    0.0000 </r>
      </set>
      <set comment="kpoint 243">
       <r>  -17.3328    1.0000 </r>
       <r>  -17.3328    1.0000 </r>
       <r>  -15.2828    1.0000 </r>
       <r>  -15.2828    1.0000 </r>
       <r>   -9.6931    1.0000 </r>
       <r>   -9.6931    1.0000 </r>
       <r>   -5.1715    1.0000 </r>
       <r>   -5.1715    1.0000 </r>
       <r>   -0.8445    0.0000 </r>
       <r>   -0.8445    0.0000 </r>
       <r>    5.0414    0.0000 </r>
       <r>    5.0414    0.0000 </r>
      </set>
      <set comment="kpoint 244">
       <r>  -17.2061    1.0000 </r>
       <r>  -17.2061    1.0000 </r>
       <r>  -15.5222    1.0000 </r>
       <r>  -15.5222    1.0000 </r>
       <r>   -9.4946    1.0000 </r>
       <r>   -9.4946    1.0000 </r>
       <r>   -5.1309    1.0000 </r>
       <r>   -5.1309    1.0000 </r>
       <r>   -0.9524    0.0000 </r>
       <r>   -0.9524    0.0000 </r>
       <r>    4.7313    0.0000 </r>
       <r>    4.7313    0.0000 </r>
      </set>
      <set comment="kpoint 245">
       <r>  -17.0842    1.0000 </r>
       <r>  -17.0842    1.0000 </r>
       <r>  -15.7254    1.0000 </r>
       <r>  -15.7254    1.0000 </r>
       <r>   -9.3458    1.0000 </r>
       <r>   -9.3458    1.0000 </r>
       <r>   -5.0986    1.0000 </r>
       <r>   -5.0986    1.0000 </r>
       <r>   -1.0351    0.0000 </r>
       <r>   -1.0351    0.0000 </r>
       <r>    4.5023    0.0000 </r>
       <r>    4.5023    0.0000 </r>
      </set>
      <set comment="kpoint 246">
       <r>  -16.9878    1.0000 </r>
       <r>  -16.9878    1.0000 </r>
       <r>  -15.8709    1.0000 </r>
       <r>  -15.8709    1.0000 </r>
       <r>   -9.2535    1.0000 </r>
       <r>   -9.2535    1.0000 </r>
       <r>   -5.0778    1.0000 </r>
       <r>   -5.0778    1.0000 </r>
       <r>   -1.0871    0.0000 </r>
       <r>   -1.0871    0.0000 </r>
       <r>    4.3617    0.0000 </r>
       <r>    4.3617    0.0000 </r>
      </set>
      <set comment="kpoint 247">
       <r>  -16.9492    1.0000 </r>
       <r>  -16.9492    1.0000 </r>
       <r>  -15.9259    1.0000 </r>
       <r>  -15.9259    1.0000 </r>
       <r>   -9.2222    1.0000 </r>
       <r>   -9.2222    1.0000 </r>
       <r>   -5.0706    1.0000 </r>
       <r>   -5.0706    1.0000 </r>
       <r>   -1.1048    0.0000 </r>
       <r>   -1.1048    0.0000 </r>
       <r>    4.3143    0.0000 </r>
       <r>    4.3143    0.0000 </r>
      </set>
     </set>
    </set>
   </array>
  </eigenvalues>
  <separator name="orbital magnetization" >
   <v name="MAGDIPOLOUT">      0.00000000      0.00000000      0.00000000</v>
  </separator>
 </calculation>
 <structure name="finalpos" >
  <crystal>
   <varray name="basis" >
    <v>       4.31641910       0.00000000       0.00000000 </v>
    <v>       0.00000000       2.46280781       0.00000000 </v>
    <v>       0.00000000       0.00000000      19.83328062 </v>
   </varray>
   <i name="volume">    210.83790140 </i>
   <varray name="rec_basis" >
    <v>       0.23167352       0.00000000       0.00000000 </v>
    <v>       0.00000000       0.40604062       0.00000000 </v>
    <v>       0.00000000       0.00000000       0.05042030 </v>
   </varray>
  </crystal>
  <varray name="positions" >
   <v>       0.99975400       0.00000000       0.00000000 </v>
   <v>       0.16691266       0.50000000      -0.00000000 </v>
   <v>       0.49975400       0.50000000       0.00000000 </v>
   <v>       0.66691266       0.00000000      -0.00000000 </v>
  </varray>
 </structure>
</modeling>
