gr                                      
           1
     4.316419    0.000000    0.000000
     0.000000    2.462808    0.000000
     0.000000    0.000000   19.833281
   C 
   4
Direct configuration=     1
   0.99975412  0.00000000  0.00000000
   0.16691255  0.50000000  0.00000000
   0.49975412  0.50000000  0.00000000
   0.66691255  0.00000000  0.00000000
Direct configuration=     2
   0.99975357 -0.00000000  0.00000000
   0.16691310  0.50000000 -0.00000000
   0.49975357  0.50000000  0.00000000
   0.66691310 -0.00000000 -0.00000000
Direct configuration=     3
   0.99975401 -0.00000000  0.00000000
   0.16691266  0.50000000 -0.00000000
   0.49975401  0.50000000  0.00000000
   0.66691266 -0.00000000 -0.00000000
Direct configuration=     4
   0.99975400  0.00000000  0.00000000
   0.16691267  0.50000000 -0.00000000
   0.49975400  0.50000000  0.00000000
   0.66691267  0.00000000 -0.00000000
Direct configuration=     5
   0.99975400  0.00000000  0.00000000
   0.16691266  0.50000000 -0.00000000
   0.49975400  0.50000000  0.00000000
   0.66691266  0.00000000 -0.00000000
