    4    4  400    1
  0.5270948E+02  0.4359370E-09  0.2458923E-09  0.1966890E-08  0.5000000E-15
  1.000000000000000E-004
  CAR 
 gr                                      
     16    247     12
 
  0.0000000E+00  0.0000000E+00  0.0000000E+00  0.1157407E-02
    1      -22.114242
    2      -17.213917
    3      -15.861588
    4      -10.251294
    5       -8.870690
    6       -5.966489
    7       -5.737177
    8       -5.293049
    9       -1.166406
   10        0.540636
   11        1.339304
   12        1.730611
 
  0.4166667E-01  0.0000000E+00  0.0000000E+00  0.2314815E-02
    1      -22.104392
    2      -17.339542
    3      -15.720927
    4      -10.239589
    5       -8.861103
    6       -6.010488
    7       -5.757715
    8       -5.353214
    9       -1.090460
   10        0.553967
   11        1.352826
   12        1.744301
 
  0.8333333E-01  0.0000000E+00  0.0000000E+00  0.2314815E-02
    1      -22.074844
    2      -17.624510
    3      -15.390931
    4      -10.204494
    5       -8.832394
    6       -6.140442
    7       -5.818248
    8       -5.521304
    9       -0.875185
   10        0.593968
   11        1.393387
   12        1.785374
 
  0.1250000E+00  0.0000000E+00  0.0000000E+00  0.2314815E-02
    1      -22.025619
    2      -17.963838
    3      -14.976815
    4      -10.146065
    5       -8.784715
    6       -6.350609
    7       -5.915705
    8       -5.768977
    9       -0.549405
   10        0.660656
   11        1.460972
   12        1.853832
 
  0.1666667E+00  0.0000000E+00  0.0000000E+00  0.2314815E-02
    1      -21.956751
    2      -18.315462
    3      -14.521043
    4      -10.064401
    5       -8.718326
    6       -6.632565
    7       -6.066953
    8       -6.045478
    9       -0.143215
   10        0.754050
   11        1.555556
   12        1.949679
 
  0.2083333E+00  0.0000000E+00  0.0000000E+00  0.2314815E-02
    1      -21.868292
    2      -18.663841
    3      -14.039733
    4       -9.959645
    5       -8.633603
    6       -6.976438
    7       -6.392502
    8       -6.202021
    9        0.319480
   10        0.874162
   11        1.677098
   12        2.072918
 
  0.2500000E+00  0.0000000E+00  0.0000000E+00  0.2314815E-02
    1      -21.760305
    2      -19.002311
    3      -13.540311
    4       -9.831986
    5       -8.531046
    6       -7.372020
    7       -6.729947
    8       -6.379418
    9        0.821416
   10        1.020991
   11        1.825535
   12        2.223549
 
  0.2916667E+00  0.0000000E+00  0.0000000E+00  0.2314815E-02
    1      -21.632874
    2      -19.327549
    3      -13.027076
    4       -9.681672
    5       -8.411301
    6       -7.809556
    7       -7.068853
    8       -6.571851
    9        1.194520
   10        1.350072
   11        2.000766
   12        2.401571
 
  0.3333333E+00  0.0000000E+00  0.0000000E+00  0.2314815E-02
    1      -21.486101
    2      -19.637675
    3      -12.503126
    4       -9.509017
    5       -8.280196
    6       -8.275174
    7       -7.402255
    8       -6.773901
    9        1.394717
   10        1.895648
   11        2.202623
   12        2.606981
 
  0.3750000E+00  0.0000000E+00  0.0000000E+00  0.2314815E-02
    1      -21.320107
    2      -19.931517
    3      -11.971134
    4       -9.314417
    5       -8.776170
    6       -8.123659
    7       -7.725408
    8       -6.980710
    9        1.621535
   10        2.430793
   11        2.448932
   12        2.839769
 
  0.4166667E+00  0.0000000E+00  0.0000000E+00  0.2314815E-02
    1      -21.135039
    2      -20.208281
    3      -11.433712
    4       -9.290786
    5       -9.098366
    6       -8.034996
    7       -7.957973
    8       -7.188042
    9        1.874906
   10        2.684583
   11        2.995347
   12        3.099948
 
  0.4583333E+00  0.0000000E+00  0.0000000E+00  0.2314815E-02
    1      -20.931077
    2      -20.467397
    3      -10.893637
    4       -9.818343
    5       -8.861488
    6       -8.328637
    7       -7.779594
    8       -7.392265
    9        2.154744
   10        2.793294
   11        2.962020
   12        3.394666
 
  0.5000000E+00  0.0000000E+00  0.0000000E+00  0.1157407E-02
    1      -20.708441
    2      -20.708441
    3      -10.354001
    4      -10.354001
    5       -8.604574
    6       -8.604574
    7       -7.590308
    8       -7.590308
    9        2.460929
   10        2.460929
   11        3.253843
   12        3.253845
 
  0.0000000E+00  0.2777778E-01  0.0000000E+00  0.2314815E-02
    1      -22.100443
    2      -17.201963
    3      -15.849834
    4      -10.234896
    5       -8.933690
    6       -5.993342
    7       -5.795827
    8       -5.276370
    9       -1.169117
   10        0.559337
   11        1.358204
   12        1.749747
 
  0.4166667E-01  0.2777778E-01  0.0000000E+00  0.4629630E-02
    1      -22.090593
    2      -17.327462
    3      -15.709346
    4      -10.223195
    5       -8.924091
    6       -6.038478
    7       -5.814610
    8       -5.336655
    9       -1.093155
   10        0.572668
   11        1.371725
   12        1.763437
 
  0.8333333E-01  0.2777778E-01  0.0000000E+00  0.4629630E-02
    1      -22.061049
    2      -17.612201
    3      -15.379717
    4      -10.188111
    5       -8.895344
    6       -6.169877
    7       -5.871957
    8       -5.505025
    9       -0.877916
   10        0.612669
   11        1.412283
   12        1.804510
 
  0.1250000E+00  0.2777778E-01  0.0000000E+00  0.4629630E-02
    1      -22.011832
    2      -17.951313
    3      -14.966052
    4      -10.129702
    5       -8.847599
    6       -6.379642
    7       -5.967241
    8       -5.752997
    9       -0.552362
   10        0.679358
   11        1.479865
   12        1.872968
 
  0.1666667E+00  0.2777778E-01  0.0000000E+00  0.4629630E-02
    1      -21.942975
    2      -18.302750
    3      -14.510807
    4      -10.048066
    5       -8.781112
    6       -6.659239
    7       -6.096329
    8       -6.051204
    9       -0.146679
   10        0.772754
   11        1.574444
   12        1.968816
 
  0.2083333E+00  0.2777778E-01  0.0000000E+00  0.4629630E-02
    1      -21.854531
    2      -18.650968
    3      -14.030111
    4       -9.943345
    5       -8.696251
    6       -6.999510
    7       -6.376896
    8       -6.253287
    9        0.315207
   10        0.892871
   11        1.695981
   12        2.092056
 
  0.2500000E+00  0.2777778E-01  0.0000000E+00  0.4629630E-02
    1      -21.746563
    2      -18.989299
    3      -13.531408
    4       -9.815729
    5       -8.593510
    6       -7.390954
    7       -6.714406
    8       -6.431736
    9        0.816049
   10        1.039705
   11        1.844412
   12        2.242689
 
  0.2916667E+00  0.2777778E-01  0.0000000E+00  0.4629630E-02
    1      -21.619155
    2      -19.314418
    3      -13.019021
    4       -9.665465
    5       -8.473522
    6       -7.824310
    7       -7.053319
    8       -6.625515
    9        1.213242
   10        1.343366
   11        2.019639
   12        2.420714
 
  0.3333333E+00  0.2777778E-01  0.0000000E+00  0.4629630E-02
    1      -21.472408
    2      -19.624440
    3      -12.496071
    4       -9.492869
    5       -8.337082
    6       -8.291013
    7       -7.386689
    8       -6.828979
    9        1.413447
   10        1.887425
   11        2.221494
   12        2.626127
 
  0.3750000E+00  0.2777778E-01  0.0000000E+00  0.4629630E-02
    1      -21.306446
    2      -19.918192
    3      -11.965261
    4       -9.298333
    5       -8.783434
    6       -8.185169
    7       -7.709785
    8       -7.037143
    9        1.640275
   10        2.439205
   11        2.449669
   12        2.858919
 
  0.4166667E+00  0.2777778E-01  0.0000000E+00  0.4629630E-02
    1      -21.121416
    2      -20.194878
    3      -11.429239
    4       -9.294928
    5       -9.082354
    6       -8.019301
    7       -8.018984
    8       -7.245701
    9        1.893657
   10        2.703475
   11        2.985004
   12        3.119080
 
  0.4583333E+00  0.2777778E-01  0.0000000E+00  0.4629630E-02
    1      -20.917498
    2      -20.453926
    3      -10.890820
    4       -9.819789
    5       -8.845552
    6       -8.312862
    7       -7.839987
    8       -7.450994
    9        2.173509
   10        2.812110
   11        2.980930
   12        3.410454
 
  0.5000000E+00  0.2777778E-01  0.0000000E+00  0.2314815E-02
    1      -20.694912
    2      -20.694912
    3      -10.353142
    4      -10.353142
    5       -8.588718
    6       -8.588718
    7       -7.649945
    8       -7.649945
    9        2.479714
   10        2.479714
   11        3.272464
   12        3.272468
 
  0.0000000E+00  0.5555556E-01  0.0000000E+00  0.2314815E-02
    1      -22.059054
    2      -17.166107
    3      -15.814717
    4      -10.185738
    5       -9.117597
    6       -6.073451
    7       -5.966983
    8       -5.226355
    9       -1.178059
   10        0.615439
   11        1.414895
   12        1.807154
 
  0.4166667E-01  0.5555556E-01  0.0000000E+00  0.4629630E-02
    1      -22.049208
    2      -17.291232
    3      -15.674742
    4      -10.174049
    5       -9.107957
    6       -6.126425
    7       -5.976113
    8       -5.287009
    9       -1.102049
   10        0.628770
   11        1.428413
   12        1.820845
 
  0.8333333E-01  0.5555556E-01  0.0000000E+00  0.4629630E-02
    1      -22.019678
    2      -17.575291
    3      -15.346218
    4      -10.139001
    5       -9.079082
    6       -6.265278
    7       -6.020873
    8       -5.456242
    9       -0.886907
   10        0.668772
   11        1.468965
   12        1.861919
 
  0.1250000E+00  0.5555556E-01  0.0000000E+00  0.4629630E-02
    1      -21.970484
    2      -17.913758
    3      -14.933920
    4      -10.080651
    5       -9.031117
    6       -6.474050
    7       -6.109528
    8       -5.705132
    9       -0.562042
   10        0.735461
   11        1.536536
   12        1.930377
 
  0.1666667E+00  0.5555556E-01  0.0000000E+00  0.4629630E-02
    1      -21.901662
    2      -18.264633
    3      -14.480278
    4       -9.999099
    5       -8.964301
    6       -6.745932
    7       -6.237271
    8       -6.004046
    9       -0.157909
   10        0.828862
   11        1.631100
   12        2.026227
 
  0.2083333E+00  0.5555556E-01  0.0000000E+00  0.4629630E-02
    1      -21.813261
    2      -18.612367
    3      -14.001462
    4       -9.894484
    5       -8.878983
    6       -7.074533
    7       -6.396381
    8       -6.330169
    9        0.301503
   10        0.948986
   11        1.752620
   12        2.149469
 
  0.2500000E+00  0.5555556E-01  0.0000000E+00  0.4629630E-02
    1      -21.705348
    2      -18.950281
    3      -13.504970
    4       -9.766999
    5       -8.775628
    6       -7.452639
    7       -6.667873
    8       -6.578927
    9        0.799002
   10        1.095832
   11        1.901033
   12        2.300107
 
  0.2916667E+00  0.5555556E-01  0.0000000E+00  0.4629630E-02
    1      -21.578009
    2      -19.275039
    3      -12.995191
    4       -9.616890
    5       -8.654836
    6       -7.872556
    7       -7.006804
    8       -6.777622
    9        1.269385
   10        1.322214
   11        2.076245
   12        2.478138
 
  0.3333333E+00  0.5555556E-01  0.0000000E+00  0.4629630E-02
    1      -21.431343
    2      -19.584749
    3      -12.475330
    4       -9.444470
    5       -8.517360
    6       -8.326645
    7       -7.340072
    8       -6.986107
    9        1.469611
   10        1.861604
   11        2.278094
   12        2.683559
 
  0.3750000E+00  0.5555556E-01  0.0000000E+00  0.4629630E-02
    1      -21.265477
    2      -19.878231
    3      -11.948183
    4       -9.250132
    5       -8.807726
    6       -8.364130
    7       -7.662992
    8       -7.198983
    9        1.696461
   10        2.408637
   11        2.506283
   12        2.916363
 
  0.4166667E+00  0.5555556E-01  0.0000000E+00  0.4629630E-02
    1      -21.080559
    2      -20.154683
    3      -11.416513
    4       -9.309299
    5       -9.034370
    6       -8.196290
    7       -7.972286
    8       -7.411745
    9        1.949869
   10        2.760139
   11        2.951838
   12        3.176539
 
  0.4583333E+00  0.5555556E-01  0.0000000E+00  0.4629630E-02
    1      -20.876772
    2      -20.413529
    3      -10.883266
    4       -9.825629
    5       -8.797802
    6       -8.265605
    7       -8.015235
    8       -7.620663
    9        2.229752
   10        2.868459
   11        3.037655
   12        3.449330
 
  0.5000000E+00  0.5555556E-01  0.0000000E+00  0.2314815E-02
    1      -20.654338
    2      -20.654338
    3      -10.351723
    4      -10.351723
    5       -8.541212
    6       -8.541212
    7       -7.822668
    8       -7.822668
    9        2.535998
   10        2.535998
   11        3.328152
   12        3.328170
 
  0.0000000E+00  0.8333333E-01  0.0000000E+00  0.2314815E-02
    1      -21.990109
    2      -17.106361
    3      -15.756687
    4      -10.103924
    5       -9.408560
    6       -6.237746
    7       -6.205469
    8       -5.143068
    9       -1.195665
   10        0.708944
   11        1.509354
   12        1.902835
 
  0.4166667E-01  0.8333333E-01  0.0000000E+00  0.4629630E-02
    1      -21.980271
    2      -17.230883
    3      -15.617560
    4      -10.092255
    5       -9.398836
    6       -6.311964
    7       -6.190438
    8       -5.204373
    9       -1.119555
   10        0.722274
   11        1.522869
   12        1.916526
 
  0.8333333E-01  0.8333333E-01  0.0000000E+00  0.4629630E-02
    1      -21.950764
    2      -17.513830
    3      -15.290890
    4      -10.057269
    5       -9.369705
    6       -6.457346
    7       -6.220400
    8       -5.375122
    9       -0.904556
   10        0.762270
   11        1.563408
   12        1.957598
 
  0.1250000E+00  0.8333333E-01  0.0000000E+00  0.4629630E-02
    1      -21.901610
    2      -17.851230
    3      -14.880924
    4       -9.999022
    5       -9.321293
    6       -6.659590
    7       -6.303228
    8       -5.625612
    9       -0.580863
   10        0.828955
   11        1.630958
   12        2.026057
 
  0.1666667E+00  0.8333333E-01  0.0000000E+00  0.4629630E-02
    1      -21.832844
    2      -18.201169
    3      -14.430048
    4       -9.917612
    5       -9.253814
    6       -6.915486
    7       -6.432146
    8       -5.925743
    9       -0.179401
   10        0.922352
   11        1.725496
   12        2.121907
 
  0.2083333E+00  0.8333333E-01  0.0000000E+00  0.4629630E-02
    1      -21.744517
    2      -18.548093
    3      -13.954499
    4       -9.813182
    5       -9.167576
    6       -7.221770
    7       -6.597882
    8       -6.252601
    9        0.275739
   10        1.042477
   11        1.846982
   12        2.245152
 
  0.2500000E+00  0.8333333E-01  0.0000000E+00  0.4629630E-02
    1      -21.636698
    2      -18.885309
    3      -13.461875
    4       -9.685921
    5       -9.062992
    6       -7.574479
    7       -6.790473
    8       -6.590627
    9        0.767457
   10        1.189331
   11        1.995361
   12        2.395796
 
  0.2916667E+00  0.8333333E-01  0.0000000E+00  0.4629630E-02
    1      -21.509472
    2      -19.209463
    3      -12.956694
    4       -9.536077
    5       -8.940590
    6       -7.968684
    7       -7.000643
    8       -6.929577
    9        1.283561
   10        1.362896
   11        2.170542
   12        2.573833
 
  0.3333333E+00  0.8333333E-01  0.0000000E+00  0.4629630E-02
    1      -21.362942
    2      -19.518650
    3      -12.442314
    4       -9.363960
    5       -8.801036
    6       -8.398610
    7       -7.262660
    8       -7.220546
    9        1.563138
   10        1.814802
   11        2.372377
   12        2.779264
 
  0.3750000E+00  0.8333333E-01  0.0000000E+00  0.4629630E-02
    1      -21.197236
    2      -19.811679
    3      -11.921719
    4       -9.169963
    5       -8.858053
    6       -8.645155
    7       -7.585266
    8       -7.443910
    9        1.790008
   10        2.353288
   11        2.600587
   12        3.012082
 
  0.4166667E+00  0.8333333E-01  0.0000000E+00  0.4629630E-02
    1      -21.012506
    2      -20.087739
    3      -11.397897
    4       -9.340840
    5       -8.954575
    6       -8.473961
    7       -7.894173
    8       -7.665833
    9        2.043437
   10        2.854535
   11        2.890073
   12        3.272347
 
  0.4583333E+00  0.8333333E-01  0.0000000E+00  0.4629630E-02
    1      -20.808938
    2      -20.346244
    3      -10.874057
    4       -9.841169
    5       -8.718410
    6       -8.288702
    7       -8.187068
    8       -7.882499
    9        2.323342
   10        2.962123
   11        3.132178
   12        3.395705
 
  0.5000000E+00  0.8333333E-01  0.0000000E+00  0.2314815E-02
    1      -20.586758
    2      -20.586758
    3      -10.353790
    4      -10.353790
    5       -8.462244
    6       -8.462244
    7       -8.090914
    8       -8.090914
    9        2.629617
   10        2.629617
   11        3.420062
   12        3.420091
 
  0.0000000E+00  0.1111111E+00  0.0000000E+00  0.2314815E-02
    1      -21.893670
    2      -17.022744
    3      -15.676595
    4       -9.989634
    5       -9.787363
    6       -6.590588
    7       -6.387134
    8       -5.026617
    9       -1.225985
   10        0.839850
   11        1.641544
   12        2.036791
 
  0.4166667E-01  0.1111111E+00  0.0000000E+00  0.4629630E-02
    1      -21.883843
    2      -17.146467
    3      -15.538638
    4       -9.977995
    5       -9.777489
    6       -6.641256
    7       -6.391807
    8       -5.088918
    9       -1.149690
   10        0.853175
   11        1.655051
   12        2.050480
 
  0.8333333E-01  0.1111111E+00  0.0000000E+00  0.4629630E-02
    1      -21.854369
    2      -17.427907
    3      -15.214600
    4       -9.943098
    5       -9.747898
    6       -6.772467
    7       -6.424967
    8       -5.261968
    9       -0.934824
   10        0.893159
   11        1.695570
   12        2.091551
 
  0.1250000E+00  0.1111111E+00  0.0000000E+00  0.4629630E-02
    1      -21.805270
    2      -17.763830
    3      -14.808035
    4       -9.885001
    5       -9.698689
    6       -6.960836
    7       -6.505110
    8       -5.514852
    9       -0.612799
   10        0.959825
   11        1.763086
   12        2.160007
 
  0.1666667E+00  0.1111111E+00  0.0000000E+00  0.4629630E-02
    1      -21.736583
    2      -18.112459
    3      -14.361262
    4       -9.803801
    5       -9.630024
    6       -7.195793
    7       -6.634878
    8       -5.816777
    9       -0.215243
   10        1.053201
   11        1.857578
   12        2.255854
 
  0.2083333E+00  0.1111111E+00  0.0000000E+00  0.4629630E-02
    1      -21.648361
    2      -18.458244
    3      -13.890624
    4       -9.699640
    5       -9.542137
    6       -7.472460
    7       -6.808680
    8       -6.144696
    9        0.233626
   10        1.173307
   11        1.979009
   12        2.379099
 
  0.2500000E+00  0.1111111E+00  0.0000000E+00  0.4629630E-02
    1      -21.540673
    2      -18.794474
    3      -13.403885
    4       -9.572708
    5       -9.435339
    6       -7.788510
    7       -7.016604
    8       -6.483166
    9        0.716856
   10        1.320147
   11        2.127326
   12        2.529743
 
  0.2916667E+00  0.1111111E+00  0.0000000E+00  0.4629630E-02
    1      -21.413606
    2      -19.117774
    3      -12.905782
    4       -9.423251
    5       -9.310024
    6       -8.142497
    7       -7.247028
    8       -6.822115
    9        1.222508
   10        1.493706
   11        2.302450
   12        2.707787
 
  0.3333333E+00  0.1111111E+00  0.0000000E+00  0.4629630E-02
    1      -21.267266
    2      -19.426223
    3      -12.399947
    4       -9.251581
    5       -9.166682
    6       -8.532449
    7       -7.488917
    8       -7.154900
    9        1.693946
   10        1.741689
   11        2.504249
   12        2.913226
 
  0.3750000E+00  0.1111111E+00  0.0000000E+00  0.4629630E-02
    1      -21.101785
    2      -19.718612
    3      -11.889709
    4       -9.058085
    5       -9.005910
    6       -8.955026
    7       -7.733339
    8       -7.477023
    9        1.920814
   10        2.267150
   11        2.732482
   12        3.146056
 
  0.4166667E+00  0.1111111E+00  0.0000000E+00  0.4629630E-02
    1      -20.917320
    2      -19.994118
    3      -11.378481
    4       -9.405540
    5       -8.843248
    6       -8.828440
    7       -7.973861
    8       -7.785345
    9        2.174239
   10        2.791937
   11        2.986576
   12        3.406294
 
  0.4583333E+00  0.1111111E+00  0.0000000E+00  0.4629630E-02
    1      -20.714061
    2      -20.252144
    3      -10.869991
    4       -9.878532
    5       -8.635175
    6       -8.607678
    7       -8.206136
    8       -8.077607
    9        2.454134
   10        3.092879
   11        3.264468
   12        3.303915
 
  0.5000000E+00  0.1111111E+00  0.0000000E+00  0.2314815E-02
    1      -20.492242
    2      -20.492242
    3      -10.368431
    4      -10.368431
    5       -8.427248
    6       -8.427248
    7       -8.352140
    8       -8.352140
    9        2.760392
   10        2.760392
   11        3.543500
   12        3.543515
 
  0.0000000E+00  0.1388889E+00  0.0000000E+00  0.2314815E-02
    1      -21.769823
    2      -16.915288
    3      -15.575873
    4      -10.232915
    5       -9.843126
    6       -7.006961
    7       -6.615303
    8       -4.877158
    9       -1.274614
   10        1.008148
   11        1.811404
   12        2.209022
 
  0.4166667E-01  0.1388889E+00  0.0000000E+00  0.4629630E-02
    1      -21.760010
    2      -17.038068
    3      -15.439398
    4      -10.222783
    5       -9.831528
    6       -7.053213
    7       -6.619821
    8       -4.940909
    9       -1.197970
   10        1.021465
   11        1.824901
   12        2.222711
 
  0.8333333E-01  0.1388889E+00  0.0000000E+00  0.4629630E-02
    1      -21.730578
    2      -17.317662
    3      -15.118840
    4      -10.192404
    5       -9.796753
    6       -7.177859
    7       -6.646431
    8       -5.117263
    9       -0.983105
   10        1.061425
   11        1.865386
   12        2.263776
 
  0.1250000E+00  0.1388889E+00  0.0000000E+00  0.4629630E-02
    1      -21.681551
    2      -17.651716
    3      -14.716947
    4      -10.141820
    5       -9.738859
    6       -7.358403
    7       -6.714371
    8       -5.373518
    9       -0.663220
   10        1.128052
   11        1.932848
   12        2.332225
 
  0.1666667E+00  0.1388889E+00  0.0000000E+00  0.4629630E-02
    1      -21.612968
    2      -17.998661
    3      -14.275960
    4      -10.071100
    5       -9.657944
    6       -7.580022
    7       -6.832817
    8       -5.677910
    9       -0.270914
   10        1.221380
   11        2.027264
   12        2.428065
 
  0.2083333E+00  0.1388889E+00  0.0000000E+00  0.4629630E-02
    1      -21.524880
    2      -18.342968
    3      -13.812386
    4       -9.980335
    5       -9.554151
    6       -7.834444
    7       -7.001981
    8       -6.007241
    9        0.169466
   10        1.341435
   11        2.148600
   12        2.551303
 
  0.2500000E+00  0.1388889E+00  0.0000000E+00  0.4629630E-02
    1      -21.417360
    2      -18.677915
    3      -13.334275
    4       -9.869633
    5       -9.427669
    6       -8.117560
    7       -7.215829
    8       -6.346262
    9        0.641207
   10        1.488228
   11        2.296810
   12        2.701943
 
  0.2916667E+00  0.1388889E+00  0.0000000E+00  0.4629630E-02
    1      -21.290499
    2      -19.000103
    3      -12.846752
    4       -9.739108
    5       -9.278744
    6       -8.428246
    7       -7.463944
    8       -6.685151
    9        1.132728
   10        1.661745
   11        2.471823
   12        2.879986
 
  0.3333333E+00  0.1388889E+00  0.0000000E+00  0.4629630E-02
    1      -21.144406
    2      -19.307589
    3      -12.353963
    4       -9.588869
    5       -9.107685
    6       -8.767391
    7       -7.733332
    8       -7.017476
    9        1.635561
   10        1.861949
   11        2.673534
   12        3.085429
 
  0.3750000E+00  0.1388889E+00  0.0000000E+00  0.4629630E-02
    1      -20.979217
    2      -19.599143
    3      -11.859899
    4       -9.419011
    5       -9.136470
    6       -8.914877
    7       -8.010636
    8       -7.338896
    9        2.088780
   10        2.143041
   11        2.901757
   12        3.318265
 
  0.4166667E+00  0.1388889E+00  0.0000000E+00  0.4629630E-02
    1      -20.795095
    2      -19.873927
    3      -11.368812
    4       -9.535804
    5       -9.229621
    6       -8.700800
    7       -8.284434
    8       -7.646383
    9        2.342162
   10        2.649452
   11        3.156061
   12        3.578759
 
  0.4583333E+00  0.1388889E+00  0.0000000E+00  0.4629630E-02
    1      -20.592238
    2      -20.131328
    3      -10.885447
    4       -9.963408
    5       -9.020817
    6       -8.546715
    7       -8.466053
    8       -7.937752
    9        2.621999
   10        3.148893
   11        3.260559
   12        3.434482
 
  0.5000000E+00  0.1388889E+00  0.0000000E+00  0.2314815E-02
    1      -20.370885
    2      -20.370885
    3      -10.415096
    4      -10.415096
    5       -8.792896
    6       -8.792896
    7       -8.211386
    8       -8.211386
    9        2.928178
   10        2.928178
   11        3.612340
   12        3.612551
 
  0.0000000E+00  0.1666667E+00  0.0000000E+00  0.2314815E-02
    1      -21.618684
    2      -16.784033
    3      -15.456916
    4      -10.724492
    5       -9.664745
    6       -7.469735
    7       -6.886011
    8       -4.694896
    9       -1.348471
   10        1.213818
   11        2.018851
   12        2.419529
 
  0.4166667E-01  0.1666667E+00  0.0000000E+00  0.4629630E-02
    1      -21.608888
    2      -16.905804
    3      -15.322230
    4      -10.713920
    5       -9.653201
    6       -7.515443
    7       -6.886016
    8       -4.760733
    9       -1.271164
   10        1.227122
   11        2.032330
   12        2.433215
 
  0.8333333E-01  0.1666667E+00  0.0000000E+00  0.4629630E-02
    1      -21.579510
    2      -17.183299
    3      -15.006160
    4      -10.682182
    5       -9.618586
    6       -7.639513
    7       -6.898585
    8       -4.941755
    9       -1.055899
   10        1.267045
   11        2.072761
   12        2.474274
 
  0.1250000E+00  0.1666667E+00  0.0000000E+00  0.4629630E-02
    1      -21.530571
    2      -17.515120
    3      -14.610628
    4      -10.629215
    5       -9.560960
    6       -7.818732
    7       -6.945241
    8       -5.202637
    9       -0.738489
   10        1.333612
   11        2.140132
   12        2.542711
 
  0.1666667E+00  0.1666667E+00  0.0000000E+00  0.4629630E-02
    1      -21.462113
    2      -17.860002
    3      -14.177808
    4      -10.554891
    5       -9.480422
    6       -8.035680
    7       -7.040037
    8       -5.510299
    9       -0.352822
   10        1.426858
   11        2.234420
   12        2.638535
 
  0.2083333E+00  0.1666667E+00  0.0000000E+00  0.4629630E-02
    1      -21.374190
    2      -18.202480
    3      -13.724510
    4      -10.459002
    5       -9.377113
    6       -8.279547
    7       -7.188296
    8       -5.841418
    9        0.076683
   10        1.546820
   11        2.355590
   12        2.761755
 
  0.2500000E+00  0.1666667E+00  0.0000000E+00  0.4629630E-02
    1      -21.266878
    2      -18.535829
    3      -13.259314
    4      -10.341213
    5       -9.251225
    6       -8.543897
    7       -7.388717
    8       -6.181056
    9        0.533728
   10        1.693516
   11        2.503596
   12        2.912379
 
  0.2916667E+00  0.1666667E+00  0.0000000E+00  0.4629630E-02
    1      -21.140270
    2      -18.856630
    3      -12.788107
    4      -10.201011
    5       -9.103002
    6       -8.825419
    7       -7.634973
    8       -6.519754
    9        1.007256
   10        1.866941
   11        2.678376
   12        3.090425
 
  0.3333333E+00  0.1666667E+00  0.0000000E+00  0.4629630E-02
    1      -20.994481
    2      -19.162914
    3      -12.316069
    4      -10.037644
    5       -9.123438
    6       -8.932754
    7       -7.916883
    8       -6.851375
    9        1.489345
   10        2.067060
   11        2.879846
   12        3.295850
 
  0.3750000E+00  0.1666667E+00  0.0000000E+00  0.4629630E-02
    1      -20.829653
    2      -19.453429
    3      -11.848527
    4       -9.850078
    5       -9.439663
    6       -8.740862
    7       -8.221487
    8       -7.171788
    9        1.973925
   10        2.293808
   11        3.107891
   12        3.528688
 
  0.4166667E+00  0.1666667E+00  0.0000000E+00  0.4629630E-02
    1      -20.645957
    2      -19.727313
    3      -11.391315
    4       -9.777606
    5       -9.637070
    6       -8.534341
    7       -8.527800
    8       -7.478110
    9        2.456058
   10        2.547098
   11        3.362325
   12        3.788934
 
  0.4583333E+00  0.1666667E+00  0.0000000E+00  0.4629630E-02
    1      -20.443598
    2      -19.983938
    3      -10.950677
    4      -10.141171
    5       -9.397523
    6       -8.841408
    7       -8.294157
    8       -7.768254
    9        2.826822
   10        2.931487
   11        3.465038
   12        3.642123
 
  0.5000000E+00  0.1666667E+00  0.0000000E+00  0.2314815E-02
    1      -20.222825
    2      -20.222825
    3      -10.532556
    4      -10.532556
    5       -9.131421
    6       -9.131421
    7       -8.040665
    8       -8.040665
    9        3.132853
   10        3.132853
   11        3.396249
   12        3.396256
 