gr                                      
           1
     4.359370    0.000000    0.000000
     0.000000    2.458923    0.000000
     0.000000    0.000000   19.668902
   C 
   4
Direct configuration=     1
   0.99954297  0.00000000  0.00000000
   0.16712369  0.50000000  0.00000000
   0.49954297  0.50000000  0.00000000
   0.66712369  0.00000000  0.00000000
Direct configuration=     2
   0.99953838  0.00000000  0.00000000
   0.16712828  0.50000000 -0.00000000
   0.49953838  0.50000000  0.00000000
   0.66712828  0.00000000 -0.00000000
Direct configuration=     3
   0.99954201  0.00000000  0.00000000
   0.16712465  0.50000000 -0.00000000
   0.49954201  0.50000000  0.00000000
   0.66712465  0.00000000 -0.00000000
