    4    4  400    1
  0.5270948E+02  0.4251646E-09  0.2542062E-09  0.1950767E-08  0.5000000E-15
  1.000000000000000E-004
  CAR 
 gr                                      
     16    247     12
 
  0.0000000E+00  0.0000000E+00  0.0000000E+00  0.1157407E-02
    1      -22.045535
    2      -16.638819
    3      -15.843818
    4      -10.198294
    5       -9.532667
    6       -6.025980
    7       -5.739018
    8       -4.861794
    9       -1.161455
   10        0.549172
   11        1.346592
   12        1.742247
 
  0.4166667E-01  0.0000000E+00  0.0000000E+00  0.2314815E-02
    1      -22.035138
    2      -16.842955
    3      -15.624735
    4      -10.185972
    5       -9.522208
    6       -6.049974
    7       -5.778650
    8       -4.932815
    9       -1.075899
   10        0.563254
   11        1.360811
   12        1.756648
 
  0.8333333E-01  0.0000000E+00  0.0000000E+00  0.2314815E-02
    1      -22.003952
    2      -17.215774
    3      -15.207166
    4      -10.149026
    5       -9.490878
    6       -6.120558
    7       -5.896151
    8       -5.128145
    9       -0.837142
   10        0.605499
   11        1.403462
   12        1.799850
 
  0.1250000E+00  0.0000000E+00  0.0000000E+00  0.2314815E-02
    1      -21.951998
    2      -17.611897
    3      -14.736781
    4      -10.087511
    5       -9.438829
    6       -6.233787
    7       -6.087541
    8       -5.409685
    9       -0.483820
   10        0.675901
   11        1.474537
   12        1.871854
 
  0.1666667E+00  0.0000000E+00  0.0000000E+00  0.2314815E-02
    1      -21.879309
    2      -18.003552
    3      -14.241834
    4      -10.001525
    5       -9.366314
    6       -6.383837
    7       -6.346773
    8       -5.741623
    9       -0.052643
   10        0.774448
   11        1.574014
   12        1.972658
 
  0.2083333E+00  0.0000000E+00  0.0000000E+00  0.2314815E-02
    1      -21.785937
    2      -18.383140
    3      -13.730631
    4       -9.891208
    5       -9.273704
    6       -6.666449
    7       -6.563826
    8       -6.098648
    9        0.429819
   10        0.901123
   11        1.701865
   12        2.102260
 
  0.2500000E+00  0.0000000E+00  0.0000000E+00  0.2314815E-02
    1      -21.671945
    2      -18.747644
    3      -13.207115
    4       -9.756748
    5       -9.161492
    6       -7.038524
    7       -6.766594
    8       -6.464553
    9        0.945728
   10        1.055902
   11        1.858049
   12        2.260656
 
  0.2916667E+00  0.0000000E+00  0.0000000E+00  0.2314815E-02
    1      -21.537414
    2      -19.095524
    3      -12.674003
    4       -9.598385
    5       -9.030315
    6       -7.454889
    7       -6.985265
    8       -6.829102
    9        1.238749
   10        1.482831
   11        2.042504
   12        2.447839
 
  0.3333333E+00  0.0000000E+00  0.0000000E+00  0.2314815E-02
    1      -21.382440
    2      -19.425841
    3      -12.133689
    4       -9.416426
    5       -8.880976
    6       -7.907786
    7       -7.213589
    8       -7.185692
    9        1.449617
   10        2.032049
   11        2.255141
   12        2.663799
 
  0.3750000E+00  0.0000000E+00  0.0000000E+00  0.2314815E-02
    1      -21.207139
    2      -19.737955
    3      -11.588588
    4       -9.211252
    5       -8.714469
    6       -8.390055
    7       -7.529908
    8       -7.446097
    9        1.688440
   10        2.495812
   11        2.585786
   12        2.908513
 
  0.4166667E+00  0.0000000E+00  0.0000000E+00  0.2314815E-02
    1      -21.011645
    2      -20.031384
    3      -11.041311
    4       -8.983335
    5       -8.895250
    6       -8.532019
    7       -7.858695
    8       -7.678112
    9        1.955123
   10        2.764235
   11        3.135353
   12        3.181933
 
  0.4583333E+00  0.0000000E+00  0.0000000E+00  0.2314815E-02
    1      -20.796118
    2      -20.305749
    3      -10.494774
    4       -9.417664
    5       -8.733268
    6       -8.335123
    7       -8.169864
    8       -7.905706
    9        2.249516
   10        2.919997
   11        3.059672
   12        3.483914
 
  0.5000000E+00  0.0000000E+00  0.0000000E+00  0.1157407E-02
    1      -20.560746
    2      -20.560746
    3       -9.952293
    4       -9.952293
    5       -8.461796
    6       -8.461796
    7       -8.125610
    8       -8.125610
    9        2.571350
   10        2.571350
   11        3.378714
   12        3.378714
 
  0.0000000E+00  0.2777778E-01  0.0000000E+00  0.2314815E-02
    1      -22.032656
    2      -16.627684
    3      -15.833709
    4      -10.183031
    5       -9.590166
    6       -6.079003
    7       -5.771526
    8       -4.846220
    9       -1.168052
   10        0.566578
   11        1.364259
   12        1.760136
 
  0.4166667E-01  0.2777778E-01  0.0000000E+00  0.4629630E-02
    1      -22.022259
    2      -16.831745
    3      -15.614764
    4      -10.170713
    5       -9.579672
    6       -6.105770
    7       -5.807639
    8       -4.917427
    9       -1.082444
   10        0.580662
   11        1.378476
   12        1.774537
 
  0.8333333E-01  0.2777778E-01  0.0000000E+00  0.4629630E-02
    1      -21.991078
    2      -17.204376
    3      -15.197580
    4      -10.133780
    5       -9.548237
    6       -6.185439
    7       -5.913958
    8       -5.113170
    9       -0.843678
   10        0.622913
   11        1.421125
   12        1.817741
 
  0.1250000E+00  0.2777778E-01  0.0000000E+00  0.4629630E-02
    1      -21.939130
    2      -17.600296
    3      -14.727731
    4      -10.072289
    5       -9.496005
    6       -6.317585
    7       -6.083335
    8       -5.395112
    9       -0.490627
   10        0.693322
   11        1.492193
   12        1.889746
 
  0.1666667E+00  0.2777778E-01  0.0000000E+00  0.4629630E-02
    1      -21.866452
    2      -17.991766
    3      -14.233459
    4       -9.986335
    5       -9.423221
    6       -6.507388
    7       -6.299161
    8       -5.727328
    9       -0.060117
   10        0.791880
   11        1.591662
   12        1.990552
 
  0.2083333E+00  0.2777778E-01  0.0000000E+00  0.4629630E-02
    1      -21.773094
    2      -18.371190
    3      -13.723081
    4       -9.876060
    5       -9.330237
    6       -6.769538
    7       -6.532883
    8       -6.084500
    9        0.421278
   10        0.918569
   11        1.719502
   12        2.120157
 
  0.2500000E+00  0.2777778E-01  0.0000000E+00  0.4629630E-02
    1      -21.659119
    2      -18.735552
    3      -13.200572
    4       -9.741650
    5       -9.217525
    6       -7.106775
    7       -6.766856
    8       -6.450451
    9        0.935755
   10        1.073362
   11        1.875673
   12        2.278556
 
  0.2916667E+00  0.2777778E-01  0.0000000E+00  0.4629630E-02
    1      -21.524610
    2      -19.083308
    3      -12.668690
    4       -9.583348
    5       -9.085694
    6       -7.502556
    7       -7.002819
    8       -6.814977
    9        1.256224
   10        1.471107
   11        2.060115
   12        2.465744
 
  0.3333333E+00  0.2777778E-01  0.0000000E+00  0.4629630E-02
    1      -21.369661
    2      -19.413519
    3      -12.129883
    4       -9.401459
    5       -8.935505
    6       -7.941856
    7       -7.241862
    8       -7.171500
    9        1.467109
   10        2.018320
   11        2.272738
   12        2.681710
 
  0.3750000E+00  0.2777778E-01  0.0000000E+00  0.4629630E-02
    1      -21.194391
    2      -19.725541
    3      -11.586635
    4       -9.196363
    5       -8.767903
    6       -8.414348
    7       -7.515625
    8       -7.481688
    9        1.705951
   10        2.513400
   11        2.569918
   12        2.926433
 
  0.4166667E+00  0.2777778E-01  0.0000000E+00  0.4629630E-02
    1      -20.998934
    2      -20.018891
    3      -11.041647
    4       -8.968535
    5       -8.912171
    6       -8.584044
    7       -7.844308
    8       -7.719002
    9        1.972659
   10        2.781825
   11        3.117693
   12        3.199872
 
  0.4583333E+00  0.2777778E-01  0.0000000E+00  0.4629630E-02
    1      -20.783449
    2      -20.293189
    3      -10.497956
    4       -9.428883
    5       -8.718564
    6       -8.385339
    7       -8.155369
    8       -7.950562
    9        2.267091
   10        2.937829
   11        3.077296
   12        3.501904
 
  0.5000000E+00  0.2777778E-01  0.0000000E+00  0.2314815E-02
    1      -20.548128
    2      -20.548128
    3       -9.959031
    4       -9.959031
    5       -8.447194
    6       -8.447194
    7       -8.173492
    8       -8.173492
    9        2.588999
   10        2.588999
   11        3.396393
   12        3.396393
 
  0.0000000E+00  0.5555556E-01  0.0000000E+00  0.2314815E-02
    1      -21.994026
    2      -16.594284
    3      -15.803602
    4      -10.137271
    5       -9.757885
    6       -6.233958
    7       -5.867958
    8       -4.799517
    9       -1.188612
   10        0.618807
   11        1.417253
   12        1.813804
 
  0.4166667E-01  0.5555556E-01  0.0000000E+00  0.4629630E-02
    1      -21.983634
    2      -16.798143
    3      -15.585060
    4      -10.124968
    5       -9.747280
    6       -6.266851
    7       -5.895783
    8       -4.871301
    9       -1.102837
   10        0.632896
   11        1.431467
   12        1.828206
 
  0.8333333E-01  0.5555556E-01  0.0000000E+00  0.4629630E-02
    1      -21.952465
    2      -17.170219
    3      -15.169036
    4      -10.088076
    5       -9.715508
    6       -6.363284
    7       -5.979225
    8       -5.068315
    9       -0.864025
   10        0.675159
   11        1.474104
   12        1.871412
 
  0.1250000E+00  0.5555556E-01  0.0000000E+00  0.4629630E-02
    1      -21.900540
    2      -17.565531
    3      -14.700837
    4      -10.026654
    5       -9.662691
    6       -6.518000
    7       -6.116962
    8       -5.351490
    9       -0.511789
   10        0.745589
   11        1.545153
   12        1.943422
 
  0.1666667E+00  0.5555556E-01  0.0000000E+00  0.4629630E-02
    1      -21.827894
    2      -17.956441
    3      -14.208646
    4       -9.940799
    5       -9.589038
    6       -6.725788
    7       -6.304050
    8       -5.684553
    9       -0.083299
   10        0.844175
   11        1.644596
   12        2.044234
 
  0.2083333E+00  0.5555556E-01  0.0000000E+00  0.4629630E-02
    1      -21.734577
    2      -18.335370
    3      -13.700834
    4       -9.830650
    5       -9.494848
    6       -6.983823
    7       -6.530645
    8       -6.042168
    9        0.394853
   10        0.970897
   11        1.772403
   12        2.173846
 
  0.2500000E+00  0.5555556E-01  0.0000000E+00  0.4629630E-02
    1      -21.620655
    2      -18.699301
    3      -13.181469
    4       -9.696396
    5       -9.380519
    6       -7.291782
    7       -6.783069
    8       -6.408251
    9        0.904979
   10        1.125727
   11        1.928533
   12        2.332255
 
  0.2916667E+00  0.5555556E-01  0.0000000E+00  0.4629630E-02
    1      -21.486210
    2      -19.046685
    3      -12.653447
    4       -9.538278
    5       -9.246557
    6       -7.649199
    7       -7.047531
    8       -6.772701
    9        1.308630
   10        1.435017
   11        2.112929
   12        2.519454
 
  0.3333333E+00  0.5555556E-01  0.0000000E+00  0.4629630E-02
    1      -21.331340
    2      -19.376575
    3      -12.119397
    4       -9.356602
    5       -9.093590
    6       -8.052523
    7       -7.313895
    8       -7.129018
    9        1.519558
   10        1.976134
   11        2.325508
   12        2.735436
 
  0.3750000E+00  0.5555556E-01  0.0000000E+00  0.4629630E-02
    1      -21.156163
    2      -19.688320
    3      -11.582040
    4       -9.151747
    5       -8.922381
    6       -8.495093
    7       -7.576229
    8       -7.472861
    9        1.758450
   10        2.521169
   11        2.566135
   12        2.980183
 
  0.4166667E+00  0.5555556E-01  0.0000000E+00  0.4629630E-02
    1      -20.960815
    2      -19.981433
    3      -11.044388
    4       -8.969101
    5       -8.924186
    6       -8.733848
    7       -7.831098
    8       -7.801225
    9        2.025220
   10        2.834563
   11        3.063029
   12        3.253665
 
  0.4583333E+00  0.5555556E-01  0.0000000E+00  0.4629630E-02
    1      -20.745459
    2      -20.255526
    3      -10.509889
    4       -9.467100
    5       -8.674509
    6       -8.529076
    7       -8.111954
    8       -8.076117
    9        2.319744
   10        2.991053
   11        3.130140
   12        3.555850
 
  0.5000000E+00  0.5555556E-01  0.0000000E+00  0.2314815E-02
    1      -20.510289
    2      -20.510289
    3       -9.982553
    4       -9.982553
    5       -8.403452
    6       -8.403452
    7       -8.309341
    8       -8.309341
    9        2.641823
   10        2.641823
   11        3.449422
   12        3.449422
 
  0.0000000E+00  0.8333333E-01  0.0000000E+00  0.2314815E-02
    1      -21.929685
    2      -16.538630
    3      -15.754209
    4      -10.061111
    5      -10.022771
    6       -6.479700
    7       -6.025172
    8       -4.721743
    9       -1.225423
   10        0.705888
   11        1.505553
   12        1.903258
 
  0.4166667E-01  0.8333333E-01  0.0000000E+00  0.4629630E-02
    1      -21.919300
    2      -16.742232
    3      -15.536281
    4      -10.048832
    5      -10.011957
    6       -6.519038
    7       -6.043165
    8       -4.794550
    9       -1.139321
   10        0.719981
   11        1.519760
   12        1.917661
 
  0.8333333E-01  0.8333333E-01  0.0000000E+00  0.4629630E-02
    1      -21.888153
    2      -17.113418
    3      -15.122238
    4      -10.012012
    5       -9.979544
    6       -6.630752
    7       -6.101708
    8       -4.993806
    9       -0.900363
   10        0.762256
   11        1.562376
   12        1.960869
 
  0.1250000E+00  0.8333333E-01  0.0000000E+00  0.4629630E-02
    1      -21.836265
    2      -17.507715
    3      -14.656927
    4       -9.950710
    5       -9.925612
    6       -6.801743
    7       -6.208769
    8       -5.279125
    9       -0.549473
   10        0.832709
   11        1.633390
   12        2.032883
 
  0.1666667E+00  0.8333333E-01  0.0000000E+00  0.4629630E-02
    1      -21.763672
    2      -17.897678
    3      -14.168431
    4       -9.865022
    5       -9.850297
    6       -7.020004
    7       -6.368112
    8       -5.613639
    9       -0.124420
   10        0.931326
   11        1.732784
   12        2.133702
 
  0.2083333E+00  0.8333333E-01  0.0000000E+00  0.4629630E-02
    1      -21.670425
    2      -18.275770
    3      -13.665218
    4       -9.755090
    5       -9.753785
    6       -7.277299
    7       -6.577172
    8       -5.971997
    9        0.348205
   10        1.058088
   11        1.860528
   12        2.263323
 
  0.2500000E+00  0.8333333E-01  0.0000000E+00  0.4629630E-02
    1      -21.556593
    2      -18.638972
    3      -13.151552
    4       -9.636317
    5       -9.621102
    6       -7.569308
    7       -6.827750
    8       -6.338287
    9        0.850920
   10        1.212965
   11        2.016581
   12        2.421744
 
  0.2916667E+00  0.8333333E-01  0.0000000E+00  0.4629630E-02
    1      -21.422256
    2      -18.985725
    3      -12.630609
    4       -9.498180
    5       -9.463300
    6       -7.895140
    7       -7.107430
    8       -6.702586
    9        1.371918
   10        1.395919
   11        2.200889
   12        2.608960
 
  0.3333333E+00  0.8333333E-01  0.0000000E+00  0.4629630E-02
    1      -21.267517
    2      -19.315073
    3      -12.105396
    4       -9.339702
    5       -9.281989
    6       -8.256066
    7       -7.401722
    8       -7.058529
    9        1.606902
   10        1.902651
   11        2.413375
   12        2.824961
 
  0.3750000E+00  0.8333333E-01  0.0000000E+00  0.4629630E-02
    1      -21.092495
    2      -19.626350
    3      -11.579139
    4       -9.161240
    5       -9.077549
    6       -8.653179
    7       -7.697046
    8       -7.401875
    9        1.845853
   10        2.436380
   11        2.653923
   12        3.069737
 
  0.4166667E+00  0.8333333E-01  0.0000000E+00  0.4629630E-02
    1      -20.897331
    2      -19.919062
    3      -11.055519
    4       -9.085105
    5       -8.963165
    6       -8.850451
    7       -7.983427
    8       -7.729681
    9        2.112692
   10        2.922330
   11        2.967126
   12        3.343267
 
  0.4583333E+00  0.8333333E-01  0.0000000E+00  0.4629630E-02
    1      -20.682193
    2      -20.192810
    3      -10.538850
    4       -9.547491
    5       -8.745847
    6       -8.601278
    7       -8.255173
    8       -8.039833
    9        2.407314
   10        3.079161
   11        3.218082
   12        3.485765
 
  0.5000000E+00  0.8333333E-01  0.0000000E+00  0.2314815E-02
    1      -20.447276
    2      -20.447276
    3      -10.034213
    4      -10.034213
    5       -8.509674
    6       -8.509674
    7       -8.330763
    8       -8.330763
    9        2.729561
   10        2.729561
   11        3.537768
   12        3.537768
 
  0.0000000E+00  0.1111111E+00  0.0000000E+00  0.2314815E-02
    1      -21.839695
    2      -16.460745
    3      -15.686881
    4      -10.366517
    5       -9.954713
    6       -6.800923
    7       -6.238316
    8       -4.612994
    9       -1.282190
   10        0.827856
   11        1.629121
   12        2.028504
 
  0.4166667E-01  0.1111111E+00  0.0000000E+00  0.4629630E-02
    1      -21.829321
    2      -16.664173
    3      -15.469688
    4      -10.355348
    5       -9.942469
    6       -6.845902
    7       -6.246331
    8       -4.687384
    9       -1.195514
   10        0.841949
   11        1.643317
   12        2.042907
 
  0.8333333E-01  0.1111111E+00  0.0000000E+00  0.4629630E-02
    1      -21.798205
    2      -17.034186
    3      -15.058534
    4      -10.321844
    5       -9.905753
    6       -6.970248
    7       -6.279850
    8       -4.890057
    9       -0.956162
   10        0.884228
   11        1.685899
   12        2.086116
 
  0.1250000E+00  0.1111111E+00  0.0000000E+00  0.4629630E-02
    1      -21.746370
    2      -17.427053
    3      -14.597621
    4      -10.266006
    5       -9.844625
    6       -7.153886
    7       -6.355488
    8       -5.178581
    9       -0.607105
   10        0.954690
   11        1.756857
   12        2.158132
 
  0.1666667E+00  0.1111111E+00  0.0000000E+00  0.4629630E-02
    1      -21.673852
    2      -17.815665
    3      -14.114864
    4      -10.187826
    5       -9.759183
    6       -7.380359
    7       -6.483747
    8       -5.515212
    9       -0.186970
   10        1.053325
   11        1.856169
   12        2.258955
 
  0.2083333E+00  0.1111111E+00  0.0000000E+00  0.4629630E-02
    1      -21.580705
    2      -18.192553
    3      -13.618917
    4      -10.087275
    5       -9.649567
    6       -7.638751
    7       -6.667111
    8       -5.874614
    9        0.277700
   10        1.180116
   11        1.983806
   12        2.388585
 
  0.2500000E+00  0.1111111E+00  0.0000000E+00  0.4629630E-02
    1      -21.466998
    2      -18.554708
    3      -13.114415
    4       -9.964273
    5       -9.515968
    6       -7.922422
    7       -6.901688
    8       -6.241154
    9        0.769768
   10        1.335032
   11        2.139727
   12        2.547017
 
  0.2916667E+00  0.1111111E+00  0.0000000E+00  0.4629630E-02
    1      -21.332815
    2      -18.900557
    3      -12.605068
    4       -9.818660
    5       -9.358629
    6       -8.228157
    7       -7.178773
    8       -6.605182
    9        1.277817
   10        1.518032
   11        2.323876
   12        2.734248
 
  0.3333333E+00  0.1111111E+00  0.0000000E+00  0.4629630E-02
    1      -21.178262
    2      -19.229127
    3      -12.094622
    4       -9.650142
    5       -9.177854
    6       -8.555771
    7       -7.486085
    8       -6.960539
    9        1.729064
   10        1.793701
   11        2.536182
   12        2.950269
 
  0.3750000E+00  0.1111111E+00  0.0000000E+00  0.4629630E-02
    1      -21.003460
    2      -19.539736
    3      -11.587285
    4       -9.458238
    5       -8.974023
    6       -8.907608
    7       -7.809057
    8       -7.303124
    9        1.968064
   10        2.311148
   11        2.776548
   12        3.195072
 
  0.4166667E+00  0.1111111E+00  0.0000000E+00  0.4629630E-02
    1      -20.808558
    2      -19.831873
    3      -11.087981
    4       -9.287231
    5       -9.242253
    6       -8.747603
    7       -8.132706
    8       -7.630088
    9        2.234956
   10        2.824975
   11        3.044831
   12        3.468641
 
  0.4583333E+00  0.1111111E+00  0.0000000E+00  0.4629630E-02
    1      -20.593728
    2      -20.105129
    3      -10.602429
    4       -9.697170
    5       -9.001372
    6       -8.499176
    7       -8.444212
    8       -7.939377
    9        2.529642
   10        3.201806
   11        3.330430
   12        3.340751
 
  0.5000000E+00  0.1111111E+00  0.0000000E+00  0.2314815E-02
    1      -20.359173
    2      -20.359173
    3      -10.136870
    4      -10.136870
    5       -8.735077
    6       -8.735077
    7       -8.229463
    8       -8.229463
    9        2.851991
   10        2.851991
   11        3.661215
   12        3.661216
 
  0.0000000E+00  0.1388889E+00  0.0000000E+00  0.2314815E-02
    1      -21.724151
    2      -16.360658
    3      -15.603914
    4      -10.768632
    5       -9.818311
    6       -7.181182
    7       -6.501303
    8       -4.473410
    9       -1.363816
   10        0.984737
   11        1.787902
   12        2.189549
 
  0.4166667E-01  0.1388889E+00  0.0000000E+00  0.4629630E-02
    1      -21.713790
    2      -16.564231
    3      -15.387433
    4      -10.756873
    5       -9.806114
    6       -7.230993
    7       -6.499512
    8       -4.550138
    9       -1.276144
   10        0.998825
   11        1.802079
   12        2.203951
 
  0.8333333E-01  0.1388889E+00  0.0000000E+00  0.4629630E-02
    1      -21.682715
    2      -16.932877
    3      -14.980276
    4      -10.721549
    5       -9.769540
    6       -7.366036
    7       -6.508009
    8       -4.757757
    9       -1.035867
   10        1.041092
   11        1.844609
   12        2.247158
 
  0.1250000E+00  0.1388889E+00  0.0000000E+00  0.4629630E-02
    1      -21.630948
    2      -17.323880
    3      -14.525804
    4      -10.662505
    5       -9.708649
    6       -7.560420
    7       -6.550893
    8       -5.050777
    9       -0.688992
   10        1.111540
   11        1.915475
   12        2.319171
 
  0.1666667E+00  0.1388889E+00  0.0000000E+00  0.4629630E-02
    1      -21.558529
    2      -17.710694
    3      -14.051689
    4      -10.579453
    5       -9.623540
    6       -7.794362
    7       -6.644385
    8       -5.390271
    9       -0.275288
   10        1.210165
   11        2.014656
   12        2.419994
 
  0.2083333E+00  0.1388889E+00  0.0000000E+00  0.4629630E-02
    1      -21.465512
    2      -18.085977
    3      -13.566955
    4      -10.471925
    5       -9.514355
    6       -8.055282
    7       -6.795263
    8       -5.751004
    9        0.178883
   10        1.336956
   11        2.142115
   12        2.549626
 
  0.2500000E+00  0.1388889E+00  0.0000000E+00  0.4629630E-02
    1      -21.351968
    2      -18.446732
    3      -13.076944
    4      -10.339195
    5       -9.381287
    6       -8.335282
    7       -7.003287
    8       -6.117779
    9        0.656944
   10        1.491885
   11        2.297805
   12        2.708065
 
  0.2916667E+00  0.1388889E+00  0.0000000E+00  0.4629630E-02
    1      -21.217986
    2      -18.791375
    3      -12.586398
    4      -10.180191
    5       -9.224578
    6       -8.629643
    7       -7.263066
    8       -6.481341
    9        1.148065
   10        1.674908
   11        2.481662
   12        2.895307
 
  0.3333333E+00  0.1388889E+00  0.0000000E+00  0.4629630E-02
    1      -21.063674
    2      -19.118909
    3      -12.100439
    4       -9.993397
    5       -9.044536
    6       -8.936228
    7       -7.565387
    8       -6.835818
    9        1.644656
   10        1.885968
   11        2.693601
   12        3.111346
 
  0.3750000E+00  0.1388889E+00  0.0000000E+00  0.4629630E-02
    1      -20.889161
    2      -19.428630
    3      -11.624933
    4       -9.776871
    5       -9.255351
    6       -8.841538
    7       -7.898213
    8       -7.177301
    9        2.124996
   10        2.140996
   11        2.933511
   12        3.356170
 
  0.4166667E+00  0.1388889E+00  0.0000000E+00  0.4629630E-02
    1      -20.694603
    2      -19.720006
    3      -11.166389
    4       -9.589733
    5       -9.528572
    6       -8.616053
    7       -8.247449
    8       -7.503068
    9        2.391910
   10        2.632491
   11        3.201229
   12        3.629768
 
  0.4583333E+00  0.1388889E+00  0.0000000E+00  0.4629630E-02
    1      -20.480178
    2      -19.992613
    3      -10.731102
    4       -9.944044
    5       -9.247392
    6       -8.597906
    7       -8.368653
    8       -7.811144
    9        2.686611
   10        3.115212
   11        3.358846
   12        3.496413
 
  0.5000000E+00  0.1388889E+00  0.0000000E+00  0.2314815E-02
    1      -20.246100
    2      -20.246100
    3      -10.323434
    4      -10.323434
    5       -8.935028
    6       -8.935028
    7       -8.100052
    8       -8.100052
    9        3.008978
   10        3.008978
   11        3.584986
   12        3.584986
 
  0.0000000E+00  0.1666667E+00  0.0000000E+00  0.2314815E-02
    1      -21.583174
    2      -16.238413
    3      -15.509162
    4      -11.208249
    5       -9.652218
    6       -7.605064
    7       -6.807322
    8       -4.303173
    9       -1.476001
   10        1.176538
   11        1.981815
   12        2.386397
 
  0.4166667E-01  0.1666667E+00  0.0000000E+00  0.4629630E-02
    1      -21.572830
    2      -16.442854
    3      -15.293144
    4      -11.195489
    5       -9.640082
    6       -7.659146
    7       -6.795947
    8       -4.383343
    9       -1.386577
   10        1.190616
   11        1.995965
   12        2.400797
 
  0.8333333E-01  0.1666667E+00  0.0000000E+00  0.4629630E-02
    1      -21.541805
    2      -16.810056
    3      -14.891535
    4      -11.157062
    5       -9.603693
    6       -7.803680
    7       -6.779527
    8       -4.598022
    9       -1.144292
   10        1.232852
   11        2.038409
   12        2.443998
 
  0.1250000E+00  0.1666667E+00  0.0000000E+00  0.4629630E-02
    1      -21.490125
    2      -17.198720
    3      -14.446625
    4      -11.092493
    5       -9.543112
    6       -8.007791
    7       -6.788630
    8       -4.897171
    9       -0.799651
   10        1.303255
   11        2.109127
   12        2.516003
 
  0.1666667E+00  0.1666667E+00  0.0000000E+00  0.4629630E-02
    1      -21.417827
    2      -17.583220
    3      -13.985796
    4      -11.000917
    5       -9.458440
    6       -8.248994
    7       -6.844434
    8       -5.240361
    9       -0.393821
   10        1.401831
   11        2.208087
   12        2.616816
 
  0.2083333E+00  0.1666667E+00  0.0000000E+00  0.4629630E-02
    1      -21.324971
    2      -17.956425
    3      -13.518834
    4      -10.880963
    5       -9.349821
    6       -8.513536
    7       -6.957551
    8       -5.602662
    9        0.047295
   10        1.528579
   11        2.335237
   12        2.746441
 
  0.2500000E+00  0.1666667E+00  0.0000000E+00  0.4629630E-02
    1      -21.211631
    2      -18.315373
    3      -13.052446
    4      -10.730610
    5       -9.217450
    6       -8.792831
    7       -7.131051
    8       -5.969545
    9        0.508021
   10        1.683478
   11        2.490503
   12        2.904878
 
  0.2916667E+00  0.1666667E+00  0.0000000E+00  0.4629630E-02
    1      -21.077899
    2      -18.658464
    3      -12.593213
    4      -10.547098
    5       -9.081402
    6       -9.061573
    7       -7.362489
    8       -6.332314
    9        0.978401
   10        1.866486
   11        2.673773
   12        3.092125
 
  0.3333333E+00  0.1666667E+00  0.0000000E+00  0.4629630E-02
    1      -20.923891
    2      -18.984668
    3      -12.148254
    4      -10.327119
    5       -9.375973
    6       -8.882498
    7       -7.645311
    8       -6.685485
    9        1.451634
   10        2.077541
   11        2.884860
   12        3.308174
 
  0.3750000E+00  0.1666667E+00  0.0000000E+00  0.4629630E-02
    1      -20.749742
    2      -19.293254
    3      -11.724698
    4      -10.067719
    5       -9.675157
    6       -8.680607
    7       -7.969995
    8       -7.025403
    9        1.922725
   10        2.316564
   11        3.123382
   12        3.553015
 
  0.4166667E+00  0.1666667E+00  0.0000000E+00  0.4629630E-02
    1      -20.555616
    2      -19.583661
    3      -11.327955
    4       -9.979472
    5       -9.768259
    6       -8.456364
    7       -8.324902
    8       -7.349507
    9        2.387734
   10        2.583463
   11        3.387959
   12        3.826635
 
  0.4583333E+00  0.1666667E+00  0.0000000E+00  0.4629630E-02
    1      -20.341702
    2      -19.855441
    3      -10.959488
    4      -10.291520
    5       -9.432816
    6       -8.696774
    7       -8.210339
    8       -7.655923
    9        2.843214
   10        2.878131
   11        3.550229
   12        3.639048
 
  0.5000000E+00  0.1666667E+00  0.0000000E+00  0.2314815E-02
    1      -20.108225
    2      -20.108225
    3      -10.616067
    4      -10.616067
    5       -9.071088
    6       -9.071088
    7       -7.943235
    8       -7.943235
    9        3.200439
   10        3.200439
   11        3.284895
   12        3.284895
 