<?xml version="1.0" encoding="ISO-8859-1"?>
<modeling>
 <generator>
  <i name="program" type="string">vasp </i>
  <i name="version" type="string">5.3.5  </i>
  <i name="subversion" type="string">31Mar14 (build Mar 02 2015 18:14:16) complex                          parallel </i>
  <i name="platform" type="string">LinuxIFC </i>
  <i name="date" type="string">2018 08 10 </i>
  <i name="time" type="string">15:00:58 </i>
 </generator>
 <incar>
  <i type="string" name="SYSTEM">  gr</i>
  <i type="string" name="PREC">accurate : accuracy</i>
  <i type="string" name="ALGO"> FAST.</i>
  <i type="int" name="NELM">   100</i>
  <i type="int" name="NELMDL">    -3</i>
  <i type="int" name="NELMIN">     5</i>
  <i type="int" name="IBRION">     1</i>
  <i name="EDIFF">      0.00000000</i>
  <i name="EDIFFG">     -0.00000100</i>
  <i type="int" name="NSW">   400</i>
  <i type="int" name="ISIF">     2</i>
  <i name="ENCUT">   2000.00000000</i>
  <i type="int" name="ISMEAR">     0</i>
  <i name="SIGMA">      0.05000000</i>
  <i type="int" name="NWRITE">     2</i>
  <i type="logical" name="LWAVE"> F  </i>
  <i type="logical" name="LCHARG"> F  </i>
  <i type="int" name="NELM">   100</i>
 </incar>
 <kpoints>
  <generation param="Gamma">
   <v type="int" name="divisions">      24       36        1 </v>
   <v name="usershift">      0.00000000       0.00000000       0.00000000 </v>
   <v name="genvec1">      0.04166667       0.00000000       0.00000000 </v>
   <v name="genvec2">      0.00000000       0.02777778       0.00000000 </v>
   <v name="genvec3">      0.00000000       0.00000000       1.00000000 </v>
   <v name="shift">      0.00000000       0.00000000       0.00000000 </v>
  </generation>
  <varray name="kpointlist" >
   <v>       0.00000000       0.00000000       0.00000000 </v>
   <v>       0.04166667       0.00000000       0.00000000 </v>
   <v>       0.08333333       0.00000000       0.00000000 </v>
   <v>       0.12500000       0.00000000       0.00000000 </v>
   <v>       0.16666667       0.00000000       0.00000000 </v>
   <v>       0.20833333       0.00000000       0.00000000 </v>
   <v>       0.25000000       0.00000000       0.00000000 </v>
   <v>       0.29166667       0.00000000       0.00000000 </v>
   <v>       0.33333333       0.00000000       0.00000000 </v>
   <v>       0.37500000       0.00000000       0.00000000 </v>
   <v>       0.41666667       0.00000000       0.00000000 </v>
   <v>       0.45833333       0.00000000       0.00000000 </v>
   <v>       0.50000000       0.00000000       0.00000000 </v>
   <v>       0.00000000       0.02777778       0.00000000 </v>
   <v>       0.04166667       0.02777778       0.00000000 </v>
   <v>       0.08333333       0.02777778       0.00000000 </v>
   <v>       0.12500000       0.02777778       0.00000000 </v>
   <v>       0.16666667       0.02777778       0.00000000 </v>
   <v>       0.20833333       0.02777778       0.00000000 </v>
   <v>       0.25000000       0.02777778       0.00000000 </v>
   <v>       0.29166667       0.02777778       0.00000000 </v>
   <v>       0.33333333       0.02777778       0.00000000 </v>
   <v>       0.37500000       0.02777778       0.00000000 </v>
   <v>       0.41666667       0.02777778       0.00000000 </v>
   <v>       0.45833333       0.02777778       0.00000000 </v>
   <v>       0.50000000       0.02777778       0.00000000 </v>
   <v>       0.00000000       0.05555556       0.00000000 </v>
   <v>       0.04166667       0.05555556       0.00000000 </v>
   <v>       0.08333333       0.05555556       0.00000000 </v>
   <v>       0.12500000       0.05555556       0.00000000 </v>
   <v>       0.16666667       0.05555556       0.00000000 </v>
   <v>       0.20833333       0.05555556       0.00000000 </v>
   <v>       0.25000000       0.05555556       0.00000000 </v>
   <v>       0.29166667       0.05555556       0.00000000 </v>
   <v>       0.33333333       0.05555556       0.00000000 </v>
   <v>       0.37500000       0.05555556       0.00000000 </v>
   <v>       0.41666667       0.05555556       0.00000000 </v>
   <v>       0.45833333       0.05555556       0.00000000 </v>
   <v>       0.50000000       0.05555556       0.00000000 </v>
   <v>       0.00000000       0.08333333       0.00000000 </v>
   <v>       0.04166667       0.08333333       0.00000000 </v>
   <v>       0.08333333       0.08333333       0.00000000 </v>
   <v>       0.12500000       0.08333333       0.00000000 </v>
   <v>       0.16666667       0.08333333       0.00000000 </v>
   <v>       0.20833333       0.08333333       0.00000000 </v>
   <v>       0.25000000       0.08333333       0.00000000 </v>
   <v>       0.29166667       0.08333333       0.00000000 </v>
   <v>       0.33333333       0.08333333       0.00000000 </v>
   <v>       0.37500000       0.08333333       0.00000000 </v>
   <v>       0.41666667       0.08333333       0.00000000 </v>
   <v>       0.45833333       0.08333333       0.00000000 </v>
   <v>       0.50000000       0.08333333       0.00000000 </v>
   <v>       0.00000000       0.11111111       0.00000000 </v>
   <v>       0.04166667       0.11111111       0.00000000 </v>
   <v>       0.08333333       0.11111111       0.00000000 </v>
   <v>       0.12500000       0.11111111       0.00000000 </v>
   <v>       0.16666667       0.11111111       0.00000000 </v>
   <v>       0.20833333       0.11111111       0.00000000 </v>
   <v>       0.25000000       0.11111111       0.00000000 </v>
   <v>       0.29166667       0.11111111       0.00000000 </v>
   <v>       0.33333333       0.11111111       0.00000000 </v>
   <v>       0.37500000       0.11111111       0.00000000 </v>
   <v>       0.41666667       0.11111111       0.00000000 </v>
   <v>       0.45833333       0.11111111       0.00000000 </v>
   <v>       0.50000000       0.11111111       0.00000000 </v>
   <v>       0.00000000       0.13888889       0.00000000 </v>
   <v>       0.04166667       0.13888889       0.00000000 </v>
   <v>       0.08333333       0.13888889       0.00000000 </v>
   <v>       0.12500000       0.13888889       0.00000000 </v>
   <v>       0.16666667       0.13888889       0.00000000 </v>
   <v>       0.20833333       0.13888889       0.00000000 </v>
   <v>       0.25000000       0.13888889       0.00000000 </v>
   <v>       0.29166667       0.13888889       0.00000000 </v>
   <v>       0.33333333       0.13888889       0.00000000 </v>
   <v>       0.37500000       0.13888889       0.00000000 </v>
   <v>       0.41666667       0.13888889       0.00000000 </v>
   <v>       0.45833333       0.13888889       0.00000000 </v>
   <v>       0.50000000       0.13888889       0.00000000 </v>
   <v>       0.00000000       0.16666667       0.00000000 </v>
   <v>       0.04166667       0.16666667       0.00000000 </v>
   <v>       0.08333333       0.16666667       0.00000000 </v>
   <v>       0.12500000       0.16666667       0.00000000 </v>
   <v>       0.16666667       0.16666667       0.00000000 </v>
   <v>       0.20833333       0.16666667       0.00000000 </v>
   <v>       0.25000000       0.16666667       0.00000000 </v>
   <v>       0.29166667       0.16666667       0.00000000 </v>
   <v>       0.33333333       0.16666667       0.00000000 </v>
   <v>       0.37500000       0.16666667       0.00000000 </v>
   <v>       0.41666667       0.16666667       0.00000000 </v>
   <v>       0.45833333       0.16666667       0.00000000 </v>
   <v>       0.50000000       0.16666667       0.00000000 </v>
   <v>       0.00000000       0.19444444       0.00000000 </v>
   <v>       0.04166667       0.19444444       0.00000000 </v>
   <v>       0.08333333       0.19444444       0.00000000 </v>
   <v>       0.12500000       0.19444444       0.00000000 </v>
   <v>       0.16666667       0.19444444       0.00000000 </v>
   <v>       0.20833333       0.19444444       0.00000000 </v>
   <v>       0.25000000       0.19444444       0.00000000 </v>
   <v>       0.29166667       0.19444444       0.00000000 </v>
   <v>       0.33333333       0.19444444       0.00000000 </v>
   <v>       0.37500000       0.19444444       0.00000000 </v>
   <v>       0.41666667       0.19444444       0.00000000 </v>
   <v>       0.45833333       0.19444444       0.00000000 </v>
   <v>       0.50000000       0.19444444       0.00000000 </v>
   <v>       0.00000000       0.22222222       0.00000000 </v>
   <v>       0.04166667       0.22222222       0.00000000 </v>
   <v>       0.08333333       0.22222222       0.00000000 </v>
   <v>       0.12500000       0.22222222       0.00000000 </v>
   <v>       0.16666667       0.22222222       0.00000000 </v>
   <v>       0.20833333       0.22222222       0.00000000 </v>
   <v>       0.25000000       0.22222222       0.00000000 </v>
   <v>       0.29166667       0.22222222       0.00000000 </v>
   <v>       0.33333333       0.22222222       0.00000000 </v>
   <v>       0.37500000       0.22222222       0.00000000 </v>
   <v>       0.41666667       0.22222222       0.00000000 </v>
   <v>       0.45833333       0.22222222       0.00000000 </v>
   <v>       0.50000000       0.22222222       0.00000000 </v>
   <v>       0.00000000       0.25000000       0.00000000 </v>
   <v>       0.04166667       0.25000000       0.00000000 </v>
   <v>       0.08333333       0.25000000       0.00000000 </v>
   <v>       0.12500000       0.25000000       0.00000000 </v>
   <v>       0.16666667       0.25000000       0.00000000 </v>
   <v>       0.20833333       0.25000000       0.00000000 </v>
   <v>       0.25000000       0.25000000       0.00000000 </v>
   <v>       0.29166667       0.25000000       0.00000000 </v>
   <v>       0.33333333       0.25000000       0.00000000 </v>
   <v>       0.37500000       0.25000000       0.00000000 </v>
   <v>       0.41666667       0.25000000       0.00000000 </v>
   <v>       0.45833333       0.25000000       0.00000000 </v>
   <v>       0.50000000       0.25000000       0.00000000 </v>
   <v>       0.00000000       0.27777778       0.00000000 </v>
   <v>       0.04166667       0.27777778       0.00000000 </v>
   <v>       0.08333333       0.27777778       0.00000000 </v>
   <v>       0.12500000       0.27777778       0.00000000 </v>
   <v>       0.16666667       0.27777778       0.00000000 </v>
   <v>       0.20833333       0.27777778       0.00000000 </v>
   <v>       0.25000000       0.27777778       0.00000000 </v>
   <v>       0.29166667       0.27777778       0.00000000 </v>
   <v>       0.33333333       0.27777778       0.00000000 </v>
   <v>       0.37500000       0.27777778       0.00000000 </v>
   <v>       0.41666667       0.27777778       0.00000000 </v>
   <v>       0.45833333       0.27777778       0.00000000 </v>
   <v>       0.50000000       0.27777778       0.00000000 </v>
   <v>       0.00000000       0.30555556       0.00000000 </v>
   <v>       0.04166667       0.30555556       0.00000000 </v>
   <v>       0.08333333       0.30555556       0.00000000 </v>
   <v>       0.12500000       0.30555556       0.00000000 </v>
   <v>       0.16666667       0.30555556       0.00000000 </v>
   <v>       0.20833333       0.30555556       0.00000000 </v>
   <v>       0.25000000       0.30555556       0.00000000 </v>
   <v>       0.29166667       0.30555556       0.00000000 </v>
   <v>       0.33333333       0.30555556       0.00000000 </v>
   <v>       0.37500000       0.30555556       0.00000000 </v>
   <v>       0.41666667       0.30555556       0.00000000 </v>
   <v>       0.45833333       0.30555556       0.00000000 </v>
   <v>       0.50000000       0.30555556       0.00000000 </v>
   <v>       0.00000000       0.33333333       0.00000000 </v>
   <v>       0.04166667       0.33333333       0.00000000 </v>
   <v>       0.08333333       0.33333333       0.00000000 </v>
   <v>       0.12500000       0.33333333       0.00000000 </v>
   <v>       0.16666667       0.33333333       0.00000000 </v>
   <v>       0.20833333       0.33333333       0.00000000 </v>
   <v>       0.25000000       0.33333333       0.00000000 </v>
   <v>       0.29166667       0.33333333       0.00000000 </v>
   <v>       0.33333333       0.33333333       0.00000000 </v>
   <v>       0.37500000       0.33333333       0.00000000 </v>
   <v>       0.41666667       0.33333333       0.00000000 </v>
   <v>       0.45833333       0.33333333       0.00000000 </v>
   <v>       0.50000000       0.33333333       0.00000000 </v>
   <v>       0.00000000       0.36111111       0.00000000 </v>
   <v>       0.04166667       0.36111111       0.00000000 </v>
   <v>       0.08333333       0.36111111       0.00000000 </v>
   <v>       0.12500000       0.36111111       0.00000000 </v>
   <v>       0.16666667       0.36111111       0.00000000 </v>
   <v>       0.20833333       0.36111111       0.00000000 </v>
   <v>       0.25000000       0.36111111       0.00000000 </v>
   <v>       0.29166667       0.36111111       0.00000000 </v>
   <v>       0.33333333       0.36111111       0.00000000 </v>
   <v>       0.37500000       0.36111111       0.00000000 </v>
   <v>       0.41666667       0.36111111       0.00000000 </v>
   <v>       0.45833333       0.36111111       0.00000000 </v>
   <v>       0.50000000       0.36111111       0.00000000 </v>
   <v>       0.00000000       0.38888889       0.00000000 </v>
   <v>       0.04166667       0.38888889       0.00000000 </v>
   <v>       0.08333333       0.38888889       0.00000000 </v>
   <v>       0.12500000       0.38888889       0.00000000 </v>
   <v>       0.16666667       0.38888889       0.00000000 </v>
   <v>       0.20833333       0.38888889       0.00000000 </v>
   <v>       0.25000000       0.38888889       0.00000000 </v>
   <v>       0.29166667       0.38888889       0.00000000 </v>
   <v>       0.33333333       0.38888889       0.00000000 </v>
   <v>       0.37500000       0.38888889       0.00000000 </v>
   <v>       0.41666667       0.38888889       0.00000000 </v>
   <v>       0.45833333       0.38888889       0.00000000 </v>
   <v>       0.50000000       0.38888889       0.00000000 </v>
   <v>       0.00000000       0.41666667       0.00000000 </v>
   <v>       0.04166667       0.41666667       0.00000000 </v>
   <v>       0.08333333       0.41666667       0.00000000 </v>
   <v>       0.12500000       0.41666667       0.00000000 </v>
   <v>       0.16666667       0.41666667       0.00000000 </v>
   <v>       0.20833333       0.41666667       0.00000000 </v>
   <v>       0.25000000       0.41666667       0.00000000 </v>
   <v>       0.29166667       0.41666667       0.00000000 </v>
   <v>       0.33333333       0.41666667       0.00000000 </v>
   <v>       0.37500000       0.41666667       0.00000000 </v>
   <v>       0.41666667       0.41666667       0.00000000 </v>
   <v>       0.45833333       0.41666667       0.00000000 </v>
   <v>       0.50000000       0.41666667       0.00000000 </v>
   <v>       0.00000000       0.44444444       0.00000000 </v>
   <v>       0.04166667       0.44444444       0.00000000 </v>
   <v>       0.08333333       0.44444444       0.00000000 </v>
   <v>       0.12500000       0.44444444       0.00000000 </v>
   <v>       0.16666667       0.44444444       0.00000000 </v>
   <v>       0.20833333       0.44444444       0.00000000 </v>
   <v>       0.25000000       0.44444444       0.00000000 </v>
   <v>       0.29166667       0.44444444       0.00000000 </v>
   <v>       0.33333333       0.44444444       0.00000000 </v>
   <v>       0.37500000       0.44444444       0.00000000 </v>
   <v>       0.41666667       0.44444444       0.00000000 </v>
   <v>       0.45833333       0.44444444       0.00000000 </v>
   <v>       0.50000000       0.44444444       0.00000000 </v>
   <v>       0.00000000       0.47222222       0.00000000 </v>
   <v>       0.04166667       0.47222222       0.00000000 </v>
   <v>       0.08333333       0.47222222       0.00000000 </v>
   <v>       0.12500000       0.47222222       0.00000000 </v>
   <v>       0.16666667       0.47222222       0.00000000 </v>
   <v>       0.20833333       0.47222222       0.00000000 </v>
   <v>       0.25000000       0.47222222       0.00000000 </v>
   <v>       0.29166667       0.47222222       0.00000000 </v>
   <v>       0.33333333       0.47222222       0.00000000 </v>
   <v>       0.37500000       0.47222222       0.00000000 </v>
   <v>       0.41666667       0.47222222       0.00000000 </v>
   <v>       0.45833333       0.47222222       0.00000000 </v>
   <v>       0.50000000       0.47222222       0.00000000 </v>
   <v>       0.00000000       0.50000000       0.00000000 </v>
   <v>       0.04166667       0.50000000       0.00000000 </v>
   <v>       0.08333333       0.50000000       0.00000000 </v>
   <v>       0.12500000       0.50000000       0.00000000 </v>
   <v>       0.16666667       0.50000000       0.00000000 </v>
   <v>       0.20833333       0.50000000       0.00000000 </v>
   <v>       0.25000000       0.50000000       0.00000000 </v>
   <v>       0.29166667       0.50000000       0.00000000 </v>
   <v>       0.33333333       0.50000000       0.00000000 </v>
   <v>       0.37500000       0.50000000       0.00000000 </v>
   <v>       0.41666667       0.50000000       0.00000000 </v>
   <v>       0.45833333       0.50000000       0.00000000 </v>
   <v>       0.50000000       0.50000000       0.00000000 </v>
  </varray>
  <varray name="weights" >
   <v>       0.00115741 </v>
   <v>       0.00231481 </v>
   <v>       0.00231481 </v>
   <v>       0.00231481 </v>
   <v>       0.00231481 </v>
   <v>       0.00231481 </v>
   <v>       0.00231481 </v>
   <v>       0.00231481 </v>
   <v>       0.00231481 </v>
   <v>       0.00231481 </v>
   <v>       0.00231481 </v>
   <v>       0.00231481 </v>
   <v>       0.00115741 </v>
   <v>       0.00231481 </v>
   <v>       0.00462963 </v>
   <v>       0.00462963 </v>
   <v>       0.00462963 </v>
   <v>       0.00462963 </v>
   <v>       0.00462963 </v>
   <v>       0.00462963 </v>
   <v>       0.00462963 </v>
   <v>       0.00462963 </v>
   <v>       0.00462963 </v>
   <v>       0.00462963 </v>
   <v>       0.00462963 </v>
   <v>       0.00231481 </v>
   <v>       0.00231481 </v>
   <v>       0.00462963 </v>
   <v>       0.00462963 </v>
   <v>       0.00462963 </v>
   <v>       0.00462963 </v>
   <v>       0.00462963 </v>
   <v>       0.00462963 </v>
   <v>       0.00462963 </v>
   <v>       0.00462963 </v>
   <v>       0.00462963 </v>
   <v>       0.00462963 </v>
   <v>       0.00462963 </v>
   <v>       0.00231481 </v>
   <v>       0.00231481 </v>
   <v>       0.00462963 </v>
   <v>       0.00462963 </v>
   <v>       0.00462963 </v>
   <v>       0.00462963 </v>
   <v>       0.00462963 </v>
   <v>       0.00462963 </v>
   <v>       0.00462963 </v>
   <v>       0.00462963 </v>
   <v>       0.00462963 </v>
   <v>       0.00462963 </v>
   <v>       0.00462963 </v>
   <v>       0.00231481 </v>
   <v>       0.00231481 </v>
   <v>       0.00462963 </v>
   <v>       0.00462963 </v>
   <v>       0.00462963 </v>
   <v>       0.00462963 </v>
   <v>       0.00462963 </v>
   <v>       0.00462963 </v>
   <v>       0.00462963 </v>
   <v>       0.00462963 </v>
   <v>       0.00462963 </v>
   <v>       0.00462963 </v>
   <v>       0.00462963 </v>
   <v>       0.00231481 </v>
   <v>       0.00231481 </v>
   <v>       0.00462963 </v>
   <v>       0.00462963 </v>
   <v>       0.00462963 </v>
   <v>       0.00462963 </v>
   <v>       0.00462963 </v>
   <v>       0.00462963 </v>
   <v>       0.00462963 </v>
   <v>       0.00462963 </v>
   <v>       0.00462963 </v>
   <v>       0.00462963 </v>
   <v>       0.00462963 </v>
   <v>       0.00231481 </v>
   <v>       0.00231481 </v>
   <v>       0.00462963 </v>
   <v>       0.00462963 </v>
   <v>       0.00462963 </v>
   <v>       0.00462963 </v>
   <v>       0.00462963 </v>
   <v>       0.00462963 </v>
   <v>       0.00462963 </v>
   <v>       0.00462963 </v>
   <v>       0.00462963 </v>
   <v>       0.00462963 </v>
   <v>       0.00462963 </v>
   <v>       0.00231481 </v>
   <v>       0.00231481 </v>
   <v>       0.00462963 </v>
   <v>       0.00462963 </v>
   <v>       0.00462963 </v>
   <v>       0.00462963 </v>
   <v>       0.00462963 </v>
   <v>       0.00462963 </v>
   <v>       0.00462963 </v>
   <v>       0.00462963 </v>
   <v>       0.00462963 </v>
   <v>       0.00462963 </v>
   <v>       0.00462963 </v>
   <v>       0.00231481 </v>
   <v>       0.00231481 </v>
   <v>       0.00462963 </v>
   <v>       0.00462963 </v>
   <v>       0.00462963 </v>
   <v>       0.00462963 </v>
   <v>       0.00462963 </v>
   <v>       0.00462963 </v>
   <v>       0.00462963 </v>
   <v>       0.00462963 </v>
   <v>       0.00462963 </v>
   <v>       0.00462963 </v>
   <v>       0.00462963 </v>
   <v>       0.00231481 </v>
   <v>       0.00231481 </v>
   <v>       0.00462963 </v>
   <v>       0.00462963 </v>
   <v>       0.00462963 </v>
   <v>       0.00462963 </v>
   <v>       0.00462963 </v>
   <v>       0.00462963 </v>
   <v>       0.00462963 </v>
   <v>       0.00462963 </v>
   <v>       0.00462963 </v>
   <v>       0.00462963 </v>
   <v>       0.00462963 </v>
   <v>       0.00231481 </v>
   <v>       0.00231481 </v>
   <v>       0.00462963 </v>
   <v>       0.00462963 </v>
   <v>       0.00462963 </v>
   <v>       0.00462963 </v>
   <v>       0.00462963 </v>
   <v>       0.00462963 </v>
   <v>       0.00462963 </v>
   <v>       0.00462963 </v>
   <v>       0.00462963 </v>
   <v>       0.00462963 </v>
   <v>       0.00462963 </v>
   <v>       0.00231481 </v>
   <v>       0.00231481 </v>
   <v>       0.00462963 </v>
   <v>       0.00462963 </v>
   <v>       0.00462963 </v>
   <v>       0.00462963 </v>
   <v>       0.00462963 </v>
   <v>       0.00462963 </v>
   <v>       0.00462963 </v>
   <v>       0.00462963 </v>
   <v>       0.00462963 </v>
   <v>       0.00462963 </v>
   <v>       0.00462963 </v>
   <v>       0.00231481 </v>
   <v>       0.00231481 </v>
   <v>       0.00462963 </v>
   <v>       0.00462963 </v>
   <v>       0.00462963 </v>
   <v>       0.00462963 </v>
   <v>       0.00462963 </v>
   <v>       0.00462963 </v>
   <v>       0.00462963 </v>
   <v>       0.00462963 </v>
   <v>       0.00462963 </v>
   <v>       0.00462963 </v>
   <v>       0.00462963 </v>
   <v>       0.00231481 </v>
   <v>       0.00231481 </v>
   <v>       0.00462963 </v>
   <v>       0.00462963 </v>
   <v>       0.00462963 </v>
   <v>       0.00462963 </v>
   <v>       0.00462963 </v>
   <v>       0.00462963 </v>
   <v>       0.00462963 </v>
   <v>       0.00462963 </v>
   <v>       0.00462963 </v>
   <v>       0.00462963 </v>
   <v>       0.00462963 </v>
   <v>       0.00231481 </v>
   <v>       0.00231481 </v>
   <v>       0.00462963 </v>
   <v>       0.00462963 </v>
   <v>       0.00462963 </v>
   <v>       0.00462963 </v>
   <v>       0.00462963 </v>
   <v>       0.00462963 </v>
   <v>       0.00462963 </v>
   <v>       0.00462963 </v>
   <v>       0.00462963 </v>
   <v>       0.00462963 </v>
   <v>       0.00462963 </v>
   <v>       0.00231481 </v>
   <v>       0.00231481 </v>
   <v>       0.00462963 </v>
   <v>       0.00462963 </v>
   <v>       0.00462963 </v>
   <v>       0.00462963 </v>
   <v>       0.00462963 </v>
   <v>       0.00462963 </v>
   <v>       0.00462963 </v>
   <v>       0.00462963 </v>
   <v>       0.00462963 </v>
   <v>       0.00462963 </v>
   <v>       0.00462963 </v>
   <v>       0.00231481 </v>
   <v>       0.00231481 </v>
   <v>       0.00462963 </v>
   <v>       0.00462963 </v>
   <v>       0.00462963 </v>
   <v>       0.00462963 </v>
   <v>       0.00462963 </v>
   <v>       0.00462963 </v>
   <v>       0.00462963 </v>
   <v>       0.00462963 </v>
   <v>       0.00462963 </v>
   <v>       0.00462963 </v>
   <v>       0.00462963 </v>
   <v>       0.00231481 </v>
   <v>       0.00231481 </v>
   <v>       0.00462963 </v>
   <v>       0.00462963 </v>
   <v>       0.00462963 </v>
   <v>       0.00462963 </v>
   <v>       0.00462963 </v>
   <v>       0.00462963 </v>
   <v>       0.00462963 </v>
   <v>       0.00462963 </v>
   <v>       0.00462963 </v>
   <v>       0.00462963 </v>
   <v>       0.00462963 </v>
   <v>       0.00231481 </v>
   <v>       0.00115741 </v>
   <v>       0.00231481 </v>
   <v>       0.00231481 </v>
   <v>       0.00231481 </v>
   <v>       0.00231481 </v>
   <v>       0.00231481 </v>
   <v>       0.00231481 </v>
   <v>       0.00231481 </v>
   <v>       0.00231481 </v>
   <v>       0.00231481 </v>
   <v>       0.00231481 </v>
   <v>       0.00231481 </v>
   <v>       0.00115741 </v>
  </varray>
 </kpoints>
 <parameters>
  <separator name="general" >
   <i type="string" name="SYSTEM">gr</i>
   <i type="logical" name="LCOMPAT"> F  </i>
  </separator>
  <separator name="electronic" >
   <i type="string" name="PREC">accura</i>
   <i name="ENMAX">   2000.00000000</i>
   <i name="ENAUG">    644.87300000</i>
   <i name="EDIFF">      0.00000000</i>
   <i type="int" name="IALGO">    68</i>
   <i type="int" name="IWAVPR">    11</i>
   <i type="int" name="NBANDS">    12</i>
   <i name="NELECT">     16.00000000</i>
   <i type="int" name="TURBO">     0</i>
   <i type="int" name="IRESTART">     0</i>
   <i type="int" name="NREBOOT">     0</i>
   <i type="int" name="NMIN">     0</i>
   <i name="EREF">      0.00000000</i>
   <separator name="electronic smearing" >
    <i type="int" name="ISMEAR">     0</i>
    <i name="SIGMA">      0.05000000</i>
    <i name="KSPACING">      0.50000000</i>
    <i type="logical" name="KGAMMA"> T  </i>
   </separator>
   <separator name="electronic projectors" >
    <i type="logical" name="LREAL"> F  </i>
    <v name="ROPT">      0.00000000</v>
    <i type="int" name="LMAXPAW">  -100</i>
    <i type="int" name="LMAXMIX">     2</i>
    <i type="logical" name="NLSPLINE"> F  </i>
   </separator>
   <separator name="electronic startup" >
    <i type="int" name="ISTART">     0</i>
    <i type="int" name="ICHARG">     2</i>
    <i type="int" name="INIWAV">     1</i>
   </separator>
   <separator name="electronic spin" >
    <i type="int" name="ISPIN">     1</i>
    <i type="logical" name="LNONCOLLINEAR"> F  </i>
    <v name="MAGMOM">      1.00000000      1.00000000      1.00000000      1.00000000</v>
    <i name="NUPDOWN">     -1.00000000</i>
    <i type="logical" name="LSORBIT"> F  </i>
    <v name="SAXIS">      0.00000000      0.00000000      1.00000000</v>
    <i type="logical" name="LSPIRAL"> F  </i>
    <v name="QSPIRAL">      0.00000000      0.00000000      0.00000000</v>
    <i type="logical" name="LZEROZ"> F  </i>
   </separator>
   <separator name="electronic exchange-correlation" >
    <i type="logical" name="LASPH"> F  </i>
    <i type="logical" name="LMETAGGA"> F  </i>
   </separator>
   <separator name="electronic convergence" >
    <i type="int" name="NELM">   100</i>
    <i type="int" name="NELMDL">    -3</i>
    <i type="int" name="NELMIN">     5</i>
    <i name="ENINI">   2000.00000000</i>
    <separator name="electronic convergence detail" >
     <i type="logical" name="LDIAG"> T  </i>
     <i type="logical" name="LSUBROT"> F  </i>
     <i name="WEIMIN">      0.00100000</i>
     <i name="EBREAK">      0.00000000</i>
     <i name="DEPER">      0.30000000</i>
     <i type="int" name="NRMM">     4</i>
     <i name="TIME">      0.40000000</i>
    </separator>
   </separator>
   <separator name="electronic mixer" >
    <i name="AMIX">      0.40000000</i>
    <i name="BMIX">      1.00000000</i>
    <i name="AMIN">      0.10000000</i>
    <i name="AMIX_MAG">      1.60000000</i>
    <i name="BMIX_MAG">      1.00000000</i>
    <separator name="electronic mixer details" >
     <i type="int" name="IMIX">     4</i>
     <i type="int" name="MAXMIX">   -45</i>
     <i name="WC">    100.00000000</i>
     <i type="int" name="INIMIX">     1</i>
     <i type="int" name="MIXPRE">     1</i>
     <i type="int" name="MREMOVE">     5</i>
    </separator>
   </separator>
   <separator name="electronic dipolcorrection" >
    <i type="logical" name="LDIPOL"> F  </i>
    <i type="logical" name="LMONO"> F  </i>
    <i type="int" name="IDIPOL">     0</i>
    <i name="EPSILON">      1.00000000</i>
    <v name="DIPOL">   -100.00000000   -100.00000000   -100.00000000</v>
    <i name="EFIELD">      0.00000000</i>
   </separator>
  </separator>
  <separator name="grids" >
   <i type="int" name="NGX">    64</i>
   <i type="int" name="NGY">    40</i>
   <i type="int" name="NGZ">   288</i>
   <i type="int" name="NGXF">   128</i>
   <i type="int" name="NGYF">    80</i>
   <i type="int" name="NGZF">   576</i>
   <i type="logical" name="ADDGRID"> F  </i>
  </separator>
  <separator name="ionic" >
   <i type="int" name="NSW">   400</i>
   <i type="int" name="IBRION">     1</i>
   <i type="int" name="ISIF">     2</i>
   <i name="PSTRESS">      0.00000000</i>
   <i name="EDIFFG">     -0.00000100</i>
   <i type="int" name="NFREE">     0</i>
   <i name="POTIM">      0.50000000</i>
   <i name="SMASS">     -3.00000000</i>
   <i name="SCALEE">      1.00000000</i>
  </separator>
  <separator name="ionic md" >
   <i name="TEBEG">      0.00010000</i>
   <i name="TEEND">      0.00010000</i>
   <i type="int" name="NBLOCK">     1</i>
   <i type="int" name="KBLOCK">   400</i>
   <i type="int" name="NPACO">   256</i>
   <i name="APACO">     16.00000000</i>
  </separator>
  <separator name="symmetry" >
   <i type="int" name="ISYM">     2</i>
   <i name="SYMPREC">      0.00001000</i>
  </separator>
  <separator name="dos" >
   <i type="logical" name="LORBIT"> F  </i>
   <v name="RWIGS">     -1.00000000</v>
   <i type="int" name="NEDOS">   301</i>
   <i name="EMIN">     10.00000000</i>
   <i name="EMAX">    -10.00000000</i>
   <i name="EFERMI">      0.00000000</i>
  </separator>
  <separator name="writing" >
   <i type="int" name="NWRITE">     2</i>
   <i type="logical" name="LWAVE"> F  </i>
   <i type="logical" name="LCHARG"> F  </i>
   <i type="logical" name="LPARD"> F  </i>
   <i type="logical" name="LVTOT"> F  </i>
   <i type="logical" name="LVHAR"> F  </i>
   <i type="logical" name="LELF"> F  </i>
   <i type="logical" name="LOPTICS"> F  </i>
   <v name="STM">      0.00000000      0.00000000      0.00000000      0.00000000      0.00000000      0.00000000      0.00000000</v>
  </separator>
  <separator name="performance" >
   <i type="int" name="NPAR">     4</i>
   <i type="int" name="NSIM">     4</i>
   <i type="int" name="NBLK">    -1</i>
   <i type="logical" name="LPLANE"> T  </i>
   <i type="logical" name="LSCALAPACK"> F  </i>
   <i type="logical" name="LSCAAWARE"> F  </i>
   <i type="logical" name="LSCALU"> F  </i>
   <i type="logical" name="LASYNC"> F  </i>
   <i type="logical" name="LORBITALREAL"> F  </i>
  </separator>
  <separator name="miscellaneous" >
   <i type="int" name="IDIOT">     3</i>
   <i type="logical" name="LMUSIC"> F  </i>
   <v name="POMASS">     12.01100000</v>
   <v name="DARWINR">      0.00000000</v>
   <v name="DARWINV">      1.00000000</v>
   <i type="logical" name="LCORR"> T  </i>
  </separator>
  <i type="logical" name="GGA_COMPAT"> T  </i>
  <i type="logical" name="LBERRY"> F  </i>
  <i type="int" name="ICORELEVEL">     0</i>
  <i type="logical" name="LDAU"> F  </i>
  <i type="int" name="I_CONSTRAINED_M">     0</i>
  <separator name="electronic exchange-correlation" >
   <i type="string" name="GGA">--</i>
   <i type="int" name="VOSKOWN">     0</i>
   <i type="logical" name="LHFCALC"> F  </i>
   <i type="string" name="PRECFOCK"></i>
   <i type="logical" name="LSYMGRAD"> F  </i>
   <i type="logical" name="LHFONE"> F  </i>
   <i type="logical" name="LRHFCALC"> F  </i>
   <i type="logical" name="LTHOMAS"> F  </i>
   <i type="logical" name="LMODELHF"> F  </i>
   <i name="ENCUT4O">     -1.00000000</i>
   <i type="int" name="EXXOEP">     0</i>
   <i type="int" name="FOURORBIT">     0</i>
   <i name="AEXX">      0.00000000</i>
   <i name="HFALPHA">      0.00000000</i>
   <i name="MCALPHA">      0.00000000</i>
   <i name="ALDAX">      1.00000000</i>
   <i name="AGGAX">      1.00000000</i>
   <i name="ALDAC">      1.00000000</i>
   <i name="AGGAC">      1.00000000</i>
   <i type="int" name="NKREDX">     1</i>
   <i type="int" name="NKREDY">     1</i>
   <i type="int" name="NKREDZ">     1</i>
   <i type="logical" name="SHIFTRED"> F  </i>
   <i type="logical" name="ODDONLY"> F  </i>
   <i type="logical" name="EVENONLY"> F  </i>
   <i type="int" name="LMAXFOCK">     0</i>
   <i type="int" name="NMAXFOCKAE">     0</i>
   <i type="logical" name="LFOCKAEDFT"> F  </i>
   <i name="HFSCREEN">      0.00000000</i>
   <i name="HFSCREENC">      0.00000000</i>
   <i type="int" name="NBANDSGWLOW">     0</i>
  </separator>
  <separator name="vdW DFT" >
   <i type="logical" name="LUSE_VDW"> F  </i>
   <i name="Zab_VDW">     -0.84910000</i>
   <i name="PARAM1">      0.12340000</i>
   <i name="PARAM2">      1.00000000</i>
   <i name="PARAM3">      0.00000000</i>
  </separator>
  <separator name="model GW" >
   <i type="int" name="MODEL_GW">     0</i>
   <i name="MODEL_EPS0">     31.62568521</i>
   <i name="MODEL_ALPHA">      1.00000000</i>
  </separator>
  <separator name="linear response parameters" >
   <i type="logical" name="LEPSILON"> F  </i>
   <i type="logical" name="LRPA"> F  </i>
   <i type="logical" name="LNABLA"> F  </i>
   <i type="logical" name="LVEL"> F  </i>
   <i type="int" name="KINTER">     0</i>
   <i name="CSHIFT">      0.10000000</i>
   <i name="OMEGAMAX">     -1.00000000</i>
   <i name="DEG_THRESHOLD">      0.00200000</i>
  </separator>
  <separator name="orbital magnetization" >
   <i type="logical" name="NUCIND"> F  </i>
   <v name="MAGPOS">      0.00000000      0.00000000      0.00000000</v>
   <i type="logical" name="LNICSALL"> T  </i>
   <i type="logical" name="ORBITALMAG"> F  </i>
   <i type="logical" name="LMAGBLOCH"> F  </i>
   <i type="logical" name="LCHIMAG"> F  </i>
   <i type="logical" name="LGAUGE"> T  </i>
   <i type="int" name="MAGATOM">     0</i>
   <v name="MAGDIPOL">      0.00000000      0.00000000      0.00000000</v>
   <v name="AVECCONST">      0.00000000      0.00000000      0.00000000</v>
  </separator>
  <separator name="response functions" >
   <i type="logical" name="LADDER"> F  </i>
   <i type="logical" name="LFXC"> F  </i>
   <i type="logical" name="LHARTREE"> T  </i>
   <i type="int" name="IBSE">     0</i>
   <i type="logical" name="LTCTE"> F  </i>
   <i type="logical" name="LTETE"> F  </i>
   <i type="logical" name="LTRIPLET"> F  </i>
   <i type="logical" name="LFXCEPS"> F  </i>
   <i type="logical" name="LFXHEG"> F  </i>
   <i type="logical" name="L2ORDER"> F  </i>
   <i type="logical" name="LUSEW"> F  </i>
   <i name="ENCUTGW">     -2.00000000</i>
   <i name="ENCUTGWSOFT">     -2.00000000</i>
   <i name="ENCUTLF">     -1.00000000</i>
   <i type="int" name="LMAXMP2">    -1</i>
   <i name="SCISSOR">      0.00000000</i>
   <i type="int" name="NOMEGA">     0</i>
   <i type="int" name="NOMEGAR">     0</i>
   <i type="int" name="NBANDSGW">    -1</i>
   <i type="int" name="NBANDSO">    -1</i>
   <i type="int" name="NBANDSV">    -1</i>
   <i type="int" name="NELM">   100</i>
   <i type="int" name="DIM">     3</i>
   <i type="int" name="ANTIRES">     0</i>
   <i name="OMEGAMAX">    -30.00000000</i>
   <i name="OMEGAMIN">    -30.00000000</i>
   <i name="OMEGATL">   -200.00000000</i>
   <i type="int" name="OMEGAGRID">     0</i>
   <i name="CSHIFT">     -0.10000000</i>
   <i type="logical" name="SELFENERGY"> F  </i>
   <i type="logical" name="LSPECTRAL"> F  </i>
   <i type="logical" name="ODDONLYGW"> F  </i>
   <i type="logical" name="EVENONLYGW"> F  </i>
   <i type="int" name="NKREDLFX">     1</i>
   <i type="int" name="NKREDLFY">     1</i>
   <i type="int" name="NKREDLFZ">     1</i>
   <i type="int" name="MAXMEM">  1800</i>
   <i type="int" name="TELESCOPE">     0</i>
   <i type="int" name="TAUPAR">     1</i>
  </separator>
  <separator name="External order field" >
   <i name="OFIELD_KAPPA">      0.00000000</i>
   <v name="OFIELD_K">      0.00000000      0.00000000      0.00000000</v>
   <i name="OFIELD_Q6_NEAR">      0.00000000</i>
   <i name="OFIELD_Q6_FAR">      0.00000000</i>
   <i name="OFIELD_A">      0.00000000</i>
  </separator>
 </parameters>
 <atominfo>
  <atoms>       4 </atoms>
  <types>       1 </types>
  <array name="atoms" >
   <dimension dim="1">ion</dimension>
   <field type="string">element</field>
   <field type="int">atomtype</field>
   <set>
    <rc><c>C </c><c>   1</c></rc>
    <rc><c>C </c><c>   1</c></rc>
    <rc><c>C </c><c>   1</c></rc>
    <rc><c>C </c><c>   1</c></rc>
   </set>
  </array>
  <array name="atomtypes" >
   <dimension dim="1">type</dimension>
   <field type="int">atomspertype</field>
   <field type="string">element</field>
   <field>mass</field>
   <field>valence</field>
   <field type="string">pseudopotential</field>
   <set>
    <rc><c>   4</c><c>C </c><c>     12.01100000</c><c>      4.00000000</c><c> PAW_PBE C 08Apr2002                    </c></rc>
   </set>
  </array>
 </atominfo>
 <structure name="initialpos" >
  <crystal>
   <varray name="basis" >
    <v>       4.25164557       0.00000000       0.00000000 </v>
    <v>       0.00000000       2.54206217       0.00000000 </v>
    <v>       0.00000000       0.00000000      19.50767287 </v>
   </varray>
   <i name="volume">    210.83790140 </i>
   <varray name="rec_basis" >
    <v>       0.23520305       0.00000000       0.00000000 </v>
    <v>       0.00000000       0.39338141       0.00000000 </v>
    <v>       0.00000000       0.00000000       0.05126188 </v>
   </varray>
  </crystal>
  <varray name="positions" >
   <v>       0.00074775       0.00000000       0.00000000 </v>
   <v>       0.16591892       0.50000000       0.00000000 </v>
   <v>       0.50074775       0.50000000       0.00000000 </v>
   <v>       0.66591892       0.00000000       0.00000000 </v>
  </varray>
 </structure>
 <calculation>
  <scstep>
   <time name="dav">  320.17  324.11</time>
   <time name="total">  322.99  326.98</time>
   <energy>
    <i name="alphaZ">      6.18334092 </i>
    <i name="ewald">   2422.10695658 </i>
    <i name="hartreedc">  -2852.42421174 </i>
    <i name="XCdc">     54.76002219 </i>
    <i name="pawpsdc">    151.32577238 </i>
    <i name="pawaedc">   -155.92769107 </i>
    <i name="eentropy">     -0.00131609 </i>
    <i name="bandstr">    -28.10736625 </i>
    <i name="atom">    588.62352690 </i>
    <i name="e_fr_energy">    186.53903383 </i>
    <i name="e_wo_entrp">    186.54034993 </i>
    <i name="e_0_energy">    186.53969188 </i>
   </energy>
  </scstep>
  <scstep>
   <time name="dav">  488.36  490.86</time>
   <time name="total">  488.37  490.94</time>
   <energy>
    <i name="e_fr_energy">     -9.51973880 </i>
    <i name="e_wo_entrp">     -9.51961936 </i>
    <i name="e_0_energy">     -9.51967908 </i>
   </energy>
  </scstep>
  <scstep>
   <time name="dav">  372.67  376.15</time>
   <time name="total">  406.07  410.05</time>
   <energy>
    <i name="e_fr_energy">    -38.01180086 </i>
    <i name="e_wo_entrp">    -38.01169958 </i>
    <i name="e_0_energy">    -38.01175022 </i>
   </energy>
  </scstep>
  <scstep>
   <time name="diag">   86.36   87.27</time>
   <time name="diis">  368.08  369.40</time>
   <time name="orth">    3.08    3.08</time>
   <time name="total">  493.50  496.16</time>
   <energy>
    <i name="e_fr_energy">    -37.50888745 </i>
    <i name="e_wo_entrp">    -37.50875881 </i>
    <i name="e_0_energy">    -37.50882313 </i>
   </energy>
  </scstep>
  <scstep>
   <time name="diag">   86.55   87.20</time>
   <time name="diis">  362.95  365.29</time>
   <time name="orth">    3.07    3.09</time>
   <time name="total">  488.85  492.00</time>
   <energy>
    <i name="e_fr_energy">    -36.82115953 </i>
    <i name="e_wo_entrp">    -36.82103064 </i>
    <i name="e_0_energy">    -36.82109509 </i>
   </energy>
  </scstep>
  <scstep>
   <time name="diag">   86.81   87.24</time>
   <time name="diis">  401.06  403.62</time>
   <time name="orth">    3.07    3.09</time>
   <time name="total">  526.90  530.41</time>
   <energy>
    <i name="e_fr_energy">    -36.82371896 </i>
    <i name="e_wo_entrp">    -36.82361152 </i>
    <i name="e_0_energy">    -36.82366524 </i>
   </energy>
  </scstep>
  <scstep>
   <time name="diag">   86.41   87.27</time>
   <time name="diis">  363.03  365.32</time>
   <time name="orth">    3.07    3.07</time>
   <time name="total">  488.58  492.13</time>
   <energy>
    <i name="e_fr_energy">    -36.81449848 </i>
    <i name="e_wo_entrp">    -36.81436829 </i>
    <i name="e_0_energy">    -36.81443338 </i>
   </energy>
  </scstep>
  <scstep>
   <time name="diag">   86.73   87.18</time>
   <time name="diis">  363.63  366.00</time>
   <time name="orth">    3.06    3.11</time>
   <time name="total">  489.39  492.69</time>
   <energy>
    <i name="e_fr_energy">    -36.81036200 </i>
    <i name="e_wo_entrp">    -36.81023157 </i>
    <i name="e_0_energy">    -36.81029678 </i>
   </energy>
  </scstep>
  <scstep>
   <time name="diag">   86.27   87.14</time>
   <time name="diis">  347.15  350.82</time>
   <time name="orth">    3.07    3.07</time>
   <time name="total">  472.60  477.52</time>
   <energy>
    <i name="e_fr_energy">    -36.81018669 </i>
    <i name="e_wo_entrp">    -36.81005574 </i>
    <i name="e_0_energy">    -36.81012122 </i>
   </energy>
  </scstep>
  <scstep>
   <time name="diag">   86.54   87.19</time>
   <time name="diis">  351.31  351.65</time>
   <time name="orth">    3.09    3.09</time>
   <time name="total">  477.25  478.40</time>
   <energy>
    <i name="e_fr_energy">    -36.82336229 </i>
    <i name="e_wo_entrp">    -36.82336229 </i>
    <i name="e_0_energy">    -36.82336229 </i>
   </energy>
  </scstep>
  <scstep>
   <time name="diag">   87.18   87.20</time>
   <time name="diis">  357.03  357.11</time>
   <time name="orth">    3.11    3.11</time>
   <time name="total">  483.70  483.89</time>
   <energy>
    <i name="e_fr_energy">    -36.82666066 </i>
    <i name="e_wo_entrp">    -36.82666066 </i>
    <i name="e_0_energy">    -36.82666066 </i>
   </energy>
  </scstep>
  <scstep>
   <time name="diag">   87.18   87.21</time>
   <time name="diis">  353.01  353.09</time>
   <time name="orth">    3.11    3.11</time>
   <time name="total">  479.79  479.93</time>
   <energy>
    <i name="e_fr_energy">    -36.82731802 </i>
    <i name="e_wo_entrp">    -36.82731801 </i>
    <i name="e_0_energy">    -36.82731802 </i>
   </energy>
  </scstep>
  <scstep>
   <time name="diag">   87.14   87.17</time>
   <time name="diis">  351.36  351.65</time>
   <time name="orth">    3.07    3.07</time>
   <time name="total">  477.93  478.31</time>
   <energy>
    <i name="e_fr_energy">    -36.82778337 </i>
    <i name="e_wo_entrp">    -36.82778337 </i>
    <i name="e_0_energy">    -36.82778337 </i>
   </energy>
  </scstep>
  <scstep>
   <time name="diag">   87.10   87.14</time>
   <time name="diis">  362.79  362.92</time>
   <time name="orth">    3.07    3.07</time>
   <time name="total">  489.44  489.63</time>
   <energy>
    <i name="e_fr_energy">    -36.82782687 </i>
    <i name="e_wo_entrp">    -36.82782687 </i>
    <i name="e_0_energy">    -36.82782687 </i>
   </energy>
  </scstep>
  <scstep>
   <time name="diag">   87.19   87.26</time>
   <time name="diis">  351.88  352.16</time>
   <time name="orth">    3.07    3.07</time>
   <time name="total">  478.54  478.93</time>
   <energy>
    <i name="e_fr_energy">    -36.82786995 </i>
    <i name="e_wo_entrp">    -36.82786995 </i>
    <i name="e_0_energy">    -36.82786995 </i>
   </energy>
  </scstep>
  <scstep>
   <time name="diag">   87.12   87.17</time>
   <time name="diis">  351.16  351.44</time>
   <time name="orth">    3.09    3.09</time>
   <time name="total">  477.84  478.21</time>
   <energy>
    <i name="e_fr_energy">    -36.82788072 </i>
    <i name="e_wo_entrp">    -36.82788072 </i>
    <i name="e_0_energy">    -36.82788072 </i>
   </energy>
  </scstep>
  <scstep>
   <time name="diag">   87.19   87.24</time>
   <time name="diis">  351.07  351.16</time>
   <time name="orth">    3.07    3.07</time>
   <time name="total">  477.76  477.94</time>
   <energy>
    <i name="e_fr_energy">    -36.82788898 </i>
    <i name="e_wo_entrp">    -36.82788898 </i>
    <i name="e_0_energy">    -36.82788898 </i>
   </energy>
  </scstep>
  <scstep>
   <time name="diag">   87.21   87.23</time>
   <time name="diis">  353.19  353.30</time>
   <time name="orth">    3.07    3.07</time>
   <time name="total">  479.83  480.09</time>
   <energy>
    <i name="e_fr_energy">    -36.82789179 </i>
    <i name="e_wo_entrp">    -36.82789179 </i>
    <i name="e_0_energy">    -36.82789179 </i>
   </energy>
  </scstep>
  <scstep>
   <time name="diag">   87.16   87.18</time>
   <time name="diis">  353.11  353.20</time>
   <time name="orth">    3.07    3.07</time>
   <time name="total">  479.83  479.98</time>
   <energy>
    <i name="e_fr_energy">    -36.82789227 </i>
    <i name="e_wo_entrp">    -36.82789226 </i>
    <i name="e_0_energy">    -36.82789227 </i>
   </energy>
  </scstep>
  <scstep>
   <time name="diag">   87.01   87.20</time>
   <time name="diis">  354.64  355.30</time>
   <time name="orth">    3.07    3.09</time>
   <time name="total">  480.92  482.02</time>
   <energy>
    <i name="e_fr_energy">    -36.82789255 </i>
    <i name="e_wo_entrp">    -36.82789255 </i>
    <i name="e_0_energy">    -36.82789255 </i>
   </energy>
  </scstep>
  <scstep>
   <time name="diag">   86.68   87.11</time>
   <time name="diis">  256.16  257.22</time>
   <time name="orth">    3.09    3.09</time>
   <time name="total">  382.26  383.82</time>
   <energy>
    <i name="e_fr_energy">    -36.82789256 </i>
    <i name="e_wo_entrp">    -36.82789256 </i>
    <i name="e_0_energy">    -36.82789256 </i>
   </energy>
  </scstep>
  <scstep>
   <time name="diag">   87.12   87.14</time>
   <time name="diis">  271.22  271.29</time>
   <time name="orth">    3.07    3.07</time>
   <time name="total">  397.79  397.99</time>
   <energy>
    <i name="e_fr_energy">    -36.82789256 </i>
    <i name="e_wo_entrp">    -36.82789256 </i>
    <i name="e_0_energy">    -36.82789256 </i>
   </energy>
  </scstep>
  <scstep>
   <time name="diag">   87.09   87.13</time>
   <time name="diis">  241.15  241.25</time>
   <time name="orth">    3.09    3.09</time>
   <time name="total">  367.72  368.79</time>
   <energy>
    <i name="e_fr_energy">    -36.82789256 </i>
    <i name="e_wo_entrp">    -36.82789256 </i>
    <i name="e_0_energy">    -36.82789256 </i>
   </energy>
  </scstep>
  <scstep>
   <time name="diag">   87.24   87.28</time>
   <time name="diis">  231.27  231.36</time>
   <time name="orth">    3.08    3.08</time>
   <time name="total">  358.06  358.24</time>
   <energy>
    <i name="e_fr_energy">    -36.82789256 </i>
    <i name="e_wo_entrp">    -36.82789256 </i>
    <i name="e_0_energy">    -36.82789256 </i>
   </energy>
  </scstep>
  <scstep>
   <time name="diag">   86.92   87.26</time>
   <time name="diis">  219.03  220.23</time>
   <time name="orth">    3.07    3.09</time>
   <time name="total">  345.27  347.10</time>
   <energy>
    <i name="e_fr_energy">    -36.82789256 </i>
    <i name="e_wo_entrp">    -36.82789256 </i>
    <i name="e_0_energy">    -36.82789256 </i>
   </energy>
  </scstep>
  <scstep>
   <time name="diag">   86.96   87.26</time>
   <time name="diis">  209.64  209.71</time>
   <time name="orth">    3.07    3.07</time>
   <time name="total">  302.38  302.77</time>
   <energy>
    <i name="alphaZ">      6.18334092 </i>
    <i name="ewald">   2422.10695658 </i>
    <i name="hartreedc">  -2916.45933559 </i>
    <i name="XCdc">     57.06410343 </i>
    <i name="pawpsdc">    267.17559208 </i>
    <i name="pawaedc">   -272.27971428 </i>
    <i name="eentropy">     -0.00000000 </i>
    <i name="bandstr">   -189.24236261 </i>
    <i name="atom">    588.62352690 </i>
    <i name="e_fr_energy">    -36.82789256 </i>
    <i name="e_wo_entrp">    -36.82789256 </i>
    <i name="e_0_energy">    -36.82789256 </i>
   </energy>
  </scstep>
  <structure>
   <crystal>
    <varray name="basis" >
     <v>       4.25164557       0.00000000       0.00000000 </v>
     <v>       0.00000000       2.54206217       0.00000000 </v>
     <v>       0.00000000       0.00000000      19.50767287 </v>
    </varray>
    <i name="volume">    210.83790140 </i>
    <varray name="rec_basis" >
     <v>       0.23520305       0.00000000       0.00000000 </v>
     <v>       0.00000000       0.39338141       0.00000000 </v>
     <v>       0.00000000       0.00000000       0.05126188 </v>
    </varray>
   </crystal>
   <varray name="positions" >
    <v>       0.00074775       0.00000000       0.00000000 </v>
    <v>       0.16591892       0.50000000       0.00000000 </v>
    <v>       0.50074775       0.50000000       0.00000000 </v>
    <v>       0.66591892       0.00000000       0.00000000 </v>
   </varray>
  </structure>
  <varray name="forces" >
   <v>       0.00236383       0.00000000      -0.00000000 </v>
   <v>      -0.00236383      -0.00000000       0.00000000 </v>
   <v>       0.00236383       0.00000000      -0.00000000 </v>
   <v>      -0.00236383      -0.00000000       0.00000000 </v>
  </varray>
  <varray name="stress" >
   <v>       0.01620665       0.00000000       0.00000000 </v>
   <v>       0.00000000     -49.15282881       0.00000000 </v>
   <v>       0.00000000       0.00000000      -0.01005772 </v>
  </varray>
  <energy>
   <i name="e_fr_energy">    -36.82789256 </i>
   <i name="e_wo_entrp">    -36.82789256 </i>
   <i name="e_0_energy">     -0.00000000 </i>
  </energy>
  <time name="totalsc">11717.3811760.28</time>
 </calculation>
 <calculation>
  <scstep>
   <time name="dav">  331.04  331.76</time>
   <time name="total">  367.54  368.28</time>
   <energy>
    <i name="alphaZ">      6.18334092 </i>
    <i name="ewald">   2422.10404592 </i>
    <i name="hartreedc">  -2916.45806602 </i>
    <i name="XCdc">     57.06401989 </i>
    <i name="pawpsdc">    267.17559347 </i>
    <i name="pawaedc">   -272.27971573 </i>
    <i name="eentropy">     -0.00000000 </i>
    <i name="bandstr">   -189.24063628 </i>
    <i name="atom">    588.62352690 </i>
    <i name="e_fr_energy">    -36.82789093 </i>
    <i name="e_wo_entrp">    -36.82789093 </i>
    <i name="e_0_energy">    -36.82789093 </i>
   </energy>
  </scstep>
  <scstep>
   <time name="diag">   87.17   87.30</time>
   <time name="diis">  351.13  352.73</time>
   <time name="orth">    3.08    3.08</time>
   <time name="total">  477.64  479.62</time>
   <energy>
    <i name="e_fr_energy">    -36.82789103 </i>
    <i name="e_wo_entrp">    -36.82789103 </i>
    <i name="e_0_energy">    -36.82789103 </i>
   </energy>
  </scstep>
  <scstep>
   <time name="diag">   86.68   87.33</time>
   <time name="diis">  353.65  356.38</time>
   <time name="orth">    3.09    3.12</time>
   <time name="total">  479.94  483.44</time>
   <energy>
    <i name="e_fr_energy">    -36.82789094 </i>
    <i name="e_wo_entrp">    -36.82789094 </i>
    <i name="e_0_energy">    -36.82789094 </i>
   </energy>
  </scstep>
  <scstep>
   <time name="diag">   86.78   87.31</time>
   <time name="diis">  359.68  362.98</time>
   <time name="orth">    3.07    3.09</time>
   <time name="total">  485.51  493.96</time>
   <energy>
    <i name="e_fr_energy">    -36.82789094 </i>
    <i name="e_wo_entrp">    -36.82789094 </i>
    <i name="e_0_energy">    -36.82789094 </i>
   </energy>
  </scstep>
  <scstep>
   <time name="diag">   86.48   87.36</time>
   <time name="diis">  357.00  360.36</time>
   <time name="orth">    3.08    3.08</time>
   <time name="total">  482.72  487.35</time>
   <energy>
    <i name="e_fr_energy">    -36.82789094 </i>
    <i name="e_wo_entrp">    -36.82789094 </i>
    <i name="e_0_energy">    -36.82789094 </i>
   </energy>
  </scstep>
  <scstep>
   <time name="diag">   86.68   87.32</time>
   <time name="diis">  257.74  259.98</time>
   <time name="orth">    3.08    3.10</time>
   <time name="total">  383.74  386.93</time>
   <energy>
    <i name="e_fr_energy">    -36.82789094 </i>
    <i name="e_wo_entrp">    -36.82789094 </i>
    <i name="e_0_energy">    -36.82789094 </i>
   </energy>
  </scstep>
  <scstep>
   <time name="diag">   86.54   87.41</time>
   <time name="diis">  233.28  234.94</time>
   <time name="orth">    3.09    3.10</time>
   <time name="total">  359.12  361.97</time>
   <energy>
    <i name="e_fr_energy">    -36.82789094 </i>
    <i name="e_wo_entrp">    -36.82789094 </i>
    <i name="e_0_energy">    -36.82789094 </i>
   </energy>
  </scstep>
  <scstep>
   <time name="diag">   87.03   87.41</time>
   <time name="diis">  224.53  226.05</time>
   <time name="orth">    3.09    3.09</time>
   <time name="total">  317.32  319.30</time>
   <energy>
    <i name="alphaZ">      6.18334092 </i>
    <i name="ewald">   2422.10404592 </i>
    <i name="hartreedc">  -2916.45689006 </i>
    <i name="XCdc">     57.06397027 </i>
    <i name="pawpsdc">    267.17059780 </i>
    <i name="pawaedc">   -272.27469816 </i>
    <i name="eentropy">     -0.00000000 </i>
    <i name="bandstr">   -189.24178453 </i>
    <i name="atom">    588.62352690 </i>
    <i name="e_fr_energy">    -36.82789094 </i>
    <i name="e_wo_entrp">    -36.82789094 </i>
    <i name="e_0_energy">    -36.82789094 </i>
   </energy>
  </scstep>
  <structure>
   <crystal>
    <varray name="basis" >
     <v>       4.25164557       0.00000000       0.00000000 </v>
     <v>       0.00000000       2.54206217       0.00000000 </v>
     <v>       0.00000000       0.00000000      19.50767287 </v>
    </varray>
    <i name="volume">    210.83790140 </i>
    <varray name="rec_basis" >
     <v>       0.23520305       0.00000000       0.00000000 </v>
     <v>       0.00000000       0.39338141       0.00000000 </v>
     <v>       0.00000000       0.00000000       0.05126188 </v>
    </varray>
   </crystal>
   <varray name="positions" >
    <v>       0.00077457       0.00000000      -0.00000000 </v>
    <v>       0.16589210       0.50000000       0.00000000 </v>
    <v>       0.50077457       0.50000000      -0.00000000 </v>
    <v>       0.66589210      -0.00000000       0.00000000 </v>
   </varray>
  </structure>
  <varray name="forces" >
   <v>      -0.00933680       0.00000000      -0.00000000 </v>
   <v>       0.00933680       0.00000000      -0.00000000 </v>
   <v>      -0.00933680      -0.00000000       0.00000000 </v>
   <v>       0.00933680       0.00000000      -0.00000000 </v>
  </varray>
  <varray name="stress" >
   <v>      -0.03191364       0.00000000       0.00000000 </v>
   <v>       0.00000000     -49.12734677       0.00000000 </v>
   <v>       0.00000000       0.00000000      -0.01008951 </v>
  </varray>
  <energy>
   <i name="e_fr_energy">    -36.82789094 </i>
   <i name="e_wo_entrp">    -36.82789094 </i>
   <i name="e_0_energy">     -0.00000000 </i>
  </energy>
  <time name="totalsc"> 3459.71 3487.74</time>
 </calculation>
 <calculation>
  <scstep>
   <time name="dav">  345.30  348.49</time>
   <time name="total">  381.36  384.96</time>
   <energy>
    <i name="alphaZ">      6.18334092 </i>
    <i name="ewald">   2422.10636711 </i>
    <i name="hartreedc">  -2916.45788159 </i>
    <i name="XCdc">     57.06403706 </i>
    <i name="pawpsdc">    267.17061327 </i>
    <i name="pawaedc">   -272.27471385 </i>
    <i name="eentropy">     -0.00000000 </i>
    <i name="bandstr">   -189.24318245 </i>
    <i name="atom">    588.62352690 </i>
    <i name="e_fr_energy">    -36.82789262 </i>
    <i name="e_wo_entrp">    -36.82789262 </i>
    <i name="e_0_energy">    -36.82789262 </i>
   </energy>
  </scstep>
  <scstep>
   <time name="diag">   86.32   87.21</time>
   <time name="diis">  349.69  351.63</time>
   <time name="orth">    3.09    3.10</time>
   <time name="total">  475.37  478.38</time>
   <energy>
    <i name="e_fr_energy">    -36.82789269 </i>
    <i name="e_wo_entrp">    -36.82789269 </i>
    <i name="e_0_energy">    -36.82789269 </i>
   </energy>
  </scstep>
  <scstep>
   <time name="diag">   86.73   87.23</time>
   <time name="diis">  353.06  356.71</time>
   <time name="orth">    3.06    3.09</time>
   <time name="total">  478.81  483.78</time>
   <energy>
    <i name="e_fr_energy">    -36.82789267 </i>
    <i name="e_wo_entrp">    -36.82789267 </i>
    <i name="e_0_energy">    -36.82789267 </i>
   </energy>
  </scstep>
  <scstep>
   <time name="diag">   86.66   87.26</time>
   <time name="diis">  360.55  360.85</time>
   <time name="orth">    3.07    3.09</time>
   <time name="total">  486.53  487.60</time>
   <energy>
    <i name="e_fr_energy">    -36.82789266 </i>
    <i name="e_wo_entrp">    -36.82789266 </i>
    <i name="e_0_energy">    -36.82789266 </i>
   </energy>
  </scstep>
  <scstep>
   <time name="diag">   86.30   87.21</time>
   <time name="diis">  327.85  331.66</time>
   <time name="orth">    3.06    3.09</time>
   <time name="total">  453.22  458.52</time>
   <energy>
    <i name="e_fr_energy">    -36.82789266 </i>
    <i name="e_wo_entrp">    -36.82789266 </i>
    <i name="e_0_energy">    -36.82789266 </i>
   </energy>
  </scstep>
  <scstep>
   <time name="diag">   86.30   87.16</time>
   <time name="diis">  238.25  239.83</time>
   <time name="orth">    3.07    3.09</time>
   <time name="total">  363.58  366.43</time>
   <energy>
    <i name="e_fr_energy">    -36.82789266 </i>
    <i name="e_wo_entrp">    -36.82789266 </i>
    <i name="e_0_energy">    -36.82789266 </i>
   </energy>
  </scstep>
  <scstep>
   <time name="diag">   86.63   87.20</time>
   <time name="diis">  233.57  235.12</time>
   <time name="orth">    3.07    3.08</time>
   <time name="total">  325.96  328.11</time>
   <energy>
    <i name="alphaZ">      6.18334092 </i>
    <i name="ewald">   2422.10636711 </i>
    <i name="hartreedc">  -2916.45878831 </i>
    <i name="XCdc">     57.06407652 </i>
    <i name="pawpsdc">    267.17460048 </i>
    <i name="pawaedc">   -272.27871863 </i>
    <i name="eentropy">     -0.00000000 </i>
    <i name="bandstr">   -189.24229766 </i>
    <i name="atom">    588.62352690 </i>
    <i name="e_fr_energy">    -36.82789266 </i>
    <i name="e_wo_entrp">    -36.82789266 </i>
    <i name="e_0_energy">    -36.82789266 </i>
   </energy>
  </scstep>
  <structure>
   <crystal>
    <varray name="basis" >
     <v>       4.25164557       0.00000000       0.00000000 </v>
     <v>       0.00000000       2.54206217       0.00000000 </v>
     <v>       0.00000000       0.00000000      19.50767287 </v>
    </varray>
    <i name="volume">    210.83790140 </i>
    <varray name="rec_basis" >
     <v>       0.23520305       0.00000000       0.00000000 </v>
     <v>       0.00000000       0.39338141       0.00000000 </v>
     <v>       0.00000000       0.00000000       0.05126188 </v>
    </varray>
   </crystal>
   <varray name="positions" >
    <v>       0.00075317       0.00000000      -0.00000000 </v>
    <v>       0.16591350       0.50000000       0.00000000 </v>
    <v>       0.50075317       0.50000000       0.00000000 </v>
    <v>       0.66591350      -0.00000000       0.00000000 </v>
   </varray>
  </structure>
  <varray name="forces" >
   <v>      -0.00000952      -0.00000000       0.00000000 </v>
   <v>       0.00000952       0.00000000      -0.00000000 </v>
   <v>      -0.00000952      -0.00000000       0.00000000 </v>
   <v>       0.00000952       0.00000000      -0.00000000 </v>
  </varray>
  <varray name="stress" >
   <v>       0.00645525       0.00000000       0.00000000 </v>
   <v>       0.00000000     -49.14763443       0.00000000 </v>
   <v>       0.00000000       0.00000000      -0.00997516 </v>
  </varray>
  <energy>
   <i name="e_fr_energy">    -36.82789266 </i>
   <i name="e_wo_entrp">    -36.82789266 </i>
   <i name="e_0_energy">     -0.00000000 </i>
  </energy>
  <time name="totalsc"> 3071.71 3095.30</time>
 </calculation>
 <calculation>
  <scstep>
   <time name="dav">  292.95  294.10</time>
   <time name="total">  329.25  330.66</time>
   <energy>
    <i name="alphaZ">      6.18334092 </i>
    <i name="ewald">   2422.10636948 </i>
    <i name="hartreedc">  -2916.45879692 </i>
    <i name="XCdc">     57.06407660 </i>
    <i name="pawpsdc">    267.17459081 </i>
    <i name="pawaedc">   -272.27870891 </i>
    <i name="eentropy">     -0.00000000 </i>
    <i name="bandstr">   -189.24229155 </i>
    <i name="atom">    588.62352690 </i>
    <i name="e_fr_energy">    -36.82789266 </i>
    <i name="e_wo_entrp">    -36.82789266 </i>
    <i name="e_0_energy">    -36.82789266 </i>
   </energy>
  </scstep>
  <scstep>
   <time name="diag">   87.10   87.24</time>
   <time name="diis">  223.83  224.57</time>
   <time name="orth">    3.07    3.09</time>
   <time name="total">  350.48  351.49</time>
   <energy>
    <i name="e_fr_energy">    -36.82789266 </i>
    <i name="e_wo_entrp">    -36.82789266 </i>
    <i name="e_0_energy">    -36.82789266 </i>
   </energy>
  </scstep>
  <scstep>
   <time name="diag">   87.06   87.24</time>
   <time name="diis">  216.30  216.64</time>
   <time name="orth">    3.07    3.07</time>
   <time name="total">  342.82  343.48</time>
   <energy>
    <i name="e_fr_energy">    -36.82789266 </i>
    <i name="e_wo_entrp">    -36.82789266 </i>
    <i name="e_0_energy">    -36.82789266 </i>
   </energy>
  </scstep>
  <scstep>
   <time name="diag">   87.01   87.24</time>
   <time name="diis">  211.28  211.82</time>
   <time name="orth">    3.09    3.09</time>
   <time name="total">  337.71  338.68</time>
   <energy>
    <i name="e_fr_energy">    -36.82789266 </i>
    <i name="e_wo_entrp">    -36.82789266 </i>
    <i name="e_0_energy">    -36.82789266 </i>
   </energy>
  </scstep>
  <scstep>
   <time name="diag">   87.08   87.25</time>
   <time name="diis">  206.53  207.31</time>
   <time name="orth">    3.06    3.09</time>
   <time name="total">  332.81  334.22</time>
   <energy>
    <i name="e_fr_energy">    -36.82789266 </i>
    <i name="e_wo_entrp">    -36.82789266 </i>
    <i name="e_0_energy">    -36.82789266 </i>
   </energy>
  </scstep>
  <scstep>
   <time name="diag">   86.76   87.24</time>
   <time name="diis">  198.52  199.05</time>
   <time name="orth">    3.09    3.09</time>
   <time name="total">  291.04  292.19</time>
   <energy>
    <i name="alphaZ">      6.18334092 </i>
    <i name="ewald">   2422.10636948 </i>
    <i name="hartreedc">  -2916.45883833 </i>
    <i name="XCdc">     57.06407683 </i>
    <i name="pawpsdc">    267.17458915 </i>
    <i name="pawaedc">   -272.27870716 </i>
    <i name="eentropy">     -0.00000000 </i>
    <i name="bandstr">   -189.24225047 </i>
    <i name="atom">    588.62352690 </i>
    <i name="e_fr_energy">    -36.82789266 </i>
    <i name="e_wo_entrp">    -36.82789266 </i>
    <i name="e_0_energy">    -36.82789266 </i>
   </energy>
  </scstep>
  <structure>
   <crystal>
    <varray name="basis" >
     <v>       4.25164557       0.00000000       0.00000000 </v>
     <v>       0.00000000       2.54206217       0.00000000 </v>
     <v>       0.00000000       0.00000000      19.50767287 </v>
    </varray>
    <i name="volume">    210.83790140 </i>
    <varray name="rec_basis" >
     <v>       0.23520305       0.00000000       0.00000000 </v>
     <v>       0.00000000       0.39338141       0.00000000 </v>
     <v>       0.00000000       0.00000000       0.05126188 </v>
    </varray>
   </crystal>
   <varray name="positions" >
    <v>       0.00075314      -0.00000000      -0.00000000 </v>
    <v>       0.16591352       0.50000000      -0.00000000 </v>
    <v>       0.50075314       0.50000000       0.00000000 </v>
    <v>       0.66591352       0.00000000      -0.00000000 </v>
   </varray>
  </structure>
  <varray name="forces" >
   <v>       0.00001170       0.00000000      -0.00000000 </v>
   <v>      -0.00001170      -0.00000000       0.00000000 </v>
   <v>       0.00001170       0.00000000      -0.00000000 </v>
   <v>      -0.00001170      -0.00000000       0.00000000 </v>
  </varray>
  <varray name="stress" >
   <v>       0.00653555       0.00000000       0.00000000 </v>
   <v>       0.00000000     -49.14770452       0.00000000 </v>
   <v>       0.00000000       0.00000000      -0.01001731 </v>
  </varray>
  <energy>
   <i name="e_fr_energy">    -36.82789266 </i>
   <i name="e_wo_entrp">    -36.82789266 </i>
   <i name="e_0_energy">     -0.00000000 </i>
  </energy>
  <time name="totalsc"> 2092.32 2099.77</time>
 </calculation>
 <calculation>
  <scstep>
   <time name="dav">  266.68  268.79</time>
   <time name="total">  302.78  305.36</time>
   <energy>
    <i name="alphaZ">      6.18334092 </i>
    <i name="ewald">   2422.10636817 </i>
    <i name="hartreedc">  -2916.45883791 </i>
    <i name="XCdc">     57.06407679 </i>
    <i name="pawpsdc">    267.17458911 </i>
    <i name="pawaedc">   -272.27870712 </i>
    <i name="eentropy">     -0.00000000 </i>
    <i name="bandstr">   -189.24224954 </i>
    <i name="atom">    588.62352690 </i>
    <i name="e_fr_energy">    -36.82789266 </i>
    <i name="e_wo_entrp">    -36.82789266 </i>
    <i name="e_0_energy">    -36.82789266 </i>
   </energy>
  </scstep>
  <scstep>
   <time name="diag">   86.50   87.36</time>
   <time name="diis">  170.85  172.20</time>
   <time name="orth">    3.07    3.10</time>
   <time name="total">  296.62  299.23</time>
   <energy>
    <i name="e_fr_energy">    -36.82789266 </i>
    <i name="e_wo_entrp">    -36.82789266 </i>
    <i name="e_0_energy">    -36.82789266 </i>
   </energy>
  </scstep>
  <scstep>
   <time name="diag">   86.46   87.24</time>
   <time name="diis">  169.53  170.19</time>
   <time name="orth">    3.08    3.08</time>
   <time name="total">  295.27  297.05</time>
   <energy>
    <i name="e_fr_energy">    -36.82789266 </i>
    <i name="e_wo_entrp">    -36.82789266 </i>
    <i name="e_0_energy">    -36.82789266 </i>
   </energy>
  </scstep>
  <scstep>
   <time name="diag">   86.50   87.33</time>
   <time name="diis">  168.32  169.62</time>
   <time name="orth">    3.08    3.10</time>
   <time name="total">  294.14  296.65</time>
   <energy>
    <i name="e_fr_energy">    -36.82789266 </i>
    <i name="e_wo_entrp">    -36.82789266 </i>
    <i name="e_0_energy">    -36.82789266 </i>
   </energy>
  </scstep>
  <scstep>
   <time name="diag">   86.70   87.29</time>
   <time name="diis">  168.69  168.83</time>
   <time name="orth">    3.09    3.09</time>
   <time name="total">  261.23  261.97</time>
   <energy>
    <i name="alphaZ">      6.18334092 </i>
    <i name="ewald">   2422.10636817 </i>
    <i name="hartreedc">  -2916.45883325 </i>
    <i name="XCdc">     57.06407662 </i>
    <i name="pawpsdc">    267.17458375 </i>
    <i name="pawaedc">   -272.27870173 </i>
    <i name="eentropy">     -0.00000000 </i>
    <i name="bandstr">   -189.24225406 </i>
    <i name="atom">    588.62352690 </i>
    <i name="e_fr_energy">    -36.82789266 </i>
    <i name="e_wo_entrp">    -36.82789266 </i>
    <i name="e_0_energy">    -36.82789266 </i>
   </energy>
  </scstep>
  <structure>
   <crystal>
    <varray name="basis" >
     <v>       4.25164557       0.00000000       0.00000000 </v>
     <v>       0.00000000       2.54206217       0.00000000 </v>
     <v>       0.00000000       0.00000000      19.50767287 </v>
    </varray>
    <i name="volume">    210.83790140 </i>
    <varray name="rec_basis" >
     <v>       0.23520305       0.00000000       0.00000000 </v>
     <v>       0.00000000       0.39338141       0.00000000 </v>
     <v>       0.00000000       0.00000000       0.05126188 </v>
    </varray>
   </crystal>
   <varray name="positions" >
    <v>       0.00075316       0.00000000      -0.00000000 </v>
    <v>       0.16591351       0.50000000      -0.00000000 </v>
    <v>       0.50075316       0.50000000       0.00000000 </v>
    <v>       0.66591351       0.00000000      -0.00000000 </v>
   </varray>
  </structure>
  <varray name="forces" >
   <v>       0.00000167       0.00000000       0.00000000 </v>
   <v>      -0.00000167       0.00000000       0.00000000 </v>
   <v>       0.00000167      -0.00000000       0.00000000 </v>
   <v>      -0.00000167       0.00000000       0.00000000 </v>
  </varray>
  <varray name="stress" >
   <v>       0.00649834       0.00000000       0.00000000 </v>
   <v>       0.00000000     -49.14766921       0.00000000 </v>
   <v>       0.00000000       0.00000000      -0.01004369 </v>
  </varray>
  <energy>
   <i name="e_fr_energy">    -36.82789266 </i>
   <i name="e_wo_entrp">    -36.82789266 </i>
   <i name="e_0_energy">     -0.00000000 </i>
  </energy>
  <time name="totalsc"> 1558.99 1569.41</time>
 </calculation>
 <calculation>
  <scstep>
   <time name="dav">  264.93  265.43</time>
   <time name="total">  301.35  302.04</time>
   <energy>
    <i name="alphaZ">      6.18334092 </i>
    <i name="ewald">   2422.10636796 </i>
    <i name="hartreedc">  -2916.45883304 </i>
    <i name="XCdc">     57.06407661 </i>
    <i name="pawpsdc">    267.17458371 </i>
    <i name="pawaedc">   -272.27870168 </i>
    <i name="eentropy">     -0.00000000 </i>
    <i name="bandstr">   -189.24225405 </i>
    <i name="atom">    588.62352690 </i>
    <i name="e_fr_energy">    -36.82789266 </i>
    <i name="e_wo_entrp">    -36.82789266 </i>
    <i name="e_0_energy">    -36.82789266 </i>
   </energy>
  </scstep>
  <scstep>
   <time name="diag">   86.65   87.24</time>
   <time name="diis">  163.94  164.04</time>
   <time name="orth">    3.09    3.09</time>
   <time name="total">  290.01  290.95</time>
   <energy>
    <i name="e_fr_energy">    -36.82789266 </i>
    <i name="e_wo_entrp">    -36.82789266 </i>
    <i name="e_0_energy">    -36.82789266 </i>
   </energy>
  </scstep>
  <scstep>
   <time name="diag">   86.67   87.27</time>
   <time name="diis">  163.02  163.95</time>
   <time name="orth">    3.07    3.09</time>
   <time name="total">  289.13  291.00</time>
   <energy>
    <i name="e_fr_energy">    -36.82789266 </i>
    <i name="e_wo_entrp">    -36.82789266 </i>
    <i name="e_0_energy">    -36.82789266 </i>
   </energy>
  </scstep>
  <scstep>
   <time name="diag">   86.72   87.23</time>
   <time name="diis">  155.90  156.22</time>
   <time name="orth">    3.07    3.07</time>
   <time name="total">  281.88  283.08</time>
   <energy>
    <i name="e_fr_energy">    -36.82789266 </i>
    <i name="e_wo_entrp">    -36.82789266 </i>
    <i name="e_0_energy">    -36.82789266 </i>
   </energy>
  </scstep>
  <scstep>
   <time name="diag">   86.44   87.31</time>
   <time name="diis">  155.19  156.70</time>
   <time name="orth">    3.07    3.07</time>
   <time name="total">  247.41  249.85</time>
   <energy>
    <i name="alphaZ">      6.18334092 </i>
    <i name="ewald">   2422.10636796 </i>
    <i name="hartreedc">  -2916.45883373 </i>
    <i name="XCdc">     57.06407664 </i>
    <i name="pawpsdc">    267.17458381 </i>
    <i name="pawaedc">   -272.27870178 </i>
    <i name="eentropy">     -0.00000000 </i>
    <i name="bandstr">   -189.24225339 </i>
    <i name="atom">    588.62352690 </i>
    <i name="e_fr_energy">    -36.82789266 </i>
    <i name="e_wo_entrp">    -36.82789266 </i>
    <i name="e_0_energy">    -36.82789266 </i>
   </energy>
  </scstep>
  <structure>
   <crystal>
    <varray name="basis" >
     <v>       4.25164557       0.00000000       0.00000000 </v>
     <v>       0.00000000       2.54206217       0.00000000 </v>
     <v>       0.00000000       0.00000000      19.50767287 </v>
    </varray>
    <i name="volume">    210.83790140 </i>
    <varray name="rec_basis" >
     <v>       0.23520305       0.00000000       0.00000000 </v>
     <v>       0.00000000       0.39338141       0.00000000 </v>
     <v>       0.00000000       0.00000000       0.05126188 </v>
    </varray>
   </crystal>
   <varray name="positions" >
    <v>       0.00075316       0.00000000      -0.00000000 </v>
    <v>       0.16591351       0.50000000      -0.00000000 </v>
    <v>       0.50075316       0.50000000       0.00000000 </v>
    <v>       0.66591351       0.00000000      -0.00000000 </v>
   </varray>
  </structure>
  <varray name="forces" >
   <v>       0.00000120       0.00000000      -0.00000000 </v>
   <v>      -0.00000120      -0.00000000       0.00000000 </v>
   <v>       0.00000120      -0.00000000      -0.00000000 </v>
   <v>      -0.00000120       0.00000000       0.00000000 </v>
  </varray>
  <varray name="stress" >
   <v>       0.00649575       0.00000000       0.00000000 </v>
   <v>       0.00000000     -49.14767312       0.00000000 </v>
   <v>       0.00000000       0.00000000      -0.01003364 </v>
  </varray>
  <energy>
   <i name="e_fr_energy">    -36.82789266 </i>
   <i name="e_wo_entrp">    -36.82789266 </i>
   <i name="e_0_energy">     -0.00000000 </i>
  </energy>
  <time name="totalsc"> 1518.63 1526.34</time>
 </calculation>
 <calculation>
  <scstep>
   <time name="dav">  272.75  274.82</time>
   <time name="total">  309.18  311.45</time>
   <energy>
    <i name="alphaZ">      6.18334092 </i>
    <i name="ewald">   2422.10636741 </i>
    <i name="hartreedc">  -2916.45883351 </i>
    <i name="XCdc">     57.06407662 </i>
    <i name="pawpsdc">    267.17458381 </i>
    <i name="pawaedc">   -272.27870178 </i>
    <i name="eentropy">     -0.00000000 </i>
    <i name="bandstr">   -189.24225304 </i>
    <i name="atom">    588.62352690 </i>
    <i name="e_fr_energy">    -36.82789266 </i>
    <i name="e_wo_entrp">    -36.82789266 </i>
    <i name="e_0_energy">    -36.82789266 </i>
   </energy>
  </scstep>
  <scstep>
   <time name="diag">   86.52   87.27</time>
   <time name="diis">  138.27  139.23</time>
   <time name="orth">    3.09    3.09</time>
   <time name="total">  264.10  266.20</time>
   <energy>
    <i name="e_fr_energy">    -36.82789266 </i>
    <i name="e_wo_entrp">    -36.82789266 </i>
    <i name="e_0_energy">    -36.82789266 </i>
   </energy>
  </scstep>
  <scstep>
   <time name="diag">   86.55   87.22</time>
   <time name="diis">  133.87  135.13</time>
   <time name="orth">    3.11    3.12</time>
   <time name="total">  259.67  262.08</time>
   <energy>
    <i name="e_fr_energy">    -36.82789266 </i>
    <i name="e_wo_entrp">    -36.82789266 </i>
    <i name="e_0_energy">    -36.82789266 </i>
   </energy>
  </scstep>
  <scstep>
   <time name="diag">   86.52   87.32</time>
   <time name="diis">  127.34  128.39</time>
   <time name="orth">    3.07    3.07</time>
   <time name="total">  253.06  255.38</time>
   <energy>
    <i name="e_fr_energy">    -36.82789266 </i>
    <i name="e_wo_entrp">    -36.82789266 </i>
    <i name="e_0_energy">    -36.82789266 </i>
   </energy>
  </scstep>
  <scstep>
   <time name="diag">   86.69   87.25</time>
   <time name="diis">  128.31  128.54</time>
   <time name="orth">    3.07    3.07</time>
   <time name="total">  220.80  221.63</time>
   <energy>
    <i name="alphaZ">      6.18334092 </i>
    <i name="ewald">   2422.10636741 </i>
    <i name="hartreedc">  -2916.45883252 </i>
    <i name="XCdc">     57.06407659 </i>
    <i name="pawpsdc">    267.17458222 </i>
    <i name="pawaedc">   -272.27870018 </i>
    <i name="eentropy">     -0.00000000 </i>
    <i name="bandstr">   -189.24225400 </i>
    <i name="atom">    588.62352690 </i>
    <i name="e_fr_energy">    -36.82789266 </i>
    <i name="e_wo_entrp">    -36.82789266 </i>
    <i name="e_0_energy">    -36.82789266 </i>
   </energy>
  </scstep>
  <structure>
   <crystal>
    <varray name="basis" >
     <v>       4.25164557       0.00000000       0.00000000 </v>
     <v>       0.00000000       2.54206217       0.00000000 </v>
     <v>       0.00000000       0.00000000      19.50767287 </v>
    </varray>
    <i name="volume">    210.83790140 </i>
    <varray name="rec_basis" >
     <v>       0.23520305       0.00000000       0.00000000 </v>
     <v>       0.00000000       0.39338141       0.00000000 </v>
     <v>       0.00000000       0.00000000       0.05126188 </v>
    </varray>
   </crystal>
   <varray name="positions" >
    <v>       0.00075316       0.00000000      -0.00000000 </v>
    <v>       0.16591350       0.50000000       0.00000000 </v>
    <v>       0.50075316       0.50000000      -0.00000000 </v>
    <v>       0.66591350       0.00000000       0.00000000 </v>
   </varray>
  </structure>
  <varray name="forces" >
   <v>      -0.00000061      -0.00000000      -0.00000000 </v>
   <v>       0.00000061       0.00000000       0.00000000 </v>
   <v>      -0.00000061      -0.00000000       0.00000000 </v>
   <v>       0.00000061       0.00000000       0.00000000 </v>
  </varray>
  <varray name="stress" >
   <v>       0.00649098       0.00000000       0.00000000 </v>
   <v>       0.00000000     -49.14766983       0.00000000 </v>
   <v>       0.00000000       0.00000000      -0.01004121 </v>
  </varray>
  <energy>
   <i name="e_fr_energy">    -36.82789266 </i>
   <i name="e_wo_entrp">    -36.82789266 </i>
   <i name="e_0_energy">     -0.00000000 </i>
  </energy>
  <time name="totalsc"> 1407.44 1417.83</time>
  <eigenvalues>
   <array>
    <dimension dim="1">band</dimension>
    <dimension dim="2">kpoint</dimension>
    <dimension dim="3">spin</dimension>
    <field>eigene</field>
    <field>occ</field>
    <set>
     <set comment="spin 1">
      <set comment="kpoint 1">
       <r>  -22.0455    1.0000 </r>
       <r>  -16.6388    1.0000 </r>
       <r>  -15.8438    1.0000 </r>
       <r>  -10.1983    1.0000 </r>
       <r>   -9.5327    1.0000 </r>
       <r>   -6.0260    1.0000 </r>
       <r>   -5.7390    1.0000 </r>
       <r>   -4.8618    1.0000 </r>
       <r>   -1.1615    0.0000 </r>
       <r>    0.5492    0.0000 </r>
       <r>    1.3466    0.0000 </r>
       <r>    1.7422    0.0000 </r>
      </set>
      <set comment="kpoint 2">
       <r>  -22.0351    1.0000 </r>
       <r>  -16.8430    1.0000 </r>
       <r>  -15.6247    1.0000 </r>
       <r>  -10.1860    1.0000 </r>
       <r>   -9.5222    1.0000 </r>
       <r>   -6.0500    1.0000 </r>
       <r>   -5.7786    1.0000 </r>
       <r>   -4.9328    1.0000 </r>
       <r>   -1.0759    0.0000 </r>
       <r>    0.5633    0.0000 </r>
       <r>    1.3608    0.0000 </r>
       <r>    1.7566    0.0000 </r>
      </set>
      <set comment="kpoint 3">
       <r>  -22.0040    1.0000 </r>
       <r>  -17.2158    1.0000 </r>
       <r>  -15.2072    1.0000 </r>
       <r>  -10.1490    1.0000 </r>
       <r>   -9.4909    1.0000 </r>
       <r>   -6.1206    1.0000 </r>
       <r>   -5.8962    1.0000 </r>
       <r>   -5.1281    1.0000 </r>
       <r>   -0.8371    0.0000 </r>
       <r>    0.6055    0.0000 </r>
       <r>    1.4035    0.0000 </r>
       <r>    1.7999    0.0000 </r>
      </set>
      <set comment="kpoint 4">
       <r>  -21.9520    1.0000 </r>
       <r>  -17.6119    1.0000 </r>
       <r>  -14.7368    1.0000 </r>
       <r>  -10.0875    1.0000 </r>
       <r>   -9.4388    1.0000 </r>
       <r>   -6.2338    1.0000 </r>
       <r>   -6.0875    1.0000 </r>
       <r>   -5.4097    1.0000 </r>
       <r>   -0.4838    0.0000 </r>
       <r>    0.6759    0.0000 </r>
       <r>    1.4745    0.0000 </r>
       <r>    1.8719    0.0000 </r>
      </set>
      <set comment="kpoint 5">
       <r>  -21.8793    1.0000 </r>
       <r>  -18.0036    1.0000 </r>
       <r>  -14.2418    1.0000 </r>
       <r>  -10.0015    1.0000 </r>
       <r>   -9.3663    1.0000 </r>
       <r>   -6.3838    1.0000 </r>
       <r>   -6.3468    1.0000 </r>
       <r>   -5.7416    1.0000 </r>
       <r>   -0.0526    0.0000 </r>
       <r>    0.7744    0.0000 </r>
       <r>    1.5740    0.0000 </r>
       <r>    1.9727    0.0000 </r>
      </set>
      <set comment="kpoint 6">
       <r>  -21.7859    1.0000 </r>
       <r>  -18.3831    1.0000 </r>
       <r>  -13.7306    1.0000 </r>
       <r>   -9.8912    1.0000 </r>
       <r>   -9.2737    1.0000 </r>
       <r>   -6.6664    1.0000 </r>
       <r>   -6.5638    1.0000 </r>
       <r>   -6.0986    1.0000 </r>
       <r>    0.4298    0.0000 </r>
       <r>    0.9011    0.0000 </r>
       <r>    1.7019    0.0000 </r>
       <r>    2.1023    0.0000 </r>
      </set>
      <set comment="kpoint 7">
       <r>  -21.6719    1.0000 </r>
[...]
       <r>   -8.9679    1.0000 </r>
       <r>   -5.6769    1.0000 </r>
       <r>   -5.6769    1.0000 </r>
       <r>   -0.6011    0.0000 </r>
       <r>   -0.6011    0.0000 </r>
       <r>    4.8026    0.0000 </r>
       <r>    4.8026    0.0000 </r>
      </set>
      <set comment="kpoint 209">
       <r>  -18.8372    1.0000 </r>
       <r>  -17.1703    1.0000 </r>
       <r>  -13.8194    1.0000 </r>
       <r>  -12.2891    1.0000 </r>
       <r>  -12.2775    1.0000 </r>
       <r>  -10.8408    1.0000 </r>
       <r>   -6.5129    1.0000 </r>
       <r>   -4.7318    1.0000 </r>
       <r>   -0.9977    0.0000 </r>
       <r>    1.0333    0.0000 </r>
       <r>    4.9898    0.0000 </r>
       <r>    5.7791    0.0000 </r>
      </set>
      <set comment="kpoint 210">
       <r>  -18.8275    1.0000 </r>
       <r>  -17.1629    1.0000 </r>
       <r>  -13.9133    1.0000 </r>
       <r>  -12.3668    1.0000 </r>
       <r>  -12.1866    1.0000 </r>
       <r>  -10.7529    1.0000 </r>
       <r>   -6.5041    1.0000 </r>
       <r>   -4.7337    1.0000 </r>
       <r>   -1.0092    0.0000 </r>
       <r>    1.0073    0.0000 </r>
       <r>    5.0036    0.0000 </r>
       <r>    5.7954    0.0000 </r>
      </set>
      <set comment="kpoint 211">
       <r>  -18.7982    1.0000 </r>
       <r>  -17.1412    1.0000 </r>
       <r>  -14.1413    1.0000 </r>
       <r>  -12.5872    1.0000 </r>
       <r>  -11.9327    1.0000 </r>
       <r>  -10.5372    1.0000 </r>
       <r>   -6.4778    1.0000 </r>
       <r>   -4.7398    1.0000 </r>
       <r>   -1.0418    0.0000 </r>
       <r>    0.9310    0.0000 </r>
       <r>    5.0448    0.0000 </r>
       <r>    5.8438    0.0000 </r>
      </set>
      <set comment="kpoint 212">
       <r>  -18.7496    1.0000 </r>
       <r>  -17.1066    1.0000 </r>
       <r>  -14.4263    1.0000 </r>
       <r>  -12.8699    1.0000 </r>
       <r>  -11.6045    1.0000 </r>
       <r>  -10.2649    1.0000 </r>
       <r>   -6.4342    1.0000 </r>
       <r>   -4.7517    1.0000 </r>
       <r>   -1.0901    0.0000 </r>
       <r>    0.8102    0.0000 </r>
       <r>    5.1132    0.0000 </r>
       <r>    5.9232    0.0000 </r>
      </set>
      <set comment="kpoint 213">
       <r>  -18.6818    1.0000 </r>
       <r>  -17.0616    1.0000 </r>
       <r>  -14.7252    1.0000 </r>
       <r>  -13.1764    1.0000 </r>
       <r>  -11.2451    1.0000 </r>
       <r>   -9.9776    1.0000 </r>
       <r>   -6.3740    1.0000 </r>
       <r>   -4.7718    1.0000 </r>
       <r>   -1.1459    0.0000 </r>
       <r>    0.6527    0.0000 </r>
       <r>    5.2079    0.0000 </r>
       <r>    6.0323    0.0000 </r>
      </set>
      <set comment="kpoint 214">
       <r>  -18.5951    1.0000 </r>
       <r>  -17.0115    1.0000 </r>
       <r>  -15.0145    1.0000 </r>
       <r>  -13.4890    1.0000 </r>
       <r>  -10.8760    1.0000 </r>
       <r>   -9.6979    1.0000 </r>
       <r>   -6.2978    1.0000 </r>
       <r>   -4.8029    1.0000 </r>
       <r>   -1.1997    0.0000 </r>
       <r>    0.4677    0.0000 </r>
       <r>    5.3260    0.0000 </r>
       <r>    6.1803    0.0000 </r>
      </set>
      <set comment="kpoint 215">
       <r>  -18.4899    1.0000 </r>
       <r>  -16.9653    1.0000 </r>
       <r>  -15.2763    1.0000 </r>
       <r>  -13.7983    1.0000 </r>
       <r>  -10.5106    1.0000 </r>
       <r>   -9.4412    1.0000 </r>
       <r>   -6.2069    1.0000 </r>
       <r>   -4.8482    1.0000 </r>
       <r>   -1.2417    0.0000 </r>
       <r>    0.2644    0.0000 </r>
       <r>    5.4427    0.0000 </r>
       <r>    5.7713    0.0000 </r>
      </set>
      <set comment="kpoint 216">
       <r>  -18.3667    1.0000 </r>
       <r>  -16.9392    1.0000 </r>
       <r>  -15.4899    1.0000 </r>
       <r>  -14.0989    1.0000 </r>
       <r>  -10.1595    1.0000 </r>
       <r>   -9.2194    1.0000 </r>
       <r>   -6.1025    1.0000 </r>
       <r>   -4.9099    1.0000 </r>
       <r>   -1.2632    0.0000 </r>
       <r>    0.0514    0.0000 </r>
       <r>    5.2930    0.0000 </r>
       <r>    5.7163    0.0000 </r>
      </set>
      <set comment="kpoint 217">
       <r>  -18.2264    1.0000 </r>
       <r>  -16.9560    1.0000 </r>
       <r>  -15.6295    1.0000 </r>
       <r>  -14.3868    1.0000 </r>
       <r>   -9.8321    1.0000 </r>
       <r>   -9.0434    1.0000 </r>
       <r>   -5.9864    1.0000 </r>
       <r>   -4.9894    1.0000 </r>
       <r>   -1.2572    0.0000 </r>
       <r>   -0.1634    0.0000 </r>
       <r>    5.0040    0.0000 </r>
       <r>    5.8203    0.0000 </r>
      </set>
      <set comment="kpoint 218">
       <r>  -18.0702    1.0000 </r>
       <r>  -17.0344    1.0000 </r>
       <r>  -15.6747    1.0000 </r>
       <r>  -14.6588    1.0000 </r>
       <r>   -9.5379    1.0000 </r>
       <r>   -8.9223    1.0000 </r>
       <r>   -5.8607    1.0000 </r>
       <r>   -5.0862    1.0000 </r>
       <r>   -1.2197    0.0000 </r>
       <r>   -0.3732    0.0000 </r>
       <r>    4.7840    0.0000 </r>
       <r>    5.4203    0.0000 </r>
      </set>
      <set comment="kpoint 219">
       <r>  -17.8999    1.0000 </r>
       <r>  -17.1705    1.0000 </r>
       <r>  -15.6284    1.0000 </r>
       <r>  -14.9119    1.0000 </r>
       <r>   -9.2865    1.0000 </r>
       <r>   -8.8635    1.0000 </r>
       <r>   -5.7282    1.0000 </r>
       <r>   -5.1985    1.0000 </r>
       <r>   -1.1490    0.0000 </r>
       <r>   -0.5716    0.0000 </r>
       <r>    4.6535    0.0000 </r>
       <r>    5.0909    0.0000 </r>
      </set>
      <set comment="kpoint 220">
       <r>  -17.7182    1.0000 </r>
       <r>  -17.3427    1.0000 </r>
       <r>  -15.5115    1.0000 </r>
       <r>  -15.1424    1.0000 </r>
       <r>   -9.0867    1.0000 </r>
       <r>   -8.8712    1.0000 </r>
       <r>   -5.5919    1.0000 </r>
       <r>   -5.3229    1.0000 </r>
       <r>   -1.0458    0.0000 </r>
       <r>   -0.7531    0.0000 </r>
       <r>    4.6193    0.0000 </r>
       <r>    4.8423    0.0000 </r>
      </set>
      <set comment="kpoint 221">
       <r>  -17.5298    1.0000 </r>
       <r>  -17.5298    1.0000 </r>
       <r>  -15.3450    1.0000 </r>
       <r>  -15.3450    1.0000 </r>
       <r>   -8.9465    1.0000 </r>
       <r>   -8.9465    1.0000 </r>
       <r>   -5.4554    1.0000 </r>
       <r>   -5.4554    1.0000 </r>
       <r>   -0.9126    0.0000 </r>
       <r>   -0.9126    0.0000 </r>
       <r>    4.6831    0.0000 </r>
       <r>    4.6831    0.0000 </r>
      </set>
      <set comment="kpoint 222">
       <r>  -18.4422    1.0000 </r>
       <r>  -17.6049    1.0000 </r>
       <r>  -13.4623    1.0000 </r>
       <r>  -12.6906    1.0000 </r>
       <r>  -11.9618    1.0000 </r>
       <r>  -11.2331    1.0000 </r>
       <r>   -6.0809    1.0000 </r>
       <r>   -5.1857    1.0000 </r>
       <r>   -0.5214    0.0000 </r>
       <r>    0.4961    0.0000 </r>
       <r>    5.5523    0.0000 </r>
       <r>    6.3114    0.0000 </r>
      </set>
      <set comment="kpoint 223">
       <r>  -18.4326    1.0000 </r>
       <r>  -17.5964    1.0000 </r>
       <r>  -13.5571    1.0000 </r>
       <r>  -12.7825    1.0000 </r>
       <r>  -11.8612    1.0000 </r>
       <r>  -11.1401    1.0000 </r>
       <r>   -6.0733    1.0000 </r>
       <r>   -5.1829    1.0000 </r>
       <r>   -0.5388    0.0000 </r>
       <r>    0.4720    0.0000 </r>
       <r>    5.5660    0.0000 </r>
       <r>    6.3285    0.0000 </r>
      </set>
      <set comment="kpoint 224">
       <r>  -18.4041    1.0000 </r>
       <r>  -17.5709    1.0000 </r>
       <r>  -13.7878    1.0000 </r>
       <r>  -13.0081    1.0000 </r>
       <r>  -11.6131    1.0000 </r>
       <r>  -10.9117    1.0000 </r>
       <r>   -6.0508    1.0000 </r>
       <r>   -5.1749    1.0000 </r>
       <r>   -0.5892    0.0000 </r>
       <r>    0.4016    0.0000 </r>
       <r>    5.6070    0.0000 </r>
       <r>    6.3792    0.0000 </r>
      </set>
      <set comment="kpoint 225">
       <r>  -18.3567    1.0000 </r>
       <r>  -17.5290    1.0000 </r>
       <r>  -14.0783    1.0000 </r>
       <r>  -13.2955    1.0000 </r>
       <r>  -11.2949    1.0000 </r>
       <r>  -10.6218    1.0000 </r>
       <r>   -6.0139    1.0000 </r>
       <r>   -5.1628    1.0000 </r>
       <r>   -0.6671    0.0000 </r>
       <r>    0.2905    0.0000 </r>
       <r>    5.6748    0.0000 </r>
       <r>    6.4620    0.0000 </r>
      </set>
      <set comment="kpoint 226">
       <r>  -18.2907    1.0000 </r>
       <r>  -17.4718    1.0000 </r>
       <r>  -14.3874    1.0000 </r>
       <r>  -13.6055    1.0000 </r>
       <r>  -10.9492    1.0000 </r>
       <r>  -10.3124    1.0000 </r>
       <r>   -5.9633    1.0000 </r>
       <r>   -5.1485    1.0000 </r>
       <r>   -0.7643    0.0000 </r>
       <r>    0.1465    0.0000 </r>
       <r>    5.7680    0.0000 </r>
       <r>    6.5751    0.0000 </r>
      </set>
      <set comment="kpoint 227">
       <r>  -18.2066    1.0000 </r>
       <r>  -17.4014    1.0000 </r>
       <r>  -14.6952    1.0000 </r>
       <r>  -13.9199    1.0000 </r>
       <r>  -10.5980    1.0000 </r>
       <r>  -10.0060    1.0000 </r>
       <r>   -5.9003    1.0000 </r>
       <r>   -5.1345    1.0000 </r>
       <r>   -0.8712    0.0000 </r>
       <r>   -0.0210    0.0000 </r>
       <r>    5.8786    0.0000 </r>
       <r>    6.4510    0.0000 </r>
      </set>
      <set comment="kpoint 228">
       <r>  -18.1051    1.0000 </r>
       <r>  -17.3208    1.0000 </r>
       <r>  -14.9896    1.0000 </r>
       <r>  -14.2293    1.0000 </r>
       <r>  -10.2549    1.0000 </r>
       <r>   -9.7172    1.0000 </r>
       <r>   -5.8264    1.0000 </r>
       <r>   -5.1240    1.0000 </r>
       <r>   -0.9772    0.0000 </r>
       <r>   -0.2027    0.0000 </r>
       <r>    5.8656    0.0000 </r>
       <r>    6.1358    0.0000 </r>
      </set>
      <set comment="kpoint 229">
       <r>  -17.9872    1.0000 </r>
       <r>  -17.2360    1.0000 </r>
       <r>  -15.2601    1.0000 </r>
       <r>  -14.5277    1.0000 </r>
       <r>   -9.9309    1.0000 </r>
       <r>   -9.4580    1.0000 </r>
       <r>   -5.7437    1.0000 </r>
       <r>   -5.1205    1.0000 </r>
       <r>   -1.0721    0.0000 </r>
       <r>   -0.3892    0.0000 </r>
       <r>    5.4984    0.0000 </r>
       <r>    5.9884    0.0000 </r>
      </set>
      <set comment="kpoint 230">
       <r>  -17.8545    1.0000 </r>
       <r>  -17.1574    1.0000 </r>
       <r>  -15.4936    1.0000 </r>
       <r>  -14.8107    1.0000 </r>
       <r>   -9.6359    1.0000 </r>
       <r>   -9.2389    1.0000 </r>
       <r>   -5.6547    1.0000 </r>
       <r>   -5.1276    1.0000 </r>
       <r>   -1.1464    0.0000 </r>
       <r>   -0.5720    0.0000 </r>
       <r>    5.1518    0.0000 </r>
       <r>    5.5611    0.0000 </r>
      </set>
      <set comment="kpoint 231">
       <r>  -17.7096    1.0000 </r>
       <r>  -17.1023    1.0000 </r>
       <r>  -15.6708    1.0000 </r>
       <r>  -15.0738    1.0000 </r>
       <r>   -9.3799    1.0000 </r>
       <r>   -9.0697    1.0000 </r>
       <r>   -5.5625    1.0000 </r>
       <r>   -5.1484    1.0000 </r>
       <r>   -1.1925    0.0000 </r>
       <r>   -0.7432    0.0000 </r>
       <r>    4.8794    0.0000 </r>
       <r>    5.1992    0.0000 </r>
      </set>
      <set comment="kpoint 232">
       <r>  -17.5565    1.0000 </r>
       <r>  -17.0945    1.0000 </r>
       <r>  -15.7669    1.0000 </r>
       <r>  -15.3116    1.0000 </r>
       <r>   -9.1721    1.0000 </r>
       <r>   -8.9588    1.0000 </r>
       <r>   -5.4708    1.0000 </r>
       <r>   -5.1848    1.0000 </r>
       <r>   -1.2048    0.0000 </r>
       <r>   -0.8955    0.0000 </r>
       <r>    4.6941    0.0000 </r>
       <r>    4.9141    0.0000 </r>
      </set>
      <set comment="kpoint 233">
       <r>  -17.4026    1.0000 </r>
       <r>  -17.1499    1.0000 </r>
       <r>  -15.7654    1.0000 </r>
       <r>  -15.5160    1.0000 </r>
       <r>   -9.0210    1.0000 </r>
       <r>   -8.9122    1.0000 </r>
       <r>   -5.3833    1.0000 </r>
       <r>   -5.2371    1.0000 </r>
       <r>   -1.1803    0.0000 </r>
       <r>   -1.0225    0.0000 </r>
       <r>    4.6032    0.0000 </r>
       <r>    4.7154    0.0000 </r>
      </set>
      <set comment="kpoint 234">
       <r>  -17.2603    1.0000 </r>
       <r>  -17.2603    1.0000 </r>
       <r>  -15.6741    1.0000 </r>
       <r>  -15.6741    1.0000 </r>
       <r>   -8.9331    1.0000 </r>
       <r>   -8.9331    1.0000 </r>
       <r>   -5.3042    1.0000 </r>
       <r>   -5.3042    1.0000 </r>
       <r>   -1.1188    0.0000 </r>
       <r>   -1.1188    0.0000 </r>
       <r>    4.6105    0.0000 </r>
       <r>    4.6105    0.0000 </r>
      </set>
      <set comment="kpoint 235">
       <r>  -18.0304    1.0000 </r>
       <r>  -18.0304    1.0000 </r>
       <r>  -13.0858    1.0000 </r>
       <r>  -13.0858    1.0000 </r>
       <r>  -11.6081    1.0000 </r>
       <r>  -11.6081    1.0000 </r>
       <r>   -5.6370    1.0000 </r>
       <r>   -5.6370    1.0000 </r>
       <r>   -0.0229    0.0000 </r>
       <r>   -0.0229    0.0000 </r>
       <r>    6.1429    0.0000 </r>
       <r>    6.1429    0.0000 </r>
      </set>
      <set comment="kpoint 236">
       <r>  -18.0212    1.0000 </r>
       <r>  -18.0212    1.0000 </r>
       <r>  -13.1797    1.0000 </r>
       <r>  -13.1797    1.0000 </r>
       <r>  -11.5108    1.0000 </r>
       <r>  -11.5108    1.0000 </r>
       <r>   -5.6314    1.0000 </r>
       <r>   -5.6314    1.0000 </r>
       <r>   -0.0442    0.0000 </r>
       <r>   -0.0442    0.0000 </r>
       <r>    6.1565    0.0000 </r>
       <r>    6.1565    0.0000 </r>
      </set>
      <set comment="kpoint 237">
       <r>  -17.9937    1.0000 </r>
       <r>  -17.9937    1.0000 </r>
       <r>  -13.4090    1.0000 </r>
       <r>  -13.4090    1.0000 </r>
       <r>  -11.2715    1.0000 </r>
       <r>  -11.2715    1.0000 </r>
       <r>   -5.6146    1.0000 </r>
       <r>   -5.6146    1.0000 </r>
       <r>   -0.1064    0.0000 </r>
       <r>   -0.1064    0.0000 </r>
       <r>    6.1972    0.0000 </r>
       <r>    6.1972    0.0000 </r>
      </set>
      <set comment="kpoint 238">
       <r>  -17.9483    1.0000 </r>
       <r>  -17.9483    1.0000 </r>
       <r>  -13.6995    1.0000 </r>
       <r>  -13.6995    1.0000 </r>
       <r>  -10.9661    1.0000 </r>
       <r>  -10.9661    1.0000 </r>
       <r>   -5.5875    1.0000 </r>
       <r>   -5.5875    1.0000 </r>
       <r>   -0.2039    0.0000 </r>
       <r>   -0.2039    0.0000 </r>
       <r>    6.2642    0.0000 </r>
       <r>    6.2642    0.0000 </r>
      </set>
      <set comment="kpoint 239">
       <r>  -17.8854    1.0000 </r>
       <r>  -17.8854    1.0000 </r>
       <r>  -14.0109    1.0000 </r>
       <r>  -14.0109    1.0000 </r>
       <r>  -10.6373    1.0000 </r>
       <r>  -10.6373    1.0000 </r>
       <r>   -5.5513    1.0000 </r>
       <r>   -5.5513    1.0000 </r>
       <r>   -0.3289    0.0000 </r>
       <r>   -0.3289    0.0000 </r>
       <r>    6.3545    0.0000 </r>
       <r>    6.3545    0.0000 </r>
      </set>
      <set comment="kpoint 240">
       <r>  -17.8059    1.0000 </r>
       <r>  -17.8059    1.0000 </r>
       <r>  -14.3246    1.0000 </r>
       <r>  -14.3246    1.0000 </r>
       <r>  -10.3070    1.0000 </r>
       <r>  -10.3070    1.0000 </r>
       <r>   -5.5077    1.0000 </r>
       <r>   -5.5077    1.0000 </r>
       <r>   -0.4717    0.0000 </r>
       <r>   -0.4717    0.0000 </r>
       <r>    6.4399    0.0000 </r>
       <r>    6.4399    0.0000 </r>
      </set>
      <set comment="kpoint 241">
       <r>  -17.7112    1.0000 </r>
       <r>  -17.7112    1.0000 </r>
       <r>  -14.6304    1.0000 </r>
       <r>  -14.6304    1.0000 </r>
       <r>   -9.9895    1.0000 </r>
       <r>   -9.9895    1.0000 </r>
       <r>   -5.4591    1.0000 </r>
       <r>   -5.4591    1.0000 </r>
       <r>   -0.6225    0.0000 </r>
       <r>   -0.6225    0.0000 </r>
       <r>    6.1681    0.0000 </r>
       <r>    6.1681    0.0000 </r>
      </set>
      <set comment="kpoint 242">
       <r>  -17.6035    1.0000 </r>
       <r>  -17.6035    1.0000 </r>
       <r>  -14.9215    1.0000 </r>
       <r>  -14.9215    1.0000 </r>
       <r>   -9.6961    1.0000 </r>
       <r>   -9.6961    1.0000 </r>
       <r>   -5.4085    1.0000 </r>
       <r>   -5.4085    1.0000 </r>
       <r>   -0.7713    0.0000 </r>
       <r>   -0.7713    0.0000 </r>
       <r>    5.7280    0.0000 </r>
       <r>    5.7280    0.0000 </r>
      </set>
      <set comment="kpoint 243">
       <r>  -17.4866    1.0000 </r>
       <r>  -17.4866    1.0000 </r>
       <r>  -15.1911    1.0000 </r>
       <r>  -15.1911    1.0000 </r>
       <r>   -9.4373    1.0000 </r>
       <r>   -9.4373    1.0000 </r>
       <r>   -5.3593    1.0000 </r>
       <r>   -5.3593    1.0000 </r>
       <r>   -0.9086    0.0000 </r>
       <r>   -0.9086    0.0000 </r>
       <r>    5.3377    0.0000 </r>
       <r>    5.3377    0.0000 </r>
      </set>
      <set comment="kpoint 244">
       <r>  -17.3669    1.0000 </r>
       <r>  -17.3669    1.0000 </r>
       <r>  -15.4311    1.0000 </r>
       <r>  -15.4311    1.0000 </r>
       <r>   -9.2230    1.0000 </r>
       <r>   -9.2230    1.0000 </r>
       <r>   -5.3153    1.0000 </r>
       <r>   -5.3153    1.0000 </r>
       <r>   -1.0259    0.0000 </r>
       <r>   -1.0259    0.0000 </r>
       <r>    5.0182    0.0000 </r>
       <r>    5.0182    0.0000 </r>
      </set>
      <set comment="kpoint 245">
       <r>  -17.2559    1.0000 </r>
       <r>  -17.2559    1.0000 </r>
       <r>  -15.6287    1.0000 </r>
       <r>  -15.6287    1.0000 </r>
       <r>   -9.0622    1.0000 </r>
       <r>   -9.0622    1.0000 </r>
       <r>   -5.2804    1.0000 </r>
       <r>   -5.2804    1.0000 </r>
       <r>   -1.1158    0.0000 </r>
       <r>   -1.1158    0.0000 </r>
       <r>    4.7813    0.0000 </r>
       <r>    4.7813    0.0000 </r>
      </set>
      <set comment="kpoint 246">
       <r>  -17.1726    1.0000 </r>
       <r>  -17.1726    1.0000 </r>
       <r>  -15.7642    1.0000 </r>
       <r>  -15.7642    1.0000 </r>
       <r>   -8.9624    1.0000 </r>
       <r>   -8.9624    1.0000 </r>
       <r>   -5.2578    1.0000 </r>
       <r>   -5.2578    1.0000 </r>
       <r>   -1.1723    0.0000 </r>
       <r>   -1.1723    0.0000 </r>
       <r>    4.6354    0.0000 </r>
       <r>    4.6354    0.0000 </r>
      </set>
      <set comment="kpoint 247">
       <r>  -17.1407    1.0000 </r>
       <r>  -17.1407    1.0000 </r>
       <r>  -15.8136    1.0000 </r>
       <r>  -15.8136    1.0000 </r>
       <r>   -8.9286    1.0000 </r>
       <r>   -8.9286    1.0000 </r>
       <r>   -5.2500    1.0000 </r>
       <r>   -5.2500    1.0000 </r>
       <r>   -1.1915    0.0000 </r>
       <r>   -1.1915    0.0000 </r>
       <r>    4.5861    0.0000 </r>
       <r>    4.5861    0.0000 </r>
      </set>
     </set>
    </set>
   </array>
  </eigenvalues>
  <separator name="orbital magnetization" >
   <v name="MAGDIPOLOUT">      0.00000000      0.00000000      0.00000000</v>
  </separator>
 </calculation>
 <structure name="finalpos" >
  <crystal>
   <varray name="basis" >
    <v>       4.25164557       0.00000000       0.00000000 </v>
    <v>       0.00000000       2.54206217       0.00000000 </v>
    <v>       0.00000000       0.00000000      19.50767287 </v>
   </varray>
   <i name="volume">    210.83790140 </i>
   <varray name="rec_basis" >
    <v>       0.23520305       0.00000000       0.00000000 </v>
    <v>       0.00000000       0.39338141       0.00000000 </v>
    <v>       0.00000000       0.00000000       0.05126188 </v>
   </varray>
  </crystal>
  <varray name="positions" >
   <v>       0.00075316       0.00000000      -0.00000000 </v>
   <v>       0.16591350       0.50000000       0.00000000 </v>
   <v>       0.50075316       0.50000000      -0.00000000 </v>
   <v>       0.66591350       0.00000000       0.00000000 </v>
  </varray>
 </structure>
</modeling>
