 running on    8 total cores
 distrk:  each k-point on    8 cores,    1 groups
 distr:  one band on    2 cores,    4 groups
 using from now: INCAR     
 vasp.5.3.5 31Mar14 (build Mar 02 2015 18:14:16) complex                        
  
 POSCAR found type information on POSCAR  C 
 POSCAR found :  1 types and       4 ions
 LDA part: xc-table for Pade appr. of Perdew
 POSCAR, INCAR and KPOINTS ok, starting setup
 FFT: planning ...
 WAVECAR not read
 entering main loop
       N       E                     dE             d eps       ncg     rms          rms(c)
DAV:   1     0.186539033832E+03    0.18654E+03   -0.10609E+04  5928   0.275E+03
DAV:   2    -0.951973880341E+01   -0.19606E+03   -0.17417E+03 10416   0.263E+02
DAV:   3    -0.380118008561E+02   -0.28492E+02   -0.27874E+02  7368   0.118E+02    0.702E+00
RMM:   4    -0.375088874486E+02    0.50291E+00   -0.93538E+00  5928   0.262E+01    0.407E+00
RMM:   5    -0.368211595289E+02    0.68773E+00   -0.26007E+00  5934   0.110E+01    0.692E-01
RMM:   6    -0.368237189571E+02   -0.25594E-02   -0.84662E-02  6400   0.201E+00    0.496E-01
RMM:   7    -0.368144984843E+02    0.92205E-02    0.24548E-02  5958   0.152E+00    0.309E-01
RMM:   8    -0.368103620021E+02    0.41365E-02   -0.55075E-03  5936   0.487E-01    0.137E-01
RMM:   9    -0.368101866918E+02    0.17531E-03   -0.19922E-02  5932   0.818E-01    0.148E-01
RMM:  10    -0.368233622942E+02   -0.13176E-01   -0.41975E-03  5932   0.335E-01    0.382E-02
RMM:  11    -0.368266606611E+02   -0.32984E-02   -0.91510E-03  5990   0.121E-01    0.263E-02
RMM:  12    -0.368273180158E+02   -0.65735E-03   -0.53887E-04  5935   0.517E-02    0.306E-02
RMM:  13    -0.368277833717E+02   -0.46536E-03   -0.22376E-04  5929   0.935E-02    0.420E-03
RMM:  14    -0.368278268680E+02   -0.43496E-04   -0.92153E-06  6103   0.173E-02    0.416E-03
RMM:  15    -0.368278699492E+02   -0.43081E-04   -0.90161E-06  5928   0.171E-02    0.187E-03
RMM:  16    -0.368278807205E+02   -0.10771E-04   -0.10817E-06  5929   0.661E-03    0.130E-03
RMM:  17    -0.368278889816E+02   -0.82612E-05   -0.68385E-07  5928   0.568E-03    0.102E-03
RMM:  18    -0.368278917890E+02   -0.28073E-05   -0.10275E-07  5956   0.212E-03    0.271E-04
RMM:  19    -0.368278922657E+02   -0.47676E-06   -0.28147E-08  5968   0.115E-03    0.123E-04
RMM:  20    -0.368278925497E+02   -0.28396E-06   -0.41642E-09  5965   0.352E-04    0.322E-05
RMM:  21    -0.368278925575E+02   -0.78061E-08   -0.11223E-10  4165   0.674E-05    0.243E-05
RMM:  22    -0.368278925618E+02   -0.42623E-08   -0.21931E-10  4408   0.103E-04    0.235E-06
RMM:  23    -0.368278925622E+02   -0.44759E-09   -0.33200E-12  3861   0.407E-05    0.139E-06
RMM:  24    -0.368278925624E+02   -0.14586E-09   -0.10281E-11  3493   0.364E-05    0.794E-07
RMM:  25    -0.368278925620E+02    0.34458E-09   -0.60021E-12  3127   0.297E-05    0.284E-07
RMM:  26    -0.368278925619E+02    0.64688E-10   -0.34911E-12  2802   0.257E-05
   1 F= -.36827893E+02 E0= -.36827893E+02  d E =-.368279E+02
 BRION: g(F)=  0.108E-05 g(S)=  0.000E+00
 bond charge predicted
       N       E                     dE             d eps       ncg     rms          rms(c)
DAV:   1    -0.368278909279E+02    0.16341E-05   -0.14385E-04  6308   0.113E-01    0.227E-03
RMM:   2    -0.368278910344E+02   -0.10654E-06   -0.24558E-06  5945   0.136E-02    0.168E-03
RMM:   3    -0.368278909449E+02    0.89517E-07   -0.38098E-07  5984   0.500E-03    0.415E-04
RMM:   4    -0.368278909428E+02    0.20543E-08   -0.23321E-08  6071   0.120E-03    0.121E-04
RMM:   5    -0.368278909393E+02    0.35112E-08   -0.19761E-09  5974   0.316E-04    0.546E-05
RMM:   6    -0.368278909395E+02   -0.11653E-09   -0.25143E-10  4188   0.129E-04    0.608E-06
RMM:   7    -0.368278909397E+02   -0.29036E-09   -0.23490E-11  3756   0.624E-05    0.457E-06
RMM:   8    -0.368278909398E+02   -0.10459E-10   -0.18441E-11  3477   0.437E-05
   2 F= -.36827891E+02 E0= -.36827891E+02  d E =0.162219E-05
 BRION: g(F)=  0.168E-04 g(S)=  0.000E+00 retain N=  1 mean eig= 0.20
 eig:   0.202
 bond charge predicted
       N       E                     dE             d eps       ncg     rms          rms(c)
DAV:   1    -0.368278926224E+02   -0.16826E-05   -0.91498E-05  6592   0.901E-02    0.182E-03
RMM:   2    -0.368278926926E+02   -0.70246E-07   -0.14742E-06  5948   0.108E-02    0.133E-03
RMM:   3    -0.368278926686E+02    0.24026E-07   -0.23376E-07  5995   0.392E-03    0.308E-04
RMM:   4    -0.368278926625E+02    0.60719E-08   -0.13328E-08  6054   0.914E-04    0.975E-05
RMM:   5    -0.368278926649E+02   -0.23485E-08   -0.11711E-09  5459   0.247E-04    0.433E-05
RMM:   6    -0.368278926646E+02    0.29979E-09   -0.15572E-10  3884   0.104E-04    0.493E-06
RMM:   7    -0.368278926645E+02    0.42292E-10   -0.16223E-11  3745   0.570E-05
   3 F= -.36827893E+02 E0= -.36827893E+02  d E =-.172475E-05
 BRION: g(F)=  0.175E-10 g(S)=  0.000E+00 retain N=  1 mean eig= 0.20
 eig:   0.202
 bond charge predicted
       N       E                     dE             d eps       ncg     rms          rms(c)
DAV:   1    -0.368278926638E+02    0.77193E-09    0.58164E-09  5164   0.953E-05    0.164E-06
RMM:   2    -0.368278926644E+02   -0.60481E-09    0.32794E-12  3216   0.313E-05    0.998E-07
RMM:   3    -0.368278926645E+02   -0.97202E-10   -0.40959E-12  2989   0.321E-05    0.233E-07
RMM:   4    -0.368278926648E+02   -0.30116E-09   -0.50325E-12  2865   0.303E-05    0.104E-07
RMM:   5    -0.368278926644E+02    0.38813E-09   -0.45759E-12  2746   0.277E-05    0.578E-08
RMM:   6    -0.368278926645E+02   -0.87084E-10   -0.18870E-12  2499   0.251E-05
   4 F= -.36827893E+02 E0= -.36827893E+02  d E =0.275122E-10
 BRION: g(F)=  0.264E-10 g(S)=  0.000E+00 retain N=  1 mean eig= 0.09
 eig:   0.091
 bond charge predicted
       N       E                     dE             d eps       ncg     rms          rms(c)
DAV:   1    -0.368278926639E+02    0.49351E-09    0.58813E-09  4456   0.507E-05    0.605E-07
RMM:   2    -0.368278926645E+02   -0.62118E-09    0.29071E-13  1559   0.145E-05    0.374E-07
RMM:   3    -0.368278926646E+02   -0.65825E-10   -0.10021E-13  1497   0.144E-05    0.329E-08
RMM:   4    -0.368278926646E+02   -0.47862E-10    0.35346E-13  1476   0.144E-05    0.175E-08
RMM:   5    -0.368278926647E+02   -0.31491E-10   -0.48188E-13  1456   0.143E-05
   5 F= -.36827893E+02 E0= -.36827893E+02  d E =-.185764E-09
 BRION: g(F)=  0.540E-12 g(S)=  0.000E+00 retain N=  1 mean eig= 0.11
 eig:   0.106
 bond charge predicted
       N       E                     dE             d eps       ncg     rms          rms(c)
DAV:   1    -0.368278926641E+02    0.53581E-09    0.59035E-09  4372   0.188E-05    0.424E-07
RMM:   2    -0.368278926647E+02   -0.58753E-09   -0.32484E-15  1301   0.632E-06    0.260E-07
RMM:   3    -0.368278926647E+02   -0.12506E-11    0.11842E-14  1291   0.625E-06    0.663E-09
RMM:   4    -0.368278926647E+02    0.21600E-11    0.90463E-15  1082   0.627E-06    0.292E-09
RMM:   5    -0.368278926647E+02   -0.28422E-11   -0.88489E-14  1085   0.621E-06
   6 F= -.36827893E+02 E0= -.36827893E+02  d E =-.221689E-10
 BRION: g(F)=  0.276E-12 g(S)=  0.000E+00 retain N=  1 mean eig= 0.37
 eig:   0.371
 bond charge predicted
       N       E                     dE             d eps       ncg     rms          rms(c)
DAV:   1    -0.368278926641E+02    0.60379E-09    0.58992E-09  4580   0.241E-05    0.433E-07
RMM:   2    -0.368278926647E+02   -0.57662E-09    0.10856E-14   751   0.706E-06    0.268E-07
RMM:   3    -0.368278926647E+02   -0.46612E-11   -0.55922E-14   754   0.698E-06    0.731E-09
RMM:   4    -0.368278926647E+02   -0.22737E-12    0.32895E-16   551   0.696E-06    0.290E-09
RMM:   5    -0.368278926647E+02   -0.34106E-11   -0.46547E-14   595   0.696E-06
   7 F= -.36827893E+02 E0= -.36827893E+02  d E =0.217142E-10
 BRION: g(F)=  0.720E-13 g(S)=  0.000E+00 retain N=  1 mean eig= 0.25
 eig:   0.246
 reached required accuracy - stopping structural energy minimisation
