gr                                      
           1
     4.251646    0.000000    0.000000
     0.000000    2.542062    0.000000
     0.000000    0.000000   19.507673
   C 
   4
Direct configuration=     1
   0.00074775  0.00000000  0.00000000
   0.16591892  0.50000000  0.00000000
   0.50074775  0.50000000  0.00000000
   0.66591892  0.00000000  0.00000000
Direct configuration=     2
   0.00077457  0.00000000 -0.00000000
   0.16589210  0.50000000  0.00000000
   0.50077457  0.50000000 -0.00000000
   0.66589210 -0.00000000  0.00000000
Direct configuration=     3
   0.00075317  0.00000000 -0.00000000
   0.16591350  0.50000000  0.00000000
   0.50075317  0.50000000  0.00000000
   0.66591350 -0.00000000  0.00000000
Direct configuration=     4
   0.00075314 -0.00000000 -0.00000000
   0.16591352  0.50000000 -0.00000000
   0.50075314  0.50000000  0.00000000
   0.66591352  0.00000000 -0.00000000
Direct configuration=     5
   0.00075316  0.00000000 -0.00000000
   0.16591351  0.50000000 -0.00000000
   0.50075316  0.50000000  0.00000000
   0.66591351  0.00000000 -0.00000000
Direct configuration=     6
   0.00075316  0.00000000 -0.00000000
   0.16591351  0.50000000 -0.00000000
   0.50075316  0.50000000  0.00000000
   0.66591351  0.00000000 -0.00000000
Direct configuration=     7
   0.00075316  0.00000000 -0.00000000
   0.16591350  0.50000000  0.00000000
   0.50075316  0.50000000 -0.00000000
   0.66591350  0.00000000  0.00000000
