 running on    8 total cores
 distrk:  each k-point on    8 cores,    1 groups
 distr:  one band on    2 cores,    4 groups
 using from now: INCAR     
 vasp.5.3.5 31Mar14 (build Mar 02 2015 18:14:16) complex                        
  
 POSCAR found type information on POSCAR  C 
 POSCAR found :  1 types and       4 ions
 LDA part: xc-table for Pade appr. of Perdew
 POSCAR, INCAR and KPOINTS ok, starting setup
 FFT: planning ...
 WAVECAR not read
 entering main loop
       N       E                     dE             d eps       ncg     rms          rms(c)
DAV:   1     0.184969612005E+03    0.18497E+03   -0.10577E+04  5928   0.274E+03
DAV:   2    -0.961259115260E+01   -0.19458E+03   -0.17325E+03 10388   0.259E+02
DAV:   3    -0.381040254062E+02   -0.28491E+02   -0.27976E+02  7332   0.118E+02    0.709E+00
RMM:   4    -0.375721346665E+02    0.53189E+00   -0.94065E+00  5928   0.264E+01    0.410E+00
RMM:   5    -0.368665937522E+02    0.70554E+00   -0.26106E+00  5930   0.111E+01    0.690E-01
RMM:   6    -0.368684655981E+02   -0.18718E-02   -0.79464E-02  6381   0.200E+00    0.496E-01
RMM:   7    -0.368594999611E+02    0.89656E-02   -0.30295E-02  5941   0.152E+00    0.319E-01
RMM:   8    -0.368547175356E+02    0.47824E-02   -0.65180E-03  5928   0.535E-01    0.129E-01
RMM:   9    -0.368545701470E+02    0.14739E-03   -0.18358E-02  5928   0.798E-01    0.148E-01
RMM:  10    -0.368545382473E+02    0.31900E-04   -0.21598E-03  5928   0.336E-01    0.279E-02
RMM:  11    -0.368568109904E+02   -0.22727E-02   -0.61070E-04  5928   0.165E-01    0.416E-02
RMM:  12    -0.368573129698E+02   -0.50198E-03   -0.21633E-04  5940   0.970E-02    0.387E-03
RMM:  13    -0.368575571760E+02   -0.24421E-03   -0.43345E-05  6049   0.338E-02    0.343E-03
RMM:  14    -0.368576381810E+02   -0.81005E-04   -0.10228E-05  5966   0.156E-02    0.120E-03
RMM:  15    -0.368576489353E+02   -0.10754E-04   -0.15510E-06  5952   0.713E-03    0.185E-03
RMM:  16    -0.368576622795E+02   -0.13344E-04   -0.12885E-06  5928   0.734E-03    0.101E-03
RMM:  17    -0.368576681978E+02   -0.59183E-05   -0.93397E-08  6041   0.186E-03    0.625E-04
RMM:  18    -0.368576692773E+02   -0.10796E-05   -0.41449E-08  5931   0.157E-03    0.822E-05
WARNING in EDDRMM: call to ZHEGV failed, returncode =   6  3  1
WARNING in EDDRMM: call to ZHEGV failed, returncode =   6  3  1
RMM:  19    -0.368576700044E+02   -0.72704E-06   -0.96586E-09  5633   0.433E-04    0.163E-05
RMM:  20    -0.368576700445E+02   -0.40168E-07   -0.72601E-10  4488   0.139E-04    0.200E-05
RMM:  21    -0.368576700571E+02   -0.12583E-07   -0.18165E-10  4306   0.797E-05    0.744E-06
RMM:  22    -0.368576700573E+02   -0.19531E-09   -0.12819E-11  3893   0.473E-05    0.894E-07
RMM:  23    -0.368576700578E+02   -0.50977E-09   -0.17985E-11  3556   0.389E-05    0.174E-06
RMM:  24    -0.368576700579E+02   -0.55252E-10   -0.54232E-12  3152   0.288E-05
   1 F= -.36857670E+02 E0= -.36857670E+02  d E =-.368577E+02
 BRION: g(F)=  0.204E-06 g(S)=  0.000E+00
 bond charge predicted
       N       E                     dE             d eps       ncg     rms          rms(c)
DAV:   1    -0.368576697447E+02    0.31317E-06   -0.27256E-05  6220   0.492E-02    0.994E-04
RMM:   2    -0.368576697635E+02   -0.18874E-07   -0.46397E-07  5953   0.593E-03    0.733E-04
RMM:   3    -0.368576697418E+02    0.21729E-07   -0.73482E-08  5987   0.219E-03    0.186E-04
RMM:   4    -0.368576697424E+02   -0.55093E-09   -0.45362E-09  6034   0.530E-04    0.531E-05
RMM:   5    -0.368576697409E+02    0.14652E-08   -0.34455E-10  4373   0.139E-04    0.232E-05
RMM:   6    -0.368576697410E+02   -0.15200E-09   -0.44248E-11  3762   0.656E-05    0.371E-06
RMM:   7    -0.368576697408E+02    0.22203E-09   -0.21449E-11  3741   0.518E-05    0.311E-06
RMM:   8    -0.368576697411E+02   -0.28251E-09   -0.11496E-11  3183   0.359E-05    0.114E-06
RMM:   9    -0.368576697411E+02    0.34561E-10   -0.71524E-12  2911   0.287E-05
   2 F= -.36857670E+02 E0= -.36857670E+02  d E =0.316814E-06
 BRION: g(F)=  0.326E-05 g(S)=  0.000E+00 retain N=  1 mean eig= 0.20
 eig:   0.200
 bond charge predicted
       N       E                     dE             d eps       ncg     rms          rms(c)
DAV:   1    -0.368576700637E+02   -0.32256E-06   -0.17428E-05  6648   0.393E-02    0.801E-04
RMM:   2    -0.368576700784E+02   -0.14752E-07   -0.28032E-07  5945   0.472E-03    0.583E-04
RMM:   3    -0.368576700770E+02    0.13850E-08   -0.45260E-08  5989   0.172E-03    0.138E-04
RMM:   4    -0.368576700752E+02    0.18683E-08   -0.26190E-09  6016   0.407E-04    0.426E-05
RMM:   5    -0.368576700759E+02   -0.78410E-09   -0.19831E-10  4084   0.109E-04    0.181E-05
RMM:   6    -0.368576700761E+02   -0.11335E-09   -0.27522E-11  3701   0.579E-05    0.313E-06
RMM:   7    -0.368576700761E+02   -0.64233E-10   -0.15934E-11  3643   0.473E-05
   3 F= -.36857670E+02 E0= -.36857670E+02  d E =-.335054E-06
 BRION: g(F)=  0.682E-11 g(S)=  0.000E+00 retain N=  1 mean eig= 0.20
 eig:   0.200
 bond charge predicted
       N       E                     dE             d eps       ncg     rms          rms(c)
DAV:   1    -0.368576700754E+02    0.67973E-09    0.59459E-09  5056   0.645E-05    0.866E-07
RMM:   2    -0.368576700762E+02   -0.80422E-09    0.28291E-12  2518   0.229E-05    0.516E-07
RMM:   3    -0.368576700761E+02    0.10243E-09   -0.90997E-13  2320   0.230E-05    0.858E-08
RMM:   4    -0.368576700759E+02    0.13540E-09   -0.30019E-12  2120   0.225E-05    0.793E-08
RMM:   5    -0.368576700759E+02    0.42633E-10   -0.20048E-12  2032   0.213E-05
   4 F= -.36857670E+02 E0= -.36857670E+02  d E =0.220211E-09
 BRION: g(F)=  0.171E-10 g(S)=  0.000E+00 retain N=  1 mean eig= 0.08
 eig:   0.078
 bond charge predicted
       N       E                     dE             d eps       ncg     rms          rms(c)
DAV:   1    -0.368576700755E+02    0.47169E-09    0.59705E-09  4512   0.361E-05    0.352E-07
RMM:   2    -0.368576700762E+02   -0.73192E-09    0.15708E-13  1427   0.111E-05    0.217E-07
RMM:   3    -0.368576700759E+02    0.32890E-09   -0.44376E-13  1397   0.110E-05    0.146E-08
RMM:   4    -0.368576700760E+02   -0.17076E-09    0.25124E-13  1375   0.109E-05    0.903E-09
RMM:   5    -0.368576700759E+02    0.10448E-09   -0.42497E-13  1372   0.108E-05    0.640E-09
RMM:   6    -0.368576700760E+02   -0.26603E-10    0.28611E-13  1235   0.108E-05
   5 F= -.36857670E+02 E0= -.36857670E+02  d E =-.668479E-10
 BRION: g(F)=  0.418E-12 g(S)=  0.000E+00 retain N=  1 mean eig= 0.09
 eig:   0.092
 bond charge predicted
       N       E                     dE             d eps       ncg     rms          rms(c)
DAV:   1    -0.368576700753E+02    0.59254E-09    0.59843E-09  4568   0.146E-05    0.319E-07
RMM:   2    -0.368576700760E+02   -0.61618E-09    0.25823E-14  1071   0.527E-06    0.197E-07
RMM:   3    -0.368576700760E+02   -0.23874E-10    0.10938E-14  1131   0.518E-06    0.383E-09
RMM:   4    -0.368576700760E+02    0.88676E-11    0.50083E-14   974   0.518E-06    0.199E-09
RMM:   5    -0.368576700760E+02   -0.20464E-11   -0.12254E-14   925   0.518E-06
   6 F= -.36857670E+02 E0= -.36857670E+02  d E =-.140972E-10
 BRION: g(F)=  0.404E-12 g(S)=  0.000E+00 retain N=  1 mean eig= 5.17
 eig:   5.174
 bond charge predicted
       N       E                     dE             d eps       ncg     rms          rms(c)
DAV:   1    -0.368576700754E+02    0.60777E-09    0.45352E-09  6912   0.359E-04    0.731E-06
RMM:   2    -0.368576700760E+02   -0.58139E-09   -0.12855E-12  3011   0.433E-05    0.497E-06
RMM:   3    -0.368576700759E+02    0.28194E-10   -0.56995E-12  3224   0.422E-05    0.814E-07
RMM:   4    -0.368576700759E+02   -0.26262E-10   -0.44435E-12  2755   0.354E-05    0.310E-07
RMM:   5    -0.368576700759E+02    0.51159E-11   -0.75597E-12  2151   0.305E-05
   7 F= -.36857670E+02 E0= -.36857670E+02  d E =0.354703E-10
 BRION: g(F)=  0.196E-09 g(S)=  0.000E+00 retain N=  1 mean eig= 0.22
 eig:   0.225
 bond charge predicted
       N       E                     dE             d eps       ncg     rms          rms(c)
DAV:   1    -0.368576700754E+02    0.56014E-09    0.45956E-09  6636   0.351E-04    0.773E-06
RMM:   2    -0.368576700760E+02   -0.61584E-09   -0.16375E-12  2967   0.397E-05    0.515E-06
RMM:   3    -0.368576700760E+02   -0.67075E-11   -0.34591E-12  3479   0.406E-05    0.731E-07
RMM:   4    -0.368576700760E+02    0.30695E-10   -0.50229E-12  2639   0.333E-05    0.291E-07
RMM:   5    -0.368576700760E+02   -0.90949E-11   -0.55791E-12  2140   0.285E-05
   8 F= -.36857670E+02 E0= -.36857670E+02  d E =-.459295E-10
 BRION: g(F)=  0.227E-11 g(S)=  0.000E+00 retain N=  1 mean eig= 0.25
 eig:   0.252
 bond charge predicted
       N       E                     dE             d eps       ncg     rms          rms(c)
DAV:   1    -0.368576700753E+02    0.64665E-09    0.59646E-09  4264   0.445E-05    0.789E-07
RMM:   2    -0.368576700759E+02   -0.60277E-09    0.43788E-13  1213   0.138E-05    0.489E-07
RMM:   3    -0.368576700759E+02    0.34106E-11   -0.23097E-13  1268   0.139E-05    0.122E-08
RMM:   4    -0.368576700759E+02    0.10004E-10   -0.29261E-13   844   0.138E-05    0.820E-09
RMM:   5    -0.368576700759E+02   -0.72760E-11    0.38241E-13   715   0.137E-05
   9 F= -.36857670E+02 E0= -.36857670E+02  d E =0.591172E-10
 BRION: g(F)=  0.792E-11 g(S)=  0.000E+00 retain N=  1 mean eig= 0.09
 eig:   0.088
 bond charge predicted
       N       E                     dE             d eps       ncg     rms          rms(c)
DAV:   1    -0.368576700754E+02    0.56832E-09    0.59770E-09  3480   0.270E-05    0.315E-07
RMM:   2    -0.368576700760E+02   -0.59947E-09    0.12809E-13   326   0.758E-06    0.194E-07
RMM:   3    -0.368576700760E+02   -0.43201E-11   -0.56909E-14   457   0.747E-06    0.576E-09
RMM:   4    -0.368576700760E+02    0.00000E+00   -0.10925E-13   460   0.748E-06    0.202E-09
RMM:   5    -0.368576700760E+02   -0.47748E-11   -0.84295E-14   526   0.750E-06
  10 F= -.36857670E+02 E0= -.36857670E+02  d E =-.329692E-10
 BRION: g(F)=  0.145E-12 g(S)=  0.000E+00 retain N=  1 mean eig= 0.10
 eig:   0.101
 reached required accuracy - stopping structural energy minimisation
