    4    4  400    1
  0.5270948E+02  0.4255071E-09  0.2529355E-09  0.1958989E-08  0.5000000E-15
  1.000000000000000E-004
  CAR 
 gr                                      
     16    247     12
 
  0.0000000E+00  0.0000000E+00  0.0000000E+00  0.1157407E-02
    1      -22.080585
    2      -16.702847
    3      -15.864087
    4      -10.225324
    5       -9.475566
    6       -5.992020
    7       -5.742117
    8       -4.903716
    9       -1.143450
   10        0.544802
   11        1.342889
   12        1.736315
 
  0.4166667E-01  0.0000000E+00  0.0000000E+00  0.2314815E-02
    1      -22.070211
    2      -16.899330
    3      -15.652595
    4      -10.213013
    5       -9.465152
    6       -6.015763
    7       -5.782287
    8       -4.973899
    9       -1.058473
   10        0.558857
   11        1.357087
   12        1.750693
 
  0.8333333E-01  0.0000000E+00  0.0000000E+00  0.2314815E-02
    1      -22.039094
    2      -17.266078
    3      -15.240913
    4      -10.176101
    5       -9.433960
    6       -6.085621
    7       -5.901344
    8       -5.167254
    9       -0.820912
   10        0.601021
   11        1.399676
   12        1.793827
 
  0.1250000E+00  0.0000000E+00  0.0000000E+00  0.2314815E-02
    1      -21.987255
    2      -17.659085
    3      -14.773329
    4      -10.114644
    5       -9.382141
    6       -6.197723
    7       -6.095143
    8       -5.446594
    9       -0.468489
   10        0.671288
   11        1.470646
   12        1.865716
 
  0.1666667E+00  0.0000000E+00  0.0000000E+00  0.2314815E-02
    1      -21.914728
    2      -18.048804
    3      -14.279870
    4      -10.028739
    5       -9.309951
    6       -6.357409
    7       -6.346346
    8       -5.776610
    9       -0.037408
   10        0.769649
   11        1.569978
   12        1.966360
 
  0.2083333E+00  0.0000000E+00  0.0000000E+00  0.2314815E-02
    1      -21.821563
    2      -18.426993
    3      -13.769469
    4       -9.918527
    5       -9.217760
    6       -6.680497
    7       -6.524718
    8       -6.132104
    9        0.445873
   10        0.896090
   11        1.697640
   12        2.095757
 
  0.2500000E+00  0.0000000E+00  0.0000000E+00  0.2314815E-02
    1      -21.707823
    2      -18.790383
    3      -13.246308
    4       -9.784194
    5       -9.106065
    6       -7.056129
    7       -6.725773
    8       -6.496820
    9        0.963464
   10        1.050585
   11        1.853590
   12        2.253903
 
  0.2916667E+00  0.0000000E+00  0.0000000E+00  0.2314815E-02
    1      -21.573590
    2      -19.137318
    3      -12.713201
    4       -9.625984
    5       -8.975507
    6       -7.476005
    7       -6.942712
    8       -6.860447
    9        1.233102
   10        1.503003
   11        2.037766
   12        2.440793
 
  0.3333333E+00  0.0000000E+00  0.0000000E+00  0.2314815E-02
    1      -21.418960
    2      -19.466805
    3      -12.172578
    4       -9.444202
    5       -8.826890
    6       -7.932225
    7       -7.216307
    8       -7.169343
    9        1.443595
   10        2.055278
   11        2.250071
   12        2.656417
 
  0.3750000E+00  0.0000000E+00  0.0000000E+00  0.2314815E-02
    1      -21.244047
    2      -19.778172
    3      -11.626862
    4       -9.239231
    5       -8.661213
    6       -8.417533
    7       -7.559935
    8       -7.400231
    9        1.682000
   10        2.490347
   11        2.612449
   12        2.900757
 
  0.4166667E+00  0.0000000E+00  0.0000000E+00  0.2314815E-02
    1      -21.048986
    2      -20.070921
    3      -11.078654
    4       -9.011547
    5       -8.925429
    6       -8.479703
    7       -7.888236
    8       -7.630726
    9        1.948228
   10        2.758284
   11        3.164896
   12        3.173775
 
  0.4583333E+00  0.0000000E+00  0.0000000E+00  0.2314815E-02
    1      -20.833936
    2      -20.344663
    3      -10.530860
    4       -9.450179
    5       -8.761747
    6       -8.283863
    7       -8.198996
    8       -7.856911
    9        2.242142
   10        2.911850
   11        3.053070
   12        3.475371
 
  0.5000000E+00  0.0000000E+00  0.0000000E+00  0.1157407E-02
    1      -20.599089
    2      -20.599089
    3       -9.986774
    4       -9.986774
    5       -8.490578
    6       -8.490578
    7       -8.075524
    8       -8.075524
    9        2.563511
   10        2.563511
   11        3.371053
   12        3.371053
 
  0.0000000E+00  0.2777778E-01  0.0000000E+00  0.2314815E-02
    1      -22.067576
    2      -16.691616
    3      -15.853717
    4      -10.209886
    5       -9.533735
    6       -6.045603
    7       -5.774298
    8       -4.887968
    9       -1.149621
   10        0.562394
   11        1.360738
   12        1.754387
 
  0.4166667E-01  0.2777778E-01  0.0000000E+00  0.4629630E-02
    1      -22.057203
    2      -16.888001
    3      -15.642386
    4      -10.197580
    5       -9.523290
    6       -6.072320
    7       -5.810760
    8       -4.958330
    9       -1.064597
   10        0.576451
   11        1.374935
   12        1.768766
 
  0.8333333E-01  0.2777778E-01  0.0000000E+00  0.4629630E-02
    1      -22.026091
    2      -17.254548
    3      -15.231093
    4      -10.160682
    5       -9.492003
    6       -6.152243
    7       -5.917686
    8       -5.152083
    9       -0.827034
   10        0.618619
   11        1.417521
   12        1.811900
 
  0.1250000E+00  0.2777778E-01  0.0000000E+00  0.4629630E-02
    1      -21.974259
    2      -17.647350
    3      -14.764035
    4      -10.099247
    5       -9.440020
    6       -6.286789
    7       -6.085992
    8       -5.431814
    9       -0.474881
   10        0.688894
   11        1.488485
   12        1.883791
 
  0.1666667E+00  0.2777778E-01  0.0000000E+00  0.4629630E-02
    1      -21.901742
    2      -18.036883
    3      -14.271229
    4      -10.013374
    5       -9.367586
    6       -6.485816
    7       -6.294257
    8       -5.762104
    9       -0.044454
   10        0.787265
   11        1.587809
   12        1.984437
 
  0.2083333E+00  0.2777778E-01  0.0000000E+00  0.4629630E-02
    1      -21.808591
    2      -18.414909
    3      -13.761625
    4       -9.903202
    5       -9.275057
    6       -6.763848
    7       -6.513942
    8       -6.117745
    9        0.437782
   10        0.913717
   11        1.715461
   12        2.113836
 
  0.2500000E+00  0.2777778E-01  0.0000000E+00  0.4629630E-02
    1      -21.694869
    2      -18.778157
    3      -13.239430
    4       -9.768920
    5       -9.162911
    6       -7.113566
    7       -6.737322
    8       -6.482511
    9        0.953968
   10        1.068226
   11        1.871400
   12        2.271985
 
  0.2916667E+00  0.2777778E-01  0.0000000E+00  0.4629630E-02
    1      -21.560657
    2      -19.124970
    3      -12.707499
    4       -9.610769
    5       -9.031762
    6       -7.517277
    7       -6.967167
    8       -6.846118
    9        1.250757
   10        1.491791
   11        2.055562
   12        2.458879
 
  0.3333333E+00  0.2777778E-01  0.0000000E+00  0.4629630E-02
    1      -21.406052
    2      -19.454351
    3      -12.168309
    4       -9.429056
    5       -8.882379
    6       -7.962173
    7       -7.202267
    8       -7.201916
    9        1.461266
   10        2.042102
   11        2.267856
   12        2.674509
 
  0.3750000E+00  0.2777778E-01  0.0000000E+00  0.4629630E-02
    1      -21.231170
    2      -19.765627
    3      -11.624347
    4       -9.224163
    5       -8.715716
    6       -8.439002
    7       -7.545456
    8       -7.439189
    9        1.699690
   10        2.508124
   11        2.597196
   12        2.918857
 
  0.4166667E+00  0.2777778E-01  0.0000000E+00  0.4629630E-02
    1      -21.036146
    2      -20.058298
    3      -11.078297
    4       -8.996565
    5       -8.940330
    6       -8.532942
    7       -7.873657
    8       -7.674183
    9        1.965941
   10        2.776066
   11        3.148039
   12        3.191890
 
  0.4583333E+00  0.2777778E-01  0.0000000E+00  0.4629630E-02
    1      -20.821139
    2      -20.331973
    3      -10.533164
    4       -9.459906
    5       -8.746858
    6       -8.335485
    7       -8.184312
    8       -7.903804
    9        2.259890
   10        2.929799
   11        3.070887
   12        3.493523
 
  0.5000000E+00  0.2777778E-01  0.0000000E+00  0.2314815E-02
    1      -20.586341
    2      -20.586341
    3       -9.992381
    4       -9.992381
    5       -8.475789
    6       -8.475789
    7       -8.125075
    8       -8.125075
    9        2.581321
   10        2.581321
   11        3.388909
   12        3.388909
 
  0.0000000E+00  0.5555556E-01  0.0000000E+00  0.2314815E-02
    1      -22.028559
    2      -16.657930
    3      -15.822817
    4      -10.163605
    5       -9.703445
    6       -6.202183
    7       -5.869804
    8       -4.840746
    9       -1.168914
   10        0.615181
   11        1.414279
   12        1.808605
 
  0.4166667E-01  0.5555556E-01  0.0000000E+00  0.4629630E-02
    1      -22.018191
    2      -16.854038
    3      -15.611954
    4      -10.151313
    5       -9.692900
    6       -6.235176
    7       -5.897860
    8       -4.911659
    9       -1.083740
   10        0.629241
   11        1.428472
   12        1.822984
 
  0.8333333E-01  0.5555556E-01  0.0000000E+00  0.4629630E-02
    1      -21.987091
    2      -17.219991
    3      -15.201836
    4      -10.114455
    5       -9.661308
    6       -6.332140
    7       -5.981721
    8       -5.106638
    9       -0.846156
   10        0.671419
   11        1.471047
   12        1.866121
 
  0.1250000E+00  0.5555556E-01  0.0000000E+00  0.4629630E-02
    1      -21.935281
    2      -17.612177
    3      -14.736392
    4      -10.053090
    5       -9.608795
    6       -6.488480
    7       -6.119291
    8       -5.387569
    9       -0.494814
   10        0.741712
   11        1.541994
   12        1.938015
 
  0.1666667E+00  0.5555556E-01  0.0000000E+00  0.4629630E-02
    1      -21.862797
    2      -18.001150
    3      -14.245601
    4       -9.967313
    5       -9.535575
    6       -6.699917
    7       -6.304538
    8       -5.718693
    9       -0.066371
   10        0.840108
   11        1.641292
   12        2.038666
 
  0.2083333E+00  0.5555556E-01  0.0000000E+00  0.4629630E-02
    1      -21.769688
    2      -18.378684
    3      -13.738464
    4       -9.857266
    5       -9.441956
    6       -6.964378
    7       -6.526695
    8       -6.074779
    9        0.412685
   10        0.966590
   11        1.768913
   12        2.168072
 
  0.2500000E+00  0.5555556E-01  0.0000000E+00  0.4629630E-02
    1      -21.656018
    2      -18.741504
    3      -13.219281
    4       -9.723136
    5       -9.328347
    6       -7.281244
    7       -6.772225
    8       -6.439686
    9        0.924601
   10        1.121133
   11        1.924814
   12        2.326230
 
  0.2916667E+00  0.5555556E-01  0.0000000E+00  0.4629630E-02
    1      -21.521871
    2      -19.087948
    3      -12.691030
    4       -9.565166
    5       -9.195271
    6       -7.648454
    7       -7.028804
    8       -6.803229
    9        1.303703
   10        1.457205
   11        2.108936
   12        2.513135
 
  0.3333333E+00  0.5555556E-01  0.0000000E+00  0.4629630E-02
    1      -21.367344
    2      -19.417011
    3      -12.156355
    4       -9.383662
    5       -9.043380
    6       -8.060763
    7       -7.287902
    8       -7.158832
    9        1.514253
   10        2.001534
   11        2.321189
   12        2.728779
 
  0.3750000E+00  0.5555556E-01  0.0000000E+00  0.4629630E-02
    1      -21.192554
    2      -19.728013
    3      -11.617955
    4       -9.179005
    5       -8.873469
    6       -8.510756
    7       -7.544285
    8       -7.502103
    9        1.752724
   10        2.550232
   11        2.561431
   12        2.973148
 
  0.4166667E+00  0.5555556E-01  0.0000000E+00  0.4629630E-02
    1      -20.997638
    2      -20.020448
    3      -11.078793
    4       -8.990627
    5       -8.951671
    6       -8.686500
    7       -7.829996
    8       -7.794491
    9        2.019033
   10        2.829383
   11        3.095627
   12        3.246218
 
  0.4583333E+00  0.5555556E-01  0.0000000E+00  0.4629630E-02
    1      -20.782760
    2      -20.293920
    3      -10.542234
    4       -9.493190
    5       -8.702250
    6       -8.483624
    7       -8.140329
    8       -8.035869
    9        2.313065
   10        2.983428
   11        3.124313
   12        3.547931
 
  0.5000000E+00  0.5555556E-01  0.0000000E+00  0.2314815E-02
    1      -20.548112
    2      -20.548112
    3      -10.012179
    4      -10.012179
    5       -8.431487
    6       -8.431487
    7       -8.266209
    8       -8.266209
    9        2.634640
   10        2.634640
   11        3.442466
   12        3.442466
 
  0.0000000E+00  0.8333333E-01  0.0000000E+00  0.2314815E-02
    1      -21.963573
    2      -16.601801
    3      -15.772056
    4      -10.086577
    5       -9.971595
    6       -6.450474
    7       -6.025652
    8       -4.762106
    9       -1.203661
   10        0.703186
   11        1.503489
   12        1.898974
 
  0.4166667E-01  0.8333333E-01  0.0000000E+00  0.4629630E-02
    1      -21.953212
    2      -16.797515
    3      -15.561928
    4      -10.074308
    5       -9.960861
    6       -6.489742
    7       -6.044085
    8       -4.833999
    9       -1.118193
   10        0.717249
   11        1.517676
   12        1.913353
 
  0.8333333E-01  0.8333333E-01  0.0000000E+00  0.4629630E-02
    1      -21.922134
    2      -17.162513
    3      -15.153806
    4      -10.037522
    5       -9.928686
    6       -6.601320
    7       -6.103828
    8       -5.031136
    9       -0.880511
   10        0.759438
   11        1.560231
   12        1.956492
 
  0.1250000E+00  0.8333333E-01  0.0000000E+00  0.4629630E-02
    1      -21.870361
    2      -17.553672
    3      -14.691177
    4       -9.976274
    5       -9.875161
    6       -6.772408
    7       -6.212422
    8       -5.314155
    9       -0.530516
   10        0.829748
   11        1.631145
   12        2.028390
 
  0.1666667E+00  0.8333333E-01  0.0000000E+00  0.4629630E-02
    1      -21.797930
    2      -17.941701
    3      -14.203949
    4       -9.890663
    5       -9.800431
    6       -6.991495
    7       -6.372950
    8       -5.646711
    9       -0.105453
   10        0.928171
   11        1.730397
   12        2.129046
 
  0.2083333E+00  0.8333333E-01  0.0000000E+00  0.4629630E-02
    1      -21.704890
    2      -18.318403
    3      -13.701221
    4       -9.780829
    5       -9.704705
    6       -7.250922
    7       -6.582071
    8       -6.003544
    9        0.368173
   10        1.054688
   11        1.857959
   12        2.258461
 
  0.2500000E+00  0.8333333E-01  0.0000000E+00  0.4629630E-02
    1      -21.591310
    2      -18.680501
    3      -13.187473
    4       -9.646961
    5       -9.588250
    6       -7.546932
    7       -6.830845
    8       -6.368674
    9        0.872800
   10        1.209274
   11        2.013789
   12        2.416630
 
  0.2916667E+00  0.8333333E-01  0.0000000E+00  0.4629630E-02
    1      -21.457272
    2      -19.026321
    3      -12.665940
    4       -9.489301
    5       -9.451395
    6       -7.878948
    7       -7.106401
    8       -6.732086
    9        1.391891
   10        1.396503
   11        2.197830
   12        2.603550
 
  0.3333333E+00  0.8333333E-01  0.0000000E+00  0.4629630E-02
    1      -21.302875
    2      -19.354846
    3      -12.139610
    4       -9.308156
    5       -9.294524
    6       -8.247935
    7       -7.394459
    8       -7.087339
    9        1.602493
   10        1.930608
   11        2.410002
   12        2.819212
 
  0.3750000E+00  0.8333333E-01  0.0000000E+00  0.4629630E-02
    1      -21.128240
    2      -19.665385
    3      -11.611636
    4       -9.118076
    5       -9.103907
    6       -8.653947
    7       -7.682424
    8       -7.430132
    9        1.841019
   10        2.468216
   11        2.650178
   12        3.063607
 
  0.4166667E+00  0.8333333E-01  0.0000000E+00  0.4629630E-02
    1      -20.933507
    2      -19.957422
    3      -11.085578
    4       -9.094353
    5       -8.922536
    6       -8.877024
    7       -7.961556
    8       -7.757486
    9        2.107393
   10        2.918129
   11        3.003021
   12        3.336717
 
  0.4583333E+00  0.8333333E-01  0.0000000E+00  0.4629630E-02
    1      -20.718845
    2      -20.230552
    3      -10.565575
    4       -9.563985
    5       -8.708427
    6       -8.628098
    7       -8.226982
    8       -8.067259
    9        2.401513
   10        3.072312
   11        3.213248
   12        3.523088
 
  0.5000000E+00  0.8333333E-01  0.0000000E+00  0.2314815E-02
    1      -20.484449
    2      -20.484449
    3      -10.056493
    4      -10.056493
    5       -8.476332
    6       -8.476332
    7       -8.357864
    8       -8.357864
    9        2.723231
   10        2.723231
   11        3.531679
   12        3.531679
 
  0.0000000E+00  0.1111111E+00  0.0000000E+00  0.2314815E-02
    1      -21.872680
    2      -16.523249
    3      -15.702704
    4      -10.319828
    5       -9.978966
    6       -6.774978
    7       -6.237205
    8       -4.652147
    9       -1.257649
   10        0.826442
   11        1.628332
   12        2.025499
 
  0.4166667E-01  0.1111111E+00  0.0000000E+00  0.4629630E-02
    1      -21.862329
    2      -16.718573
    3      -15.493501
    4      -10.308770
    5       -9.966732
    6       -6.819574
    7       -6.246012
    8       -4.725552
    9       -1.171663
   10        0.840505
   11        1.642508
   12        2.039879
 
  0.8333333E-01  0.1111111E+00  0.0000000E+00  0.4629630E-02
    1      -21.831283
    2      -17.082307
    3      -15.088276
    4      -10.275601
    5       -9.930048
    6       -6.942962
    7       -6.281664
    8       -4.925979
    9       -0.933672
   10        0.882694
   11        1.685031
   12        2.083018
 
  0.1250000E+00  0.1111111E+00  0.0000000E+00  0.4629630E-02
    1      -21.779563
    2      -17.472023
    3      -14.629909
    4      -10.220338
    5       -9.868972
    6       -7.125502
    7       -6.360199
    8       -5.212119
    9       -0.585524
   10        0.953009
   11        1.755891
   12        2.154917
 
  0.1666667E+00  0.1111111E+00  0.0000000E+00  0.4629630E-02
    1      -21.707206
    2      -17.858709
    3      -14.148185
    4      -10.143001
    5       -9.783602
    6       -7.351182
    7       -6.491475
    8       -5.546766
    9       -0.165314
   10        1.051444
   11        1.855067
   12        2.255577
 
  0.2083333E+00  0.1111111E+00  0.0000000E+00  0.4629630E-02
    1      -21.614266
    2      -18.234220
    3      -13.652381
    4      -10.043600
    5       -9.674080
    6       -7.609466
    7       -6.677367
    8       -5.904653
    9        0.300475
   10        1.177984
   11        1.982529
   12        2.384998
 
  0.2500000E+00  0.1111111E+00  0.0000000E+00  0.4629630E-02
    1      -21.500811
    2      -18.595283
    3      -13.147320
    4       -9.922119
    5       -9.540595
    6       -7.894094
    7       -6.913400
    8       -6.270060
    9        0.794600
   10        1.332603
   11        2.138236
   12        2.543178
 
  0.2916667E+00  0.1111111E+00  0.0000000E+00  0.4629630E-02
    1      -21.366926
    2      -18.940209
    3      -12.636724
    4       -9.778485
    5       -9.383390
    6       -8.202266
    7       -7.190291
    8       -6.633234
    9        1.305510
   10        1.515261
   11        2.322132
   12        2.730111
 
  0.3333333E+00  0.1111111E+00  0.0000000E+00  0.4629630E-02
    1      -21.212713
    2      -19.267965
    3      -12.124249
    4       -9.612528
    5       -9.202772
    6       -8.534200
    7       -7.495251
    8       -6.987933
    9        1.725907
   10        1.824926
   11        2.534145
   12        2.945792
 
  0.3750000E+00  0.1111111E+00  0.0000000E+00  0.4629630E-02
    1      -21.038297
    2      -19.577842
    3      -11.613943
    4       -9.423936
    5       -8.999119
    6       -8.892420
    7       -7.813474
    8       -7.329997
    9        1.964480
   10        2.346442
   11        2.774171
   12        3.190211
 
  0.4166667E+00  0.1111111E+00  0.0000000E+00  0.4629630E-02
    1      -20.843825
    2      -19.869311
    3      -11.110509
    4       -9.280126
    5       -9.212223
    6       -8.772902
    7       -8.130323
    8       -7.656537
    9        2.230902
   10        2.864699
   11        3.042046
   12        3.463355
 
  0.4583333E+00  0.1111111E+00  0.0000000E+00  0.4629630E-02
    1      -20.629469
    2      -20.141954
    3      -10.619435
    4       -9.698849
    5       -8.976780
    6       -8.524705
    7       -8.433986
    8       -7.965472
    9        2.525077
   10        3.196129
   11        3.337400
   12        3.374447
 
  0.5000000E+00  0.1111111E+00  0.0000000E+00  0.2314815E-02
    1      -20.395432
    2      -20.395432
    3      -10.146849
    4      -10.146849
    5       -8.717175
    6       -8.717175
    7       -8.255255
    8       -8.255255
    9        2.846880
   10        2.846880
   11        3.656270
   12        3.656271
 
  0.0000000E+00  0.1388889E+00  0.0000000E+00  0.2314815E-02
    1      -21.755973
    2      -16.422305
    3      -15.616926
    4      -10.727641
    5       -9.841009
    6       -7.159060
    7       -6.498611
    8       -4.511009
    9       -1.335919
   10        0.984970
   11        1.788751
   12        2.188188
 
  0.4166667E-01  0.1388889E+00  0.0000000E+00  0.4629630E-02
    1      -21.745635
    2      -16.617442
    3      -15.408721
    4      -10.716044
    5       -9.828821
    6       -7.208176
    7       -6.497951
    8       -4.586643
    9       -1.249030
   10        0.999028
   11        1.802910
   12        2.202566
 
  0.8333333E-01  0.1388889E+00  0.0000000E+00  0.4629630E-02
    1      -21.714629
    2      -16.979689
    3      -15.007470
    4      -10.681211
    5       -9.792276
    6       -7.341555
    7       -6.509367
    8       -4.791828
    9       -1.010256
   10        1.041203
   11        1.845383
   12        2.245703
 
  0.1250000E+00  0.1388889E+00  0.0000000E+00  0.4629630E-02
    1      -21.662977
    2      -17.367537
    3      -14.555293
    4      -10.623020
    5       -9.731434
    6       -7.533997
    7       -6.556124
    8       -5.082349
    9       -0.664335
   10        1.111499
   11        1.916157
   12        2.317599
 
  0.1666667E+00  0.1388889E+00  0.0000000E+00  0.4629630E-02
    1      -21.590719
    2      -17.752445
    3      -14.081797
    4      -10.541236
    5       -9.646392
    6       -7.766170
    7       -6.653783
    8       -5.419829
    9       -0.250494
   10        1.209919
   11        2.015209
   12        2.418258
 
  0.2083333E+00  0.1388889E+00  0.0000000E+00  0.4629630E-02
    1      -21.497909
    2      -18.126373
    3      -13.596604
    4      -10.435476
    5       -9.537294
    6       -8.025756
    7       -6.808622
    8       -5.779069
    9        0.204916
   10        1.336453
   11        2.142504
   12        2.547680
 
  0.2500000E+00  0.1388889E+00  0.0000000E+00  0.4629630E-02
    1      -21.384616
    2      -18.486058
    3      -13.105184
    4      -10.305140
    5       -9.404331
    6       -8.305054
    7       -7.019973
    8       -6.144754
    9        0.685175
   10        1.491077
   11        2.297998
   12        2.705865
 
  0.2916667E+00  0.1388889E+00  0.0000000E+00  0.4629630E-02
    1      -21.250930
    2      -18.829797
    3      -12.612206
    4      -10.149329
    5       -9.247747
    6       -8.599567
    7       -7.282036
    8       -6.507511
    9        1.179290
   10        1.673752
   11        2.481629
   12        2.892809
 
  0.3333333E+00  0.1388889E+00  0.0000000E+00  0.4629630E-02
    1      -21.096958
    2      -19.156532
    3      -12.122605
    4       -9.966750
    5       -9.067849
    6       -8.907448
    7       -7.585188
    8       -6.861379
    9        1.679522
   10        1.884421
   11        2.693317
   12        3.108505
 
  0.3750000E+00  0.1388889E+00  0.0000000E+00  0.4629630E-02
    1      -20.922829
    2      -19.465534
    3      -11.642016
    4       -9.755693
    5       -9.229375
    6       -8.865015
    7       -7.916958
    8       -7.202386
    9        2.123016
   10        2.180016
   11        2.932960
   12        3.352944
 
  0.4166667E+00  0.1388889E+00  0.0000000E+00  0.4629630E-02
    1      -20.728698
    2      -19.756251
    3      -11.176803
    4       -9.568433
    5       -9.514245
    6       -8.639714
    7       -8.262871
    8       -7.527768
    9        2.389454
   10        2.676055
   11        3.200423
   12        3.626114
 
  0.4583333E+00  0.1388889E+00  0.0000000E+00  0.4629630E-02
    1      -20.514744
    2      -20.028251
    3      -10.733443
    4       -9.929416
    5       -9.241088
    6       -8.607630
    7       -8.392524
    8       -7.835525
    9        2.683639
   10        3.163625
   11        3.354727
   12        3.495510
 
  0.5000000E+00  0.1388889E+00  0.0000000E+00  0.2314815E-02
    1      -20.281179
    2      -20.281179
    3      -10.317035
    4      -10.317035
    5       -8.937148
    6       -8.937148
    7       -8.124160
    8       -8.124160
    9        3.005450
   10        3.005450
   11        3.638965
   12        3.638965
 
  0.0000000E+00  0.1666667E+00  0.0000000E+00  0.2314815E-02
    1      -21.613572
    2      -16.299011
    3      -15.518356
    4      -11.174241
    5       -9.673020
    6       -7.587138
    7       -6.803271
    8       -4.338876
    9       -1.444378
   10        1.178776
   11        1.984668
   12        2.387044
 
  0.4166667E-01  0.1666667E+00  0.0000000E+00  0.4629630E-02
    1      -21.603251
    2      -16.494503
    3      -15.311047
    4      -11.161726
    5       -9.660893
    6       -7.640262
    7       -6.793298
    8       -4.417783
    9       -1.355892
   10        1.192822
   11        1.998800
   12        2.401420
 
  0.8333333E-01  0.1666667E+00  0.0000000E+00  0.4629630E-02
    1      -21.572296
    2      -16.855165
    3      -14.915240
    4      -11.124050
    5       -9.624531
    6       -7.782586
    7       -6.780376
    8       -4.629751
    9       -1.115349
   10        1.234964
   11        2.041192
   12        2.444550
 
  0.1250000E+00  0.1666667E+00  0.0000000E+00  0.4629630E-02
    1      -21.520730
    2      -17.240691
    3      -14.472166
    4      -11.060800
    5       -9.563994
    6       -7.984176
    7       -6.793999
    8       -4.926251
    9       -0.771752
   10        1.305214
   11        2.111826
   12        2.516438
 
  0.1666667E+00  0.1666667E+00  0.0000000E+00  0.4629630E-02
    1      -21.448593
    2      -17.623327
    3      -14.011218
    4      -10.971219
    5       -9.479383
    6       -8.223017
    7       -6.854674
    8       -5.267404
    9       -0.365744
   10        1.403580
   11        2.210670
   12        2.617086
 
  0.2083333E+00  0.1666667E+00  0.0000000E+00  0.4629630E-02
    1      -21.355942
    2      -17.995221
    3      -13.542729
    4      -10.854097
    5       -9.370843
    6       -8.485541
    7       -6.972584
    8       -5.628253
    9        0.076715
   10        1.530064
   11        2.337677
   12        2.746501
 
  0.2500000E+00  0.1666667E+00  0.0000000E+00  0.4629630E-02
    1      -21.242852
    2      -18.353136
    3      -13.073443
    4      -10.707638
    5       -9.238567
    6       -8.763258
    7       -7.150461
    8       -5.994113
    9        0.539745
   10        1.684651
   11        2.492780
   12        2.904682
 
  0.2916667E+00  0.1666667E+00  0.0000000E+00  0.4629630E-02
    1      -21.109414
    2      -18.695352
    3      -12.609782
    4      -10.529337
    5       -9.082801
    6       -9.050781
    7       -7.385562
    8       -6.356150
    9        1.013190
   10        1.867302
   11        2.675878
   12        3.091629
 
  0.3333333E+00  0.1666667E+00  0.0000000E+00  0.4629630E-02
    1      -20.955743
    2      -19.020783
    3      -12.158715
    4      -10.316067
    5       -9.344957
    6       -8.903855
    7       -7.671062
    8       -6.708780
    9        1.490074
   10        2.077958
   11        2.886816
   12        3.307334
 
  0.3750000E+00  0.1666667E+00  0.0000000E+00  0.4629630E-02
    1      -20.781975
    2      -19.328668
    3      -11.727488
    4      -10.064757
    5       -9.644594
    6       -8.702107
    7       -7.997167
    8       -7.048285
    9        1.965250
   10        2.316541
   11        3.125298
   12        3.551788
 
  0.4166667E+00  0.1666667E+00  0.0000000E+00  0.4629630E-02
    1      -20.588271
    2      -19.618432
    3      -11.322172
    4       -9.950491
    5       -9.774083
    6       -8.478026
    7       -8.351930
    8       -7.372059
    9        2.434651
   10        2.582959
   11        3.390388
   12        3.824977
 
  0.4583333E+00  0.1666667E+00  0.0000000E+00  0.4629630E-02
    1      -20.374822
    2      -19.889618
    3      -10.945412
    4      -10.265621
    5       -9.446909
    6       -8.721740
    7       -8.232181
    8       -7.678202
    9        2.877104
   10        2.894747
   11        3.548035
   12        3.663002
 
  0.5000000E+00  0.1666667E+00  0.0000000E+00  0.2314815E-02
    1      -20.141851
    2      -20.141851
    3      -10.595110
    4      -10.595110
    5       -9.091755
    6       -9.091755
    7       -7.965280
    8       -7.965280
    9        3.198848
   10        3.198848
   11        3.341316
   12        3.341316
 