<?xml version="1.0" encoding="ISO-8859-1"?>
<modeling>
 <generator>
  <i name="program" type="string">vasp </i>
  <i name="version" type="string">5.3.5  </i>
  <i name="subversion" type="string">31Mar14 (build Mar 02 2015 18:14:16) complex                          parallel </i>
  <i name="platform" type="string">LinuxIFC </i>
  <i name="date" type="string">2018 08 09 </i>
  <i name="time" type="string">21:58:58 </i>
 </generator>
 <incar>
  <i type="string" name="SYSTEM">  gr</i>
  <i type="string" name="PREC">accurate : accuracy</i>
  <i type="string" name="ALGO"> FAST.</i>
  <i type="int" name="NELM">   100</i>
  <i type="int" name="NELMDL">    -3</i>
  <i type="int" name="NELMIN">     5</i>
  <i type="int" name="IBRION">     1</i>
  <i name="EDIFF">      0.00000000</i>
  <i name="EDIFFG">     -0.00000100</i>
  <i type="int" name="NSW">   400</i>
  <i type="int" name="ISIF">     2</i>
  <i name="ENCUT">   2000.00000000</i>
  <i type="int" name="ISMEAR">     0</i>
  <i name="SIGMA">      0.05000000</i>
  <i type="int" name="NWRITE">     2</i>
  <i type="logical" name="LWAVE"> F  </i>
  <i type="logical" name="LCHARG"> F  </i>
  <i type="int" name="NELM">   100</i>
 </incar>
 <kpoints>
  <generation param="Gamma">
   <v type="int" name="divisions">      24       36        1 </v>
   <v name="usershift">      0.00000000       0.00000000       0.00000000 </v>
   <v name="genvec1">      0.04166667       0.00000000       0.00000000 </v>
   <v name="genvec2">      0.00000000       0.02777778       0.00000000 </v>
   <v name="genvec3">      0.00000000       0.00000000       1.00000000 </v>
   <v name="shift">      0.00000000       0.00000000       0.00000000 </v>
  </generation>
  <varray name="kpointlist" >
   <v>       0.00000000       0.00000000       0.00000000 </v>
   <v>       0.04166667       0.00000000       0.00000000 </v>
   <v>       0.08333333       0.00000000       0.00000000 </v>
   <v>       0.12500000       0.00000000       0.00000000 </v>
   <v>       0.16666667       0.00000000       0.00000000 </v>
   <v>       0.20833333       0.00000000       0.00000000 </v>
   <v>       0.25000000       0.00000000       0.00000000 </v>
   <v>       0.29166667       0.00000000       0.00000000 </v>
   <v>       0.33333333       0.00000000       0.00000000 </v>
   <v>       0.37500000       0.00000000       0.00000000 </v>
   <v>       0.41666667       0.00000000       0.00000000 </v>
   <v>       0.45833333       0.00000000       0.00000000 </v>
   <v>       0.50000000       0.00000000       0.00000000 </v>
   <v>       0.00000000       0.02777778       0.00000000 </v>
   <v>       0.04166667       0.02777778       0.00000000 </v>
   <v>       0.08333333       0.02777778       0.00000000 </v>
   <v>       0.12500000       0.02777778       0.00000000 </v>
   <v>       0.16666667       0.02777778       0.00000000 </v>
   <v>       0.20833333       0.02777778       0.00000000 </v>
   <v>       0.25000000       0.02777778       0.00000000 </v>
   <v>       0.29166667       0.02777778       0.00000000 </v>
   <v>       0.33333333       0.02777778       0.00000000 </v>
   <v>       0.37500000       0.02777778       0.00000000 </v>
   <v>       0.41666667       0.02777778       0.00000000 </v>
   <v>       0.45833333       0.02777778       0.00000000 </v>
   <v>       0.50000000       0.02777778       0.00000000 </v>
   <v>       0.00000000       0.05555556       0.00000000 </v>
   <v>       0.04166667       0.05555556       0.00000000 </v>
   <v>       0.08333333       0.05555556       0.00000000 </v>
   <v>       0.12500000       0.05555556       0.00000000 </v>
   <v>       0.16666667       0.05555556       0.00000000 </v>
   <v>       0.20833333       0.05555556       0.00000000 </v>
   <v>       0.25000000       0.05555556       0.00000000 </v>
   <v>       0.29166667       0.05555556       0.00000000 </v>
   <v>       0.33333333       0.05555556       0.00000000 </v>
   <v>       0.37500000       0.05555556       0.00000000 </v>
   <v>       0.41666667       0.05555556       0.00000000 </v>
   <v>       0.45833333       0.05555556       0.00000000 </v>
   <v>       0.50000000       0.05555556       0.00000000 </v>
   <v>       0.00000000       0.08333333       0.00000000 </v>
   <v>       0.04166667       0.08333333       0.00000000 </v>
   <v>       0.08333333       0.08333333       0.00000000 </v>
   <v>       0.12500000       0.08333333       0.00000000 </v>
   <v>       0.16666667       0.08333333       0.00000000 </v>
   <v>       0.20833333       0.08333333       0.00000000 </v>
   <v>       0.25000000       0.08333333       0.00000000 </v>
   <v>       0.29166667       0.08333333       0.00000000 </v>
   <v>       0.33333333       0.08333333       0.00000000 </v>
   <v>       0.37500000       0.08333333       0.00000000 </v>
   <v>       0.41666667       0.08333333       0.00000000 </v>
   <v>       0.45833333       0.08333333       0.00000000 </v>
   <v>       0.50000000       0.08333333       0.00000000 </v>
   <v>       0.00000000       0.11111111       0.00000000 </v>
   <v>       0.04166667       0.11111111       0.00000000 </v>
   <v>       0.08333333       0.11111111       0.00000000 </v>
   <v>       0.12500000       0.11111111       0.00000000 </v>
   <v>       0.16666667       0.11111111       0.00000000 </v>
   <v>       0.20833333       0.11111111       0.00000000 </v>
   <v>       0.25000000       0.11111111       0.00000000 </v>
   <v>       0.29166667       0.11111111       0.00000000 </v>
   <v>       0.33333333       0.11111111       0.00000000 </v>
   <v>       0.37500000       0.11111111       0.00000000 </v>
   <v>       0.41666667       0.11111111       0.00000000 </v>
   <v>       0.45833333       0.11111111       0.00000000 </v>
   <v>       0.50000000       0.11111111       0.00000000 </v>
   <v>       0.00000000       0.13888889       0.00000000 </v>
   <v>       0.04166667       0.13888889       0.00000000 </v>
   <v>       0.08333333       0.13888889       0.00000000 </v>
   <v>       0.12500000       0.13888889       0.00000000 </v>
   <v>       0.16666667       0.13888889       0.00000000 </v>
   <v>       0.20833333       0.13888889       0.00000000 </v>
   <v>       0.25000000       0.13888889       0.00000000 </v>
   <v>       0.29166667       0.13888889       0.00000000 </v>
   <v>       0.33333333       0.13888889       0.00000000 </v>
   <v>       0.37500000       0.13888889       0.00000000 </v>
   <v>       0.41666667       0.13888889       0.00000000 </v>
   <v>       0.45833333       0.13888889       0.00000000 </v>
   <v>       0.50000000       0.13888889       0.00000000 </v>
   <v>       0.00000000       0.16666667       0.00000000 </v>
   <v>       0.04166667       0.16666667       0.00000000 </v>
   <v>       0.08333333       0.16666667       0.00000000 </v>
   <v>       0.12500000       0.16666667       0.00000000 </v>
   <v>       0.16666667       0.16666667       0.00000000 </v>
   <v>       0.20833333       0.16666667       0.00000000 </v>
   <v>       0.25000000       0.16666667       0.00000000 </v>
   <v>       0.29166667       0.16666667       0.00000000 </v>
   <v>       0.33333333       0.16666667       0.00000000 </v>
   <v>       0.37500000       0.16666667       0.00000000 </v>
   <v>       0.41666667       0.16666667       0.00000000 </v>
   <v>       0.45833333       0.16666667       0.00000000 </v>
   <v>       0.50000000       0.16666667       0.00000000 </v>
   <v>       0.00000000       0.19444444       0.00000000 </v>
   <v>       0.04166667       0.19444444       0.00000000 </v>
   <v>       0.08333333       0.19444444       0.00000000 </v>
   <v>       0.12500000       0.19444444       0.00000000 </v>
   <v>       0.16666667       0.19444444       0.00000000 </v>
   <v>       0.20833333       0.19444444       0.00000000 </v>
   <v>       0.25000000       0.19444444       0.00000000 </v>
   <v>       0.29166667       0.19444444       0.00000000 </v>
   <v>       0.33333333       0.19444444       0.00000000 </v>
   <v>       0.37500000       0.19444444       0.00000000 </v>
   <v>       0.41666667       0.19444444       0.00000000 </v>
   <v>       0.45833333       0.19444444       0.00000000 </v>
   <v>       0.50000000       0.19444444       0.00000000 </v>
   <v>       0.00000000       0.22222222       0.00000000 </v>
   <v>       0.04166667       0.22222222       0.00000000 </v>
   <v>       0.08333333       0.22222222       0.00000000 </v>
   <v>       0.12500000       0.22222222       0.00000000 </v>
   <v>       0.16666667       0.22222222       0.00000000 </v>
   <v>       0.20833333       0.22222222       0.00000000 </v>
   <v>       0.25000000       0.22222222       0.00000000 </v>
   <v>       0.29166667       0.22222222       0.00000000 </v>
   <v>       0.33333333       0.22222222       0.00000000 </v>
   <v>       0.37500000       0.22222222       0.00000000 </v>
   <v>       0.41666667       0.22222222       0.00000000 </v>
   <v>       0.45833333       0.22222222       0.00000000 </v>
   <v>       0.50000000       0.22222222       0.00000000 </v>
   <v>       0.00000000       0.25000000       0.00000000 </v>
   <v>       0.04166667       0.25000000       0.00000000 </v>
   <v>       0.08333333       0.25000000       0.00000000 </v>
   <v>       0.12500000       0.25000000       0.00000000 </v>
   <v>       0.16666667       0.25000000       0.00000000 </v>
   <v>       0.20833333       0.25000000       0.00000000 </v>
   <v>       0.25000000       0.25000000       0.00000000 </v>
   <v>       0.29166667       0.25000000       0.00000000 </v>
   <v>       0.33333333       0.25000000       0.00000000 </v>
   <v>       0.37500000       0.25000000       0.00000000 </v>
   <v>       0.41666667       0.25000000       0.00000000 </v>
   <v>       0.45833333       0.25000000       0.00000000 </v>
   <v>       0.50000000       0.25000000       0.00000000 </v>
   <v>       0.00000000       0.27777778       0.00000000 </v>
   <v>       0.04166667       0.27777778       0.00000000 </v>
   <v>       0.08333333       0.27777778       0.00000000 </v>
   <v>       0.12500000       0.27777778       0.00000000 </v>
   <v>       0.16666667       0.27777778       0.00000000 </v>
   <v>       0.20833333       0.27777778       0.00000000 </v>
   <v>       0.25000000       0.27777778       0.00000000 </v>
   <v>       0.29166667       0.27777778       0.00000000 </v>
   <v>       0.33333333       0.27777778       0.00000000 </v>
   <v>       0.37500000       0.27777778       0.00000000 </v>
   <v>       0.41666667       0.27777778       0.00000000 </v>
   <v>       0.45833333       0.27777778       0.00000000 </v>
   <v>       0.50000000       0.27777778       0.00000000 </v>
   <v>       0.00000000       0.30555556       0.00000000 </v>
   <v>       0.04166667       0.30555556       0.00000000 </v>
   <v>       0.08333333       0.30555556       0.00000000 </v>
   <v>       0.12500000       0.30555556       0.00000000 </v>
   <v>       0.16666667       0.30555556       0.00000000 </v>
   <v>       0.20833333       0.30555556       0.00000000 </v>
   <v>       0.25000000       0.30555556       0.00000000 </v>
   <v>       0.29166667       0.30555556       0.00000000 </v>
   <v>       0.33333333       0.30555556       0.00000000 </v>
   <v>       0.37500000       0.30555556       0.00000000 </v>
   <v>       0.41666667       0.30555556       0.00000000 </v>
   <v>       0.45833333       0.30555556       0.00000000 </v>
   <v>       0.50000000       0.30555556       0.00000000 </v>
   <v>       0.00000000       0.33333333       0.00000000 </v>
   <v>       0.04166667       0.33333333       0.00000000 </v>
   <v>       0.08333333       0.33333333       0.00000000 </v>
   <v>       0.12500000       0.33333333       0.00000000 </v>
   <v>       0.16666667       0.33333333       0.00000000 </v>
   <v>       0.20833333       0.33333333       0.00000000 </v>
   <v>       0.25000000       0.33333333       0.00000000 </v>
   <v>       0.29166667       0.33333333       0.00000000 </v>
   <v>       0.33333333       0.33333333       0.00000000 </v>
   <v>       0.37500000       0.33333333       0.00000000 </v>
   <v>       0.41666667       0.33333333       0.00000000 </v>
   <v>       0.45833333       0.33333333       0.00000000 </v>
   <v>       0.50000000       0.33333333       0.00000000 </v>
   <v>       0.00000000       0.36111111       0.00000000 </v>
   <v>       0.04166667       0.36111111       0.00000000 </v>
   <v>       0.08333333       0.36111111       0.00000000 </v>
   <v>       0.12500000       0.36111111       0.00000000 </v>
   <v>       0.16666667       0.36111111       0.00000000 </v>
   <v>       0.20833333       0.36111111       0.00000000 </v>
   <v>       0.25000000       0.36111111       0.00000000 </v>
   <v>       0.29166667       0.36111111       0.00000000 </v>
   <v>       0.33333333       0.36111111       0.00000000 </v>
   <v>       0.37500000       0.36111111       0.00000000 </v>
   <v>       0.41666667       0.36111111       0.00000000 </v>
   <v>       0.45833333       0.36111111       0.00000000 </v>
   <v>       0.50000000       0.36111111       0.00000000 </v>
   <v>       0.00000000       0.38888889       0.00000000 </v>
   <v>       0.04166667       0.38888889       0.00000000 </v>
   <v>       0.08333333       0.38888889       0.00000000 </v>
   <v>       0.12500000       0.38888889       0.00000000 </v>
   <v>       0.16666667       0.38888889       0.00000000 </v>
   <v>       0.20833333       0.38888889       0.00000000 </v>
   <v>       0.25000000       0.38888889       0.00000000 </v>
   <v>       0.29166667       0.38888889       0.00000000 </v>
   <v>       0.33333333       0.38888889       0.00000000 </v>
   <v>       0.37500000       0.38888889       0.00000000 </v>
   <v>       0.41666667       0.38888889       0.00000000 </v>
   <v>       0.45833333       0.38888889       0.00000000 </v>
   <v>       0.50000000       0.38888889       0.00000000 </v>
   <v>       0.00000000       0.41666667       0.00000000 </v>
   <v>       0.04166667       0.41666667       0.00000000 </v>
   <v>       0.08333333       0.41666667       0.00000000 </v>
   <v>       0.12500000       0.41666667       0.00000000 </v>
   <v>       0.16666667       0.41666667       0.00000000 </v>
   <v>       0.20833333       0.41666667       0.00000000 </v>
   <v>       0.25000000       0.41666667       0.00000000 </v>
   <v>       0.29166667       0.41666667       0.00000000 </v>
   <v>       0.33333333       0.41666667       0.00000000 </v>
   <v>       0.37500000       0.41666667       0.00000000 </v>
   <v>       0.41666667       0.41666667       0.00000000 </v>
   <v>       0.45833333       0.41666667       0.00000000 </v>
   <v>       0.50000000       0.41666667       0.00000000 </v>
   <v>       0.00000000       0.44444444       0.00000000 </v>
   <v>       0.04166667       0.44444444       0.00000000 </v>
   <v>       0.08333333       0.44444444       0.00000000 </v>
   <v>       0.12500000       0.44444444       0.00000000 </v>
   <v>       0.16666667       0.44444444       0.00000000 </v>
   <v>       0.20833333       0.44444444       0.00000000 </v>
   <v>       0.25000000       0.44444444       0.00000000 </v>
   <v>       0.29166667       0.44444444       0.00000000 </v>
   <v>       0.33333333       0.44444444       0.00000000 </v>
   <v>       0.37500000       0.44444444       0.00000000 </v>
   <v>       0.41666667       0.44444444       0.00000000 </v>
   <v>       0.45833333       0.44444444       0.00000000 </v>
   <v>       0.50000000       0.44444444       0.00000000 </v>
   <v>       0.00000000       0.47222222       0.00000000 </v>
   <v>       0.04166667       0.47222222       0.00000000 </v>
   <v>       0.08333333       0.47222222       0.00000000 </v>
   <v>       0.12500000       0.47222222       0.00000000 </v>
   <v>       0.16666667       0.47222222       0.00000000 </v>
   <v>       0.20833333       0.47222222       0.00000000 </v>
   <v>       0.25000000       0.47222222       0.00000000 </v>
   <v>       0.29166667       0.47222222       0.00000000 </v>
   <v>       0.33333333       0.47222222       0.00000000 </v>
   <v>       0.37500000       0.47222222       0.00000000 </v>
   <v>       0.41666667       0.47222222       0.00000000 </v>
   <v>       0.45833333       0.47222222       0.00000000 </v>
   <v>       0.50000000       0.47222222       0.00000000 </v>
   <v>       0.00000000       0.50000000       0.00000000 </v>
   <v>       0.04166667       0.50000000       0.00000000 </v>
   <v>       0.08333333       0.50000000       0.00000000 </v>
   <v>       0.12500000       0.50000000       0.00000000 </v>
   <v>       0.16666667       0.50000000       0.00000000 </v>
   <v>       0.20833333       0.50000000       0.00000000 </v>
   <v>       0.25000000       0.50000000       0.00000000 </v>
   <v>       0.29166667       0.50000000       0.00000000 </v>
   <v>       0.33333333       0.50000000       0.00000000 </v>
   <v>       0.37500000       0.50000000       0.00000000 </v>
   <v>       0.41666667       0.50000000       0.00000000 </v>
   <v>       0.45833333       0.50000000       0.00000000 </v>
   <v>       0.50000000       0.50000000       0.00000000 </v>
  </varray>
  <varray name="weights" >
   <v>       0.00115741 </v>
   <v>       0.00231481 </v>
   <v>       0.00231481 </v>
   <v>       0.00231481 </v>
   <v>       0.00231481 </v>
   <v>       0.00231481 </v>
   <v>       0.00231481 </v>
   <v>       0.00231481 </v>
   <v>       0.00231481 </v>
   <v>       0.00231481 </v>
   <v>       0.00231481 </v>
   <v>       0.00231481 </v>
   <v>       0.00115741 </v>
   <v>       0.00231481 </v>
   <v>       0.00462963 </v>
   <v>       0.00462963 </v>
   <v>       0.00462963 </v>
   <v>       0.00462963 </v>
   <v>       0.00462963 </v>
   <v>       0.00462963 </v>
   <v>       0.00462963 </v>
   <v>       0.00462963 </v>
   <v>       0.00462963 </v>
   <v>       0.00462963 </v>
   <v>       0.00462963 </v>
   <v>       0.00231481 </v>
   <v>       0.00231481 </v>
   <v>       0.00462963 </v>
   <v>       0.00462963 </v>
   <v>       0.00462963 </v>
   <v>       0.00462963 </v>
   <v>       0.00462963 </v>
   <v>       0.00462963 </v>
   <v>       0.00462963 </v>
   <v>       0.00462963 </v>
   <v>       0.00462963 </v>
   <v>       0.00462963 </v>
   <v>       0.00462963 </v>
   <v>       0.00231481 </v>
   <v>       0.00231481 </v>
   <v>       0.00462963 </v>
   <v>       0.00462963 </v>
   <v>       0.00462963 </v>
   <v>       0.00462963 </v>
   <v>       0.00462963 </v>
   <v>       0.00462963 </v>
   <v>       0.00462963 </v>
   <v>       0.00462963 </v>
   <v>       0.00462963 </v>
   <v>       0.00462963 </v>
   <v>       0.00462963 </v>
   <v>       0.00231481 </v>
   <v>       0.00231481 </v>
   <v>       0.00462963 </v>
   <v>       0.00462963 </v>
   <v>       0.00462963 </v>
   <v>       0.00462963 </v>
   <v>       0.00462963 </v>
   <v>       0.00462963 </v>
   <v>       0.00462963 </v>
   <v>       0.00462963 </v>
   <v>       0.00462963 </v>
   <v>       0.00462963 </v>
   <v>       0.00462963 </v>
   <v>       0.00231481 </v>
   <v>       0.00231481 </v>
   <v>       0.00462963 </v>
   <v>       0.00462963 </v>
   <v>       0.00462963 </v>
   <v>       0.00462963 </v>
   <v>       0.00462963 </v>
   <v>       0.00462963 </v>
   <v>       0.00462963 </v>
   <v>       0.00462963 </v>
   <v>       0.00462963 </v>
   <v>       0.00462963 </v>
   <v>       0.00462963 </v>
   <v>       0.00231481 </v>
   <v>       0.00231481 </v>
   <v>       0.00462963 </v>
   <v>       0.00462963 </v>
   <v>       0.00462963 </v>
   <v>       0.00462963 </v>
   <v>       0.00462963 </v>
   <v>       0.00462963 </v>
   <v>       0.00462963 </v>
   <v>       0.00462963 </v>
   <v>       0.00462963 </v>
   <v>       0.00462963 </v>
   <v>       0.00462963 </v>
   <v>       0.00231481 </v>
   <v>       0.00231481 </v>
   <v>       0.00462963 </v>
   <v>       0.00462963 </v>
   <v>       0.00462963 </v>
   <v>       0.00462963 </v>
   <v>       0.00462963 </v>
   <v>       0.00462963 </v>
   <v>       0.00462963 </v>
   <v>       0.00462963 </v>
   <v>       0.00462963 </v>
   <v>       0.00462963 </v>
   <v>       0.00462963 </v>
   <v>       0.00231481 </v>
   <v>       0.00231481 </v>
   <v>       0.00462963 </v>
   <v>       0.00462963 </v>
   <v>       0.00462963 </v>
   <v>       0.00462963 </v>
   <v>       0.00462963 </v>
   <v>       0.00462963 </v>
   <v>       0.00462963 </v>
   <v>       0.00462963 </v>
   <v>       0.00462963 </v>
   <v>       0.00462963 </v>
   <v>       0.00462963 </v>
   <v>       0.00231481 </v>
   <v>       0.00231481 </v>
   <v>       0.00462963 </v>
   <v>       0.00462963 </v>
   <v>       0.00462963 </v>
   <v>       0.00462963 </v>
   <v>       0.00462963 </v>
   <v>       0.00462963 </v>
   <v>       0.00462963 </v>
   <v>       0.00462963 </v>
   <v>       0.00462963 </v>
   <v>       0.00462963 </v>
   <v>       0.00462963 </v>
   <v>       0.00231481 </v>
   <v>       0.00231481 </v>
   <v>       0.00462963 </v>
   <v>       0.00462963 </v>
   <v>       0.00462963 </v>
   <v>       0.00462963 </v>
   <v>       0.00462963 </v>
   <v>       0.00462963 </v>
   <v>       0.00462963 </v>
   <v>       0.00462963 </v>
   <v>       0.00462963 </v>
   <v>       0.00462963 </v>
   <v>       0.00462963 </v>
   <v>       0.00231481 </v>
   <v>       0.00231481 </v>
   <v>       0.00462963 </v>
   <v>       0.00462963 </v>
   <v>       0.00462963 </v>
   <v>       0.00462963 </v>
   <v>       0.00462963 </v>
   <v>       0.00462963 </v>
   <v>       0.00462963 </v>
   <v>       0.00462963 </v>
   <v>       0.00462963 </v>
   <v>       0.00462963 </v>
   <v>       0.00462963 </v>
   <v>       0.00231481 </v>
   <v>       0.00231481 </v>
   <v>       0.00462963 </v>
   <v>       0.00462963 </v>
   <v>       0.00462963 </v>
   <v>       0.00462963 </v>
   <v>       0.00462963 </v>
   <v>       0.00462963 </v>
   <v>       0.00462963 </v>
   <v>       0.00462963 </v>
   <v>       0.00462963 </v>
   <v>       0.00462963 </v>
   <v>       0.00462963 </v>
   <v>       0.00231481 </v>
   <v>       0.00231481 </v>
   <v>       0.00462963 </v>
   <v>       0.00462963 </v>
   <v>       0.00462963 </v>
   <v>       0.00462963 </v>
   <v>       0.00462963 </v>
   <v>       0.00462963 </v>
   <v>       0.00462963 </v>
   <v>       0.00462963 </v>
   <v>       0.00462963 </v>
   <v>       0.00462963 </v>
   <v>       0.00462963 </v>
   <v>       0.00231481 </v>
   <v>       0.00231481 </v>
   <v>       0.00462963 </v>
   <v>       0.00462963 </v>
   <v>       0.00462963 </v>
   <v>       0.00462963 </v>
   <v>       0.00462963 </v>
   <v>       0.00462963 </v>
   <v>       0.00462963 </v>
   <v>       0.00462963 </v>
   <v>       0.00462963 </v>
   <v>       0.00462963 </v>
   <v>       0.00462963 </v>
   <v>       0.00231481 </v>
   <v>       0.00231481 </v>
   <v>       0.00462963 </v>
   <v>       0.00462963 </v>
   <v>       0.00462963 </v>
   <v>       0.00462963 </v>
   <v>       0.00462963 </v>
   <v>       0.00462963 </v>
   <v>       0.00462963 </v>
   <v>       0.00462963 </v>
   <v>       0.00462963 </v>
   <v>       0.00462963 </v>
   <v>       0.00462963 </v>
   <v>       0.00231481 </v>
   <v>       0.00231481 </v>
   <v>       0.00462963 </v>
   <v>       0.00462963 </v>
   <v>       0.00462963 </v>
   <v>       0.00462963 </v>
   <v>       0.00462963 </v>
   <v>       0.00462963 </v>
   <v>       0.00462963 </v>
   <v>       0.00462963 </v>
   <v>       0.00462963 </v>
   <v>       0.00462963 </v>
   <v>       0.00462963 </v>
   <v>       0.00231481 </v>
   <v>       0.00231481 </v>
   <v>       0.00462963 </v>
   <v>       0.00462963 </v>
   <v>       0.00462963 </v>
   <v>       0.00462963 </v>
   <v>       0.00462963 </v>
   <v>       0.00462963 </v>
   <v>       0.00462963 </v>
   <v>       0.00462963 </v>
   <v>       0.00462963 </v>
   <v>       0.00462963 </v>
   <v>       0.00462963 </v>
   <v>       0.00231481 </v>
   <v>       0.00115741 </v>
   <v>       0.00231481 </v>
   <v>       0.00231481 </v>
   <v>       0.00231481 </v>
   <v>       0.00231481 </v>
   <v>       0.00231481 </v>
   <v>       0.00231481 </v>
   <v>       0.00231481 </v>
   <v>       0.00231481 </v>
   <v>       0.00231481 </v>
   <v>       0.00231481 </v>
   <v>       0.00231481 </v>
   <v>       0.00115741 </v>
  </varray>
 </kpoints>
 <parameters>
  <separator name="general" >
   <i type="string" name="SYSTEM">gr</i>
   <i type="logical" name="LCOMPAT"> F  </i>
  </separator>
  <separator name="electronic" >
   <i type="string" name="PREC">accura</i>
   <i name="ENMAX">   2000.00000000</i>
   <i name="ENAUG">    644.87300000</i>
   <i name="EDIFF">      0.00000000</i>
   <i type="int" name="IALGO">    68</i>
   <i type="int" name="IWAVPR">    11</i>
   <i type="int" name="NBANDS">    12</i>
   <i name="NELECT">     16.00000000</i>
   <i type="int" name="TURBO">     0</i>
   <i type="int" name="IRESTART">     0</i>
   <i type="int" name="NREBOOT">     0</i>
   <i type="int" name="NMIN">     0</i>
   <i name="EREF">      0.00000000</i>
   <separator name="electronic smearing" >
    <i type="int" name="ISMEAR">     0</i>
    <i name="SIGMA">      0.05000000</i>
    <i name="KSPACING">      0.50000000</i>
    <i type="logical" name="KGAMMA"> T  </i>
   </separator>
   <separator name="electronic projectors" >
    <i type="logical" name="LREAL"> F  </i>
    <v name="ROPT">      0.00000000</v>
    <i type="int" name="LMAXPAW">  -100</i>
    <i type="int" name="LMAXMIX">     2</i>
    <i type="logical" name="NLSPLINE"> F  </i>
   </separator>
   <separator name="electronic startup" >
    <i type="int" name="ISTART">     0</i>
    <i type="int" name="ICHARG">     2</i>
    <i type="int" name="INIWAV">     1</i>
   </separator>
   <separator name="electronic spin" >
    <i type="int" name="ISPIN">     1</i>
    <i type="logical" name="LNONCOLLINEAR"> F  </i>
    <v name="MAGMOM">      1.00000000      1.00000000      1.00000000      1.00000000</v>
    <i name="NUPDOWN">     -1.00000000</i>
    <i type="logical" name="LSORBIT"> F  </i>
    <v name="SAXIS">      0.00000000      0.00000000      1.00000000</v>
    <i type="logical" name="LSPIRAL"> F  </i>
    <v name="QSPIRAL">      0.00000000      0.00000000      0.00000000</v>
    <i type="logical" name="LZEROZ"> F  </i>
   </separator>
   <separator name="electronic exchange-correlation" >
    <i type="logical" name="LASPH"> F  </i>
    <i type="logical" name="LMETAGGA"> F  </i>
   </separator>
   <separator name="electronic convergence" >
    <i type="int" name="NELM">   100</i>
    <i type="int" name="NELMDL">    -3</i>
    <i type="int" name="NELMIN">     5</i>
    <i name="ENINI">   2000.00000000</i>
    <separator name="electronic convergence detail" >
     <i type="logical" name="LDIAG"> T  </i>
     <i type="logical" name="LSUBROT"> F  </i>
     <i name="WEIMIN">      0.00100000</i>
     <i name="EBREAK">      0.00000000</i>
     <i name="DEPER">      0.30000000</i>
     <i type="int" name="NRMM">     4</i>
     <i name="TIME">      0.40000000</i>
    </separator>
   </separator>
   <separator name="electronic mixer" >
    <i name="AMIX">      0.40000000</i>
    <i name="BMIX">      1.00000000</i>
    <i name="AMIN">      0.10000000</i>
    <i name="AMIX_MAG">      1.60000000</i>
    <i name="BMIX_MAG">      1.00000000</i>
    <separator name="electronic mixer details" >
     <i type="int" name="IMIX">     4</i>
     <i type="int" name="MAXMIX">   -45</i>
     <i name="WC">    100.00000000</i>
     <i type="int" name="INIMIX">     1</i>
     <i type="int" name="MIXPRE">     1</i>
     <i type="int" name="MREMOVE">     5</i>
    </separator>
   </separator>
   <separator name="electronic dipolcorrection" >
    <i type="logical" name="LDIPOL"> F  </i>
    <i type="logical" name="LMONO"> F  </i>
    <i type="int" name="IDIPOL">     0</i>
    <i name="EPSILON">      1.00000000</i>
    <v name="DIPOL">   -100.00000000   -100.00000000   -100.00000000</v>
    <i name="EFIELD">      0.00000000</i>
   </separator>
  </separator>
  <separator name="grids" >
   <i type="int" name="NGX">    64</i>
   <i type="int" name="NGY">    40</i>
   <i type="int" name="NGZ">   288</i>
   <i type="int" name="NGXF">   128</i>
   <i type="int" name="NGYF">    80</i>
   <i type="int" name="NGZF">   576</i>
   <i type="logical" name="ADDGRID"> F  </i>
  </separator>
  <separator name="ionic" >
   <i type="int" name="NSW">   400</i>
   <i type="int" name="IBRION">     1</i>
   <i type="int" name="ISIF">     2</i>
   <i name="PSTRESS">      0.00000000</i>
   <i name="EDIFFG">     -0.00000100</i>
   <i type="int" name="NFREE">     0</i>
   <i name="POTIM">      0.50000000</i>
   <i name="SMASS">     -3.00000000</i>
   <i name="SCALEE">      1.00000000</i>
  </separator>
  <separator name="ionic md" >
   <i name="TEBEG">      0.00010000</i>
   <i name="TEEND">      0.00010000</i>
   <i type="int" name="NBLOCK">     1</i>
   <i type="int" name="KBLOCK">   400</i>
   <i type="int" name="NPACO">   256</i>
   <i name="APACO">     16.00000000</i>
  </separator>
  <separator name="symmetry" >
   <i type="int" name="ISYM">     2</i>
   <i name="SYMPREC">      0.00001000</i>
  </separator>
  <separator name="dos" >
   <i type="logical" name="LORBIT"> F  </i>
   <v name="RWIGS">     -1.00000000</v>
   <i type="int" name="NEDOS">   301</i>
   <i name="EMIN">     10.00000000</i>
   <i name="EMAX">    -10.00000000</i>
   <i name="EFERMI">      0.00000000</i>
  </separator>
  <separator name="writing" >
   <i type="int" name="NWRITE">     2</i>
   <i type="logical" name="LWAVE"> F  </i>
   <i type="logical" name="LCHARG"> F  </i>
   <i type="logical" name="LPARD"> F  </i>
   <i type="logical" name="LVTOT"> F  </i>
   <i type="logical" name="LVHAR"> F  </i>
   <i type="logical" name="LELF"> F  </i>
   <i type="logical" name="LOPTICS"> F  </i>
   <v name="STM">      0.00000000      0.00000000      0.00000000      0.00000000      0.00000000      0.00000000      0.00000000</v>
  </separator>
  <separator name="performance" >
   <i type="int" name="NPAR">     4</i>
   <i type="int" name="NSIM">     4</i>
   <i type="int" name="NBLK">    -1</i>
   <i type="logical" name="LPLANE"> T  </i>
   <i type="logical" name="LSCALAPACK"> F  </i>
   <i type="logical" name="LSCAAWARE"> F  </i>
   <i type="logical" name="LSCALU"> F  </i>
   <i type="logical" name="LASYNC"> F  </i>
   <i type="logical" name="LORBITALREAL"> F  </i>
  </separator>
  <separator name="miscellaneous" >
   <i type="int" name="IDIOT">     3</i>
   <i type="logical" name="LMUSIC"> F  </i>
   <v name="POMASS">     12.01100000</v>
   <v name="DARWINR">      0.00000000</v>
   <v name="DARWINV">      1.00000000</v>
   <i type="logical" name="LCORR"> T  </i>
  </separator>
  <i type="logical" name="GGA_COMPAT"> T  </i>
  <i type="logical" name="LBERRY"> F  </i>
  <i type="int" name="ICORELEVEL">     0</i>
  <i type="logical" name="LDAU"> F  </i>
  <i type="int" name="I_CONSTRAINED_M">     0</i>
  <separator name="electronic exchange-correlation" >
   <i type="string" name="GGA">--</i>
   <i type="int" name="VOSKOWN">     0</i>
   <i type="logical" name="LHFCALC"> F  </i>
   <i type="string" name="PRECFOCK"></i>
   <i type="logical" name="LSYMGRAD"> F  </i>
   <i type="logical" name="LHFONE"> F  </i>
   <i type="logical" name="LRHFCALC"> F  </i>
   <i type="logical" name="LTHOMAS"> F  </i>
   <i type="logical" name="LMODELHF"> F  </i>
   <i name="ENCUT4O">     -1.00000000</i>
   <i type="int" name="EXXOEP">     0</i>
   <i type="int" name="FOURORBIT">     0</i>
   <i name="AEXX">      0.00000000</i>
   <i name="HFALPHA">      0.00000000</i>
   <i name="MCALPHA">      0.00000000</i>
   <i name="ALDAX">      1.00000000</i>
   <i name="AGGAX">      1.00000000</i>
   <i name="ALDAC">      1.00000000</i>
   <i name="AGGAC">      1.00000000</i>
   <i type="int" name="NKREDX">     1</i>
   <i type="int" name="NKREDY">     1</i>
   <i type="int" name="NKREDZ">     1</i>
   <i type="logical" name="SHIFTRED"> F  </i>
   <i type="logical" name="ODDONLY"> F  </i>
   <i type="logical" name="EVENONLY"> F  </i>
   <i type="int" name="LMAXFOCK">     0</i>
   <i type="int" name="NMAXFOCKAE">     0</i>
   <i type="logical" name="LFOCKAEDFT"> F  </i>
   <i name="HFSCREEN">      0.00000000</i>
   <i name="HFSCREENC">      0.00000000</i>
   <i type="int" name="NBANDSGWLOW">     0</i>
  </separator>
  <separator name="vdW DFT" >
   <i type="logical" name="LUSE_VDW"> F  </i>
   <i name="Zab_VDW">     -0.84910000</i>
   <i name="PARAM1">      0.12340000</i>
   <i name="PARAM2">      1.00000000</i>
   <i name="PARAM3">      0.00000000</i>
  </separator>
  <separator name="model GW" >
   <i type="int" name="MODEL_GW">     0</i>
   <i name="MODEL_EPS0">     31.62568521</i>
   <i name="MODEL_ALPHA">      1.00000000</i>
  </separator>
  <separator name="linear response parameters" >
   <i type="logical" name="LEPSILON"> F  </i>
   <i type="logical" name="LRPA"> F  </i>
   <i type="logical" name="LNABLA"> F  </i>
   <i type="logical" name="LVEL"> F  </i>
   <i type="int" name="KINTER">     0</i>
   <i name="CSHIFT">      0.10000000</i>
   <i name="OMEGAMAX">     -1.00000000</i>
   <i name="DEG_THRESHOLD">      0.00200000</i>
  </separator>
  <separator name="orbital magnetization" >
   <i type="logical" name="NUCIND"> F  </i>
   <v name="MAGPOS">      0.00000000      0.00000000      0.00000000</v>
   <i type="logical" name="LNICSALL"> T  </i>
   <i type="logical" name="ORBITALMAG"> F  </i>
   <i type="logical" name="LMAGBLOCH"> F  </i>
   <i type="logical" name="LCHIMAG"> F  </i>
   <i type="logical" name="LGAUGE"> T  </i>
   <i type="int" name="MAGATOM">     0</i>
   <v name="MAGDIPOL">      0.00000000      0.00000000      0.00000000</v>
   <v name="AVECCONST">      0.00000000      0.00000000      0.00000000</v>
  </separator>
  <separator name="response functions" >
   <i type="logical" name="LADDER"> F  </i>
   <i type="logical" name="LFXC"> F  </i>
   <i type="logical" name="LHARTREE"> T  </i>
   <i type="int" name="IBSE">     0</i>
   <i type="logical" name="LTCTE"> F  </i>
   <i type="logical" name="LTETE"> F  </i>
   <i type="logical" name="LTRIPLET"> F  </i>
   <i type="logical" name="LFXCEPS"> F  </i>
   <i type="logical" name="LFXHEG"> F  </i>
   <i type="logical" name="L2ORDER"> F  </i>
   <i type="logical" name="LUSEW"> F  </i>
   <i name="ENCUTGW">     -2.00000000</i>
   <i name="ENCUTGWSOFT">     -2.00000000</i>
   <i name="ENCUTLF">     -1.00000000</i>
   <i type="int" name="LMAXMP2">    -1</i>
   <i name="SCISSOR">      0.00000000</i>
   <i type="int" name="NOMEGA">     0</i>
   <i type="int" name="NOMEGAR">     0</i>
   <i type="int" name="NBANDSGW">    -1</i>
   <i type="int" name="NBANDSO">    -1</i>
   <i type="int" name="NBANDSV">    -1</i>
   <i type="int" name="NELM">   100</i>
   <i type="int" name="DIM">     3</i>
   <i type="int" name="ANTIRES">     0</i>
   <i name="OMEGAMAX">    -30.00000000</i>
   <i name="OMEGAMIN">    -30.00000000</i>
   <i name="OMEGATL">   -200.00000000</i>
   <i type="int" name="OMEGAGRID">     0</i>
   <i name="CSHIFT">     -0.10000000</i>
   <i type="logical" name="SELFENERGY"> F  </i>
   <i type="logical" name="LSPECTRAL"> F  </i>
   <i type="logical" name="ODDONLYGW"> F  </i>
   <i type="logical" name="EVENONLYGW"> F  </i>
   <i type="int" name="NKREDLFX">     1</i>
   <i type="int" name="NKREDLFY">     1</i>
   <i type="int" name="NKREDLFZ">     1</i>
   <i type="int" name="MAXMEM">  1800</i>
   <i type="int" name="TELESCOPE">     0</i>
   <i type="int" name="TAUPAR">     1</i>
  </separator>
  <separator name="External order field" >
   <i name="OFIELD_KAPPA">      0.00000000</i>
   <v name="OFIELD_K">      0.00000000      0.00000000      0.00000000</v>
   <i name="OFIELD_Q6_NEAR">      0.00000000</i>
   <i name="OFIELD_Q6_FAR">      0.00000000</i>
   <i name="OFIELD_A">      0.00000000</i>
  </separator>
 </parameters>
 <atominfo>
  <atoms>       4 </atoms>
  <types>       1 </types>
  <array name="atoms" >
   <dimension dim="1">ion</dimension>
   <field type="string">element</field>
   <field type="int">atomtype</field>
   <set>
    <rc><c>C </c><c>   1</c></rc>
    <rc><c>C </c><c>   1</c></rc>
    <rc><c>C </c><c>   1</c></rc>
    <rc><c>C </c><c>   1</c></rc>
   </set>
  </array>
  <array name="atomtypes" >
   <dimension dim="1">type</dimension>
   <field type="int">atomspertype</field>
   <field type="string">element</field>
   <field>mass</field>
   <field>valence</field>
   <field type="string">pseudopotential</field>
   <set>
    <rc><c>   4</c><c>C </c><c>     12.01100000</c><c>      4.00000000</c><c> PAW_PBE C 08Apr2002                    </c></rc>
   </set>
  </array>
 </atominfo>
 <structure name="initialpos" >
  <crystal>
   <varray name="basis" >
    <v>       4.25507122       0.00000000       0.00000000 </v>
    <v>       0.00000000       2.52935494       0.00000000 </v>
    <v>       0.00000000       0.00000000      19.58989343 </v>
   </varray>
   <i name="volume">    210.83790140 </i>
   <varray name="rec_basis" >
    <v>       0.23501369       0.00000000       0.00000000 </v>
    <v>       0.00000000       0.39535772       0.00000000 </v>
    <v>       0.00000000       0.00000000       0.05104673 </v>
   </varray>
  </crystal>
  <varray name="positions" >
   <v>       0.00063729       0.00000000       0.00000000 </v>
   <v>       0.16602938       0.50000000       0.00000000 </v>
   <v>       0.50063729       0.50000000       0.00000000 </v>
   <v>       0.66602938       0.00000000       0.00000000 </v>
  </varray>
 </structure>
 <calculation>
  <scstep>
   <time name="dav">  316.59  317.49</time>
   <time name="total">  319.36  320.87</time>
   <energy>
    <i name="alphaZ">      6.18334092 </i>
    <i name="ewald">   2449.30124015 </i>
    <i name="hartreedc">  -2878.80261018 </i>
    <i name="XCdc">     54.81664994 </i>
    <i name="pawpsdc">    151.32577238 </i>
    <i name="pawaedc">   -155.92769107 </i>
    <i name="eentropy">     -0.00159207 </i>
    <i name="bandstr">    -30.54902496 </i>
    <i name="atom">    588.62352690 </i>
    <i name="e_fr_energy">    184.96961201 </i>
    <i name="e_wo_entrp">    184.97120408 </i>
    <i name="e_0_energy">    184.97040804 </i>
   </energy>
  </scstep>
  <scstep>
   <time name="dav">  476.76  477.14</time>
   <time name="total">  476.77  483.28</time>
   <energy>
    <i name="e_fr_energy">     -9.61259115 </i>
    <i name="e_wo_entrp">     -9.61227379 </i>
    <i name="e_0_energy">     -9.61243247 </i>
   </energy>
  </scstep>
  <scstep>
   <time name="dav">  366.05  366.41</time>
   <time name="total">  399.76  400.58</time>
   <energy>
    <i name="e_fr_energy">    -38.10402541 </i>
    <i name="e_wo_entrp">    -38.10402540 </i>
    <i name="e_0_energy">    -38.10402540 </i>
   </energy>
  </scstep>
  <scstep>
   <time name="diag">   87.17   87.22</time>
   <time name="diis">  368.07  368.18</time>
   <time name="orth">    3.09    3.09</time>
   <time name="total">  494.59  495.53</time>
   <energy>
    <i name="e_fr_energy">    -37.57213467 </i>
    <i name="e_wo_entrp">    -37.57213466 </i>
    <i name="e_0_energy">    -37.57213466 </i>
   </energy>
  </scstep>
  <scstep>
   <time name="diag">   87.25   87.27</time>
   <time name="diis">  358.62  359.17</time>
   <time name="orth">    3.09    3.09</time>
   <time name="total">  485.17  486.03</time>
   <energy>
    <i name="e_fr_energy">    -36.86659375 </i>
    <i name="e_wo_entrp">    -36.86659374 </i>
    <i name="e_0_energy">    -36.86659374 </i>
   </energy>
  </scstep>
  <scstep>
   <time name="diag">   87.20   87.23</time>
   <time name="diis">  398.65  398.76</time>
   <time name="orth">    3.07    3.07</time>
   <time name="total">  525.22  525.46</time>
   <energy>
    <i name="e_fr_energy">    -36.86846560 </i>
    <i name="e_wo_entrp">    -36.86846558 </i>
    <i name="e_0_energy">    -36.86846559 </i>
   </energy>
  </scstep>
  <scstep>
   <time name="diag">   87.23   87.25</time>
   <time name="diis">  360.50  360.58</time>
   <time name="orth">    3.09    3.09</time>
   <time name="total">  487.08  511.45</time>
   <energy>
    <i name="e_fr_energy">    -36.85949996 </i>
    <i name="e_wo_entrp">    -36.85949995 </i>
    <i name="e_0_energy">    -36.85949996 </i>
   </energy>
  </scstep>
  <scstep>
   <time name="diag">   87.16   87.19</time>
   <time name="diis">  360.65  361.54</time>
   <time name="orth">    3.07    3.09</time>
   <time name="total">  487.11  488.24</time>
   <energy>
    <i name="e_fr_energy">    -36.85471754 </i>
    <i name="e_wo_entrp">    -36.85471752 </i>
    <i name="e_0_energy">    -36.85471753 </i>
   </energy>
  </scstep>
  <scstep>
   <time name="diag">   86.80   87.26</time>
   <time name="diis">  349.72  351.03</time>
   <time name="orth">    3.08    3.10</time>
   <time name="total">  475.77  477.74</time>
   <energy>
    <i name="e_fr_energy">    -36.85457015 </i>
    <i name="e_wo_entrp">    -36.85457013 </i>
    <i name="e_0_energy">    -36.85457014 </i>
   </energy>
  </scstep>
  <scstep>
   <time name="diag">   86.81   87.27</time>
   <time name="diis">  351.73  352.16</time>
   <time name="orth">    3.08    3.08</time>
   <time name="total">  477.91  478.86</time>
   <energy>
    <i name="e_fr_energy">    -36.85453825 </i>
    <i name="e_wo_entrp">    -36.85453823 </i>
    <i name="e_0_energy">    -36.85453824 </i>
   </energy>
  </scstep>
  <scstep>
   <time name="diag">   86.80   87.22</time>
   <time name="diis">  353.20  353.94</time>
   <time name="orth">    3.10    3.10</time>
   <time name="total">  479.40  480.67</time>
   <energy>
    <i name="e_fr_energy">    -36.85681099 </i>
    <i name="e_wo_entrp">    -36.85681098 </i>
    <i name="e_0_energy">    -36.85681098 </i>
   </energy>
  </scstep>
  <scstep>
   <time name="diag">   87.22   87.25</time>
   <time name="diis">  352.74  353.16</time>
   <time name="orth">    3.10    3.10</time>
   <time name="total">  479.32  482.11</time>
   <energy>
    <i name="e_fr_energy">    -36.85731297 </i>
    <i name="e_wo_entrp">    -36.85731296 </i>
    <i name="e_0_energy">    -36.85731296 </i>
   </energy>
  </scstep>
  <scstep>
   <time name="diag">   87.19   87.21</time>
   <time name="diis">  360.76  362.14</time>
   <time name="orth">    3.07    3.09</time>
   <time name="total">  487.22 5858.89</time>
   <energy>
    <i name="e_fr_energy">    -36.85755718 </i>
    <i name="e_wo_entrp">    -36.85755716 </i>
    <i name="e_0_energy">    -36.85755717 </i>
   </energy>
  </scstep>
  <scstep>
   <time name="diag">   86.92   87.31</time>
   <time name="diis">  356.64  356.74</time>
   <time name="orth">    3.07    3.07</time>
   <time name="total">  483.00  483.57</time>
   <energy>
    <i name="e_fr_energy">    -36.85763818 </i>
    <i name="e_wo_entrp">    -36.85763817 </i>
    <i name="e_0_energy">    -36.85763817 </i>
   </energy>
  </scstep>
  <scstep>
   <time name="diag">   87.27   87.33</time>
   <time name="diis">  354.28  354.42</time>
   <time name="orth">    3.09    3.09</time>
   <time name="total">  480.93  481.40</time>
   <energy>
    <i name="e_fr_energy">    -36.85764894 </i>
    <i name="e_wo_entrp">    -36.85764892 </i>
    <i name="e_0_energy">    -36.85764893 </i>
   </energy>
  </scstep>
  <scstep>
   <time name="diag">   86.74   87.24</time>
   <time name="diis">  351.03  352.26</time>
   <time name="orth">    3.09    3.09</time>
   <time name="total">  477.09  478.88</time>
   <energy>
    <i name="e_fr_energy">    -36.85766228 </i>
    <i name="e_wo_entrp">    -36.85766227 </i>
    <i name="e_0_energy">    -36.85766227 </i>
   </energy>
  </scstep>
  <scstep>
   <time name="diag">   87.19   87.26</time>
   <time name="diis">  359.96  361.22</time>
   <time name="orth">    3.07    3.07</time>
   <time name="total">  486.38  488.02</time>
   <energy>
    <i name="e_fr_energy">    -36.85766820 </i>
    <i name="e_wo_entrp">    -36.85766819 </i>
    <i name="e_0_energy">    -36.85766819 </i>
   </energy>
  </scstep>
  <scstep>
   <time name="diag">   87.06   87.26</time>
   <time name="diis">  346.61  350.59</time>
   <time name="orth">    3.07    3.09</time>
   <time name="total">  472.58  477.21</time>
   <energy>
    <i name="e_fr_energy">    -36.85766928 </i>
    <i name="e_wo_entrp">    -36.85766926 </i>
    <i name="e_0_energy">    -36.85766927 </i>
   </energy>
  </scstep>
  <scstep>
   <time name="diag">   87.27   87.30</time>
   <time name="diis">  340.59  340.67</time>
   <time name="orth">    3.09    3.09</time>
   <time name="total">  467.27  467.60</time>
   <energy>
    <i name="e_fr_energy">    -36.85767000 </i>
    <i name="e_wo_entrp">    -36.85766999 </i>
    <i name="e_0_energy">    -36.85767000 </i>
   </energy>
  </scstep>
  <scstep>
   <time name="diag">   87.25   87.29</time>
   <time name="diis">  276.60  276.67</time>
   <time name="orth">    3.09    3.09</time>
   <time name="total">  403.29  403.57</time>
   <energy>
    <i name="e_fr_energy">    -36.85767004 </i>
    <i name="e_wo_entrp">    -36.85767003 </i>
    <i name="e_0_energy">    -36.85767004 </i>
   </energy>
  </scstep>
  <scstep>
   <time name="diag">   87.24   87.26</time>
   <time name="diis">  266.40  266.50</time>
   <time name="orth">    3.07    3.07</time>
   <time name="total">  393.02  393.22</time>
   <energy>
    <i name="e_fr_energy">    -36.85767006 </i>
    <i name="e_wo_entrp">    -36.85767004 </i>
    <i name="e_0_energy">    -36.85767005 </i>
   </energy>
  </scstep>
  <scstep>
   <time name="diag">   87.25   87.29</time>
   <time name="diis">  243.13  243.19</time>
   <time name="orth">    3.07    3.07</time>
   <time name="total">  369.82  369.95</time>
   <energy>
    <i name="e_fr_energy">    -36.85767006 </i>
    <i name="e_wo_entrp">    -36.85767004 </i>
    <i name="e_0_energy">    -36.85767005 </i>
   </energy>
  </scstep>
  <scstep>
   <time name="diag">   87.26   87.28</time>
   <time name="diis">  232.55  232.66</time>
   <time name="orth">    3.07    3.07</time>
   <time name="total">  359.25  359.43</time>
   <energy>
    <i name="e_fr_energy">    -36.85767006 </i>
    <i name="e_wo_entrp">    -36.85767005 </i>
    <i name="e_0_energy">    -36.85767005 </i>
   </energy>
  </scstep>
  <scstep>
   <time name="diag">   87.08   87.14</time>
   <time name="diis">  222.92  223.08</time>
   <time name="orth">    3.07    3.07</time>
   <time name="total">  315.70  315.93</time>
   <energy>
    <i name="alphaZ">      6.18334092 </i>
    <i name="ewald">   2449.30124015 </i>
    <i name="hartreedc">  -2943.58714623 </i>
    <i name="XCdc">     57.14101855 </i>
    <i name="pawpsdc">    268.80640975 </i>
    <i name="pawaedc">   -273.91784312 </i>
    <i name="eentropy">     -0.00000001 </i>
    <i name="bandstr">   -189.40821697 </i>
    <i name="atom">    588.62352690 </i>
    <i name="e_fr_energy">    -36.85767006 </i>
    <i name="e_wo_entrp">    -36.85767005 </i>
    <i name="e_0_energy">    -36.85767005 </i>
   </energy>
  </scstep>
  <structure>
   <crystal>
    <varray name="basis" >
     <v>       4.25507122       0.00000000       0.00000000 </v>
     <v>       0.00000000       2.52935494       0.00000000 </v>
     <v>       0.00000000       0.00000000      19.58989343 </v>
    </varray>
    <i name="volume">    210.83790140 </i>
    <varray name="rec_basis" >
     <v>       0.23501369       0.00000000       0.00000000 </v>
     <v>       0.00000000       0.39535772       0.00000000 </v>
     <v>       0.00000000       0.00000000       0.05104673 </v>
    </varray>
   </crystal>
   <varray name="positions" >
    <v>       0.00063729       0.00000000       0.00000000 </v>
    <v>       0.16602938       0.50000000       0.00000000 </v>
    <v>       0.50063729       0.50000000       0.00000000 </v>
    <v>       0.66602938       0.00000000       0.00000000 </v>
   </varray>
  </structure>
  <varray name="forces" >
   <v>       0.00102844       0.00000000       0.00000000 </v>
   <v>      -0.00102844      -0.00000000       0.00000000 </v>
   <v>       0.00102844      -0.00000000       0.00000000 </v>
   <v>      -0.00102844       0.00000000       0.00000000 </v>
  </varray>
  <varray name="stress" >
   <v>       0.00659004       0.00000000       0.00000000 </v>
   <v>       0.00000000     -41.14232283       0.00000000 </v>
   <v>       0.00000000       0.00000000      -0.01013101 </v>
  </varray>
  <energy>
   <i name="e_fr_energy">    -36.85767006 </i>
   <i name="e_wo_entrp">    -36.85767005 </i>
   <i name="e_0_energy">     -0.00000001 </i>
  </energy>
  <time name="totalsc">10887.5816314.07</time>
 </calculation>
 <calculation>
  <scstep>
   <time name="dav">  332.42  332.57</time>
   <time name="total">  368.76  368.93</time>
   <energy>
    <i name="alphaZ">      6.18334092 </i>
    <i name="ewald">   2449.30018317 </i>
    <i name="hartreedc">  -2943.58669624 </i>
    <i name="XCdc">     57.14098870 </i>
    <i name="pawpsdc">    268.80642029 </i>
    <i name="pawaedc">   -273.91785378 </i>
    <i name="eentropy">     -0.00000001 </i>
    <i name="bandstr">   -189.40757969 </i>
    <i name="atom">    588.62352690 </i>
    <i name="e_fr_energy">    -36.85766974 </i>
    <i name="e_wo_entrp">    -36.85766973 </i>
    <i name="e_0_energy">    -36.85766974 </i>
   </energy>
  </scstep>
  <scstep>
   <time name="diag">   87.17   87.23</time>
   <time name="diis">  356.42  356.64</time>
   <time name="orth">    3.08    3.08</time>
   <time name="total">  483.02  483.54</time>
   <energy>
    <i name="e_fr_energy">    -36.85766976 </i>
    <i name="e_wo_entrp">    -36.85766975 </i>
    <i name="e_0_energy">    -36.85766976 </i>
   </energy>
  </scstep>
  <scstep>
   <time name="diag">   87.15   87.18</time>
   <time name="diis">  358.40  358.55</time>
   <time name="orth">    3.07    3.07</time>
   <time name="total">  485.00  485.26</time>
   <energy>
    <i name="e_fr_energy">    -36.85766974 </i>
    <i name="e_wo_entrp">    -36.85766973 </i>
    <i name="e_0_energy">    -36.85766973 </i>
   </energy>
  </scstep>
  <scstep>
   <time name="diag">   87.16   87.19</time>
   <time name="diis">  360.96  361.07</time>
   <time name="orth">    3.09    3.09</time>
   <time name="total">  487.59  487.80</time>
   <energy>
    <i name="e_fr_energy">    -36.85766974 </i>
    <i name="e_wo_entrp">    -36.85766973 </i>
    <i name="e_0_energy">    -36.85766974 </i>
   </energy>
  </scstep>
  <scstep>
   <time name="diag">   87.14   87.17</time>
   <time name="diis">  273.67  273.74</time>
   <time name="orth">    3.10    3.10</time>
   <time name="total">  400.33  400.46</time>
   <energy>
    <i name="e_fr_energy">    -36.85766974 </i>
    <i name="e_wo_entrp">    -36.85766973 </i>
    <i name="e_0_energy">    -36.85766973 </i>
   </energy>
  </scstep>
  <scstep>
   <time name="diag">   87.22   87.26</time>
   <time name="diis">  242.92  243.09</time>
   <time name="orth">    3.08    3.09</time>
   <time name="total">  369.37  370.18</time>
   <energy>
    <i name="e_fr_energy">    -36.85766974 </i>
    <i name="e_wo_entrp">    -36.85766973 </i>
    <i name="e_0_energy">    -36.85766973 </i>
   </energy>
  </scstep>
  <scstep>
   <time name="diag">   86.75   87.20</time>
   <time name="diis">  236.75  237.41</time>
   <time name="orth">    3.10    3.10</time>
   <time name="total">  362.87  364.15</time>
   <energy>
    <i name="e_fr_energy">    -36.85766974 </i>
    <i name="e_wo_entrp">    -36.85766973 </i>
    <i name="e_0_energy">    -36.85766973 </i>
   </energy>
  </scstep>
  <scstep>
   <time name="diag">   87.12   87.19</time>
   <time name="diis">  218.74  218.82</time>
   <time name="orth">    3.09    3.09</time>
   <time name="total">  345.36  345.53</time>
   <energy>
    <i name="e_fr_energy">    -36.85766974 </i>
    <i name="e_wo_entrp">    -36.85766973 </i>
    <i name="e_0_energy">    -36.85766973 </i>
   </energy>
  </scstep>
  <scstep>
   <time name="diag">   87.21   87.23</time>
   <time name="diis">  211.54  211.64</time>
   <time name="orth">    3.07    3.07</time>
   <time name="total">  304.42  304.73</time>
   <energy>
    <i name="alphaZ">      6.18334092 </i>
    <i name="ewald">   2449.30018317 </i>
    <i name="hartreedc">  -2943.58625825 </i>
    <i name="XCdc">     57.14097062 </i>
    <i name="pawpsdc">    268.80460197 </i>
    <i name="pawaedc">   -273.91602751 </i>
    <i name="eentropy">     -0.00000001 </i>
    <i name="bandstr">   -189.40800755 </i>
    <i name="atom">    588.62352690 </i>
    <i name="e_fr_energy">    -36.85766974 </i>
    <i name="e_wo_entrp">    -36.85766973 </i>
    <i name="e_0_energy">    -36.85766973 </i>
   </energy>
  </scstep>
  <structure>
   <crystal>
    <varray name="basis" >
     <v>       4.25507122       0.00000000       0.00000000 </v>
     <v>       0.00000000       2.52935494       0.00000000 </v>
     <v>       0.00000000       0.00000000      19.58989343 </v>
    </varray>
    <i name="volume">    210.83790140 </i>
    <varray name="rec_basis" >
     <v>       0.23501369       0.00000000       0.00000000 </v>
     <v>       0.00000000       0.39535772       0.00000000 </v>
     <v>       0.00000000       0.00000000       0.05104673 </v>
    </varray>
   </crystal>
   <varray name="positions" >
    <v>       0.00064895       0.00000000       0.00000000 </v>
    <v>       0.16601772       0.50000000       0.00000000 </v>
    <v>       0.50064895       0.50000000       0.00000000 </v>
    <v>       0.66601772       0.00000000       0.00000000 </v>
   </varray>
  </structure>
  <varray name="forces" >
   <v>      -0.00410868      -0.00000000      -0.00000000 </v>
   <v>       0.00410868      -0.00000000       0.00000000 </v>
   <v>      -0.00410868      -0.00000000      -0.00000000 </v>
   <v>       0.00410868       0.00000000       0.00000000 </v>
  </varray>
  <varray name="stress" >
   <v>      -0.01385443       0.00000000       0.00000000 </v>
   <v>       0.00000000     -41.13009080       0.00000000 </v>
   <v>       0.00000000       0.00000000      -0.01014846 </v>
  </varray>
  <energy>
   <i name="e_fr_energy">    -36.85766974 </i>
   <i name="e_wo_entrp">    -36.85766973 </i>
   <i name="e_0_energy">     -0.00000001 </i>
  </energy>
  <time name="totalsc"> 3712.80 3716.84</time>
 </calculation>
 <calculation>
  <scstep>
   <time name="dav">  346.35  346.86</time>
   <time name="total">  382.78  383.31</time>
   <energy>
    <i name="alphaZ">      6.18334092 </i>
    <i name="ewald">   2449.30102827 </i>
    <i name="hartreedc">  -2943.58661688 </i>
    <i name="XCdc">     57.14099473 </i>
    <i name="pawpsdc">    268.80460073 </i>
    <i name="pawaedc">   -273.91602627 </i>
    <i name="eentropy">     -0.00000001 </i>
    <i name="bandstr">   -189.40851845 </i>
    <i name="atom">    588.62352690 </i>
    <i name="e_fr_energy">    -36.85767006 </i>
    <i name="e_wo_entrp">    -36.85767005 </i>
    <i name="e_0_energy">    -36.85767006 </i>
   </energy>
  </scstep>
  <scstep>
   <time name="diag">   87.12   87.19</time>
   <time name="diis">  353.25  353.64</time>
   <time name="orth">    3.08    3.10</time>
   <time name="total">  479.67  480.34</time>
   <energy>
    <i name="e_fr_energy">    -36.85767008 </i>
    <i name="e_wo_entrp">    -36.85767007 </i>
    <i name="e_0_energy">    -36.85767007 </i>
   </energy>
  </scstep>
  <scstep>
   <time name="diag">   86.93   87.21</time>
   <time name="diis">  356.82  358.25</time>
   <time name="orth">    3.08    3.10</time>
   <time name="total">  483.00  485.00</time>
   <energy>
    <i name="e_fr_energy">    -36.85767008 </i>
    <i name="e_wo_entrp">    -36.85767006 </i>
    <i name="e_0_energy">    -36.85767007 </i>
   </energy>
  </scstep>
  <scstep>
   <time name="diag">   86.81   87.23</time>
   <time name="diis">  360.47  360.95</time>
   <time name="orth">    3.08    3.08</time>
   <time name="total">  486.68  487.92</time>
   <energy>
    <i name="e_fr_energy">    -36.85767008 </i>
    <i name="e_wo_entrp">    -36.85767006 </i>
    <i name="e_0_energy">    -36.85767007 </i>
   </energy>
  </scstep>
  <scstep>
   <time name="diag">   87.15   87.22</time>
   <time name="diis">  253.35  253.69</time>
   <time name="orth">    3.07    3.08</time>
   <time name="total">  379.67  380.45</time>
   <energy>
    <i name="e_fr_energy">    -36.85767008 </i>
    <i name="e_wo_entrp">    -36.85767006 </i>
    <i name="e_0_energy">    -36.85767007 </i>
   </energy>
  </scstep>
  <scstep>
   <time name="diag">   86.58   87.30</time>
   <time name="diis">  234.27  235.83</time>
   <time name="orth">    3.07    3.10</time>
   <time name="total">  360.06  362.67</time>
   <energy>
    <i name="e_fr_energy">    -36.85767008 </i>
    <i name="e_wo_entrp">    -36.85767006 </i>
    <i name="e_0_energy">    -36.85767007 </i>
   </energy>
  </scstep>
  <scstep>
   <time name="diag">   86.46   87.24</time>
   <time name="diis">  236.67  239.10</time>
   <time name="orth">    3.09    3.15</time>
   <time name="total">  328.80  332.16</time>
   <energy>
    <i name="alphaZ">      6.18334092 </i>
    <i name="ewald">   2449.30102827 </i>
    <i name="hartreedc">  -2943.58695093 </i>
    <i name="XCdc">     57.14100912 </i>
    <i name="pawpsdc">    268.80606467 </i>
    <i name="pawaedc">   -273.91749660 </i>
    <i name="eentropy">     -0.00000001 </i>
    <i name="bandstr">   -189.40819241 </i>
    <i name="atom">    588.62352690 </i>
    <i name="e_fr_energy">    -36.85767008 </i>
    <i name="e_wo_entrp">    -36.85767006 </i>
    <i name="e_0_energy">    -36.85767007 </i>
   </energy>
  </scstep>
  <structure>
   <crystal>
    <varray name="basis" >
     <v>       4.25507122       0.00000000       0.00000000 </v>
     <v>       0.00000000       2.52935494       0.00000000 </v>
     <v>       0.00000000       0.00000000      19.58989343 </v>
    </varray>
    <i name="volume">    210.83790140 </i>
    <varray name="rec_basis" >
     <v>       0.23501369       0.00000000       0.00000000 </v>
     <v>       0.00000000       0.39535772       0.00000000 </v>
     <v>       0.00000000       0.00000000       0.05104673 </v>
    </varray>
   </crystal>
   <varray name="positions" >
    <v>       0.00063962      -0.00000000      -0.00000000 </v>
    <v>       0.16602704       0.50000000       0.00000000 </v>
    <v>       0.50063962       0.50000000      -0.00000000 </v>
    <v>       0.66602704       0.00000000       0.00000000 </v>
   </varray>
  </structure>
  <varray name="forces" >
   <v>      -0.00000595      -0.00000000       0.00000000 </v>
   <v>       0.00000595       0.00000000       0.00000000 </v>
   <v>      -0.00000595      -0.00000000       0.00000000 </v>
   <v>       0.00000595       0.00000000       0.00000000 </v>
  </varray>
  <varray name="stress" >
   <v>       0.00245955       0.00000000       0.00000000 </v>
   <v>       0.00000000     -41.13981560       0.00000000 </v>
   <v>       0.00000000       0.00000000      -0.01009643 </v>
  </varray>
  <energy>
   <i name="e_fr_energy">    -36.85767008 </i>
   <i name="e_wo_entrp">    -36.85767007 </i>
   <i name="e_0_energy">     -0.00000001 </i>
  </energy>
  <time name="totalsc"> 3005.75 3017.83</time>
 </calculation>
 <calculation>
  <scstep>
   <time name="dav">  291.14  292.60</time>
   <time name="total">  327.10  329.00</time>
   <energy>
    <i name="alphaZ">      6.18334092 </i>
    <i name="ewald">   2449.30102950 </i>
    <i name="hartreedc">  -2943.58695870 </i>
    <i name="XCdc">     57.14100924 </i>
    <i name="pawpsdc">    268.80605818 </i>
    <i name="pawaedc">   -273.91749011 </i>
    <i name="eentropy">     -0.00000001 </i>
    <i name="bandstr">   -189.40818599 </i>
    <i name="atom">    588.62352690 </i>
    <i name="e_fr_energy">    -36.85767008 </i>
    <i name="e_wo_entrp">    -36.85767006 </i>
    <i name="e_0_energy">    -36.85767007 </i>
   </energy>
  </scstep>
  <scstep>
   <time name="diag">   86.33   87.29</time>
   <time name="diis">  197.67  198.85</time>
   <time name="orth">    3.07    3.09</time>
   <time name="total">  323.28  325.79</time>
   <energy>
    <i name="e_fr_energy">    -36.85767008 </i>
    <i name="e_wo_entrp">    -36.85767006 </i>
    <i name="e_0_energy">    -36.85767007 </i>
   </energy>
  </scstep>
  <scstep>
   <time name="diag">   86.92   87.22</time>
   <time name="diis">  190.90  192.40</time>
   <time name="orth">    3.07    3.07</time>
   <time name="total">  316.84  319.11</time>
   <energy>
    <i name="e_fr_energy">    -36.85767008 </i>
    <i name="e_wo_entrp">    -36.85767006 </i>
    <i name="e_0_energy">    -36.85767007 </i>
   </energy>
  </scstep>
  <scstep>
   <time name="diag">   86.52   87.32</time>
   <time name="diis">  185.66  186.06</time>
   <time name="orth">    3.09    3.09</time>
   <time name="total">  311.60  312.92</time>
   <energy>
    <i name="e_fr_energy">    -36.85767008 </i>
    <i name="e_wo_entrp">    -36.85767006 </i>
    <i name="e_0_energy">    -36.85767007 </i>
   </energy>
  </scstep>
  <scstep>
   <time name="diag">   86.72   87.26</time>
   <time name="diis">  181.54  183.22</time>
   <time name="orth">    3.09    3.10</time>
   <time name="total">  273.99  276.25</time>
   <energy>
    <i name="alphaZ">      6.18334092 </i>
    <i name="ewald">   2449.30102950 </i>
    <i name="hartreedc">  -2943.58697399 </i>
    <i name="XCdc">     57.14100932 </i>
    <i name="pawpsdc">    268.80605777 </i>
    <i name="pawaedc">   -273.91748969 </i>
    <i name="eentropy">     -0.00000001 </i>
    <i name="bandstr">   -189.40817079 </i>
    <i name="atom">    588.62352690 </i>
    <i name="e_fr_energy">    -36.85767008 </i>
    <i name="e_wo_entrp">    -36.85767006 </i>
    <i name="e_0_energy">    -36.85767007 </i>
   </energy>
  </scstep>
  <structure>
   <crystal>
    <varray name="basis" >
     <v>       4.25507122       0.00000000       0.00000000 </v>
     <v>       0.00000000       2.52935494       0.00000000 </v>
     <v>       0.00000000       0.00000000      19.58989343 </v>
    </varray>
    <i name="volume">    210.83790140 </i>
    <varray name="rec_basis" >
     <v>       0.23501369       0.00000000       0.00000000 </v>
     <v>       0.00000000       0.39535772       0.00000000 </v>
     <v>       0.00000000       0.00000000       0.05104673 </v>
    </varray>
   </crystal>
   <varray name="positions" >
    <v>       0.00063961      -0.00000000      -0.00000000 </v>
    <v>       0.16602706       0.50000000       0.00000000 </v>
    <v>       0.50063961       0.50000000      -0.00000000 </v>
    <v>       0.66602706       0.00000000       0.00000000 </v>
   </varray>
  </structure>
  <varray name="forces" >
   <v>       0.00000941      -0.00000000       0.00000000 </v>
   <v>      -0.00000941      -0.00000000      -0.00000000 </v>
   <v>       0.00000941      -0.00000000       0.00000000 </v>
   <v>      -0.00000941       0.00000000      -0.00000000 </v>
  </varray>
  <varray name="stress" >
   <v>       0.00254757       0.00000000       0.00000000 </v>
   <v>       0.00000000     -41.13989667       0.00000000 </v>
   <v>       0.00000000       0.00000000      -0.01011500 </v>
  </varray>
  <energy>
   <i name="e_fr_energy">    -36.85767008 </i>
   <i name="e_wo_entrp">    -36.85767007 </i>
   <i name="e_0_energy">     -0.00000001 </i>
  </energy>
  <time name="totalsc"> 1659.12 1670.20</time>
 </calculation>
 <calculation>
  <scstep>
   <time name="dav">  272.46  273.64</time>
   <time name="total">  308.59  310.07</time>
   <energy>
    <i name="alphaZ">      6.18334092 </i>
    <i name="ewald">   2449.30102874 </i>
    <i name="hartreedc">  -2943.58697495 </i>
    <i name="XCdc">     57.14100931 </i>
    <i name="pawpsdc">    268.80605778 </i>
    <i name="pawaedc">   -273.91748970 </i>
    <i name="eentropy">     -0.00000001 </i>
    <i name="bandstr">   -189.40816908 </i>
    <i name="atom">    588.62352690 </i>
    <i name="e_fr_energy">    -36.85767008 </i>
    <i name="e_wo_entrp">    -36.85767006 </i>
    <i name="e_0_energy">    -36.85767007 </i>
   </energy>
  </scstep>
  <scstep>
   <time name="diag">   86.79   87.27</time>
   <time name="diis">  162.90  163.92</time>
   <time name="orth">    3.08    3.10</time>
   <time name="total">  288.85  290.80</time>
   <energy>
    <i name="e_fr_energy">    -36.85767008 </i>
    <i name="e_wo_entrp">    -36.85767006 </i>
    <i name="e_0_energy">    -36.85767007 </i>
   </energy>
  </scstep>
  <scstep>
   <time name="diag">   86.70   87.29</time>
   <time name="diis">  162.04  163.04</time>
   <time name="orth">    3.09    3.10</time>
   <time name="total">  288.05  289.89</time>
   <energy>
    <i name="e_fr_energy">    -36.85767008 </i>
    <i name="e_wo_entrp">    -36.85767006 </i>
    <i name="e_0_energy">    -36.85767007 </i>
   </energy>
  </scstep>
  <scstep>
   <time name="diag">   86.90   87.20</time>
   <time name="diis">  162.55  162.68</time>
   <time name="orth">    3.10    3.10</time>
   <time name="total">  288.75  289.42</time>
   <energy>
    <i name="e_fr_energy">    -36.85767008 </i>
    <i name="e_wo_entrp">    -36.85767006 </i>
    <i name="e_0_energy">    -36.85767007 </i>
   </energy>
  </scstep>
  <scstep>
   <time name="diag">   86.49   87.29</time>
   <time name="diis">  161.31  162.49</time>
   <time name="orth">    3.08    3.08</time>
   <time name="total">  286.91  289.33</time>
   <energy>
    <i name="e_fr_energy">    -36.85767008 </i>
    <i name="e_wo_entrp">    -36.85767006 </i>
    <i name="e_0_energy">    -36.85767007 </i>
   </energy>
  </scstep>
  <scstep>
   <time name="diag">   86.55   87.20</time>
   <time name="diis">  156.21  157.39</time>
   <time name="orth">    3.08    3.08</time>
   <time name="total">  248.48  250.36</time>
   <energy>
    <i name="alphaZ">      6.18334092 </i>
    <i name="ewald">   2449.30102874 </i>
    <i name="hartreedc">  -2943.58697335 </i>
    <i name="XCdc">     57.14100925 </i>
    <i name="pawpsdc">    268.80605512 </i>
    <i name="pawaedc">   -273.91748702 </i>
    <i name="eentropy">     -0.00000001 </i>
    <i name="bandstr">   -189.40817062 </i>
    <i name="atom">    588.62352690 </i>
    <i name="e_fr_energy">    -36.85767008 </i>
    <i name="e_wo_entrp">    -36.85767006 </i>
    <i name="e_0_energy">    -36.85767007 </i>
   </energy>
  </scstep>
  <structure>
   <crystal>
    <varray name="basis" >
     <v>       4.25507122       0.00000000       0.00000000 </v>
     <v>       0.00000000       2.52935494       0.00000000 </v>
     <v>       0.00000000       0.00000000      19.58989343 </v>
    </varray>
    <i name="volume">    210.83790140 </i>
    <varray name="rec_basis" >
     <v>       0.23501369       0.00000000       0.00000000 </v>
     <v>       0.00000000       0.39535772       0.00000000 </v>
     <v>       0.00000000       0.00000000       0.05104673 </v>
    </varray>
   </crystal>
   <varray name="positions" >
    <v>       0.00063962      -0.00000000       0.00000000 </v>
    <v>       0.16602705       0.50000000      -0.00000000 </v>
    <v>       0.50063962       0.50000000       0.00000000 </v>
    <v>       0.66602705       0.00000000      -0.00000000 </v>
   </varray>
  </structure>
  <varray name="forces" >
   <v>       0.00000147       0.00000000      -0.00000000 </v>
   <v>      -0.00000147       0.00000000       0.00000000 </v>
   <v>       0.00000147       0.00000000      -0.00000000 </v>
   <v>      -0.00000147      -0.00000000       0.00000000 </v>
  </varray>
  <varray name="stress" >
   <v>       0.00251125       0.00000000       0.00000000 </v>
   <v>       0.00000000     -41.13986288       0.00000000 </v>
   <v>       0.00000000       0.00000000      -0.01012714 </v>
  </varray>
  <energy>
   <i name="e_fr_energy">    -36.85767008 </i>
   <i name="e_wo_entrp">    -36.85767007 </i>
   <i name="e_0_energy">     -0.00000001 </i>
  </energy>
  <time name="totalsc"> 1816.73 1828.36</time>
 </calculation>
 <calculation>
  <scstep>
   <time name="dav">  272.30  273.04</time>
   <time name="total">  308.29  309.47</time>
   <energy>
    <i name="alphaZ">      6.18334092 </i>
    <i name="ewald">   2449.30102860 </i>
    <i name="hartreedc">  -2943.58697328 </i>
    <i name="XCdc">     57.14100924 </i>
    <i name="pawpsdc">    268.80605512 </i>
    <i name="pawaedc">   -273.91748702 </i>
    <i name="eentropy">     -0.00000001 </i>
    <i name="bandstr">   -189.40817055 </i>
    <i name="atom">    588.62352690 </i>
    <i name="e_fr_energy">    -36.85767008 </i>
    <i name="e_wo_entrp">    -36.85767006 </i>
    <i name="e_0_energy">    -36.85767007 </i>
   </energy>
  </scstep>
  <scstep>
   <time name="diag">   86.36   87.25</time>
   <time name="diis">  146.42  147.71</time>
   <time name="orth">    3.08    3.10</time>
   <time name="total">  271.76  274.56</time>
   <energy>
    <i name="e_fr_energy">    -36.85767008 </i>
    <i name="e_wo_entrp">    -36.85767006 </i>
    <i name="e_0_energy">    -36.85767007 </i>
   </energy>
  </scstep>
  <scstep>
   <time name="diag">   86.49   87.26</time>
   <time name="diis">  150.82  151.65</time>
   <time name="orth">    3.08    3.10</time>
   <time name="total">  276.65  278.49</time>
   <energy>
    <i name="e_fr_energy">    -36.85767008 </i>
    <i name="e_wo_entrp">    -36.85767006 </i>
    <i name="e_0_energy">    -36.85767007 </i>
   </energy>
  </scstep>
  <scstep>
   <time name="diag">   86.91   87.22</time>
   <time name="diis">  141.43  142.53</time>
   <time name="orth">    3.08    3.10</time>
   <time name="total">  267.52  269.30</time>
   <energy>
    <i name="e_fr_energy">    -36.85767008 </i>
    <i name="e_wo_entrp">    -36.85767006 </i>
    <i name="e_0_energy">    -36.85767007 </i>
   </energy>
  </scstep>
  <scstep>
   <time name="diag">   86.48   87.24</time>
   <time name="diis">  140.34  140.59</time>
   <time name="orth">    3.10    3.12</time>
   <time name="total">  232.56  233.63</time>
   <energy>
    <i name="alphaZ">      6.18334092 </i>
    <i name="ewald">   2449.30102860 </i>
    <i name="hartreedc">  -2943.58697356 </i>
    <i name="XCdc">     57.14100925 </i>
    <i name="pawpsdc">    268.80605507 </i>
    <i name="pawaedc">   -273.91748698 </i>
    <i name="eentropy">     -0.00000001 </i>
    <i name="bandstr">   -189.40817028 </i>
    <i name="atom">    588.62352690 </i>
    <i name="e_fr_energy">    -36.85767008 </i>
    <i name="e_wo_entrp">    -36.85767006 </i>
    <i name="e_0_energy">    -36.85767007 </i>
   </energy>
  </scstep>
  <structure>
   <crystal>
    <varray name="basis" >
     <v>       4.25507122       0.00000000       0.00000000 </v>
     <v>       0.00000000       2.52935494       0.00000000 </v>
     <v>       0.00000000       0.00000000      19.58989343 </v>
    </varray>
    <i name="volume">    210.83790140 </i>
    <varray name="rec_basis" >
     <v>       0.23501369       0.00000000       0.00000000 </v>
     <v>       0.00000000       0.39535772       0.00000000 </v>
     <v>       0.00000000       0.00000000       0.05104673 </v>
    </varray>
   </crystal>
   <varray name="positions" >
    <v>       0.00063962      -0.00000000       0.00000000 </v>
    <v>       0.16602705       0.50000000      -0.00000000 </v>
    <v>       0.50063962       0.50000000       0.00000000 </v>
    <v>       0.66602705       0.00000000      -0.00000000 </v>
   </varray>
  </structure>
  <varray name="forces" >
   <v>       0.00000145       0.00000000       0.00000000 </v>
   <v>      -0.00000145      -0.00000000      -0.00000000 </v>
   <v>       0.00000145      -0.00000000       0.00000000 </v>
   <v>      -0.00000145       0.00000000      -0.00000000 </v>
  </varray>
  <varray name="stress" >
   <v>       0.00251282       0.00000000       0.00000000 </v>
   <v>       0.00000000     -41.13986742       0.00000000 </v>
   <v>       0.00000000       0.00000000      -0.01012310 </v>
  </varray>
  <energy>
   <i name="e_fr_energy">    -36.85767008 </i>
   <i name="e_wo_entrp">    -36.85767007 </i>
   <i name="e_0_energy">     -0.00000001 </i>
  </energy>
  <time name="totalsc"> 1463.16 1472.72</time>
 </calculation>
 <calculation>
  <scstep>
   <time name="dav">  358.32  360.29</time>
   <time name="total">  394.54  396.74</time>
   <energy>
    <i name="alphaZ">      6.18334092 </i>
    <i name="ewald">   2449.30102091 </i>
    <i name="hartreedc">  -2943.58697023 </i>
    <i name="XCdc">     57.14100903 </i>
    <i name="pawpsdc">    268.80605507 </i>
    <i name="pawaedc">   -273.91748697 </i>
    <i name="eentropy">     -0.00000001 </i>
    <i name="bandstr">   -189.40816570 </i>
    <i name="atom">    588.62352690 </i>
    <i name="e_fr_energy">    -36.85767008 </i>
    <i name="e_wo_entrp">    -36.85767006 </i>
    <i name="e_0_energy">    -36.85767007 </i>
   </energy>
  </scstep>
  <scstep>
   <time name="diag">   86.99   87.17</time>
   <time name="diis">  205.43  205.86</time>
   <time name="orth">    3.09    3.10</time>
   <time name="total">  331.89  332.58</time>
   <energy>
    <i name="e_fr_energy">    -36.85767008 </i>
    <i name="e_wo_entrp">    -36.85767006 </i>
    <i name="e_0_energy">    -36.85767007 </i>
   </energy>
  </scstep>
  <scstep>
   <time name="diag">   87.02   87.20</time>
   <time name="diis">  211.74  212.10</time>
   <time name="orth">    3.08    3.08</time>
   <time name="total">  338.15  338.87</time>
   <energy>
    <i name="e_fr_energy">    -36.85767008 </i>
    <i name="e_wo_entrp">    -36.85767006 </i>
    <i name="e_0_energy">    -36.85767007 </i>
   </energy>
  </scstep>
  <scstep>
   <time name="diag">   86.73   87.27</time>
   <time name="diis">  195.40  197.04</time>
   <time name="orth">    3.08    3.08</time>
   <time name="total">  321.16  323.85</time>
   <energy>
    <i name="e_fr_energy">    -36.85767008 </i>
    <i name="e_wo_entrp">    -36.85767006 </i>
    <i name="e_0_energy">    -36.85767007 </i>
   </energy>
  </scstep>
  <scstep>
   <time name="diag">   86.43   87.34</time>
   <time name="diis">  172.71  173.31</time>
   <time name="orth">    3.08    3.08</time>
   <time name="total">  264.89  266.43</time>
   <energy>
    <i name="alphaZ">      6.18334092 </i>
    <i name="ewald">   2449.30102091 </i>
    <i name="hartreedc">  -2943.58696576 </i>
    <i name="XCdc">     57.14100884 </i>
    <i name="pawpsdc">    268.80603698 </i>
    <i name="pawaedc">   -273.91746878 </i>
    <i name="eentropy">     -0.00000001 </i>
    <i name="bandstr">   -189.40817008 </i>
    <i name="atom">    588.62352690 </i>
    <i name="e_fr_energy">    -36.85767008 </i>
    <i name="e_wo_entrp">    -36.85767006 </i>
    <i name="e_0_energy">    -36.85767007 </i>
   </energy>
  </scstep>
  <structure>
   <crystal>
    <varray name="basis" >
     <v>       4.25507122       0.00000000       0.00000000 </v>
     <v>       0.00000000       2.52935494       0.00000000 </v>
     <v>       0.00000000       0.00000000      19.58989343 </v>
    </varray>
    <i name="volume">    210.83790140 </i>
    <varray name="rec_basis" >
     <v>       0.23501369       0.00000000       0.00000000 </v>
     <v>       0.00000000       0.39535772       0.00000000 </v>
     <v>       0.00000000       0.00000000       0.05104673 </v>
    </varray>
   </crystal>
   <varray name="positions" >
    <v>       0.00063970       0.00000000       0.00000000 </v>
    <v>       0.16602696       0.50000000      -0.00000000 </v>
    <v>       0.50063970       0.50000000       0.00000000 </v>
    <v>       0.66602696       0.00000000      -0.00000000 </v>
   </varray>
  </structure>
  <varray name="forces" >
   <v>      -0.00003186       0.00000000       0.00000000 </v>
   <v>       0.00003186      -0.00000000      -0.00000000 </v>
   <v>      -0.00003186       0.00000000       0.00000000 </v>
   <v>       0.00003186      -0.00000000      -0.00000000 </v>
  </varray>
  <varray name="stress" >
   <v>       0.00238587       0.00000000       0.00000000 </v>
   <v>       0.00000000     -41.13980348       0.00000000 </v>
   <v>       0.00000000       0.00000000      -0.01012944 </v>
  </varray>
  <energy>
   <i name="e_fr_energy">    -36.85767008 </i>
   <i name="e_wo_entrp">    -36.85767007 </i>
   <i name="e_0_energy">     -0.00000001 </i>
  </energy>
  <time name="totalsc"> 1757.76 1765.96</time>
 </calculation>
 <calculation>
  <scstep>
   <time name="dav">  347.41  350.13</time>
   <time name="total">  383.35  386.55</time>
   <energy>
    <i name="alphaZ">      6.18334092 </i>
    <i name="ewald">   2449.30102827 </i>
    <i name="hartreedc">  -2943.58696898 </i>
    <i name="XCdc">     57.14100906 </i>
    <i name="pawpsdc">    268.80603825 </i>
    <i name="pawaedc">   -273.91747006 </i>
    <i name="eentropy">     -0.00000001 </i>
    <i name="bandstr">   -189.40817443 </i>
    <i name="atom">    588.62352690 </i>
    <i name="e_fr_energy">    -36.85767008 </i>
    <i name="e_wo_entrp">    -36.85767006 </i>
    <i name="e_0_energy">    -36.85767007 </i>
   </energy>
  </scstep>
  <scstep>
   <time name="diag">   86.49   87.18</time>
   <time name="diis">  203.64  204.55</time>
   <time name="orth">    3.10    3.10</time>
   <time name="total">  329.56  331.23</time>
   <energy>
    <i name="e_fr_energy">    -36.85767008 </i>
    <i name="e_wo_entrp">    -36.85767006 </i>
    <i name="e_0_energy">    -36.85767007 </i>
   </energy>
  </scstep>
  <scstep>
   <time name="diag">   86.71   87.16</time>
   <time name="diis">  224.43  227.08</time>
   <time name="orth">    3.07    3.08</time>
   <time name="total">  350.29  353.79</time>
   <energy>
    <i name="e_fr_energy">    -36.85767008 </i>
    <i name="e_wo_entrp">    -36.85767006 </i>
    <i name="e_0_energy">    -36.85767007 </i>
   </energy>
  </scstep>
  <scstep>
   <time name="diag">   86.87   87.13</time>
   <time name="diis">  191.54  193.43</time>
   <time name="orth">    3.08    3.08</time>
   <time name="total">  317.44  320.09</time>
   <energy>
    <i name="e_fr_energy">    -36.85767008 </i>
    <i name="e_wo_entrp">    -36.85767006 </i>
    <i name="e_0_energy">    -36.85767007 </i>
   </energy>
  </scstep>
  <scstep>
   <time name="diag">   86.34   87.19</time>
   <time name="diis">  170.70  172.25</time>
   <time name="orth">    3.08    3.08</time>
   <time name="total">  262.76  265.21</time>
   <energy>
    <i name="alphaZ">      6.18334092 </i>
    <i name="ewald">   2449.30102827 </i>
    <i name="hartreedc">  -2943.58697431 </i>
    <i name="XCdc">     57.14100930 </i>
    <i name="pawpsdc">    268.80605970 </i>
    <i name="pawaedc">   -273.91749164 </i>
    <i name="eentropy">     -0.00000001 </i>
    <i name="bandstr">   -189.40816919 </i>
    <i name="atom">    588.62352690 </i>
    <i name="e_fr_energy">    -36.85767008 </i>
    <i name="e_wo_entrp">    -36.85767006 </i>
    <i name="e_0_energy">    -36.85767007 </i>
   </energy>
  </scstep>
  <structure>
   <crystal>
    <varray name="basis" >
     <v>       4.25507122       0.00000000       0.00000000 </v>
     <v>       0.00000000       2.52935494       0.00000000 </v>
     <v>       0.00000000       0.00000000      19.58989343 </v>
    </varray>
    <i name="volume">    210.83790140 </i>
    <varray name="rec_basis" >
     <v>       0.23501369       0.00000000       0.00000000 </v>
     <v>       0.00000000       0.39535772       0.00000000 </v>
     <v>       0.00000000       0.00000000       0.05104673 </v>
    </varray>
   </crystal>
   <varray name="positions" >
    <v>       0.00063962       0.00000000       0.00000000 </v>
    <v>       0.16602704       0.50000000      -0.00000000 </v>
    <v>       0.50063962       0.50000000       0.00000000 </v>
    <v>       0.66602704       0.00000000      -0.00000000 </v>
   </varray>
  </structure>
  <varray name="forces" >
   <v>      -0.00000343       0.00000000      -0.00000000 </v>
[...]
       <r>   -9.0074    1.0000 </r>
       <r>   -5.6638    1.0000 </r>
       <r>   -5.6638    1.0000 </r>
       <r>   -0.5727    0.0000 </r>
       <r>   -0.5727    0.0000 </r>
       <r>    4.8099    0.0000 </r>
       <r>    4.8099    0.0000 </r>
      </set>
      <set comment="kpoint 209">
       <r>  -18.8385    1.0000 </r>
       <r>  -17.1514    1.0000 </r>
       <r>  -13.8589    1.0000 </r>
       <r>  -12.3114    1.0000 </r>
       <r>  -12.3032    1.0000 </r>
       <r>  -10.8488    1.0000 </r>
       <r>   -6.4982    1.0000 </r>
       <r>   -4.6988    1.0000 </r>
       <r>   -0.9965    0.0000 </r>
       <r>    1.0572    0.0000 </r>
       <r>    5.0321    0.0000 </r>
       <r>    5.8212    0.0000 </r>
      </set>
      <set comment="kpoint 210">
       <r>  -18.8287    1.0000 </r>
       <r>  -17.1439    1.0000 </r>
       <r>  -13.9515    1.0000 </r>
       <r>  -12.3908    1.0000 </r>
       <r>  -12.2103    1.0000 </r>
       <r>  -10.7628    1.0000 </r>
       <r>   -6.4894    1.0000 </r>
       <r>   -4.7008    1.0000 </r>
       <r>   -1.0077    0.0000 </r>
       <r>    1.0312    0.0000 </r>
       <r>    5.0458    0.0000 </r>
       <r>    5.8375    0.0000 </r>
      </set>
      <set comment="kpoint 211">
       <r>  -18.7995    1.0000 </r>
       <r>  -17.1220    1.0000 </r>
       <r>  -14.1772    1.0000 </r>
       <r>  -12.6080    1.0000 </r>
       <r>  -11.9591    1.0000 </r>
       <r>  -10.5508    1.0000 </r>
       <r>   -6.4631    1.0000 </r>
       <r>   -4.7075    1.0000 </r>
       <r>   -1.0394    0.0000 </r>
       <r>    0.9551    0.0000 </r>
       <r>    5.0869    0.0000 </r>
       <r>    5.8858    0.0000 </r>
      </set>
      <set comment="kpoint 212">
       <r>  -18.7509    1.0000 </r>
       <r>  -17.0869    1.0000 </r>
       <r>  -14.4605    1.0000 </r>
       <r>  -12.8876    1.0000 </r>
       <r>  -11.6336    1.0000 </r>
       <r>  -10.2823    1.0000 </r>
       <r>   -6.4195    1.0000 </r>
       <r>   -4.7202    1.0000 </r>
       <r>   -1.0863    0.0000 </r>
       <r>    0.8346    0.0000 </r>
       <r>    5.1552    0.0000 </r>
       <r>    5.9650    0.0000 </r>
      </set>
      <set comment="kpoint 213">
       <r>  -18.6831    1.0000 </r>
       <r>  -17.0414    1.0000 </r>
       <r>  -14.7582    1.0000 </r>
       <r>  -13.1918    1.0000 </r>
       <r>  -11.2763    1.0000 </r>
       <r>   -9.9984    1.0000 </r>
       <r>   -6.3592    1.0000 </r>
       <r>   -4.7414    1.0000 </r>
       <r>   -1.1402    0.0000 </r>
       <r>    0.6775    0.0000 </r>
       <r>    5.2497    0.0000 </r>
       <r>    6.0739    0.0000 </r>
      </set>
      <set comment="kpoint 214">
       <r>  -18.5963    1.0000 </r>
       <r>  -16.9906    1.0000 </r>
       <r>  -15.0470    1.0000 </r>
       <r>  -13.5024    1.0000 </r>
       <r>  -10.9091    1.0000 </r>
       <r>   -9.7220    1.0000 </r>
       <r>   -6.2830    1.0000 </r>
       <r>   -4.7740    1.0000 </r>
       <r>   -1.1918    0.0000 </r>
       <r>    0.4929    0.0000 </r>
       <r>    5.3672    0.0000 </r>
       <r>    6.1830    0.0000 </r>
      </set>
      <set comment="kpoint 215">
       <r>  -18.4911    1.0000 </r>
       <r>  -16.9437    1.0000 </r>
       <r>  -15.3085    1.0000 </r>
       <r>  -13.8102    1.0000 </r>
       <r>  -10.5455    1.0000 </r>
       <r>   -9.4683    1.0000 </r>
       <r>   -6.1920    1.0000 </r>
       <r>   -4.8210    1.0000 </r>
       <r>   -1.2313    0.0000 </r>
       <r>    0.2899    0.0000 </r>
       <r>    5.4784    0.0000 </r>
       <r>    5.7771    0.0000 </r>
      </set>
      <set comment="kpoint 216">
       <r>  -18.3678    1.0000 </r>
       <r>  -16.9176    1.0000 </r>
       <r>  -15.5213    1.0000 </r>
       <r>  -14.1096    1.0000 </r>
       <r>  -10.1958    1.0000 </r>
       <r>   -9.2494    1.0000 </r>
       <r>   -6.0874    1.0000 </r>
       <r>   -4.8845    1.0000 </r>
       <r>   -1.2502    0.0000 </r>
       <r>    0.0770    0.0000 </r>
       <r>    5.2987    0.0000 </r>
       <r>    5.7524    0.0000 </r>
      </set>
      <set comment="kpoint 217">
       <r>  -18.2272    1.0000 </r>
       <r>  -16.9363    1.0000 </r>
       <r>  -15.6583    1.0000 </r>
       <r>  -14.3967    1.0000 </r>
       <r>   -9.8697    1.0000 </r>
       <r>   -9.0760    1.0000 </r>
       <r>   -5.9711    1.0000 </r>
       <r>   -4.9659    1.0000 </r>
       <r>   -1.2416    0.0000 </r>
       <r>   -0.1378    0.0000 </r>
       <r>    5.0075    0.0000 </r>
       <r>    5.8259    0.0000 </r>
      </set>
      <set comment="kpoint 218">
       <r>  -18.0706    1.0000 </r>
       <r>  -17.0190    1.0000 </r>
       <r>  -15.6988    1.0000 </r>
       <r>  -14.6684    1.0000 </r>
       <r>   -9.5765    1.0000 </r>
       <r>   -8.9572    1.0000 </r>
       <r>   -5.8451    1.0000 </r>
       <r>   -5.0645    1.0000 </r>
       <r>   -1.2017    0.0000 </r>
       <r>   -0.3477    0.0000 </r>
       <r>    4.7880    0.0000 </r>
       <r>    5.4261    0.0000 </r>
      </set>
      <set comment="kpoint 219">
       <r>  -17.8995    1.0000 </r>
       <r>  -17.1602    1.0000 </r>
       <r>  -15.6472    1.0000 </r>
       <r>  -14.9216    1.0000 </r>
       <r>   -9.3257    1.0000 </r>
       <r>   -8.9003    1.0000 </r>
       <r>   -5.7120    1.0000 </r>
       <r>   -5.1783    1.0000 </r>
       <r>   -1.1289    0.0000 </r>
       <r>   -0.5466    0.0000 </r>
       <r>    4.6583    0.0000 </r>
       <r>    5.0969    0.0000 </r>
      </set>
      <set comment="kpoint 220">
       <r>  -17.7167    1.0000 </r>
       <r>  -17.3365    1.0000 </r>
       <r>  -15.5262    1.0000 </r>
       <r>  -15.1528    1.0000 </r>
       <r>   -9.1262    1.0000 </r>
       <r>   -8.9094    1.0000 </r>
       <r>   -5.5751    1.0000 </r>
       <r>   -5.3041    1.0000 </r>
       <r>   -1.0239    0.0000 </r>
       <r>   -0.7288    0.0000 </r>
       <r>    4.6249    0.0000 </r>
       <r>    4.8484    0.0000 </r>
      </set>
      <set comment="kpoint 221">
       <r>  -17.5265    1.0000 </r>
       <r>  -17.5265    1.0000 </r>
       <r>  -15.3569    1.0000 </r>
       <r>  -15.3569    1.0000 </r>
       <r>   -8.9855    1.0000 </r>
       <r>   -8.9855    1.0000 </r>
       <r>   -5.4377    1.0000 </r>
       <r>   -5.4377    1.0000 </r>
       <r>   -0.8893    0.0000 </r>
       <r>   -0.8893    0.0000 </r>
       <r>    4.6890    0.0000 </r>
       <r>    4.6890    0.0000 </r>
      </set>
      <set comment="kpoint 222">
       <r>  -18.4389    1.0000 </r>
       <r>  -17.5916    1.0000 </r>
       <r>  -13.4987    1.0000 </r>
       <r>  -12.7201    1.0000 </r>
       <r>  -11.9803    1.0000 </r>
       <r>  -11.2444    1.0000 </r>
       <r>   -6.0615    1.0000 </r>
       <r>   -5.1570    1.0000 </r>
       <r>   -0.5148    0.0000 </r>
       <r>    0.5139    0.0000 </r>
       <r>    5.6007    0.0000 </r>
       <r>    6.3587    0.0000 </r>
      </set>
      <set comment="kpoint 223">
       <r>  -18.4294    1.0000 </r>
       <r>  -17.5830    1.0000 </r>
       <r>  -13.5920    1.0000 </r>
       <r>  -12.8103    1.0000 </r>
       <r>  -11.8812    1.0000 </r>
       <r>  -11.1532    1.0000 </r>
       <r>   -6.0539    1.0000 </r>
       <r>   -5.1543    1.0000 </r>
       <r>   -0.5321    0.0000 </r>
       <r>    0.4899    0.0000 </r>
       <r>    5.6144    0.0000 </r>
       <r>    6.3757    0.0000 </r>
      </set>
      <set comment="kpoint 224">
       <r>  -18.4008    1.0000 </r>
       <r>  -17.5573    1.0000 </r>
       <r>  -13.8201    1.0000 </r>
       <r>  -13.0328    1.0000 </r>
       <r>  -11.6363    1.0000 </r>
       <r>  -10.9284    1.0000 </r>
       <r>   -6.0315    1.0000 </r>
       <r>   -5.1465    1.0000 </r>
       <r>   -0.5819    0.0000 </r>
       <r>    0.4199    0.0000 </r>
       <r>    5.6553    0.0000 </r>
       <r>    6.4263    0.0000 </r>
      </set>
      <set comment="kpoint 225">
       <r>  -18.3533    1.0000 </r>
       <r>  -17.5152    1.0000 </r>
       <r>  -14.1084    1.0000 </r>
       <r>  -13.3174    1.0000 </r>
       <r>  -11.3209    1.0000 </r>
       <r>  -10.6419    1.0000 </r>
       <r>   -5.9946    1.0000 </r>
       <r>   -5.1348    1.0000 </r>
       <r>   -0.6590    0.0000 </r>
       <r>    0.3091    0.0000 </r>
       <r>    5.7230    0.0000 </r>
       <r>    6.5090    0.0000 </r>
      </set>
      <set comment="kpoint 226">
       <r>  -18.2872    1.0000 </r>
       <r>  -17.4576    1.0000 </r>
       <r>  -14.4160    1.0000 </r>
       <r>  -13.6252    1.0000 </r>
       <r>  -10.9778    1.0000 </r>
       <r>  -10.3357    1.0000 </r>
       <r>   -5.9440    1.0000 </r>
       <r>   -5.1209    1.0000 </r>
       <r>   -0.7552    0.0000 </r>
       <r>    0.1656    0.0000 </r>
       <r>    5.8160    0.0000 </r>
       <r>    6.6220    0.0000 </r>
      </set>
      <set comment="kpoint 227">
       <r>  -18.2030    1.0000 </r>
       <r>  -17.3865    1.0000 </r>
       <r>  -14.7229    1.0000 </r>
       <r>  -13.9380    1.0000 </r>
       <r>  -10.6287    1.0000 </r>
       <r>  -10.0322    1.0000 </r>
       <r>   -5.8810    1.0000 </r>
       <r>   -5.1075    1.0000 </r>
       <r>   -0.8608    0.0000 </r>
       <r>   -0.0015    0.0000 </r>
       <r>    5.9253    0.0000 </r>
       <r>    6.4523    0.0000 </r>
      </set>
      <set comment="kpoint 228">
       <r>  -18.1012    1.0000 </r>
       <r>  -17.3051    1.0000 </r>
       <r>  -15.0170    1.0000 </r>
       <r>  -14.2462    1.0000 </r>
       <r>  -10.2877    1.0000 </r>
       <r>   -9.7461    1.0000 </r>
       <r>   -5.8070    1.0000 </r>
       <r>   -5.0977    1.0000 </r>
       <r>   -0.9654    0.0000 </r>
       <r>   -0.1827    0.0000 </r>
       <r>    5.8809    0.0000 </r>
       <r>    6.1683    0.0000 </r>
      </set>
      <set comment="kpoint 229">
       <r>  -17.9829    1.0000 </r>
       <r>  -17.2191    1.0000 </r>
       <r>  -15.2878    1.0000 </r>
       <r>  -14.5438    1.0000 </r>
       <r>   -9.9654    1.0000 </r>
       <r>   -9.4893    1.0000 </r>
       <r>   -5.7242    1.0000 </r>
       <r>   -5.0950    1.0000 </r>
       <r>   -1.0588    0.0000 </r>
       <r>   -0.3688    0.0000 </r>
       <r>    5.5017    0.0000 </r>
       <r>    5.9926    0.0000 </r>
      </set>
      <set comment="kpoint 230">
       <r>  -17.8496    1.0000 </r>
       <r>  -17.1390    1.0000 </r>
       <r>  -15.5220    1.0000 </r>
       <r>  -14.8265    1.0000 </r>
       <r>   -9.6721    1.0000 </r>
       <r>   -9.2725    1.0000 </r>
       <r>   -5.6351    1.0000 </r>
       <r>   -5.1030    1.0000 </r>
       <r>   -1.1317    0.0000 </r>
       <r>   -0.5514    0.0000 </r>
       <r>    5.1548    0.0000 </r>
       <r>    5.5653    0.0000 </r>
      </set>
      <set comment="kpoint 231">
       <r>  -17.7037    1.0000 </r>
       <r>  -17.0829    1.0000 </r>
       <r>  -15.6998    1.0000 </r>
       <r>  -15.0898    1.0000 </r>
       <r>   -9.4173    1.0000 </r>
       <r>   -9.1053    1.0000 </r>
       <r>   -5.5428    1.0000 </r>
       <r>   -5.1247    1.0000 </r>
       <r>   -1.1764    0.0000 </r>
       <r>   -0.7225    0.0000 </r>
       <r>    4.8830    0.0000 </r>
       <r>    5.2037    0.0000 </r>
      </set>
      <set comment="kpoint 232">
       <r>  -17.5492    1.0000 </r>
       <r>  -17.0756    1.0000 </r>
       <r>  -15.7951    1.0000 </r>
       <r>  -15.3285    1.0000 </r>
       <r>   -9.2104    1.0000 </r>
       <r>   -8.9959    1.0000 </r>
       <r>   -5.4507    1.0000 </r>
       <r>   -5.1620    1.0000 </r>
       <r>   -1.1873    0.0000 </r>
       <r>   -0.8750    0.0000 </r>
       <r>    4.6984    0.0000 </r>
       <r>    4.9190    0.0000 </r>
      </set>
      <set comment="kpoint 233">
       <r>  -17.3930    1.0000 </r>
       <r>  -17.1337    1.0000 </r>
       <r>  -15.7908    1.0000 </r>
       <r>  -15.5349    1.0000 </r>
       <r>   -9.0598    1.0000 </r>
       <r>   -8.9504    1.0000 </r>
       <r>   -5.3628    1.0000 </r>
       <r>   -5.2153    1.0000 </r>
       <r>   -1.1617    0.0000 </r>
       <r>   -1.0024    0.0000 </r>
       <r>    4.6081    0.0000 </r>
       <r>    4.7206    0.0000 </r>
      </set>
      <set comment="kpoint 234">
       <r>  -17.2477    1.0000 </r>
       <r>  -17.2477    1.0000 </r>
       <r>  -15.6958    1.0000 </r>
       <r>  -15.6958    1.0000 </r>
       <r>   -8.9719    1.0000 </r>
       <r>   -8.9719    1.0000 </r>
       <r>   -5.2831    1.0000 </r>
       <r>   -5.2831    1.0000 </r>
       <r>   -1.0993    0.0000 </r>
       <r>   -1.0993    0.0000 </r>
       <r>    4.6156    0.0000 </r>
       <r>    4.6156    0.0000 </r>
      </set>
      <set comment="kpoint 235">
       <r>  -18.0223    1.0000 </r>
       <r>  -18.0223    1.0000 </r>
       <r>  -13.1188    1.0000 </r>
       <r>  -13.1188    1.0000 </r>
       <r>  -11.6229    1.0000 </r>
       <r>  -11.6229    1.0000 </r>
       <r>   -5.6130    1.0000 </r>
       <r>   -5.6130    1.0000 </r>
       <r>   -0.0108    0.0000 </r>
       <r>   -0.0108    0.0000 </r>
       <r>    6.1982    0.0000 </r>
       <r>    6.1982    0.0000 </r>
      </set>
      <set comment="kpoint 236">
       <r>  -18.0131    1.0000 </r>
       <r>  -18.0131    1.0000 </r>
       <r>  -13.2111    1.0000 </r>
       <r>  -13.2111    1.0000 </r>
       <r>  -11.5273    1.0000 </r>
       <r>  -11.5273    1.0000 </r>
       <r>   -5.6073    1.0000 </r>
       <r>   -5.6073    1.0000 </r>
       <r>   -0.0320    0.0000 </r>
       <r>   -0.0320    0.0000 </r>
       <r>    6.2118    0.0000 </r>
       <r>    6.2118    0.0000 </r>
      </set>
      <set comment="kpoint 237">
       <r>  -17.9855    1.0000 </r>
       <r>  -17.9855    1.0000 </r>
       <r>  -13.4375    1.0000 </r>
       <r>  -13.4375    1.0000 </r>
       <r>  -11.2913    1.0000 </r>
       <r>  -11.2913    1.0000 </r>
       <r>   -5.5906    1.0000 </r>
       <r>   -5.5906    1.0000 </r>
       <r>   -0.0938    0.0000 </r>
       <r>   -0.0938    0.0000 </r>
       <r>    6.2524    0.0000 </r>
       <r>    6.2524    0.0000 </r>
      </set>
      <set comment="kpoint 238">
       <r>  -17.9399    1.0000 </r>
       <r>  -17.9399    1.0000 </r>
       <r>  -13.7254    1.0000 </r>
       <r>  -13.7254    1.0000 </r>
       <r>  -10.9892    1.0000 </r>
       <r>  -10.9892    1.0000 </r>
       <r>   -5.5636    1.0000 </r>
       <r>   -5.5636    1.0000 </r>
       <r>   -0.1908    0.0000 </r>
       <r>   -0.1908    0.0000 </r>
       <r>    6.3192    0.0000 </r>
       <r>    6.3192    0.0000 </r>
      </set>
      <set comment="kpoint 239">
       <r>  -17.8768    1.0000 </r>
       <r>  -17.8768    1.0000 </r>
       <r>  -14.0350    1.0000 </r>
       <r>  -14.0350    1.0000 </r>
       <r>  -10.6631    1.0000 </r>
       <r>  -10.6631    1.0000 </r>
       <r>   -5.5275    1.0000 </r>
       <r>   -5.5275    1.0000 </r>
       <r>   -0.3151    0.0000 </r>
       <r>   -0.3151    0.0000 </r>
       <r>    6.4092    0.0000 </r>
       <r>    6.4092    0.0000 </r>
      </set>
      <set comment="kpoint 240">
       <r>  -17.7970    1.0000 </r>
       <r>  -17.7970    1.0000 </r>
       <r>  -14.3474    1.0000 </r>
       <r>  -14.3474    1.0000 </r>
       <r>  -10.3354    1.0000 </r>
       <r>  -10.3354    1.0000 </r>
       <r>   -5.4841    1.0000 </r>
       <r>   -5.4841    1.0000 </r>
       <r>   -0.4572    0.0000 </r>
       <r>   -0.4572    0.0000 </r>
       <r>    6.4875    0.0000 </r>
       <r>    6.4875    0.0000 </r>
      </set>
      <set comment="kpoint 241">
       <r>  -17.7017    1.0000 </r>
       <r>  -17.7017    1.0000 </r>
       <r>  -14.6525    1.0000 </r>
       <r>  -14.6525    1.0000 </r>
       <r>  -10.0202    1.0000 </r>
       <r>  -10.0202    1.0000 </r>
       <r>   -5.4358    1.0000 </r>
       <r>   -5.4358    1.0000 </r>
       <r>   -0.6072    0.0000 </r>
       <r>   -0.6072    0.0000 </r>
       <r>    6.1744    0.0000 </r>
       <r>    6.1744    0.0000 </r>
      </set>
      <set comment="kpoint 242">
       <r>  -17.5932    1.0000 </r>
       <r>  -17.5932    1.0000 </r>
       <r>  -14.9433    1.0000 </r>
       <r>  -14.9433    1.0000 </r>
       <r>   -9.7289    1.0000 </r>
       <r>   -9.7289    1.0000 </r>
       <r>   -5.3854    1.0000 </r>
       <r>   -5.3854    1.0000 </r>
       <r>   -0.7552    0.0000 </r>
       <r>   -0.7552    0.0000 </r>
       <r>    5.7314    0.0000 </r>
       <r>    5.7314    0.0000 </r>
      </set>
      <set comment="kpoint 243">
       <r>  -17.4751    1.0000 </r>
       <r>  -17.4751    1.0000 </r>
       <r>  -15.2133    1.0000 </r>
       <r>  -15.2133    1.0000 </r>
       <r>   -9.4721    1.0000 </r>
       <r>   -9.4721    1.0000 </r>
       <r>   -5.3364    1.0000 </r>
       <r>   -5.3364    1.0000 </r>
       <r>   -0.8919    0.0000 </r>
       <r>   -0.8919    0.0000 </r>
       <r>    5.3410    0.0000 </r>
       <r>    5.3410    0.0000 </r>
      </set>
      <set comment="kpoint 244">
       <r>  -17.3538    1.0000 </r>
       <r>  -17.3538    1.0000 </r>
       <r>  -15.4543    1.0000 </r>
       <r>  -15.4543    1.0000 </r>
       <r>   -9.2594    1.0000 </r>
       <r>   -9.2594    1.0000 </r>
       <r>   -5.2926    1.0000 </r>
       <r>   -5.2926    1.0000 </r>
       <r>   -1.0087    0.0000 </r>
       <r>   -1.0087    0.0000 </r>
       <r>    5.0220    0.0000 </r>
       <r>    5.0220    0.0000 </r>
      </set>
      <set comment="kpoint 245">
       <r>  -17.2406    1.0000 </r>
       <r>  -17.2406    1.0000 </r>
       <r>  -15.6537    1.0000 </r>
       <r>  -15.6537    1.0000 </r>
       <r>   -9.0998    1.0000 </r>
       <r>   -9.0998    1.0000 </r>
       <r>   -5.2578    1.0000 </r>
       <r>   -5.2578    1.0000 </r>
       <r>   -1.0981    0.0000 </r>
       <r>   -1.0981    0.0000 </r>
       <r>    4.7856    0.0000 </r>
       <r>    4.7856    0.0000 </r>
      </set>
      <set comment="kpoint 246">
       <r>  -17.1550    1.0000 </r>
       <r>  -17.1550    1.0000 </r>
       <r>  -15.7913    1.0000 </r>
       <r>  -15.7913    1.0000 </r>
       <r>   -9.0008    1.0000 </r>
       <r>   -9.0008    1.0000 </r>
       <r>   -5.2353    1.0000 </r>
       <r>   -5.2353    1.0000 </r>
       <r>   -1.1543    0.0000 </r>
       <r>   -1.1543    0.0000 </r>
       <r>    4.6401    0.0000 </r>
       <r>    4.6401    0.0000 </r>
      </set>
      <set comment="kpoint 247">
       <r>  -17.1220    1.0000 </r>
       <r>  -17.1220    1.0000 </r>
       <r>  -15.8416    1.0000 </r>
       <r>  -15.8416    1.0000 </r>
       <r>   -8.9672    1.0000 </r>
       <r>   -8.9672    1.0000 </r>
       <r>   -5.2276    1.0000 </r>
       <r>   -5.2276    1.0000 </r>
       <r>   -1.1735    0.0000 </r>
       <r>   -1.1735    0.0000 </r>
       <r>    4.5910    0.0000 </r>
       <r>    4.5910    0.0000 </r>
      </set>
     </set>
    </set>
   </array>
  </eigenvalues>
  <separator name="orbital magnetization" >
   <v name="MAGDIPOLOUT">      0.00000000      0.00000000      0.00000000</v>
  </separator>
 </calculation>
 <structure name="finalpos" >
  <crystal>
   <varray name="basis" >
    <v>       4.25507122       0.00000000       0.00000000 </v>
    <v>       0.00000000       2.52935494       0.00000000 </v>
    <v>       0.00000000       0.00000000      19.58989343 </v>
   </varray>
   <i name="volume">    210.83790140 </i>
   <varray name="rec_basis" >
    <v>       0.23501369       0.00000000       0.00000000 </v>
    <v>       0.00000000       0.39535772       0.00000000 </v>
    <v>       0.00000000       0.00000000       0.05104673 </v>
   </varray>
  </crystal>
  <varray name="positions" >
   <v>       0.00063962       0.00000000       0.00000000 </v>
   <v>       0.16602705       0.50000000      -0.00000000 </v>
   <v>       0.50063962       0.50000000       0.00000000 </v>
   <v>       0.66602705       0.00000000      -0.00000000 </v>
  </varray>
 </structure>
</modeling>
