gr                                      
           1
     4.255071    0.000000    0.000000
     0.000000    2.529355    0.000000
     0.000000    0.000000   19.589893
   C 
   4
Direct configuration=     1
   0.00063729  0.00000000  0.00000000
   0.16602938  0.50000000  0.00000000
   0.50063729  0.50000000  0.00000000
   0.66602938  0.00000000  0.00000000
Direct configuration=     2
   0.00064895  0.00000000  0.00000000
   0.16601772  0.50000000  0.00000000
   0.50064895  0.50000000  0.00000000
   0.66601772  0.00000000  0.00000000
Direct configuration=     3
   0.00063962 -0.00000000 -0.00000000
   0.16602704  0.50000000  0.00000000
   0.50063962  0.50000000 -0.00000000
   0.66602704  0.00000000  0.00000000
Direct configuration=     4
   0.00063961 -0.00000000 -0.00000000
   0.16602706  0.50000000  0.00000000
   0.50063961  0.50000000 -0.00000000
   0.66602706  0.00000000  0.00000000
Direct configuration=     5
   0.00063962 -0.00000000  0.00000000
   0.16602705  0.50000000 -0.00000000
   0.50063962  0.50000000  0.00000000
   0.66602705  0.00000000 -0.00000000
Direct configuration=     6
   0.00063962 -0.00000000  0.00000000
   0.16602705  0.50000000 -0.00000000
   0.50063962  0.50000000  0.00000000
   0.66602705  0.00000000 -0.00000000
Direct configuration=     7
   0.00063970  0.00000000  0.00000000
   0.16602696  0.50000000 -0.00000000
   0.50063970  0.50000000  0.00000000
   0.66602696  0.00000000 -0.00000000
Direct configuration=     8
   0.00063962  0.00000000  0.00000000
   0.16602704  0.50000000 -0.00000000
   0.50063962  0.50000000  0.00000000
   0.66602704  0.00000000 -0.00000000
Direct configuration=     9
   0.00063961 -0.00000000 -0.00000000
   0.16602705  0.50000000  0.00000000
   0.50063961  0.50000000 -0.00000000
   0.66602705  0.00000000  0.00000000
Direct configuration=    10
   0.00063962  0.00000000  0.00000000
   0.16602705  0.50000000 -0.00000000
   0.50063962  0.50000000  0.00000000
   0.66602705  0.00000000 -0.00000000
