    4    4  400    1
  0.5270948E+02  0.4258467E-09  0.2517018E-09  0.1967022E-08  0.5000000E-15
  1.000000000000000E-004
  CAR 
 gr                                      
     16    247     12
 
  0.0000000E+00  0.0000000E+00  0.0000000E+00  0.1157407E-02
    1      -22.114758
    2      -16.765188
    3      -15.884570
    4      -10.251692
    5       -9.417681
    6       -5.956245
    7       -5.747165
    8       -4.944351
    9       -1.127430
   10        0.540592
   11        1.339342
   12        1.730740
 
  0.4166667E-01  0.0000000E+00  0.0000000E+00  0.2314815E-02
    1      -22.104408
    2      -16.954726
    3      -15.679968
    4      -10.239393
    5       -9.407312
    6       -5.979751
    7       -5.787854
    8       -5.013759
    9       -1.042980
   10        0.554620
   11        1.353519
   12        1.745095
 
  0.8333333E-01  0.0000000E+00  0.0000000E+00  0.2314815E-02
    1      -22.073361
    2      -17.315593
    3      -15.273997
    4      -10.202516
    5       -9.376253
    6       -6.048922
    7       -5.908406
    8       -5.205278
    9       -0.806514
   10        0.596702
   11        1.396046
   12        1.788161
 
  0.1250000E+00  0.0000000E+00  0.0000000E+00  0.2314815E-02
    1      -22.021637
    2      -17.705495
    3      -14.809231
    4      -10.141117
    5       -9.324656
    6       -6.159959
    7       -6.104518
    8       -5.482554
    9       -0.454915
   10        0.666834
   11        1.466912
   12        1.859936
 
  0.1666667E+00  0.0000000E+00  0.0000000E+00  0.2314815E-02
    1      -21.949272
    2      -18.093263
    3      -14.317307
    4      -10.055293
    5       -9.252778
    6       -6.369690
    7       -6.307232
    8       -5.810751
    9       -0.023912
   10        0.765008
   11        1.566097
   12        1.960421
 
  0.2083333E+00  0.0000000E+00  0.0000000E+00  0.2314815E-02
    1      -21.856314
    2      -18.470037
    3      -13.807771
    4       -9.945185
    5       -9.160992
    6       -6.696031
    7       -6.484069
    8       -6.164783
    9        0.460151
   10        0.891213
   11        1.693571
   12        2.089614
 
  0.2500000E+00  0.0000000E+00  0.0000000E+00  0.2314815E-02
    1      -21.742827
    2      -18.832298
    3      -13.285037
    4       -9.810981
    5       -9.049796
    6       -7.075042
    7       -6.683497
    8       -6.528358
    9        0.979339
   10        1.045424
   11        1.849288
   12        2.247513
 
  0.2916667E+00  0.0000000E+00  0.0000000E+00  0.2314815E-02
    1      -21.608893
    2      -19.178278
    3      -12.752017
    4       -9.652923
    5       -8.919834
    6       -7.498240
    7       -6.898787
    8       -6.891091
    9        1.227612
   10        1.521193
   11        2.033184
   12        2.434112
 
  0.3333333E+00  0.0000000E+00  0.0000000E+00  0.2314815E-02
    1      -21.454606
    2      -19.506925
    3      -12.211178
    4       -9.471319
    5       -8.771914
    6       -7.957589
    7       -7.246240
    8       -7.123802
    9        1.437731
   10        2.076369
   11        2.245157
   12        2.649404
 
  0.3750000E+00  0.0000000E+00  0.0000000E+00  0.2314815E-02
    1      -21.280082
    2      -19.817538
    3      -11.664951
    4       -9.266553
    5       -8.607036
    6       -8.445745
    7       -7.589291
    8       -7.353144
    9        1.675721
   10        2.485038
   11        2.636771
   12        2.893372
 
  0.4166667E+00  0.0000000E+00  0.0000000E+00  0.2314815E-02
    1      -21.085456
    2      -20.109601
    3      -11.115933
    4       -9.039103
    5       -8.956157
    6       -8.426432
    7       -7.917113
    8       -7.582185
    9        1.941495
   10        2.752489
   11        3.165986
   12        3.191726
 
  0.4583333E+00  0.0000000E+00  0.0000000E+00  0.2314815E-02
    1      -20.870887
    2      -20.382716
    3      -10.567012
    4       -9.483068
    5       -8.789567
    6       -8.231606
    7       -8.227468
    8       -7.807019
    9        2.234930
   10        2.903775
   11        3.046628
   12        3.467982
 
  0.5000000E+00  0.0000000E+00  0.0000000E+00  0.1157407E-02
    1      -20.636566
    2      -20.636566
    3      -10.021468
    4      -10.021468
    5       -8.518702
    6       -8.518702
    7       -8.024393
    8       -8.024393
    9        2.555820
   10        2.555820
   11        3.363582
   12        3.363582
 
  0.0000000E+00  0.2777778E-01  0.0000000E+00  0.2314815E-02
    1      -22.101622
    2      -16.753863
    3      -15.873951
    4      -10.236083
    5       -9.476509
    6       -6.010404
    7       -5.779001
    8       -4.928433
    9       -1.133176
   10        0.558368
   11        1.357371
   12        1.748993
 
  0.4166667E-01  0.2777778E-01  0.0000000E+00  0.4629630E-02
    1      -22.091273
    2      -16.943283
    3      -15.669527
    4      -10.223789
    5       -9.466112
    6       -6.037215
    7       -5.815663
    8       -4.998013
    9       -1.048685
   10        0.572397
   11        1.371546
   12        1.763348
 
  0.8333333E-01  0.2777778E-01  0.0000000E+00  0.4629630E-02
    1      -22.060230
    2      -17.303936
    3      -15.263950
    4      -10.186925
    5       -9.434968
    6       -6.118068
    7       -5.922501
    8       -5.189915
    9       -0.812224
   10        0.614482
   11        1.414070
   12        1.806414
 
  0.1250000E+00  0.2777778E-01  0.0000000E+00  0.4629630E-02
    1      -22.008514
    2      -17.693629
    3      -14.799701
    4      -10.125548
    5       -9.383223
    6       -6.257386
    7       -6.087328
    8       -5.467573
    9       -0.460892
   10        0.684620
   11        1.484931
   12        1.878191
 
  0.1666667E+00  0.2777778E-01  0.0000000E+00  0.4629630E-02
    1      -21.936159
    2      -18.081212
    3      -14.308413
    4      -10.039756
    5       -9.311125
    6       -6.470100
    7       -6.283513
    8       -5.796040
    9       -0.030529
   10        0.782803
   11        1.584109
   12        1.978678
 
  0.2083333E+00  0.2777778E-01  0.0000000E+00  0.4629630E-02
    1      -21.843215
    2      -18.457823
    3      -13.799646
    4       -9.929688
    5       -9.219035
    6       -6.764023
    7       -6.489076
    8       -6.150219
    9        0.452510
   10        0.909019
   11        1.711573
   12        2.107873
 
  0.2500000E+00  0.2777778E-01  0.0000000E+00  0.4629630E-02
    1      -21.729746
    2      -18.819943
    3      -13.277843
    4       -9.795533
    5       -9.107433
    6       -7.123963
    7       -6.704027
    8       -6.513845
    9        0.970321
   10        1.063243
   11        1.867279
   12        2.265775
 
  0.2916667E+00  0.2777778E-01  0.0000000E+00  0.4629630E-02
    1      -21.595833
    2      -19.165800
    3      -12.745949
    4       -9.637534
    5       -8.976937
    6       -7.534281
    7       -6.928971
    8       -6.876562
    9        1.245445
   10        1.510493
   11        2.051163
   12        2.452378
 
  0.3333333E+00  0.2777778E-01  0.0000000E+00  0.4629630E-02
    1      -21.441572
    2      -19.494343
    3      -12.206478
    4       -9.455997
    5       -8.828325
    6       -7.984059
    7       -7.231653
    8       -7.160725
    9        1.455579
   10        2.063747
   11        2.263126
   12        2.667675
 
  0.3750000E+00  0.2777778E-01  0.0000000E+00  0.4629630E-02
    1      -21.267079
    2      -19.804866
    3      -11.661919
    4       -9.251307
    5       -8.662559
    6       -8.464774
    7       -7.574620
    8       -7.395075
    9        1.693586
   10        2.503001
   11        2.622137
   12        2.911650
 
  0.4166667E+00  0.2777778E-01  0.0000000E+00  0.4629630E-02
    1      -21.072489
    2      -20.096851
    3      -11.114939
    4       -9.023941
    5       -8.969284
    6       -8.480819
    7       -7.902345
    8       -7.627954
    9        1.959383
   10        2.770459
   11        3.175937
   12        3.184280
 
  0.4583333E+00  0.2777778E-01  0.0000000E+00  0.4629630E-02
    1      -20.857962
    2      -20.369899
    3      -10.568520
    4       -9.491467
    5       -8.774498
    6       -8.284547
    7       -8.212598
    8       -7.855777
    9        2.252849
   10        2.921857
   11        3.064633
   12        3.485511
 
  0.5000000E+00  0.2777778E-01  0.0000000E+00  0.2314815E-02
    1      -20.623691
    2      -20.623691
    3      -10.026058
    4      -10.026058
    5       -8.503730
    6       -8.503730
    7       -8.075493
    8       -8.075493
    9        2.573792
   10        2.573792
   11        3.381611
   12        3.381612
 
  0.0000000E+00  0.5555556E-01  0.0000000E+00  0.2314815E-02
    1      -22.062226
    2      -16.719895
    3      -15.842293
    4      -10.189289
    5       -9.648176
    6       -6.168654
    7       -5.873533
    8       -4.880700
    9       -1.151209
   10        0.611701
   11        1.411449
   12        1.803751
 
  0.4166667E-01  0.5555556E-01  0.0000000E+00  0.4629630E-02
    1      -22.051881
    2      -16.908975
    3      -15.638391
    4      -10.177008
    5       -9.637688
    6       -6.201980
    7       -5.901578
    8       -4.950808
    9       -1.066582
   10        0.625733
   11        1.425621
   12        1.818107
 
  0.8333333E-01  0.5555556E-01  0.0000000E+00  0.4629630E-02
    1      -22.020850
    2      -17.268998
    3      -15.234004
    4      -10.140185
    5       -9.606268
    6       -6.300172
    7       -5.985139
    8       -5.143894
    9       -0.830121
   10        0.667827
   11        1.468135
   12        1.861175
 
  0.1250000E+00  0.5555556E-01  0.0000000E+00  0.4629630E-02
    1      -21.969156
    2      -17.658064
    3      -14.771338
    4      -10.078876
    5       -9.554045
    6       -6.459283
    7       -6.121357
    8       -5.422720
    9       -0.479595
   10        0.737980
   11        1.538979
   12        1.932955
 
  0.1666667E+00  0.5555556E-01  0.0000000E+00  0.4629630E-02
    1      -21.896833
    2      -18.045085
    3      -14.282006
    4       -9.993178
    5       -9.481238
    6       -6.675866
    7       -6.303206
    8       -5.752010
    9       -0.051179
   10        0.836186
   11        1.638133
   12        2.033446
 
  0.2083333E+00  0.5555556E-01  0.0000000E+00  0.4629630E-02
    1      -21.803931
    2      -18.421205
    3      -13.775620
    4       -9.883233
    5       -9.388162
    6       -6.948162
    7       -6.519437
    8       -6.106635
    9        0.428744
   10        0.962428
   11        1.765568
   12        2.162648
 
  0.2500000E+00  0.5555556E-01  0.0000000E+00  0.4629630E-02
    1      -21.690515
    2      -18.782900
    3      -13.256708
    4       -9.749229
    5       -9.275237
    6       -7.274595
    7       -6.757315
    8       -6.470411
    9        0.942366
   10        1.116685
   11        1.921240
   12        2.320558
 
  0.2916667E+00  0.5555556E-01  0.0000000E+00  0.4629630E-02
    1      -21.556667
    2      -19.128390
    3      -12.728334
    4       -9.591408
    5       -9.143001
    6       -7.651342
    7       -7.006158
    8       -6.833074
    9        1.298922
   10        1.477416
   11        2.105086
   12        2.507171
 
  0.3333333E+00  0.5555556E-01  0.0000000E+00  0.4629630E-02
    1      -21.402484
    2      -19.456617
    3      -12.193160
    4       -9.410076
    5       -8.992125
    6       -8.071917
    7       -7.258593
    8       -7.187981
    9        1.509097
   10        2.024806
   11        2.317014
   12        2.722481
 
  0.3750000E+00  0.5555556E-01  0.0000000E+00  0.4629630E-02
    1      -21.228083
    2      -19.766866
    3      -11.653870
    4       -9.205618
    5       -8.823432
    6       -8.528582
    7       -7.530689
    8       -7.509657
    9        1.747149
   10        2.556867
   11        2.576976
   12        2.966475
 
  0.4166667E+00  0.5555556E-01  0.0000000E+00  0.4629630E-02
    1      -21.033601
    2      -20.058617
    3      -11.113381
    4       -9.013696
    5       -8.978510
    6       -8.637923
    7       -7.858117
    8       -7.755704
    9        2.013000
   10        2.824342
   11        3.125594
   12        3.239133
 
  0.4583333E+00  0.5555556E-01  0.0000000E+00  0.4629630E-02
    1      -20.819202
    2      -20.331462
    3      -10.574991
    4       -9.520345
    5       -8.729347
    6       -8.436804
    7       -8.168057
    8       -7.993805
    9        2.306541
   10        2.975921
   11        3.118625
   12        3.540420
 
  0.5000000E+00  0.5555556E-01  0.0000000E+00  0.2314815E-02
    1      -20.585080
    2      -20.585080
    3      -10.042503
    4      -10.042503
    5       -8.458878
    6       -8.458878
    7       -8.221523
    8       -8.221523
    9        2.627608
   10        2.627608
   11        3.435687
   12        3.435688
 
  0.0000000E+00  0.8333333E-01  0.0000000E+00  0.2314815E-02
    1      -21.996605
    2      -16.663293
    3      -15.790224
    4      -10.111407
    5       -9.919529
    6       -6.419556
    7       -6.027930
    8       -4.801208
    9       -1.183899
   10        0.700615
   11        1.501556
   12        1.895021
 
  0.4166667E-01  0.8333333E-01  0.0000000E+00  0.4629630E-02
    1      -21.986267
    2      -16.851869
    3      -15.587154
    4      -10.099149
    5       -9.908869
    6       -6.458963
    7       -6.046587
    8       -4.872256
    9       -1.099007
   10        0.714649
   11        1.515722
   12        1.909377
 
  0.8333333E-01  0.8333333E-01  0.0000000E+00  0.4629630E-02
    1      -21.955258
    2      -17.210873
    3      -15.184782
    4      -10.062395
    5       -9.876921
    6       -6.570901
    7       -6.107009
    8       -5.067425
    9       -0.862487
   10        0.756750
   11        1.558217
   12        1.952446
 
  0.1250000E+00  0.8333333E-01  0.0000000E+00  0.4629630E-02
    1      -21.903601
    2      -17.598896
    3      -14.724870
    4      -10.001202
    5       -9.823779
    6       -6.742707
    7       -6.216472
    8       -5.348286
    9       -0.513305
   10        0.826918
   11        1.629030
   12        2.024229
 
  0.1666667E+00  0.8333333E-01  0.0000000E+00  0.4629630E-02
    1      -21.831332
    2      -17.984973
    3      -14.238985
    4       -9.915668
    5       -9.749602
    6       -6.963329
    7       -6.377411
    8       -5.678988
    9       -0.088213
   10        0.925146
   11        1.728141
   12        2.124725
 
  0.2083333E+00  0.8333333E-01  0.0000000E+00  0.4629630E-02
    1      -21.738500
    2      -18.360265
    3      -13.736836
    4       -9.805933
    5       -9.654615
    6       -7.225706
    7       -6.585694
    8       -6.034363
    9        0.386377
   10        1.051419
   11        1.855520
   12        2.253935
 
  0.2500000E+00  0.8333333E-01  0.0000000E+00  0.4629630E-02
    1      -21.625173
    2      -18.721241
    3      -13.223123
    4       -9.672186
    5       -9.539111
    6       -7.526597
    7       -6.831685
    8       -6.398376
    9        0.892835
   10        1.205714
   11        2.011125
   12        2.411855
 
  0.2916667E+00  0.8333333E-01  0.0000000E+00  0.4629630E-02
    1      -21.491433
    2      -19.066112
    3      -12.701143
    4       -9.514670
    5       -9.403452
    6       -7.865560
    7       -7.102244
    8       -6.760927
    9        1.387996
   10        1.419128
   11        2.194899
   12        2.598482
 
  0.3333333E+00  0.8333333E-01  0.0000000E+00  0.4629630E-02
    1      -21.337380
    2      -19.393805
    3      -12.173874
    4       -9.333692
    5       -9.248076
    6       -8.242985
    7       -7.383574
    8       -7.115504
    9        1.598220
   10        1.956461
   11        2.406754
   12        2.813809
 
  0.3750000E+00  0.8333333E-01  0.0000000E+00  0.4629630E-02
    1      -21.163133
    2      -19.703595
    3      -11.644405
    4       -9.129633
    5       -9.073490
    6       -8.657762
    7       -7.664195
    8       -7.457754
    9        1.836325
   10        2.497775
   11        2.646555
   12        3.057826
 
  0.4166667E+00  0.8333333E-01  0.0000000E+00  0.4629630E-02
    1      -20.968834
    2      -19.994950
    3      -11.116192
    4       -9.106153
    5       -8.902969
    6       -8.880278
    7       -7.936458
    8       -7.784660
    9        2.102236
   10        2.914044
   11        3.036388
   12        3.330519
 
  0.4583333E+00  0.8333333E-01  0.0000000E+00  0.4629630E-02
    1      -20.754650
    2      -20.267456
    3      -10.593220
    4       -9.582423
    5       -8.669101
    6       -8.654289
    7       -8.196061
    8       -8.094056
    9        2.395856
   10        3.065596
   11        3.208523
   12        3.556496
 
  0.5000000E+00  0.8333333E-01  0.0000000E+00  0.2314815E-02
    1      -20.520780
    2      -20.520780
    3      -10.080154
    4      -10.080154
    5       -8.440718
    6       -8.440718
    7       -8.384338
    8       -8.384338
    9        2.717047
   10        2.717047
   11        3.525751
   12        3.525751
 
  0.0000000E+00  0.1111111E+00  0.0000000E+00  0.2314815E-02
    1      -21.904823
    2      -16.584080
    3      -15.718940
    4      -10.272154
    5      -10.002602
    6       -6.747410
    7       -6.237778
    8       -4.690058
    9       -1.235107
   10        0.825137
   11        1.627654
   12        2.022806
 
  0.4166667E-01  0.1111111E+00  0.0000000E+00  0.4629630E-02
    1      -21.894495
    2      -16.772089
    3      -15.516947
    4      -10.261199
    5       -9.990378
    6       -6.791791
    7       -6.247201
    8       -4.762555
    9       -1.149746
   10        0.839170
   11        1.641810
   12        2.037162
 
  0.8333333E-01  0.1111111E+00  0.0000000E+00  0.4629630E-02
    1      -21.863518
    2      -17.129738
    3      -15.117487
    4      -10.228345
    5       -9.953726
    6       -6.914583
    7       -6.284597
    8       -4.960897
    9       -0.912991
   10        0.881269
   11        1.684275
   12        2.080232
 
  0.1250000E+00  0.1111111E+00  0.0000000E+00  0.4629630E-02
    1      -21.811914
    2      -17.516301
    3      -14.661720
    4      -10.173620
    5       -9.892702
    6       -7.096422
    7       -6.365589
    8       -5.244800
    9       -0.565665
   10        0.951438
   11        1.755037
   12        2.152015
 
  0.1666667E+00  0.1111111E+00  0.0000000E+00  0.4629630E-02
    1      -21.739719
    2      -17.901035
    3      -14.181129
    4      -10.097069
    5       -9.807406
    6       -7.321706
    7       -6.499417
    8       -5.577565
    9       -0.145357
   10        1.049673
   11        1.854075
   12        2.252514
 
  0.2083333E+00  0.1111111E+00  0.0000000E+00  0.4629630E-02
    1      -21.646986
    2      -18.275145
    3      -13.685599
    4       -9.998740
    5       -9.697978
    6       -7.580316
    7       -6.687320
    8       -5.934002
    9        0.321514
   10        1.175965
   11        1.981361
   12        2.381730
 
  0.2500000E+00  0.1111111E+00  0.0000000E+00  0.4629630E-02
    1      -21.533785
    2      -18.635096
    3      -13.180143
    4       -9.878670
    5       -9.564608
    6       -7.866410
    7       -6.924200
    8       -6.298316
    9        0.817619
   10        1.330287
   11        2.136852
   12        2.539659
 
  0.2916667E+00  0.1111111E+00  0.0000000E+00  0.4629630E-02
    1      -21.400197
    2      -18.979082
    3      -12.668504
    4       -9.736865
    5       -9.407540
    6       -8.177625
    7       -7.200181
    8       -6.660660
    9        1.331283
   10        1.512605
   11        2.320493
   12        2.726298
 
  0.3333333E+00  0.1111111E+00  0.0000000E+00  0.4629630E-02
    1      -21.246328
    2      -19.306012
    3      -12.154268
    4       -9.573267
    5       -9.227079
    6       -8.514548
    7       -7.502003
    8       -7.014715
    9        1.722869
   10        1.854102
   11        2.532208
   12        2.941642
 
  0.3750000E+00  0.1111111E+00  0.0000000E+00  0.4629630E-02
    1      -21.072300
    2      -19.615146
    3      -11.641334
    4       -9.387715
    5       -9.023607
    6       -8.879737
    7       -7.814773
    8       -7.356264
    9        1.961016
   10        2.379537
   11        2.771884
   12        3.185681
 
  0.4166667E+00  0.1111111E+00  0.0000000E+00  0.4629630E-02
    1      -20.878260
    2      -19.905938
    3      -11.134203
    4       -9.275812
    5       -9.179916
    6       -8.797595
    7       -8.124422
    8       -7.682383
    9        2.226972
   10        2.902040
   11        3.039336
   12        3.458405
 
  0.4583333E+00  0.1111111E+00  0.0000000E+00  0.4629630E-02
    1      -20.664381
    2      -20.177959
    3      -10.638127
    4       -9.703197
    5       -8.949475
    6       -8.549630
    7       -8.420256
    8       -7.990964
    9        2.520641
   10        3.190584
   11        3.334092
   12        3.415650
 
  0.5000000E+00  0.1111111E+00  0.0000000E+00  0.2314815E-02
    1      -20.430868
    2      -20.430868
    3      -10.159062
    4      -10.159062
    5       -8.696102
    6       -8.696102
    7       -8.280444
    8       -8.280444
    9        2.841902
   10        2.841902
   11        3.651488
   12        3.651489
 
  0.0000000E+00  0.1388889E+00  0.0000000E+00  0.2314815E-02
    1      -21.786972
    2      -16.482286
    3      -15.630477
    4      -10.685531
    5       -9.863114
    6       -7.135380
    7       -6.497463
    8       -4.547391
    9       -1.310005
   10        0.985285
   11        1.789687
   12        2.187114
 
  0.4166667E-01  0.1388889E+00  0.0000000E+00  0.4629630E-02
    1      -21.776657
    2      -16.669836
    3      -15.429712
    4      -10.674083
    5       -9.850936
    6       -7.183942
    7       -6.497784
    8       -4.622019
    9       -1.223823
   10        0.999312
   11        1.803828
   12        2.201469
 
  0.8333333E-01  0.1388889E+00  0.0000000E+00  0.4629630E-02
    1      -21.745720
    2      -17.025878
    3      -15.034216
    4      -10.639708
    5       -9.814421
    6       -7.315948
    7       -6.511801
    8       -4.824945
    9       -0.986411
   10        1.041395
   11        1.846244
   12        2.244535
 
  0.1250000E+00  0.1388889E+00  0.0000000E+00  0.4629630E-02
    1      -21.694184
    2      -17.410558
    3      -14.584423
    4      -10.582308
    5       -9.753628
    6       -7.506737
    7       -6.562098
    8       -5.113121
    9       -0.641346
   10        1.111542
   11        1.916924
   12        2.316315
 
  0.1666667E+00  0.1388889E+00  0.0000000E+00  0.4629630E-02
    1      -21.622088
    2      -17.793526
    3      -14.111689
    4      -10.501700
    5       -9.668655
    6       -7.737400
    7       -6.663602
    8       -5.448690
    9       -0.227343
   10        1.209757
   11        2.015846
   12        2.416812
 
  0.2083333E+00  0.1388889E+00  0.0000000E+00  0.4629630E-02
    1      -21.529484
    2      -18.166069
    3      -13.626224
    4      -10.397575
    5       -9.559645
    6       -7.995898
    7       -6.822073
    8       -5.806497
    9        0.229275
   10        1.336036
   11        2.142976
   12        2.546028
 
  0.2500000E+00  0.1388889E+00  0.0000000E+00  0.4629630E-02
    1      -21.416444
    2      -18.524660
    3      -13.133638
    4      -10.269448
    5       -9.426789
    6       -8.274761
    7       -7.036384
    8       -6.171127
    9        0.711661
   10        1.490359
   11        2.298269
   12        2.703961
 
  0.2916667E+00  0.1388889E+00  0.0000000E+00  0.4629630E-02
    1      -21.283056
    2      -18.867473
    3      -12.638540
    4      -10.116577
    5       -9.270332
    6       -8.569746
    7       -7.300304
    8       -6.533098
    9        1.208674
   10        1.672688
   11        2.481668
   12        2.890610
 
  0.3333333E+00  0.1388889E+00  0.0000000E+00  0.4629630E-02
    1      -21.129426
    2      -19.193395
    3      -12.145692
    4       -9.937880
    5       -9.090579
    6       -8.879326
    7       -7.603767
    8       -6.886366
    9        1.712436
   10        1.882968
   11        2.693095
   12        3.105967
 
  0.3750000E+00  0.1388889E+00  0.0000000E+00  0.4629630E-02
    1      -20.955684
    2      -19.501662
    3      -11.660497
    4       -9.731882
    5       -9.204563
    6       -8.887912
    7       -7.933861
    8       -7.226901
    9        2.121133
   10        2.216966
   11        2.932451
   12        3.350025
 
  0.4166667E+00  0.1388889E+00  0.0000000E+00  0.4629630E-02
    1      -20.761982
    2      -19.791711
    3      -11.189125
    4       -9.548865
    5       -9.496849
    6       -8.662798
    7       -8.275774
    8       -7.551900
    9        2.387100
   10        2.717423
   11        3.199609
   12        3.622771
 
  0.4583333E+00  0.1388889E+00  0.0000000E+00  0.4629630E-02
    1      -20.548503
    2      -20.063095
    3      -10.738105
    4       -9.917015
    5       -9.231384
    6       -8.614233
    7       -8.415819
    8       -7.859335
    9        2.680773
   10        3.209681
   11        3.350723
   12        3.494398
 
  0.5000000E+00  0.1388889E+00  0.0000000E+00  0.2314815E-02
    1      -20.315458
    2      -20.315458
    3      -10.313094
    4      -10.313094
    5       -8.935819
    6       -8.935819
    7       -8.147696
    8       -8.147696
    9        3.002031
   10        3.002031
   11        3.689998
   12        3.690008
 
  0.0000000E+00  0.1666667E+00  0.0000000E+00  0.2314815E-02
    1      -21.643170
    2      -16.357952
    3      -15.528261
    4      -11.138931
    5       -9.693261
    6       -7.567711
    7       -6.800600
    8       -4.373392
    9       -1.414696
   10        1.181062
   11        1.987576
   12        2.387946
 
  0.4166667E-01  0.1666667E+00  0.0000000E+00  0.4629630E-02
    1      -21.632873
    2      -16.545440
    3      -15.328738
    4      -11.126642
    5       -9.681143
    6       -7.620005
    7       -6.791894
    8       -4.451142
    9       -1.327055
   10        1.195077
   11        2.001691
   12        2.402299
 
  0.8333333E-01  0.1666667E+00  0.0000000E+00  0.4629630E-02
    1      -21.601986
    2      -16.899745
    3      -14.938611
    4      -11.089663
    5       -9.644808
    6       -7.760371
    7       -6.782193
    8       -4.660597
    9       -1.088086
   10        1.237127
   11        2.044031
   12        2.445360
 
  0.1250000E+00  0.1666667E+00  0.0000000E+00  0.4629630E-02
    1      -21.550536
    2      -17.282103
    3      -14.497513
    4      -11.027633
    5       -9.584317
    6       -7.959676
    7       -6.800060
    8       -4.954609
    9       -0.745426
   10        1.307223
   11        2.114578
   12        2.517131
 
  0.1666667E+00  0.1666667E+00  0.0000000E+00  0.4629630E-02
    1      -21.478560
    2      -17.662830
    3      -14.036659
    4      -10.939895
    5       -9.499769
    6       -8.196343
    7       -6.865356
    8       -5.293824
    9       -0.339209
   10        1.405381
   11        2.213304
   12        2.617617
 
  0.2083333E+00  0.1666667E+00  0.0000000E+00  0.4629630E-02
    1      -21.386115
    2      -18.033373
    3      -13.566922
    4      -10.825390
    5       -9.391309
    6       -8.457008
    7       -6.987821
    8       -5.653275
    9        0.104566
   10        1.531604
   11        2.340164
   12        2.746824
 
  0.2500000E+00  0.1666667E+00  0.0000000E+00  0.4629630E-02
    1      -21.273277
    2      -18.390223
    3      -13.095091
    4      -10.682531
    5       -9.259129
    6       -8.733298
    7       -7.169830
    8       -6.018141
    9        0.569838
   10        1.685882
   11        2.495096
   12        2.904753
 
  0.2916667E+00  0.1666667E+00  0.0000000E+00  0.4629630E-02
    1      -21.140136
    2      -18.731538
    3      -12.627434
    4      -10.509069
    5       -9.103478
    6       -9.019933
    7       -7.408327
    8       -6.379459
    9        1.046267
   10        1.868180
   11        2.678011
   12        3.091403
 
  0.3333333E+00  0.1666667E+00  0.0000000E+00  0.4629630E-02
    1      -20.986805
    2      -19.056175
    3      -12.170729
    4      -10.302102
    5       -9.313909
    6       -8.924661
    7       -7.696201
    8       -6.731554
    9        1.526713
   10        2.078440
   11        2.888775
   12        3.306768
 
  0.3750000E+00  0.1666667E+00  0.0000000E+00  0.4629630E-02
    1      -20.813420
    2      -19.363344
    3      -11.732225
    4      -10.058553
    5       -9.614250
    6       -8.723061
    7       -8.023364
    8       -7.070644
    9        2.005886
   10        2.316587
   11        3.127155
   12        3.550839
 
  0.4166667E+00  0.1666667E+00  0.0000000E+00  0.4629630E-02
    1      -20.620143
    2      -19.652450
    3      -11.318494
    4       -9.922066
    5       -9.776581
    6       -8.499144
    7       -8.377540
    8       -7.394085
    9        2.479599
   10        2.582528
   11        3.392516
   12        3.823603
 
  0.4583333E+00  0.1666667E+00  0.0000000E+00  0.4629630E-02
    1      -20.407164
    2      -19.923032
    3      -10.933260
    4      -10.240715
    5       -9.457934
    6       -8.744751
    7       -8.253485
    8       -7.699951
    9        2.876154
   10        2.944241
   11        3.545928
   12        3.675795
 
  0.5000000E+00  0.1666667E+00  0.0000000E+00  0.2314815E-02
    1      -20.174707
    2      -20.174707
    3      -10.575643
    4      -10.575643
    5       -9.109871
    6       -9.109871
    7       -7.986791
    8       -7.986791
    9        3.197340
   10        3.197340
   11        3.395674
   12        3.395674
 