<?xml version="1.0" encoding="ISO-8859-1"?>
<modeling>
 <generator>
  <i name="program" type="string">vasp </i>
  <i name="version" type="string">5.3.5  </i>
  <i name="subversion" type="string">31Mar14 (build Mar 02 2015 18:14:16) complex                          parallel </i>
  <i name="platform" type="string">LinuxIFC </i>
  <i name="date" type="string">2018 08 10 </i>
  <i name="time" type="string">15:31:33 </i>
 </generator>
 <incar>
  <i type="string" name="SYSTEM">  gr</i>
  <i type="string" name="PREC">accurate : accuracy</i>
  <i type="string" name="ALGO"> FAST.</i>
  <i type="int" name="NELM">   100</i>
  <i type="int" name="NELMDL">    -3</i>
  <i type="int" name="NELMIN">     5</i>
  <i type="int" name="IBRION">     1</i>
  <i name="EDIFF">      0.00000000</i>
  <i name="EDIFFG">     -0.00000100</i>
  <i type="int" name="NSW">   400</i>
  <i type="int" name="ISIF">     2</i>
  <i name="ENCUT">   2000.00000000</i>
  <i type="int" name="ISMEAR">     0</i>
  <i name="SIGMA">      0.05000000</i>
  <i type="int" name="NWRITE">     2</i>
  <i type="logical" name="LWAVE"> F  </i>
  <i type="logical" name="LCHARG"> F  </i>
  <i type="int" name="NELM">   100</i>
 </incar>
 <kpoints>
  <generation param="Gamma">
   <v type="int" name="divisions">      24       36        1 </v>
   <v name="usershift">      0.00000000       0.00000000       0.00000000 </v>
   <v name="genvec1">      0.04166667       0.00000000       0.00000000 </v>
   <v name="genvec2">      0.00000000       0.02777778       0.00000000 </v>
   <v name="genvec3">      0.00000000       0.00000000       1.00000000 </v>
   <v name="shift">      0.00000000       0.00000000       0.00000000 </v>
  </generation>
  <varray name="kpointlist" >
   <v>       0.00000000       0.00000000       0.00000000 </v>
   <v>       0.04166667       0.00000000       0.00000000 </v>
   <v>       0.08333333       0.00000000       0.00000000 </v>
   <v>       0.12500000       0.00000000       0.00000000 </v>
   <v>       0.16666667       0.00000000       0.00000000 </v>
   <v>       0.20833333       0.00000000       0.00000000 </v>
   <v>       0.25000000       0.00000000       0.00000000 </v>
   <v>       0.29166667       0.00000000       0.00000000 </v>
   <v>       0.33333333       0.00000000       0.00000000 </v>
   <v>       0.37500000       0.00000000       0.00000000 </v>
   <v>       0.41666667       0.00000000       0.00000000 </v>
   <v>       0.45833333       0.00000000       0.00000000 </v>
   <v>       0.50000000       0.00000000       0.00000000 </v>
   <v>       0.00000000       0.02777778       0.00000000 </v>
   <v>       0.04166667       0.02777778       0.00000000 </v>
   <v>       0.08333333       0.02777778       0.00000000 </v>
   <v>       0.12500000       0.02777778       0.00000000 </v>
   <v>       0.16666667       0.02777778       0.00000000 </v>
   <v>       0.20833333       0.02777778       0.00000000 </v>
   <v>       0.25000000       0.02777778       0.00000000 </v>
   <v>       0.29166667       0.02777778       0.00000000 </v>
   <v>       0.33333333       0.02777778       0.00000000 </v>
   <v>       0.37500000       0.02777778       0.00000000 </v>
   <v>       0.41666667       0.02777778       0.00000000 </v>
   <v>       0.45833333       0.02777778       0.00000000 </v>
   <v>       0.50000000       0.02777778       0.00000000 </v>
   <v>       0.00000000       0.05555556       0.00000000 </v>
   <v>       0.04166667       0.05555556       0.00000000 </v>
   <v>       0.08333333       0.05555556       0.00000000 </v>
   <v>       0.12500000       0.05555556       0.00000000 </v>
   <v>       0.16666667       0.05555556       0.00000000 </v>
   <v>       0.20833333       0.05555556       0.00000000 </v>
   <v>       0.25000000       0.05555556       0.00000000 </v>
   <v>       0.29166667       0.05555556       0.00000000 </v>
   <v>       0.33333333       0.05555556       0.00000000 </v>
   <v>       0.37500000       0.05555556       0.00000000 </v>
   <v>       0.41666667       0.05555556       0.00000000 </v>
   <v>       0.45833333       0.05555556       0.00000000 </v>
   <v>       0.50000000       0.05555556       0.00000000 </v>
   <v>       0.00000000       0.08333333       0.00000000 </v>
   <v>       0.04166667       0.08333333       0.00000000 </v>
   <v>       0.08333333       0.08333333       0.00000000 </v>
   <v>       0.12500000       0.08333333       0.00000000 </v>
   <v>       0.16666667       0.08333333       0.00000000 </v>
   <v>       0.20833333       0.08333333       0.00000000 </v>
   <v>       0.25000000       0.08333333       0.00000000 </v>
   <v>       0.29166667       0.08333333       0.00000000 </v>
   <v>       0.33333333       0.08333333       0.00000000 </v>
   <v>       0.37500000       0.08333333       0.00000000 </v>
   <v>       0.41666667       0.08333333       0.00000000 </v>
   <v>       0.45833333       0.08333333       0.00000000 </v>
   <v>       0.50000000       0.08333333       0.00000000 </v>
   <v>       0.00000000       0.11111111       0.00000000 </v>
   <v>       0.04166667       0.11111111       0.00000000 </v>
   <v>       0.08333333       0.11111111       0.00000000 </v>
   <v>       0.12500000       0.11111111       0.00000000 </v>
   <v>       0.16666667       0.11111111       0.00000000 </v>
   <v>       0.20833333       0.11111111       0.00000000 </v>
   <v>       0.25000000       0.11111111       0.00000000 </v>
   <v>       0.29166667       0.11111111       0.00000000 </v>
   <v>       0.33333333       0.11111111       0.00000000 </v>
   <v>       0.37500000       0.11111111       0.00000000 </v>
   <v>       0.41666667       0.11111111       0.00000000 </v>
   <v>       0.45833333       0.11111111       0.00000000 </v>
   <v>       0.50000000       0.11111111       0.00000000 </v>
   <v>       0.00000000       0.13888889       0.00000000 </v>
   <v>       0.04166667       0.13888889       0.00000000 </v>
   <v>       0.08333333       0.13888889       0.00000000 </v>
   <v>       0.12500000       0.13888889       0.00000000 </v>
   <v>       0.16666667       0.13888889       0.00000000 </v>
   <v>       0.20833333       0.13888889       0.00000000 </v>
   <v>       0.25000000       0.13888889       0.00000000 </v>
   <v>       0.29166667       0.13888889       0.00000000 </v>
   <v>       0.33333333       0.13888889       0.00000000 </v>
   <v>       0.37500000       0.13888889       0.00000000 </v>
   <v>       0.41666667       0.13888889       0.00000000 </v>
   <v>       0.45833333       0.13888889       0.00000000 </v>
   <v>       0.50000000       0.13888889       0.00000000 </v>
   <v>       0.00000000       0.16666667       0.00000000 </v>
   <v>       0.04166667       0.16666667       0.00000000 </v>
   <v>       0.08333333       0.16666667       0.00000000 </v>
   <v>       0.12500000       0.16666667       0.00000000 </v>
   <v>       0.16666667       0.16666667       0.00000000 </v>
   <v>       0.20833333       0.16666667       0.00000000 </v>
   <v>       0.25000000       0.16666667       0.00000000 </v>
   <v>       0.29166667       0.16666667       0.00000000 </v>
   <v>       0.33333333       0.16666667       0.00000000 </v>
   <v>       0.37500000       0.16666667       0.00000000 </v>
   <v>       0.41666667       0.16666667       0.00000000 </v>
   <v>       0.45833333       0.16666667       0.00000000 </v>
   <v>       0.50000000       0.16666667       0.00000000 </v>
   <v>       0.00000000       0.19444444       0.00000000 </v>
   <v>       0.04166667       0.19444444       0.00000000 </v>
   <v>       0.08333333       0.19444444       0.00000000 </v>
   <v>       0.12500000       0.19444444       0.00000000 </v>
   <v>       0.16666667       0.19444444       0.00000000 </v>
   <v>       0.20833333       0.19444444       0.00000000 </v>
   <v>       0.25000000       0.19444444       0.00000000 </v>
   <v>       0.29166667       0.19444444       0.00000000 </v>
   <v>       0.33333333       0.19444444       0.00000000 </v>
   <v>       0.37500000       0.19444444       0.00000000 </v>
   <v>       0.41666667       0.19444444       0.00000000 </v>
   <v>       0.45833333       0.19444444       0.00000000 </v>
   <v>       0.50000000       0.19444444       0.00000000 </v>
   <v>       0.00000000       0.22222222       0.00000000 </v>
   <v>       0.04166667       0.22222222       0.00000000 </v>
   <v>       0.08333333       0.22222222       0.00000000 </v>
   <v>       0.12500000       0.22222222       0.00000000 </v>
   <v>       0.16666667       0.22222222       0.00000000 </v>
   <v>       0.20833333       0.22222222       0.00000000 </v>
   <v>       0.25000000       0.22222222       0.00000000 </v>
   <v>       0.29166667       0.22222222       0.00000000 </v>
   <v>       0.33333333       0.22222222       0.00000000 </v>
   <v>       0.37500000       0.22222222       0.00000000 </v>
   <v>       0.41666667       0.22222222       0.00000000 </v>
   <v>       0.45833333       0.22222222       0.00000000 </v>
   <v>       0.50000000       0.22222222       0.00000000 </v>
   <v>       0.00000000       0.25000000       0.00000000 </v>
   <v>       0.04166667       0.25000000       0.00000000 </v>
   <v>       0.08333333       0.25000000       0.00000000 </v>
   <v>       0.12500000       0.25000000       0.00000000 </v>
   <v>       0.16666667       0.25000000       0.00000000 </v>
   <v>       0.20833333       0.25000000       0.00000000 </v>
   <v>       0.25000000       0.25000000       0.00000000 </v>
   <v>       0.29166667       0.25000000       0.00000000 </v>
   <v>       0.33333333       0.25000000       0.00000000 </v>
   <v>       0.37500000       0.25000000       0.00000000 </v>
   <v>       0.41666667       0.25000000       0.00000000 </v>
   <v>       0.45833333       0.25000000       0.00000000 </v>
   <v>       0.50000000       0.25000000       0.00000000 </v>
   <v>       0.00000000       0.27777778       0.00000000 </v>
   <v>       0.04166667       0.27777778       0.00000000 </v>
   <v>       0.08333333       0.27777778       0.00000000 </v>
   <v>       0.12500000       0.27777778       0.00000000 </v>
   <v>       0.16666667       0.27777778       0.00000000 </v>
   <v>       0.20833333       0.27777778       0.00000000 </v>
   <v>       0.25000000       0.27777778       0.00000000 </v>
   <v>       0.29166667       0.27777778       0.00000000 </v>
   <v>       0.33333333       0.27777778       0.00000000 </v>
   <v>       0.37500000       0.27777778       0.00000000 </v>
   <v>       0.41666667       0.27777778       0.00000000 </v>
   <v>       0.45833333       0.27777778       0.00000000 </v>
   <v>       0.50000000       0.27777778       0.00000000 </v>
   <v>       0.00000000       0.30555556       0.00000000 </v>
   <v>       0.04166667       0.30555556       0.00000000 </v>
   <v>       0.08333333       0.30555556       0.00000000 </v>
   <v>       0.12500000       0.30555556       0.00000000 </v>
   <v>       0.16666667       0.30555556       0.00000000 </v>
   <v>       0.20833333       0.30555556       0.00000000 </v>
   <v>       0.25000000       0.30555556       0.00000000 </v>
   <v>       0.29166667       0.30555556       0.00000000 </v>
   <v>       0.33333333       0.30555556       0.00000000 </v>
   <v>       0.37500000       0.30555556       0.00000000 </v>
   <v>       0.41666667       0.30555556       0.00000000 </v>
   <v>       0.45833333       0.30555556       0.00000000 </v>
   <v>       0.50000000       0.30555556       0.00000000 </v>
   <v>       0.00000000       0.33333333       0.00000000 </v>
   <v>       0.04166667       0.33333333       0.00000000 </v>
   <v>       0.08333333       0.33333333       0.00000000 </v>
   <v>       0.12500000       0.33333333       0.00000000 </v>
   <v>       0.16666667       0.33333333       0.00000000 </v>
   <v>       0.20833333       0.33333333       0.00000000 </v>
   <v>       0.25000000       0.33333333       0.00000000 </v>
   <v>       0.29166667       0.33333333       0.00000000 </v>
   <v>       0.33333333       0.33333333       0.00000000 </v>
   <v>       0.37500000       0.33333333       0.00000000 </v>
   <v>       0.41666667       0.33333333       0.00000000 </v>
   <v>       0.45833333       0.33333333       0.00000000 </v>
   <v>       0.50000000       0.33333333       0.00000000 </v>
   <v>       0.00000000       0.36111111       0.00000000 </v>
   <v>       0.04166667       0.36111111       0.00000000 </v>
   <v>       0.08333333       0.36111111       0.00000000 </v>
   <v>       0.12500000       0.36111111       0.00000000 </v>
   <v>       0.16666667       0.36111111       0.00000000 </v>
   <v>       0.20833333       0.36111111       0.00000000 </v>
   <v>       0.25000000       0.36111111       0.00000000 </v>
   <v>       0.29166667       0.36111111       0.00000000 </v>
   <v>       0.33333333       0.36111111       0.00000000 </v>
   <v>       0.37500000       0.36111111       0.00000000 </v>
   <v>       0.41666667       0.36111111       0.00000000 </v>
   <v>       0.45833333       0.36111111       0.00000000 </v>
   <v>       0.50000000       0.36111111       0.00000000 </v>
   <v>       0.00000000       0.38888889       0.00000000 </v>
   <v>       0.04166667       0.38888889       0.00000000 </v>
   <v>       0.08333333       0.38888889       0.00000000 </v>
   <v>       0.12500000       0.38888889       0.00000000 </v>
   <v>       0.16666667       0.38888889       0.00000000 </v>
   <v>       0.20833333       0.38888889       0.00000000 </v>
   <v>       0.25000000       0.38888889       0.00000000 </v>
   <v>       0.29166667       0.38888889       0.00000000 </v>
   <v>       0.33333333       0.38888889       0.00000000 </v>
   <v>       0.37500000       0.38888889       0.00000000 </v>
   <v>       0.41666667       0.38888889       0.00000000 </v>
   <v>       0.45833333       0.38888889       0.00000000 </v>
   <v>       0.50000000       0.38888889       0.00000000 </v>
   <v>       0.00000000       0.41666667       0.00000000 </v>
   <v>       0.04166667       0.41666667       0.00000000 </v>
   <v>       0.08333333       0.41666667       0.00000000 </v>
   <v>       0.12500000       0.41666667       0.00000000 </v>
   <v>       0.16666667       0.41666667       0.00000000 </v>
   <v>       0.20833333       0.41666667       0.00000000 </v>
   <v>       0.25000000       0.41666667       0.00000000 </v>
   <v>       0.29166667       0.41666667       0.00000000 </v>
   <v>       0.33333333       0.41666667       0.00000000 </v>
   <v>       0.37500000       0.41666667       0.00000000 </v>
   <v>       0.41666667       0.41666667       0.00000000 </v>
   <v>       0.45833333       0.41666667       0.00000000 </v>
   <v>       0.50000000       0.41666667       0.00000000 </v>
   <v>       0.00000000       0.44444444       0.00000000 </v>
   <v>       0.04166667       0.44444444       0.00000000 </v>
   <v>       0.08333333       0.44444444       0.00000000 </v>
   <v>       0.12500000       0.44444444       0.00000000 </v>
   <v>       0.16666667       0.44444444       0.00000000 </v>
   <v>       0.20833333       0.44444444       0.00000000 </v>
   <v>       0.25000000       0.44444444       0.00000000 </v>
   <v>       0.29166667       0.44444444       0.00000000 </v>
   <v>       0.33333333       0.44444444       0.00000000 </v>
   <v>       0.37500000       0.44444444       0.00000000 </v>
   <v>       0.41666667       0.44444444       0.00000000 </v>
   <v>       0.45833333       0.44444444       0.00000000 </v>
   <v>       0.50000000       0.44444444       0.00000000 </v>
   <v>       0.00000000       0.47222222       0.00000000 </v>
   <v>       0.04166667       0.47222222       0.00000000 </v>
   <v>       0.08333333       0.47222222       0.00000000 </v>
   <v>       0.12500000       0.47222222       0.00000000 </v>
   <v>       0.16666667       0.47222222       0.00000000 </v>
   <v>       0.20833333       0.47222222       0.00000000 </v>
   <v>       0.25000000       0.47222222       0.00000000 </v>
   <v>       0.29166667       0.47222222       0.00000000 </v>
   <v>       0.33333333       0.47222222       0.00000000 </v>
   <v>       0.37500000       0.47222222       0.00000000 </v>
   <v>       0.41666667       0.47222222       0.00000000 </v>
   <v>       0.45833333       0.47222222       0.00000000 </v>
   <v>       0.50000000       0.47222222       0.00000000 </v>
   <v>       0.00000000       0.50000000       0.00000000 </v>
   <v>       0.04166667       0.50000000       0.00000000 </v>
   <v>       0.08333333       0.50000000       0.00000000 </v>
   <v>       0.12500000       0.50000000       0.00000000 </v>
   <v>       0.16666667       0.50000000       0.00000000 </v>
   <v>       0.20833333       0.50000000       0.00000000 </v>
   <v>       0.25000000       0.50000000       0.00000000 </v>
   <v>       0.29166667       0.50000000       0.00000000 </v>
   <v>       0.33333333       0.50000000       0.00000000 </v>
   <v>       0.37500000       0.50000000       0.00000000 </v>
   <v>       0.41666667       0.50000000       0.00000000 </v>
   <v>       0.45833333       0.50000000       0.00000000 </v>
   <v>       0.50000000       0.50000000       0.00000000 </v>
  </varray>
  <varray name="weights" >
   <v>       0.00115741 </v>
   <v>       0.00231481 </v>
   <v>       0.00231481 </v>
   <v>       0.00231481 </v>
   <v>       0.00231481 </v>
   <v>       0.00231481 </v>
   <v>       0.00231481 </v>
   <v>       0.00231481 </v>
   <v>       0.00231481 </v>
   <v>       0.00231481 </v>
   <v>       0.00231481 </v>
   <v>       0.00231481 </v>
   <v>       0.00115741 </v>
   <v>       0.00231481 </v>
   <v>       0.00462963 </v>
   <v>       0.00462963 </v>
   <v>       0.00462963 </v>
   <v>       0.00462963 </v>
   <v>       0.00462963 </v>
   <v>       0.00462963 </v>
   <v>       0.00462963 </v>
   <v>       0.00462963 </v>
   <v>       0.00462963 </v>
   <v>       0.00462963 </v>
   <v>       0.00462963 </v>
   <v>       0.00231481 </v>
   <v>       0.00231481 </v>
   <v>       0.00462963 </v>
   <v>       0.00462963 </v>
   <v>       0.00462963 </v>
   <v>       0.00462963 </v>
   <v>       0.00462963 </v>
   <v>       0.00462963 </v>
   <v>       0.00462963 </v>
   <v>       0.00462963 </v>
   <v>       0.00462963 </v>
   <v>       0.00462963 </v>
   <v>       0.00462963 </v>
   <v>       0.00231481 </v>
   <v>       0.00231481 </v>
   <v>       0.00462963 </v>
   <v>       0.00462963 </v>
   <v>       0.00462963 </v>
   <v>       0.00462963 </v>
   <v>       0.00462963 </v>
   <v>       0.00462963 </v>
   <v>       0.00462963 </v>
   <v>       0.00462963 </v>
   <v>       0.00462963 </v>
   <v>       0.00462963 </v>
   <v>       0.00462963 </v>
   <v>       0.00231481 </v>
   <v>       0.00231481 </v>
   <v>       0.00462963 </v>
   <v>       0.00462963 </v>
   <v>       0.00462963 </v>
   <v>       0.00462963 </v>
   <v>       0.00462963 </v>
   <v>       0.00462963 </v>
   <v>       0.00462963 </v>
   <v>       0.00462963 </v>
   <v>       0.00462963 </v>
   <v>       0.00462963 </v>
   <v>       0.00462963 </v>
   <v>       0.00231481 </v>
   <v>       0.00231481 </v>
   <v>       0.00462963 </v>
   <v>       0.00462963 </v>
   <v>       0.00462963 </v>
   <v>       0.00462963 </v>
   <v>       0.00462963 </v>
   <v>       0.00462963 </v>
   <v>       0.00462963 </v>
   <v>       0.00462963 </v>
   <v>       0.00462963 </v>
   <v>       0.00462963 </v>
   <v>       0.00462963 </v>
   <v>       0.00231481 </v>
   <v>       0.00231481 </v>
   <v>       0.00462963 </v>
   <v>       0.00462963 </v>
   <v>       0.00462963 </v>
   <v>       0.00462963 </v>
   <v>       0.00462963 </v>
   <v>       0.00462963 </v>
   <v>       0.00462963 </v>
   <v>       0.00462963 </v>
   <v>       0.00462963 </v>
   <v>       0.00462963 </v>
   <v>       0.00462963 </v>
   <v>       0.00231481 </v>
   <v>       0.00231481 </v>
   <v>       0.00462963 </v>
   <v>       0.00462963 </v>
   <v>       0.00462963 </v>
   <v>       0.00462963 </v>
   <v>       0.00462963 </v>
   <v>       0.00462963 </v>
   <v>       0.00462963 </v>
   <v>       0.00462963 </v>
   <v>       0.00462963 </v>
   <v>       0.00462963 </v>
   <v>       0.00462963 </v>
   <v>       0.00231481 </v>
   <v>       0.00231481 </v>
   <v>       0.00462963 </v>
   <v>       0.00462963 </v>
   <v>       0.00462963 </v>
   <v>       0.00462963 </v>
   <v>       0.00462963 </v>
   <v>       0.00462963 </v>
   <v>       0.00462963 </v>
   <v>       0.00462963 </v>
   <v>       0.00462963 </v>
   <v>       0.00462963 </v>
   <v>       0.00462963 </v>
   <v>       0.00231481 </v>
   <v>       0.00231481 </v>
   <v>       0.00462963 </v>
   <v>       0.00462963 </v>
   <v>       0.00462963 </v>
   <v>       0.00462963 </v>
   <v>       0.00462963 </v>
   <v>       0.00462963 </v>
   <v>       0.00462963 </v>
   <v>       0.00462963 </v>
   <v>       0.00462963 </v>
   <v>       0.00462963 </v>
   <v>       0.00462963 </v>
   <v>       0.00231481 </v>
   <v>       0.00231481 </v>
   <v>       0.00462963 </v>
   <v>       0.00462963 </v>
   <v>       0.00462963 </v>
   <v>       0.00462963 </v>
   <v>       0.00462963 </v>
   <v>       0.00462963 </v>
   <v>       0.00462963 </v>
   <v>       0.00462963 </v>
   <v>       0.00462963 </v>
   <v>       0.00462963 </v>
   <v>       0.00462963 </v>
   <v>       0.00231481 </v>
   <v>       0.00231481 </v>
   <v>       0.00462963 </v>
   <v>       0.00462963 </v>
   <v>       0.00462963 </v>
   <v>       0.00462963 </v>
   <v>       0.00462963 </v>
   <v>       0.00462963 </v>
   <v>       0.00462963 </v>
   <v>       0.00462963 </v>
   <v>       0.00462963 </v>
   <v>       0.00462963 </v>
   <v>       0.00462963 </v>
   <v>       0.00231481 </v>
   <v>       0.00231481 </v>
   <v>       0.00462963 </v>
   <v>       0.00462963 </v>
   <v>       0.00462963 </v>
   <v>       0.00462963 </v>
   <v>       0.00462963 </v>
   <v>       0.00462963 </v>
   <v>       0.00462963 </v>
   <v>       0.00462963 </v>
   <v>       0.00462963 </v>
   <v>       0.00462963 </v>
   <v>       0.00462963 </v>
   <v>       0.00231481 </v>
   <v>       0.00231481 </v>
   <v>       0.00462963 </v>
   <v>       0.00462963 </v>
   <v>       0.00462963 </v>
   <v>       0.00462963 </v>
   <v>       0.00462963 </v>
   <v>       0.00462963 </v>
   <v>       0.00462963 </v>
   <v>       0.00462963 </v>
   <v>       0.00462963 </v>
   <v>       0.00462963 </v>
   <v>       0.00462963 </v>
   <v>       0.00231481 </v>
   <v>       0.00231481 </v>
   <v>       0.00462963 </v>
   <v>       0.00462963 </v>
   <v>       0.00462963 </v>
   <v>       0.00462963 </v>
   <v>       0.00462963 </v>
   <v>       0.00462963 </v>
   <v>       0.00462963 </v>
   <v>       0.00462963 </v>
   <v>       0.00462963 </v>
   <v>       0.00462963 </v>
   <v>       0.00462963 </v>
   <v>       0.00231481 </v>
   <v>       0.00231481 </v>
   <v>       0.00462963 </v>
   <v>       0.00462963 </v>
   <v>       0.00462963 </v>
   <v>       0.00462963 </v>
   <v>       0.00462963 </v>
   <v>       0.00462963 </v>
   <v>       0.00462963 </v>
   <v>       0.00462963 </v>
   <v>       0.00462963 </v>
   <v>       0.00462963 </v>
   <v>       0.00462963 </v>
   <v>       0.00231481 </v>
   <v>       0.00231481 </v>
   <v>       0.00462963 </v>
   <v>       0.00462963 </v>
   <v>       0.00462963 </v>
   <v>       0.00462963 </v>
   <v>       0.00462963 </v>
   <v>       0.00462963 </v>
   <v>       0.00462963 </v>
   <v>       0.00462963 </v>
   <v>       0.00462963 </v>
   <v>       0.00462963 </v>
   <v>       0.00462963 </v>
   <v>       0.00231481 </v>
   <v>       0.00231481 </v>
   <v>       0.00462963 </v>
   <v>       0.00462963 </v>
   <v>       0.00462963 </v>
   <v>       0.00462963 </v>
   <v>       0.00462963 </v>
   <v>       0.00462963 </v>
   <v>       0.00462963 </v>
   <v>       0.00462963 </v>
   <v>       0.00462963 </v>
   <v>       0.00462963 </v>
   <v>       0.00462963 </v>
   <v>       0.00231481 </v>
   <v>       0.00115741 </v>
   <v>       0.00231481 </v>
   <v>       0.00231481 </v>
   <v>       0.00231481 </v>
   <v>       0.00231481 </v>
   <v>       0.00231481 </v>
   <v>       0.00231481 </v>
   <v>       0.00231481 </v>
   <v>       0.00231481 </v>
   <v>       0.00231481 </v>
   <v>       0.00231481 </v>
   <v>       0.00231481 </v>
   <v>       0.00115741 </v>
  </varray>
 </kpoints>
 <parameters>
  <separator name="general" >
   <i type="string" name="SYSTEM">gr</i>
   <i type="logical" name="LCOMPAT"> F  </i>
  </separator>
  <separator name="electronic" >
   <i type="string" name="PREC">accura</i>
   <i name="ENMAX">   2000.00000000</i>
   <i name="ENAUG">    644.87300000</i>
   <i name="EDIFF">      0.00000000</i>
   <i type="int" name="IALGO">    68</i>
   <i type="int" name="IWAVPR">    11</i>
   <i type="int" name="NBANDS">    12</i>
   <i name="NELECT">     16.00000000</i>
   <i type="int" name="TURBO">     0</i>
   <i type="int" name="IRESTART">     0</i>
   <i type="int" name="NREBOOT">     0</i>
   <i type="int" name="NMIN">     0</i>
   <i name="EREF">      0.00000000</i>
   <separator name="electronic smearing" >
    <i type="int" name="ISMEAR">     0</i>
    <i name="SIGMA">      0.05000000</i>
    <i name="KSPACING">      0.50000000</i>
    <i type="logical" name="KGAMMA"> T  </i>
   </separator>
   <separator name="electronic projectors" >
    <i type="logical" name="LREAL"> F  </i>
    <v name="ROPT">      0.00000000</v>
    <i type="int" name="LMAXPAW">  -100</i>
    <i type="int" name="LMAXMIX">     2</i>
    <i type="logical" name="NLSPLINE"> F  </i>
   </separator>
   <separator name="electronic startup" >
    <i type="int" name="ISTART">     0</i>
    <i type="int" name="ICHARG">     2</i>
    <i type="int" name="INIWAV">     1</i>
   </separator>
   <separator name="electronic spin" >
    <i type="int" name="ISPIN">     1</i>
    <i type="logical" name="LNONCOLLINEAR"> F  </i>
    <v name="MAGMOM">      1.00000000      1.00000000      1.00000000      1.00000000</v>
    <i name="NUPDOWN">     -1.00000000</i>
    <i type="logical" name="LSORBIT"> F  </i>
    <v name="SAXIS">      0.00000000      0.00000000      1.00000000</v>
    <i type="logical" name="LSPIRAL"> F  </i>
    <v name="QSPIRAL">      0.00000000      0.00000000      0.00000000</v>
    <i type="logical" name="LZEROZ"> F  </i>
   </separator>
   <separator name="electronic exchange-correlation" >
    <i type="logical" name="LASPH"> F  </i>
    <i type="logical" name="LMETAGGA"> F  </i>
   </separator>
   <separator name="electronic convergence" >
    <i type="int" name="NELM">   100</i>
    <i type="int" name="NELMDL">    -3</i>
    <i type="int" name="NELMIN">     5</i>
    <i name="ENINI">   2000.00000000</i>
    <separator name="electronic convergence detail" >
     <i type="logical" name="LDIAG"> T  </i>
     <i type="logical" name="LSUBROT"> F  </i>
     <i name="WEIMIN">      0.00100000</i>
     <i name="EBREAK">      0.00000000</i>
     <i name="DEPER">      0.30000000</i>
     <i type="int" name="NRMM">     4</i>
     <i name="TIME">      0.40000000</i>
    </separator>
   </separator>
   <separator name="electronic mixer" >
    <i name="AMIX">      0.40000000</i>
    <i name="BMIX">      1.00000000</i>
    <i name="AMIN">      0.10000000</i>
    <i name="AMIX_MAG">      1.60000000</i>
    <i name="BMIX_MAG">      1.00000000</i>
    <separator name="electronic mixer details" >
     <i type="int" name="IMIX">     4</i>
     <i type="int" name="MAXMIX">   -45</i>
     <i name="WC">    100.00000000</i>
     <i type="int" name="INIMIX">     1</i>
     <i type="int" name="MIXPRE">     1</i>
     <i type="int" name="MREMOVE">     5</i>
    </separator>
   </separator>
   <separator name="electronic dipolcorrection" >
    <i type="logical" name="LDIPOL"> F  </i>
    <i type="logical" name="LMONO"> F  </i>
    <i type="int" name="IDIPOL">     0</i>
    <i name="EPSILON">      1.00000000</i>
    <v name="DIPOL">   -100.00000000   -100.00000000   -100.00000000</v>
    <i name="EFIELD">      0.00000000</i>
   </separator>
  </separator>
  <separator name="grids" >
   <i type="int" name="NGX">    64</i>
   <i type="int" name="NGY">    40</i>
   <i type="int" name="NGZ">   288</i>
   <i type="int" name="NGXF">   128</i>
   <i type="int" name="NGYF">    80</i>
   <i type="int" name="NGZF">   576</i>
   <i type="logical" name="ADDGRID"> F  </i>
  </separator>
  <separator name="ionic" >
   <i type="int" name="NSW">   400</i>
   <i type="int" name="IBRION">     1</i>
   <i type="int" name="ISIF">     2</i>
   <i name="PSTRESS">      0.00000000</i>
   <i name="EDIFFG">     -0.00000100</i>
   <i type="int" name="NFREE">     0</i>
   <i name="POTIM">      0.50000000</i>
   <i name="SMASS">     -3.00000000</i>
   <i name="SCALEE">      1.00000000</i>
  </separator>
  <separator name="ionic md" >
   <i name="TEBEG">      0.00010000</i>
   <i name="TEEND">      0.00010000</i>
   <i type="int" name="NBLOCK">     1</i>
   <i type="int" name="KBLOCK">   400</i>
   <i type="int" name="NPACO">   256</i>
   <i name="APACO">     16.00000000</i>
  </separator>
  <separator name="symmetry" >
   <i type="int" name="ISYM">     2</i>
   <i name="SYMPREC">      0.00001000</i>
  </separator>
  <separator name="dos" >
   <i type="logical" name="LORBIT"> F  </i>
   <v name="RWIGS">     -1.00000000</v>
   <i type="int" name="NEDOS">   301</i>
   <i name="EMIN">     10.00000000</i>
   <i name="EMAX">    -10.00000000</i>
   <i name="EFERMI">      0.00000000</i>
  </separator>
  <separator name="writing" >
   <i type="int" name="NWRITE">     2</i>
   <i type="logical" name="LWAVE"> F  </i>
   <i type="logical" name="LCHARG"> F  </i>
   <i type="logical" name="LPARD"> F  </i>
   <i type="logical" name="LVTOT"> F  </i>
   <i type="logical" name="LVHAR"> F  </i>
   <i type="logical" name="LELF"> F  </i>
   <i type="logical" name="LOPTICS"> F  </i>
   <v name="STM">      0.00000000      0.00000000      0.00000000      0.00000000      0.00000000      0.00000000      0.00000000</v>
  </separator>
  <separator name="performance" >
   <i type="int" name="NPAR">     4</i>
   <i type="int" name="NSIM">     4</i>
   <i type="int" name="NBLK">    -1</i>
   <i type="logical" name="LPLANE"> T  </i>
   <i type="logical" name="LSCALAPACK"> F  </i>
   <i type="logical" name="LSCAAWARE"> F  </i>
   <i type="logical" name="LSCALU"> F  </i>
   <i type="logical" name="LASYNC"> F  </i>
   <i type="logical" name="LORBITALREAL"> F  </i>
  </separator>
  <separator name="miscellaneous" >
   <i type="int" name="IDIOT">     3</i>
   <i type="logical" name="LMUSIC"> F  </i>
   <v name="POMASS">     12.01100000</v>
   <v name="DARWINR">      0.00000000</v>
   <v name="DARWINV">      1.00000000</v>
   <i type="logical" name="LCORR"> T  </i>
  </separator>
  <i type="logical" name="GGA_COMPAT"> T  </i>
  <i type="logical" name="LBERRY"> F  </i>
  <i type="int" name="ICORELEVEL">     0</i>
  <i type="logical" name="LDAU"> F  </i>
  <i type="int" name="I_CONSTRAINED_M">     0</i>
  <separator name="electronic exchange-correlation" >
   <i type="string" name="GGA">--</i>
   <i type="int" name="VOSKOWN">     0</i>
   <i type="logical" name="LHFCALC"> F  </i>
   <i type="string" name="PRECFOCK"></i>
   <i type="logical" name="LSYMGRAD"> F  </i>
   <i type="logical" name="LHFONE"> F  </i>
   <i type="logical" name="LRHFCALC"> F  </i>
   <i type="logical" name="LTHOMAS"> F  </i>
   <i type="logical" name="LMODELHF"> F  </i>
   <i name="ENCUT4O">     -1.00000000</i>
   <i type="int" name="EXXOEP">     0</i>
   <i type="int" name="FOURORBIT">     0</i>
   <i name="AEXX">      0.00000000</i>
   <i name="HFALPHA">      0.00000000</i>
   <i name="MCALPHA">      0.00000000</i>
   <i name="ALDAX">      1.00000000</i>
   <i name="AGGAX">      1.00000000</i>
   <i name="ALDAC">      1.00000000</i>
   <i name="AGGAC">      1.00000000</i>
   <i type="int" name="NKREDX">     1</i>
   <i type="int" name="NKREDY">     1</i>
   <i type="int" name="NKREDZ">     1</i>
   <i type="logical" name="SHIFTRED"> F  </i>
   <i type="logical" name="ODDONLY"> F  </i>
   <i type="logical" name="EVENONLY"> F  </i>
   <i type="int" name="LMAXFOCK">     0</i>
   <i type="int" name="NMAXFOCKAE">     0</i>
   <i type="logical" name="LFOCKAEDFT"> F  </i>
   <i name="HFSCREEN">      0.00000000</i>
   <i name="HFSCREENC">      0.00000000</i>
   <i type="int" name="NBANDSGWLOW">     0</i>
  </separator>
  <separator name="vdW DFT" >
   <i type="logical" name="LUSE_VDW"> F  </i>
   <i name="Zab_VDW">     -0.84910000</i>
   <i name="PARAM1">      0.12340000</i>
   <i name="PARAM2">      1.00000000</i>
   <i name="PARAM3">      0.00000000</i>
  </separator>
  <separator name="model GW" >
   <i type="int" name="MODEL_GW">     0</i>
   <i name="MODEL_EPS0">     31.62568521</i>
   <i name="MODEL_ALPHA">      1.00000000</i>
  </separator>
  <separator name="linear response parameters" >
   <i type="logical" name="LEPSILON"> F  </i>
   <i type="logical" name="LRPA"> F  </i>
   <i type="logical" name="LNABLA"> F  </i>
   <i type="logical" name="LVEL"> F  </i>
   <i type="int" name="KINTER">     0</i>
   <i name="CSHIFT">      0.10000000</i>
   <i name="OMEGAMAX">     -1.00000000</i>
   <i name="DEG_THRESHOLD">      0.00200000</i>
  </separator>
  <separator name="orbital magnetization" >
   <i type="logical" name="NUCIND"> F  </i>
   <v name="MAGPOS">      0.00000000      0.00000000      0.00000000</v>
   <i type="logical" name="LNICSALL"> T  </i>
   <i type="logical" name="ORBITALMAG"> F  </i>
   <i type="logical" name="LMAGBLOCH"> F  </i>
   <i type="logical" name="LCHIMAG"> F  </i>
   <i type="logical" name="LGAUGE"> T  </i>
   <i type="int" name="MAGATOM">     0</i>
   <v name="MAGDIPOL">      0.00000000      0.00000000      0.00000000</v>
   <v name="AVECCONST">      0.00000000      0.00000000      0.00000000</v>
  </separator>
  <separator name="response functions" >
   <i type="logical" name="LADDER"> F  </i>
   <i type="logical" name="LFXC"> F  </i>
   <i type="logical" name="LHARTREE"> T  </i>
   <i type="int" name="IBSE">     0</i>
   <i type="logical" name="LTCTE"> F  </i>
   <i type="logical" name="LTETE"> F  </i>
   <i type="logical" name="LTRIPLET"> F  </i>
   <i type="logical" name="LFXCEPS"> F  </i>
   <i type="logical" name="LFXHEG"> F  </i>
   <i type="logical" name="L2ORDER"> F  </i>
   <i type="logical" name="LUSEW"> F  </i>
   <i name="ENCUTGW">     -2.00000000</i>
   <i name="ENCUTGWSOFT">     -2.00000000</i>
   <i name="ENCUTLF">     -1.00000000</i>
   <i type="int" name="LMAXMP2">    -1</i>
   <i name="SCISSOR">      0.00000000</i>
   <i type="int" name="NOMEGA">     0</i>
   <i type="int" name="NOMEGAR">     0</i>
   <i type="int" name="NBANDSGW">    -1</i>
   <i type="int" name="NBANDSO">    -1</i>
   <i type="int" name="NBANDSV">    -1</i>
   <i type="int" name="NELM">   100</i>
   <i type="int" name="DIM">     3</i>
   <i type="int" name="ANTIRES">     0</i>
   <i name="OMEGAMAX">    -30.00000000</i>
   <i name="OMEGAMIN">    -30.00000000</i>
   <i name="OMEGATL">   -200.00000000</i>
   <i type="int" name="OMEGAGRID">     0</i>
   <i name="CSHIFT">     -0.10000000</i>
   <i type="logical" name="SELFENERGY"> F  </i>
   <i type="logical" name="LSPECTRAL"> F  </i>
   <i type="logical" name="ODDONLYGW"> F  </i>
   <i type="logical" name="EVENONLYGW"> F  </i>
   <i type="int" name="NKREDLFX">     1</i>
   <i type="int" name="NKREDLFY">     1</i>
   <i type="int" name="NKREDLFZ">     1</i>
   <i type="int" name="MAXMEM">  1800</i>
   <i type="int" name="TELESCOPE">     0</i>
   <i type="int" name="TAUPAR">     1</i>
  </separator>
  <separator name="External order field" >
   <i name="OFIELD_KAPPA">      0.00000000</i>
   <v name="OFIELD_K">      0.00000000      0.00000000      0.00000000</v>
   <i name="OFIELD_Q6_NEAR">      0.00000000</i>
   <i name="OFIELD_Q6_FAR">      0.00000000</i>
   <i name="OFIELD_A">      0.00000000</i>
  </separator>
 </parameters>
 <atominfo>
  <atoms>       4 </atoms>
  <types>       1 </types>
  <array name="atoms" >
   <dimension dim="1">ion</dimension>
   <field type="string">element</field>
   <field type="int">atomtype</field>
   <set>
    <rc><c>C </c><c>   1</c></rc>
    <rc><c>C </c><c>   1</c></rc>
    <rc><c>C </c><c>   1</c></rc>
    <rc><c>C </c><c>   1</c></rc>
   </set>
  </array>
  <array name="atomtypes" >
   <dimension dim="1">type</dimension>
   <field type="int">atomspertype</field>
   <field type="string">element</field>
   <field>mass</field>
   <field>valence</field>
   <field type="string">pseudopotential</field>
   <set>
    <rc><c>   4</c><c>C </c><c>     12.01100000</c><c>      4.00000000</c><c> PAW_PBE C 08Apr2002                    </c></rc>
   </set>
  </array>
 </atominfo>
 <structure name="initialpos" >
  <crystal>
   <varray name="basis" >
    <v>       4.25846655       0.00000000       0.00000000 </v>
    <v>       0.00000000       2.51701783       0.00000000 </v>
    <v>       0.00000000       0.00000000      19.67021705 </v>
   </varray>
   <i name="volume">    210.83790140 </i>
   <varray name="rec_basis" >
    <v>       0.23482631       0.00000000       0.00000000 </v>
    <v>       0.00000000       0.39729556       0.00000000 </v>
    <v>       0.00000000       0.00000000       0.05083828 </v>
   </varray>
  </crystal>
  <varray name="positions" >
   <v>       0.00053179       0.00000000       0.00000000 </v>
   <v>       0.16613488       0.50000000       0.00000000 </v>
   <v>       0.50053179       0.50000000       0.00000000 </v>
   <v>       0.66613488       0.00000000       0.00000000 </v>
  </varray>
 </structure>
 <calculation>
  <scstep>
   <time name="dav">  318.48  320.00</time>
   <time name="total">  321.26  322.90</time>
   <energy>
    <i name="alphaZ">      6.18334092 </i>
    <i name="ewald">   2475.99232927 </i>
    <i name="hartreedc">  -2904.69335429 </i>
    <i name="XCdc">     54.87187515 </i>
    <i name="pawpsdc">    151.32577238 </i>
    <i name="pawaedc">   -155.92769107 </i>
    <i name="eentropy">     -0.00129824 </i>
    <i name="bandstr">    -28.59401971 </i>
    <i name="atom">    588.62352690 </i>
    <i name="e_fr_energy">    187.78048132 </i>
    <i name="e_wo_entrp">    187.78177956 </i>
    <i name="e_0_energy">    187.78113044 </i>
   </energy>
  </scstep>
  <scstep>
   <time name="dav">  478.46  481.13</time>
   <time name="total">  478.47  481.15</time>
   <energy>
    <i name="e_fr_energy">     -8.77108865 </i>
    <i name="e_wo_entrp">     -8.77078141 </i>
    <i name="e_0_energy">     -8.77093503 </i>
   </energy>
  </scstep>
  <scstep>
   <time name="dav">  367.58  369.79</time>
   <time name="total">  400.22  402.65</time>
   <energy>
    <i name="e_fr_energy">    -38.12035405 </i>
    <i name="e_wo_entrp">    -38.12035400 </i>
    <i name="e_0_energy">    -38.12035402 </i>
   </energy>
  </scstep>
  <scstep>
   <time name="diag">   86.83   87.32</time>
   <time name="diis">  360.36  361.56</time>
   <time name="orth">    3.06    3.06</time>
   <time name="total">  485.05  487.09</time>
   <energy>
    <i name="e_fr_energy">    -37.61297577 </i>
    <i name="e_wo_entrp">    -37.61297552 </i>
    <i name="e_0_energy">    -37.61297565 </i>
   </energy>
  </scstep>
  <scstep>
   <time name="diag">   86.81   87.33</time>
   <time name="diis">  349.71  351.61</time>
   <time name="orth">    3.08    3.08</time>
   <time name="total">  474.76  477.47</time>
   <energy>
    <i name="e_fr_energy">    -36.89098085 </i>
    <i name="e_wo_entrp">    -36.89098040 </i>
    <i name="e_0_energy">    -36.89098062 </i>
   </energy>
  </scstep>
  <scstep>
   <time name="diag">   87.09   87.27</time>
   <time name="diis">  388.97  390.16</time>
   <time name="orth">    3.08    3.08</time>
   <time name="total">  514.84  516.32</time>
   <energy>
    <i name="e_fr_energy">    -36.89274891 </i>
    <i name="e_wo_entrp">    -36.89274850 </i>
    <i name="e_0_energy">    -36.89274871 </i>
   </energy>
  </scstep>
  <scstep>
   <time name="diag">   87.04   87.34</time>
   <time name="diis">  354.45  356.17</time>
   <time name="orth">    3.08    3.09</time>
   <time name="total">  479.54  481.83</time>
   <energy>
    <i name="e_fr_energy">    -36.88356684 </i>
    <i name="e_wo_entrp">    -36.88356652 </i>
    <i name="e_0_energy">    -36.88356668 </i>
   </energy>
  </scstep>
  <scstep>
   <time name="diag">   86.84   87.32</time>
   <time name="diis">  357.56  358.35</time>
   <time name="orth">    3.05    3.06</time>
   <time name="total">  482.72  484.12</time>
   <energy>
    <i name="e_fr_energy">    -36.87858085 </i>
    <i name="e_wo_entrp">    -36.87858051 </i>
    <i name="e_0_energy">    -36.87858068 </i>
   </energy>
  </scstep>
  <scstep>
   <time name="diag">   86.83   87.22</time>
   <time name="diis">  348.11  351.19</time>
   <time name="orth">    3.06    3.09</time>
   <time name="total">  473.65  477.43</time>
   <energy>
    <i name="e_fr_energy">    -36.87847347 </i>
    <i name="e_wo_entrp">    -36.87847308 </i>
    <i name="e_0_energy">    -36.87847327 </i>
   </energy>
  </scstep>
  <scstep>
   <time name="diag">   86.63   87.24</time>
   <time name="diis">  348.31  351.79</time>
   <time name="orth">    3.06    3.06</time>
   <time name="total">  473.61  477.82</time>
   <energy>
    <i name="e_fr_energy">    -36.87843709 </i>
    <i name="e_wo_entrp">    -36.87843673 </i>
    <i name="e_0_energy">    -36.87843691 </i>
   </energy>
  </scstep>
  <scstep>
   <time name="diag">   87.00   87.22</time>
   <time name="diis">  352.79  353.60</time>
   <time name="orth">    3.07    3.07</time>
   <time name="total">  478.46  479.67</time>
   <energy>
    <i name="e_fr_energy">    -36.88075145 </i>
    <i name="e_wo_entrp">    -36.88075110 </i>
    <i name="e_0_energy">    -36.88075128 </i>
   </energy>
  </scstep>
  <scstep>
   <time name="diag">   86.96   87.27</time>
   <time name="diis">  352.25  353.18</time>
   <time name="orth">    3.06    3.06</time>
   <time name="total">  477.30  478.67</time>
   <energy>
    <i name="e_fr_energy">    -36.88126453 </i>
    <i name="e_wo_entrp">    -36.88126418 </i>
    <i name="e_0_energy">    -36.88126435 </i>
   </energy>
  </scstep>
  <scstep>
   <time name="diag">   86.99   87.32</time>
   <time name="diis">  359.13  360.39</time>
   <time name="orth">    3.06    3.06</time>
   <time name="total">  484.26  486.09</time>
   <energy>
    <i name="e_fr_energy">    -36.88148612 </i>
    <i name="e_wo_entrp">    -36.88148576 </i>
    <i name="e_0_energy">    -36.88148594 </i>
   </energy>
  </scstep>
  <scstep>
   <time name="diag">   87.05   87.09</time>
   <time name="diis">  354.91  355.78</time>
   <time name="orth">    3.08    3.08</time>
   <time name="total">  480.62  481.82</time>
   <energy>
    <i name="e_fr_energy">    -36.88156775 </i>
    <i name="e_wo_entrp">    -36.88156740 </i>
    <i name="e_0_energy">    -36.88156758 </i>
   </energy>
  </scstep>
  <scstep>
   <time name="diag">   86.55   87.06</time>
   <time name="diis">  351.17  353.94</time>
   <time name="orth">    3.07    3.08</time>
   <time name="total">  475.40  478.87</time>
   <energy>
    <i name="e_fr_energy">    -36.88157753 </i>
    <i name="e_wo_entrp">    -36.88157717 </i>
    <i name="e_0_energy">    -36.88157735 </i>
   </energy>
  </scstep>
  <scstep>
   <time name="diag">   86.49   87.09</time>
   <time name="diis">  347.95  351.63</time>
   <time name="orth">    3.06    3.09</time>
   <time name="total">  472.38  477.00</time>
   <energy>
    <i name="e_fr_energy">    -36.88159015 </i>
    <i name="e_wo_entrp">    -36.88158979 </i>
    <i name="e_0_energy">    -36.88158997 </i>
   </energy>
  </scstep>
  <scstep>
   <time name="diag">   86.06   87.08</time>
   <time name="diis">  359.46  361.81</time>
   <time name="orth">    3.06    3.06</time>
   <time name="total">  483.52  487.11</time>
   <energy>
    <i name="e_fr_energy">    -36.88159581 </i>
    <i name="e_wo_entrp">    -36.88159546 </i>
    <i name="e_0_energy">    -36.88159563 </i>
   </energy>
  </scstep>
  <scstep>
   <time name="diag">   86.54   87.16</time>
   <time name="diis">  349.98  350.36</time>
   <time name="orth">    3.06    3.06</time>
   <time name="total">  475.45  476.49</time>
   <energy>
    <i name="e_fr_energy">    -36.88159684 </i>
    <i name="e_wo_entrp">    -36.88159648 </i>
    <i name="e_0_energy">    -36.88159666 </i>
   </energy>
  </scstep>
  <scstep>
   <time name="diag">   86.71   87.05</time>
   <time name="diis">  340.33  340.97</time>
   <time name="orth">    3.08    3.08</time>
   <time name="total">  465.65  466.70</time>
   <energy>
    <i name="e_fr_energy">    -36.88159759 </i>
    <i name="e_wo_entrp">    -36.88159723 </i>
    <i name="e_0_energy">    -36.88159741 </i>
   </energy>
  </scstep>
  <scstep>
   <time name="diag">   86.71   87.06</time>
   <time name="diis">  272.89  274.35</time>
   <time name="orth">    3.08    3.08</time>
   <time name="total">  398.69  400.62</time>
   <energy>
    <i name="e_fr_energy">    -36.88159763 </i>
    <i name="e_wo_entrp">    -36.88159727 </i>
    <i name="e_0_energy">    -36.88159745 </i>
   </energy>
  </scstep>
  <scstep>
   <time name="diag">   87.07   87.11</time>
   <time name="diis">  265.42  265.49</time>
   <time name="orth">    3.06    3.06</time>
   <time name="total">  390.95  391.09</time>
   <energy>
    <i name="e_fr_energy">    -36.88159764 </i>
    <i name="e_wo_entrp">    -36.88159729 </i>
    <i name="e_0_energy">    -36.88159747 </i>
   </energy>
  </scstep>
  <scstep>
   <time name="diag">   87.05   87.07</time>
   <time name="diis">  241.17  241.27</time>
   <time name="orth">    3.08    3.08</time>
   <time name="total">  366.64  366.78</time>
   <energy>
    <i name="e_fr_energy">    -36.88159764 </i>
    <i name="e_wo_entrp">    -36.88159729 </i>
    <i name="e_0_energy">    -36.88159746 </i>
   </energy>
  </scstep>
  <scstep>
   <time name="diag">   87.08   87.11</time>
   <time name="diis">  230.38  230.44</time>
   <time name="orth">    3.08    3.08</time>
   <time name="total">  356.02  356.16</time>
   <energy>
    <i name="e_fr_energy">    -36.88159764 </i>
    <i name="e_wo_entrp">    -36.88159729 </i>
    <i name="e_0_energy">    -36.88159747 </i>
   </energy>
  </scstep>
  <scstep>
   <time name="diag">   87.20   87.23</time>
   <time name="diis">  216.61  216.67</time>
   <time name="orth">    3.06    3.06</time>
   <time name="total">  342.53  342.62</time>
   <energy>
    <i name="e_fr_energy">    -36.88159764 </i>
    <i name="e_wo_entrp">    -36.88159729 </i>
    <i name="e_0_energy">    -36.88159747 </i>
   </energy>
  </scstep>
  <scstep>
   <time name="diag">   87.22   87.24</time>
   <time name="diis">  207.85  207.91</time>
   <time name="orth">    3.08    3.08</time>
   <time name="total">  333.42  333.56</time>
   <energy>
    <i name="e_fr_energy">    -36.88159764 </i>
    <i name="e_wo_entrp">    -36.88159729 </i>
    <i name="e_0_energy">    -36.88159747 </i>
   </energy>
  </scstep>
  <scstep>
   <time name="diag">   87.18   87.25</time>
   <time name="diis">  199.48  199.79</time>
   <time name="orth">    3.06    3.06</time>
   <time name="total">  292.47  292.86</time>
   <energy>
    <i name="alphaZ">      6.18334092 </i>
    <i name="ewald">   2475.99232927 </i>
    <i name="hartreedc">  -2970.21270976 </i>
    <i name="XCdc">     57.21602543 </i>
    <i name="pawpsdc">    270.40880341 </i>
    <i name="pawaedc">   -275.52744117 </i>
    <i name="eentropy">     -0.00000036 </i>
    <i name="bandstr">   -189.56547229 </i>
    <i name="atom">    588.62352690 </i>
    <i name="e_fr_energy">    -36.88159764 </i>
    <i name="e_wo_entrp">    -36.88159729 </i>
    <i name="e_0_energy">    -36.88159747 </i>
   </energy>
  </scstep>
  <structure>
   <crystal>
    <varray name="basis" >
     <v>       4.25846655       0.00000000       0.00000000 </v>
     <v>       0.00000000       2.51701783       0.00000000 </v>
     <v>       0.00000000       0.00000000      19.67021705 </v>
    </varray>
    <i name="volume">    210.83790140 </i>
    <varray name="rec_basis" >
     <v>       0.23482631       0.00000000       0.00000000 </v>
     <v>       0.00000000       0.39729556       0.00000000 </v>
     <v>       0.00000000       0.00000000       0.05083828 </v>
    </varray>
   </crystal>
   <varray name="positions" >
    <v>       0.00053179       0.00000000       0.00000000 </v>
    <v>       0.16613488       0.50000000       0.00000000 </v>
    <v>       0.50053179       0.50000000       0.00000000 </v>
    <v>       0.66613488       0.00000000       0.00000000 </v>
   </varray>
  </structure>
  <varray name="forces" >
   <v>      -0.00448787      -0.00000000      -0.00000000 </v>
   <v>       0.00448787       0.00000000       0.00000000 </v>
   <v>      -0.00448787      -0.00000000      -0.00000000 </v>
   <v>       0.00448787       0.00000000       0.00000000 </v>
  </varray>
  <varray name="stress" >
   <v>      -0.01549387       0.00000000       0.00000000 </v>
   <v>       0.00000000     -33.20626419       0.00000000 </v>
   <v>       0.00000000       0.00000000      -0.01021518 </v>
  </varray>
  <energy>
   <i name="e_fr_energy">    -36.88159764 </i>
   <i name="e_wo_entrp">    -36.88159747 </i>
   <i name="e_0_energy">     -0.00000036 </i>
  </energy>
  <time name="totalsc">11460.5011507.77</time>
 </calculation>
 <calculation>
  <scstep>
   <time name="dav">  336.41  336.55</time>
   <time name="total">  371.54  371.69</time>
   <energy>
    <i name="alphaZ">      6.18334092 </i>
    <i name="ewald">   2475.99606914 </i>
    <i name="hartreedc">  -2970.21432725 </i>
    <i name="XCdc">     57.21613186 </i>
    <i name="pawpsdc">    270.40880297 </i>
    <i name="pawaedc">   -275.52744072 </i>
    <i name="eentropy">     -0.00000026 </i>
    <i name="bandstr">   -189.56769520 </i>
    <i name="atom">    588.62352690 </i>
    <i name="e_fr_energy">    -36.88159163 </i>
    <i name="e_wo_entrp">    -36.88159137 </i>
    <i name="e_0_energy">    -36.88159150 </i>
   </energy>
  </scstep>
  <scstep>
   <time name="diag">   87.28   87.31</time>
   <time name="diis">  350.14  350.26</time>
   <time name="orth">    3.08    3.08</time>
   <time name="total">  476.20  476.36</time>
   <energy>
    <i name="e_fr_energy">    -36.88159201 </i>
    <i name="e_wo_entrp">    -36.88159175 </i>
    <i name="e_0_energy">    -36.88159188 </i>
   </energy>
  </scstep>
  <scstep>
   <time name="diag">   87.26   87.32</time>
   <time name="diis">  354.14  354.27</time>
   <time name="orth">    3.08    3.08</time>
   <time name="total">  480.25  480.46</time>
   <energy>
    <i name="e_fr_energy">    -36.88159181 </i>
    <i name="e_wo_entrp">    -36.88159153 </i>
    <i name="e_0_energy">    -36.88159167 </i>
   </energy>
  </scstep>
  <scstep>
   <time name="diag">   87.27   87.33</time>
   <time name="diis">  359.55  361.06</time>
   <time name="orth">    3.06    3.06</time>
   <time name="total">  484.73  486.46</time>
   <energy>
    <i name="e_fr_energy">    -36.88159177 </i>
    <i name="e_wo_entrp">    -36.88159150 </i>
    <i name="e_0_energy">    -36.88159164 </i>
   </energy>
  </scstep>
  <scstep>
   <time name="diag">   87.29   87.34</time>
   <time name="diis">  367.13  367.62</time>
   <time name="orth">    3.06    3.08</time>
   <time name="total">  492.75  493.47</time>
   <energy>
    <i name="e_fr_energy">    -36.88159178 </i>
    <i name="e_wo_entrp">    -36.88159151 </i>
    <i name="e_0_energy">    -36.88159164 </i>
   </energy>
  </scstep>
  <scstep>
   <time name="diag">   86.92   87.35</time>
   <time name="diis">  347.88  348.66</time>
   <time name="orth">    3.08    3.08</time>
   <time name="total">  473.24  474.48</time>
   <energy>
    <i name="e_fr_energy">    -36.88159178 </i>
    <i name="e_wo_entrp">    -36.88159151 </i>
    <i name="e_0_energy">    -36.88159164 </i>
   </energy>
  </scstep>
  <scstep>
   <time name="diag">   87.25   87.29</time>
   <time name="diis">  236.97  237.05</time>
   <time name="orth">    3.06    3.06</time>
   <time name="total">  329.95  330.22</time>
   <energy>
    <i name="alphaZ">      6.18334092 </i>
    <i name="ewald">   2475.99606914 </i>
    <i name="hartreedc">  -2970.21583251 </i>
    <i name="XCdc">     57.21619585 </i>
    <i name="pawpsdc">    270.41529748 </i>
    <i name="pawaedc">   -275.53396378 </i>
    <i name="eentropy">     -0.00000027 </i>
    <i name="bandstr">   -189.56622551 </i>
    <i name="atom">    588.62352690 </i>
    <i name="e_fr_energy">    -36.88159178 </i>
    <i name="e_wo_entrp">    -36.88159151 </i>
    <i name="e_0_energy">    -36.88159164 </i>
   </energy>
  </scstep>
  <structure>
   <crystal>
    <varray name="basis" >
     <v>       4.25846655       0.00000000       0.00000000 </v>
     <v>       0.00000000       2.51701783       0.00000000 </v>
     <v>       0.00000000       0.00000000      19.67021705 </v>
    </varray>
    <i name="volume">    210.83790140 </i>
    <varray name="rec_basis" >
     <v>       0.23482631       0.00000000       0.00000000 </v>
     <v>       0.00000000       0.39729556       0.00000000 </v>
     <v>       0.00000000       0.00000000       0.05083828 </v>
    </varray>
   </crystal>
   <varray name="positions" >
    <v>       0.00048094      -0.00000000      -0.00000000 </v>
    <v>       0.16618572       0.50000000       0.00000000 </v>
    <v>       0.50048094       0.50000000      -0.00000000 </v>
    <v>       0.66618572       0.00000000       0.00000000 </v>
   </varray>
  </structure>
  <varray name="forces" >
   <v>       0.01812070      -0.00000000       0.00000000 </v>
   <v>      -0.01812070       0.00000000      -0.00000000 </v>
   <v>       0.01812070      -0.00000000       0.00000000 </v>
   <v>      -0.01812070       0.00000000      -0.00000000 </v>
  </varray>
  <varray name="stress" >
   <v>       0.07198238       0.00000000       0.00000000 </v>
   <v>       0.00000000     -33.26443056       0.00000000 </v>
   <v>       0.00000000       0.00000000      -0.01011684 </v>
  </varray>
  <energy>
   <i name="e_fr_energy">    -36.88159178 </i>
   <i name="e_wo_entrp">    -36.88159164 </i>
   <i name="e_0_energy">     -0.00000027 </i>
  </energy>
  <time name="totalsc"> 3214.77 3219.45</time>
 </calculation>
 <calculation>
  <scstep>
   <time name="dav">  337.97  338.32</time>
   <time name="total">  373.36  373.72</time>
   <energy>
    <i name="alphaZ">      6.18334092 </i>
    <i name="ewald">   2475.99306645 </i>
    <i name="hartreedc">  -2970.21454524 </i>
    <i name="XCdc">     57.21611022 </i>
    <i name="pawpsdc">    270.41528251 </i>
    <i name="pawaedc">   -275.53394878 </i>
    <i name="eentropy">     -0.00000034 </i>
    <i name="bandstr">   -189.56443067 </i>
    <i name="atom">    588.62352690 </i>
    <i name="e_fr_energy">    -36.88159803 </i>
    <i name="e_wo_entrp">    -36.88159768 </i>
    <i name="e_0_energy">    -36.88159786 </i>
   </energy>
  </scstep>
  <scstep>
   <time name="diag">   87.29   87.32</time>
   <time name="diis">  351.03  351.17</time>
   <time name="orth">    3.06    3.06</time>
   <time name="total">  477.00  477.19</time>
   <energy>
    <i name="e_fr_energy">    -36.88159823 </i>
    <i name="e_wo_entrp">    -36.88159789 </i>
    <i name="e_0_energy">    -36.88159806 </i>
   </energy>
  </scstep>
  <scstep>
   <time name="diag">   87.27   87.33</time>
   <time name="diis">  353.41  354.83</time>
   <time name="orth">    3.06    3.06</time>
   <time name="total">  479.08  480.75</time>
   <energy>
    <i name="e_fr_energy">    -36.88159805 </i>
    <i name="e_wo_entrp">    -36.88159771 </i>
    <i name="e_0_energy">    -36.88159788 </i>
   </energy>
  </scstep>
  <scstep>
   <time name="diag">   87.14   87.34</time>
   <time name="diis">  359.88  360.70</time>
   <time name="orth">    3.08    3.08</time>
   <time name="total">  485.68  486.74</time>
   <energy>
    <i name="e_fr_energy">    -36.88159804 </i>
    <i name="e_wo_entrp">    -36.88159770 </i>
    <i name="e_0_energy">    -36.88159787 </i>
   </energy>
  </scstep>
  <scstep>
   <time name="diag">   87.25   87.33</time>
   <time name="diis">  364.70  365.66</time>
   <time name="orth">    3.08    3.08</time>
   <time name="total">  490.44  491.54</time>
   <energy>
    <i name="e_fr_energy">    -36.88159804 </i>
    <i name="e_wo_entrp">    -36.88159770 </i>
    <i name="e_0_energy">    -36.88159787 </i>
   </energy>
  </scstep>
  <scstep>
   <time name="diag">   87.18   87.42</time>
   <time name="diis">  332.14  332.82</time>
   <time name="orth">    3.08    3.08</time>
   <time name="total">  458.28  459.26</time>
   <energy>
    <i name="e_fr_energy">    -36.88159804 </i>
    <i name="e_wo_entrp">    -36.88159770 </i>
    <i name="e_0_energy">    -36.88159787 </i>
   </energy>
  </scstep>
  <scstep>
   <time name="diag">   87.23   87.36</time>
   <time name="diis">  233.88  234.54</time>
   <time name="orth">    3.07    3.08</time>
   <time name="total">  359.19  360.33</time>
   <energy>
    <i name="e_fr_energy">    -36.88159804 </i>
    <i name="e_wo_entrp">    -36.88159770 </i>
    <i name="e_0_energy">    -36.88159787 </i>
   </energy>
  </scstep>
  <scstep>
   <time name="diag">   86.97   87.36</time>
   <time name="diis">  221.72  222.03</time>
   <time name="orth">    3.13    3.14</time>
   <time name="total">  314.56  315.28</time>
   <energy>
    <i name="alphaZ">      6.18334092 </i>
    <i name="ewald">   2475.99306645 </i>
    <i name="hartreedc">  -2970.21338258 </i>
    <i name="XCdc">     57.21605921 </i>
    <i name="pawpsdc">    270.41006835 </i>
    <i name="pawaedc">   -275.52871159 </i>
    <i name="eentropy">     -0.00000034 </i>
    <i name="bandstr">   -189.56556537 </i>
    <i name="atom">    588.62352690 </i>
    <i name="e_fr_energy">    -36.88159804 </i>
    <i name="e_wo_entrp">    -36.88159770 </i>
    <i name="e_0_energy">    -36.88159787 </i>
   </energy>
  </scstep>
  <structure>
   <crystal>
    <varray name="basis" >
     <v>       4.25846655       0.00000000       0.00000000 </v>
     <v>       0.00000000       2.51701783       0.00000000 </v>
     <v>       0.00000000       0.00000000      19.67021705 </v>
    </varray>
    <i name="volume">    210.83790140 </i>
    <varray name="rec_basis" >
     <v>       0.23482631       0.00000000       0.00000000 </v>
     <v>       0.00000000       0.39729556       0.00000000 </v>
     <v>       0.00000000       0.00000000       0.05083828 </v>
    </varray>
   </crystal>
   <varray name="positions" >
    <v>       0.00052169      -0.00000000      -0.00000000 </v>
    <v>       0.16614497       0.50000000       0.00000000 </v>
    <v>       0.50052169       0.50000000      -0.00000000 </v>
    <v>       0.66614497       0.00000000       0.00000000 </v>
   </varray>
  </structure>
  <varray name="forces" >
   <v>       0.00000216       0.00000000       0.00000000 </v>
   <v>      -0.00000216       0.00000000      -0.00000000 </v>
   <v>       0.00000216      -0.00000000       0.00000000 </v>
   <v>      -0.00000216       0.00000000      -0.00000000 </v>
  </varray>
  <varray name="stress" >
   <v>       0.00185427       0.00000000       0.00000000 </v>
   <v>       0.00000000     -33.21784178       0.00000000 </v>
   <v>       0.00000000       0.00000000      -0.01026179 </v>
  </varray>
  <energy>
   <i name="e_fr_energy">    -36.88159804 </i>
   <i name="e_wo_entrp">    -36.88159787 </i>
   <i name="e_0_energy">     -0.00000034 </i>
  </energy>
  <time name="totalsc"> 3542.59 3550.06</time>
 </calculation>
 <calculation>
  <scstep>
   <time name="dav">  274.12  275.26</time>
   <time name="total">  309.24  310.63</time>
   <energy>
    <i name="alphaZ">      6.18334092 </i>
    <i name="ewald">   2475.99306610 </i>
    <i name="hartreedc">  -2970.21336908 </i>
    <i name="XCdc">     57.21605927 </i>
    <i name="pawpsdc">    270.41007870 </i>
    <i name="pawaedc">   -275.52872206 </i>
    <i name="eentropy">     -0.00000034 </i>
    <i name="bandstr">   -189.56557845 </i>
    <i name="atom">    588.62352690 </i>
    <i name="e_fr_energy">    -36.88159804 </i>
    <i name="e_wo_entrp">    -36.88159770 </i>
    <i name="e_0_energy">    -36.88159787 </i>
   </energy>
  </scstep>
  <scstep>
   <time name="diag">   86.65   87.36</time>
   <time name="diis">  178.06  179.86</time>
   <time name="orth">    3.06    3.06</time>
   <time name="total">  302.93  305.76</time>
   <energy>
    <i name="e_fr_energy">    -36.88159804 </i>
    <i name="e_wo_entrp">    -36.88159770 </i>
    <i name="e_0_energy">    -36.88159787 </i>
   </energy>
  </scstep>
  <scstep>
   <time name="diag">   86.70   87.41</time>
   <time name="diis">  180.27  181.47</time>
   <time name="orth">    3.08    3.09</time>
   <time name="total">  305.32  307.43</time>
   <energy>
    <i name="e_fr_energy">    -36.88159804 </i>
    <i name="e_wo_entrp">    -36.88159770 </i>
    <i name="e_0_energy">    -36.88159787 </i>
   </energy>
  </scstep>
  <scstep>
   <time name="diag">   86.77   87.34</time>
   <time name="diis">  178.58  179.93</time>
   <time name="orth">    3.07    3.09</time>
   <time name="total">  303.86  306.03</time>
   <energy>
    <i name="e_fr_energy">    -36.88159804 </i>
    <i name="e_wo_entrp">    -36.88159770 </i>
    <i name="e_0_energy">    -36.88159787 </i>
   </energy>
  </scstep>
  <scstep>
   <time name="diag">   87.00   87.40</time>
   <time name="diis">  180.41  180.75</time>
   <time name="orth">    3.06    3.06</time>
   <time name="total">  306.07  306.85</time>
   <energy>
    <i name="e_fr_energy">    -36.88159804 </i>
    <i name="e_wo_entrp">    -36.88159770 </i>
    <i name="e_0_energy">    -36.88159787 </i>
   </energy>
  </scstep>
  <scstep>
   <time name="diag">   87.24   87.35</time>
   <time name="diis">  175.31  176.41</time>
   <time name="orth">    3.06    3.08</time>
   <time name="total">  301.30  302.63</time>
   <energy>
    <i name="e_fr_energy">    -36.88159804 </i>
    <i name="e_wo_entrp">    -36.88159770 </i>
    <i name="e_0_energy">    -36.88159787 </i>
   </energy>
  </scstep>
  <scstep>
   <time name="diag">   86.97   87.21</time>
   <time name="diis">  180.07  180.51</time>
   <time name="orth">    3.07    3.07</time>
   <time name="total">  305.80  306.84</time>
   <energy>
    <i name="e_fr_energy">    -36.88159804 </i>
    <i name="e_wo_entrp">    -36.88159770 </i>
    <i name="e_0_energy">    -36.88159787 </i>
   </energy>
  </scstep>
  <scstep>
   <time name="diag">   86.52   87.15</time>
   <time name="diis">  173.72  174.36</time>
   <time name="orth">    3.09    3.09</time>
   <time name="total">  299.35  301.57</time>
   <energy>
    <i name="e_fr_energy">    -36.88159804 </i>
    <i name="e_wo_entrp">    -36.88159770 </i>
    <i name="e_0_energy">    -36.88159787 </i>
   </energy>
  </scstep>
  <scstep>
   <time name="diag">   86.96   87.17</time>
   <time name="diis">  173.52  174.62</time>
   <time name="orth">    3.07    3.09</time>
   <time name="total">  266.30  267.65</time>
   <energy>
    <i name="alphaZ">      6.18334092 </i>
    <i name="ewald">   2475.99306610 </i>
    <i name="hartreedc">  -2970.21333818 </i>
    <i name="XCdc">     57.21605895 </i>
    <i name="pawpsdc">    270.41007424 </i>
    <i name="pawaedc">   -275.52871759 </i>
    <i name="eentropy">     -0.00000034 </i>
    <i name="bandstr">   -189.56560904 </i>
    <i name="atom">    588.62352690 </i>
    <i name="e_fr_energy">    -36.88159804 </i>
    <i name="e_wo_entrp">    -36.88159770 </i>
    <i name="e_0_energy">    -36.88159787 </i>
   </energy>
  </scstep>
  <structure>
   <crystal>
    <varray name="basis" >
     <v>       4.25846655       0.00000000       0.00000000 </v>
     <v>       0.00000000       2.51701783       0.00000000 </v>
     <v>       0.00000000       0.00000000      19.67021705 </v>
    </varray>
    <i name="volume">    210.83790140 </i>
    <varray name="rec_basis" >
     <v>       0.23482631       0.00000000       0.00000000 </v>
     <v>       0.00000000       0.39729556       0.00000000 </v>
     <v>       0.00000000       0.00000000       0.05083828 </v>
    </varray>
   </crystal>
   <varray name="positions" >
    <v>       0.00052170      -0.00000000       0.00000000 </v>
    <v>       0.16614497       0.50000000      -0.00000000 </v>
    <v>       0.50052170       0.50000000       0.00000000 </v>
    <v>       0.66614497       0.00000000      -0.00000000 </v>
   </varray>
  </structure>
  <varray name="forces" >
   <v>      -0.00000044       0.00000000      -0.00000000 </v>
   <v>       0.00000044       0.00000000       0.00000000 </v>
   <v>      -0.00000044      -0.00000000      -0.00000000 </v>
   <v>       0.00000044       0.00000000       0.00000000 </v>
  </varray>
  <varray name="stress" >
   <v>       0.00186255       0.00000000       0.00000000 </v>
   <v>       0.00000000     -33.21785226       0.00000000 </v>
   <v>       0.00000000       0.00000000      -0.01023171 </v>
  </varray>
  <energy>
   <i name="e_fr_energy">    -36.88159804 </i>
   <i name="e_wo_entrp">    -36.88159787 </i>
   <i name="e_0_energy">     -0.00000034 </i>
  </energy>
  <time name="totalsc"> 2799.52 2815.62</time>
  <eigenvalues>
   <array>
    <dimension dim="1">band</dimension>
    <dimension dim="2">kpoint</dimension>
    <dimension dim="3">spin</dimension>
    <field>eigene</field>
    <field>occ</field>
    <set>
     <set comment="spin 1">
      <set comment="kpoint 1">
       <r>  -22.1148    1.0000 </r>
       <r>  -16.7652    1.0000 </r>
       <r>  -15.8846    1.0000 </r>
       <r>  -10.2517    1.0000 </r>
       <r>   -9.4177    1.0000 </r>
       <r>   -5.9562    1.0000 </r>
       <r>   -5.7472    1.0000 </r>
       <r>   -4.9444    1.0000 </r>
       <r>   -1.1274    0.0000 </r>
       <r>    0.5406    0.0000 </r>
       <r>    1.3393    0.0000 </r>
       <r>    1.7307    0.0000 </r>
      </set>
      <set comment="kpoint 2">
       <r>  -22.1044    1.0000 </r>
       <r>  -16.9547    1.0000 </r>
       <r>  -15.6800    1.0000 </r>
       <r>  -10.2394    1.0000 </r>
       <r>   -9.4073    1.0000 </r>
       <r>   -5.9798    1.0000 </r>
       <r>   -5.7879    1.0000 </r>
       <r>   -5.0138    1.0000 </r>
       <r>   -1.0430    0.0000 </r>
       <r>    0.5546    0.0000 </r>
       <r>    1.3535    0.0000 </r>
       <r>    1.7451    0.0000 </r>
      </set>
      <set comment="kpoint 3">
       <r>  -22.0734    1.0000 </r>
       <r>  -17.3156    1.0000 </r>
       <r>  -15.2740    1.0000 </r>
       <r>  -10.2025    1.0000 </r>
       <r>   -9.3763    1.0000 </r>
       <r>   -6.0489    1.0000 </r>
       <r>   -5.9084    1.0000 </r>
       <r>   -5.2053    1.0000 </r>
       <r>   -0.8065    0.0000 </r>
       <r>    0.5967    0.0000 </r>
       <r>    1.3960    0.0000 </r>
       <r>    1.7882    0.0000 </r>
      </set>
      <set comment="kpoint 4">
       <r>  -22.0216    1.0000 </r>
       <r>  -17.7055    1.0000 </r>
       <r>  -14.8092    1.0000 </r>
       <r>  -10.1411    1.0000 </r>
       <r>   -9.3247    1.0000 </r>
       <r>   -6.1600    1.0000 </r>
       <r>   -6.1045    1.0000 </r>
       <r>   -5.4826    1.0000 </r>
       <r>   -0.4549    0.0000 </r>
       <r>    0.6668    0.0000 </r>
       <r>    1.4669    0.0000 </r>
       <r>    1.8599    0.0000 </r>
      </set>
      <set comment="kpoint 5">
       <r>  -21.9493    1.0000 </r>
       <r>  -18.0933    1.0000 </r>
       <r>  -14.3173    1.0000 </r>
       <r>  -10.0553    1.0000 </r>
       <r>   -9.2528    1.0000 </r>
       <r>   -6.3697    1.0000 </r>
       <r>   -6.3072    1.0000 </r>
       <r>   -5.8108    1.0000 </r>
       <r>   -0.0239    0.0000 </r>
       <r>    0.7650    0.0000 </r>
       <r>    1.5661    0.0000 </r>
       <r>    1.9604    0.0000 </r>
      </set>
      <set comment="kpoint 6">
       <r>  -21.8563    1.0000 </r>
       <r>  -18.4700    1.0000 </r>
       <r>  -13.8078    1.0000 </r>
       <r>   -9.9452    1.0000 </r>
       <r>   -9.1610    1.0000 </r>
       <r>   -6.6960    1.0000 </r>
       <r>   -6.4841    1.0000 </r>
       <r>   -6.1648    1.0000 </r>
       <r>    0.4602    0.0000 </r>
       <r>    0.8912    0.0000 </r>
       <r>    1.6936    0.0000 </r>
       <r>    2.0896    0.0000 </r>
      </set>
      <set comment="kpoint 7">
       <r>  -21.7428    1.0000 </r>
       <r>  -18.8323    1.0000 </r>
       <r>  -13.2850    1.0000 </r>
       <r>   -9.8110    1.0000 </r>
       <r>   -9.0498    1.0000 </r>
       <r>   -7.0750    1.0000 </r>
       <r>   -6.6835    1.0000 </r>
       <r>   -6.5284    1.0000 </r>
       <r>    0.9793    0.0000 </r>
       <r>    1.0454    0.0000 </r>
       <r>    1.8493    0.0000 </r>
       <r>    2.2475    0.0000 </r>
      </set>
      <set comment="kpoint 8">
       <r>  -21.6089    1.0000 </r>
       <r>  -19.1783    1.0000 </r>
       <r>  -12.7520    1.0000 </r>
       <r>   -9.6529    1.0000 </r>
       <r>   -8.9198    1.0000 </r>
       <r>   -7.4982    1.0000 </r>
       <r>   -6.8988    1.0000 </r>
       <r>   -6.8911    1.0000 </r>
       <r>    1.2276    0.0000 </r>
       <r>    1.5212    0.0000 </r>
       <r>    2.0332    0.0000 </r>
       <r>    2.4341    0.0000 </r>
      </set>
      <set comment="kpoint 9">
       <r>  -21.4546    1.0000 </r>
       <r>  -19.5069    1.0000 </r>
       <r>  -12.2112    1.0000 </r>
       <r>   -9.4713    1.0000 </r>
       <r>   -8.7719    1.0000 </r>
       <r>   -7.9576    1.0000 </r>
       <r>   -7.2462    1.0000 </r>
       <r>   -7.1238    1.0000 </r>
       <r>    1.4377    0.0000 </r>
       <r>    2.0764    0.0000 </r>
       <r>    2.2452    0.0000 </r>
       <r>    2.6494    0.0000 </r>
      </set>
      <set comment="kpoint 10">
       <r>  -21.2801    1.0000 </r>
       <r>  -19.8175    1.0000 </r>
       <r>  -11.6650    1.0000 </r>
       <r>   -9.2666    1.0000 </r>
       <r>   -8.6070    1.0000 </r>
       <r>   -8.4457    1.0000 </r>
       <r>   -7.5893    1.0000 </r>
       <r>   -7.3531    1.0000 </r>
       <r>    1.6757    0.0000 </r>
       <r>    2.4850    0.0000 </r>
       <r>    2.6368    0.0000 </r>
       <r>    2.8934    0.0000 </r>
      </set>
      <set comment="kpoint 11">
       <r>  -21.0855    1.0000 </r>
       <r>  -20.1096    1.0000 </r>
       <r>  -11.1159    1.0000 </r>
       <r>   -9.0391    1.0000 </r>
       <r>   -8.9562    1.0000 </r>
       <r>   -8.4264    1.0000 </r>
       <r>   -7.9171    1.0000 </r>
       <r>   -7.5822    1.0000 </r>
       <r>    1.9415    0.0000 </r>
       <r>    2.7525    0.0000 </r>
       <r>    3.1660    0.0000 </r>
       <r>    3.1917    0.0000 </r>
      </set>
      <set comment="kpoint 12">
       <r>  -20.8709    1.0000 </r>
       <r>  -20.3827    1.0000 </r>
       <r>  -10.5670    1.0000 </r>
       <r>   -9.4831    1.0000 </r>
       <r>   -8.7896    1.0000 </r>
       <r>   -8.2316    1.0000 </r>
       <r>   -8.2275    1.0000 </r>
       <r>   -7.8070    1.0000 </r>
       <r>    2.2349    0.0000 </r>
       <r>    2.9038    0.0000 </r>
       <r>    3.0466    0.0000 </r>
       <r>    3.4680    0.0000 </r>
      </set>
      <set comment="kpoint 13">
       <r>  -20.6366    1.0000 </r>
       <r>  -20.6366    1.0000 </r>
       <r>  -10.0215    1.0000 </r>
       <r>  -10.0215    1.0000 </r>
       <r>   -8.5187    1.0000 </r>
       <r>   -8.5187    1.0000 </r>
       <r>   -8.0244    1.0000 </r>
       <r>   -8.0244    1.0000 </r>
       <r>    2.5558    0.0000 </r>
       <r>    2.5558    0.0000 </r>
       <r>    3.3636    0.0000 </r>
       <r>    3.3636    0.0000 </r>
      </set>
      <set comment="kpoint 14">
       <r>  -22.1016    1.0000 </r>
       <r>  -16.7539    1.0000 </r>
       <r>  -15.8740    1.0000 </r>
       <r>  -10.2361    1.0000 </r>
       <r>   -9.4765    1.0000 </r>
       <r>   -6.0104    1.0000 </r>
       <r>   -5.7790    1.0000 </r>
       <r>   -4.9284    1.0000 </r>
       <r>   -1.1332    0.0000 </r>
       <r>    0.5584    0.0000 </r>
       <r>    1.3574    0.0000 </r>
       <r>    1.7490    0.0000 </r>
      </set>
      <set comment="kpoint 15">
       <r>  -22.0913    1.0000 </r>
       <r>  -16.9433    1.0000 </r>
       <r>  -15.6695    1.0000 </r>
       <r>  -10.2238    1.0000 </r>
       <r>   -9.4661    1.0000 </r>
       <r>   -6.0372    1.0000 </r>
       <r>   -5.8157    1.0000 </r>
       <r>   -4.9980    1.0000 </r>
       <r>   -1.0487    0.0000 </r>
       <r>    0.5724    0.0000 </r>
       <r>    1.3715    0.0000 </r>
       <r>    1.7633    0.0000 </r>
      </set>
      <set comment="kpoint 16">
       <r>  -22.0602    1.0000 </r>
       <r>  -17.3039    1.0000 </r>
       <r>  -15.2640    1.0000 </r>
       <r>  -10.1869    1.0000 </r>
       <r>   -9.4350    1.0000 </r>
       <r>   -6.1181    1.0000 </r>
       <r>   -5.9225    1.0000 </r>
       <r>   -5.1899    1.0000 </r>
       <r>   -0.8122    0.0000 </r>
       <r>    0.6145    0.0000 </r>
       <r>    1.4141    0.0000 </r>
       <r>    1.8064    0.0000 </r>
      </set>
      <set comment="kpoint 17">
       <r>  -22.0085    1.0000 </r>
       <r>  -17.6936    1.0000 </r>
       <r>  -14.7997    1.0000 </r>
       <r>  -10.1255    1.0000 </r>
       <r>   -9.3832    1.0000 </r>
       <r>   -6.2574    1.0000 </r>
       <r>   -6.0873    1.0000 </r>
       <r>   -5.4676    1.0000 </r>
       <r>   -0.4609    0.0000 </r>
       <r>    0.6846    0.0000 </r>
       <r>    1.4849    0.0000 </r>
       <r>    1.8782    0.0000 </r>
      </set>
      <set comment="kpoint 18">
       <r>  -21.9362    1.0000 </r>
       <r>  -18.0812    1.0000 </r>
       <r>  -14.3084    1.0000 </r>
       <r>  -10.0398    1.0000 </r>
       <r>   -9.3111    1.0000 </r>
       <r>   -6.4701    1.0000 </r>
       <r>   -6.2835    1.0000 </r>
       <r>   -5.7960    1.0000 </r>
       <r>   -0.0305    0.0000 </r>
       <r>    0.7828    0.0000 </r>
       <r>    1.5841    0.0000 </r>
       <r>    1.9787    0.0000 </r>
      </set>
      <set comment="kpoint 19">
       <r>  -21.8432    1.0000 </r>
       <r>  -18.4578    1.0000 </r>
       <r>  -13.7996    1.0000 </r>
       <r>   -9.9297    1.0000 </r>
       <r>   -9.2190    1.0000 </r>
       <r>   -6.7640    1.0000 </r>
       <r>   -6.4891    1.0000 </r>
       <r>   -6.1502    1.0000 </r>
       <r>    0.4525    0.0000 </r>
       <r>    0.9090    0.0000 </r>
       <r>    1.7116    0.0000 </r>
       <r>    2.1079    0.0000 </r>
      </set>
      <set comment="kpoint 20">
       <r>  -21.7297    1.0000 </r>
       <r>  -18.8199    1.0000 </r>
       <r>  -13.2778    1.0000 </r>
       <r>   -9.7955    1.0000 </r>
       <r>   -9.1074    1.0000 </r>
       <r>   -7.1240    1.0000 </r>
       <r>   -6.7040    1.0000 </r>
       <r>   -6.5138    1.0000 </r>
       <r>    0.9703    0.0000 </r>
       <r>    1.0632    0.0000 </r>
       <r>    1.8673    0.0000 </r>
       <r>    2.2658    0.0000 </r>
      </set>
      <set comment="kpoint 21">
       <r>  -21.5958    1.0000 </r>
       <r>  -19.1658    1.0000 </r>
       <r>  -12.7459    1.0000 </r>
       <r>   -9.6375    1.0000 </r>
       <r>   -8.9769    1.0000 </r>
       <r>   -7.5343    1.0000 </r>
       <r>   -6.9290    1.0000 </r>
       <r>   -6.8766    1.0000 </r>
       <r>    1.2454    0.0000 </r>
       <r>    1.5105    0.0000 </r>
       <r>    2.0512    0.0000 </r>
       <r>    2.4524    0.0000 </r>
      </set>
      <set comment="kpoint 22">
       <r>  -21.4416    1.0000 </r>
       <r>  -19.4943    1.0000 </r>
       <r>  -12.2065    1.0000 </r>
       <r>   -9.4560    1.0000 </r>
       <r>   -8.8283    1.0000 </r>
       <r>   -7.9841    1.0000 </r>
       <r>   -7.2317    1.0000 </r>
       <r>   -7.1607    1.0000 </r>
       <r>    1.4556    0.0000 </r>
       <r>    2.0637    0.0000 </r>
       <r>    2.2631    0.0000 </r>
       <r>    2.6677    0.0000 </r>
      </set>
      <set comment="kpoint 23">
       <r>  -21.2671    1.0000 </r>
       <r>  -19.8049    1.0000 </r>
       <r>  -11.6619    1.0000 </r>
       <r>   -9.2513    1.0000 </r>
       <r>   -8.6626    1.0000 </r>
       <r>   -8.4648    1.0000 </r>
       <r>   -7.5746    1.0000 </r>
       <r>   -7.3951    1.0000 </r>
       <r>    1.6936    0.0000 </r>
       <r>    2.5030    0.0000 </r>
       <r>    2.6221    0.0000 </r>
       <r>    2.9116    0.0000 </r>
      </set>
      <set comment="kpoint 24">
       <r>  -21.0725    1.0000 </r>
       <r>  -20.0969    1.0000 </r>
       <r>  -11.1149    1.0000 </r>
       <r>   -9.0239    1.0000 </r>
       <r>   -8.9693    1.0000 </r>
       <r>   -8.4808    1.0000 </r>
       <r>   -7.9023    1.0000 </r>
       <r>   -7.6280    1.0000 </r>
       <r>    1.9594    0.0000 </r>
       <r>    2.7705    0.0000 </r>
       <r>    3.1759    0.0000 </r>
       <r>    3.1843    0.0000 </r>
      </set>
      <set comment="kpoint 25">
       <r>  -20.8580    1.0000 </r>
       <r>  -20.3699    1.0000 </r>
       <r>  -10.5685    1.0000 </r>
       <r>   -9.4915    1.0000 </r>
       <r>   -8.7745    1.0000 </r>
       <r>   -8.2845    1.0000 </r>
       <r>   -8.2126    1.0000 </r>
       <r>   -7.8558    1.0000 </r>
       <r>    2.2528    0.0000 </r>
       <r>    2.9219    0.0000 </r>
       <r>    3.0646    0.0000 </r>
       <r>    3.4855    0.0000 </r>
      </set>
      <set comment="kpoint 26">
       <r>  -20.6237    1.0000 </r>
       <r>  -20.6237    1.0000 </r>
       <r>  -10.0261    1.0000 </r>
       <r>  -10.0261    1.0000 </r>
       <r>   -8.5037    1.0000 </r>
       <r>   -8.5037    1.0000 </r>
       <r>   -8.0755    1.0000 </r>
       <r>   -8.0755    1.0000 </r>
       <r>    2.5738    0.0000 </r>
       <r>    2.5738    0.0000 </r>
       <r>    3.3816    0.0000 </r>
       <r>    3.3816    0.0000 </r>
      </set>
      <set comment="kpoint 27">
       <r>  -22.0622    1.0000 </r>
       <r>  -16.7199    1.0000 </r>
       <r>  -15.8423    1.0000 </r>
       <r>  -10.1893    1.0000 </r>
       <r>   -9.6482    1.0000 </r>
       <r>   -6.1687    1.0000 </r>
       <r>   -5.8735    1.0000 </r>
       <r>   -4.8807    1.0000 </r>
       <r>   -1.1512    0.0000 </r>
       <r>    0.6117    0.0000 </r>
       <r>    1.4114    0.0000 </r>
       <r>    1.8038    0.0000 </r>
      </set>
      <set comment="kpoint 28">
       <r>  -22.0519    1.0000 </r>
       <r>  -16.9090    1.0000 </r>
       <r>  -15.6384    1.0000 </r>
       <r>  -10.1770    1.0000 </r>
       <r>   -9.6377    1.0000 </r>
       <r>   -6.2020    1.0000 </r>
       <r>   -5.9016    1.0000 </r>
       <r>   -4.9508    1.0000 </r>
       <r>   -1.0666    0.0000 </r>
       <r>    0.6257    0.0000 </r>
       <r>    1.4256    0.0000 </r>
       <r>    1.8181    0.0000 </r>
      </set>
      <set comment="kpoint 29">
       <r>  -22.0209    1.0000 </r>
       <r>  -17.2690    1.0000 </r>
       <r>  -15.2340    1.0000 </r>
       <r>  -10.1402    1.0000 </r>
       <r>   -9.6063    1.0000 </r>
       <r>   -6.3002    1.0000 </r>
       <r>   -5.9851    1.0000 </r>
       <r>   -5.1439    1.0000 </r>
       <r>   -0.8301    0.0000 </r>
       <r>    0.6678    0.0000 </r>
       <r>    1.4681    0.0000 </r>
       <r>    1.8612    0.0000 </r>
      </set>
      <set comment="kpoint 30">
       <r>  -21.9692    1.0000 </r>
       <r>  -17.6581    1.0000 </r>
       <r>  -14.7713    1.0000 </r>
       <r>  -10.0789    1.0000 </r>
       <r>   -9.5540    1.0000 </r>
       <r>   -6.4593    1.0000 </r>
       <r>   -6.1214    1.0000 </r>
       <r>   -5.4227    1.0000 </r>
       <r>   -0.4796    0.0000 </r>
       <r>    0.7380    0.0000 </r>
       <r>    1.5390    0.0000 </r>
       <r>    1.9330    0.0000 </r>
      </set>
      <set comment="kpoint 31">
[...]
       <r>   -9.0461    1.0000 </r>
       <r>   -5.6509    1.0000 </r>
       <r>   -5.6509    1.0000 </r>
       <r>   -0.5442    0.0000 </r>
       <r>   -0.5442    0.0000 </r>
       <r>    4.8167    0.0000 </r>
       <r>    4.8167    0.0000 </r>
      </set>
      <set comment="kpoint 209">
       <r>  -18.8395    1.0000 </r>
       <r>  -17.1324    1.0000 </r>
       <r>  -13.8970    1.0000 </r>
       <r>  -12.3331    1.0000 </r>
       <r>  -12.3276    1.0000 </r>
       <r>  -10.8566    1.0000 </r>
       <r>   -6.4836    1.0000 </r>
       <r>   -4.6663    1.0000 </r>
       <r>   -0.9948    0.0000 </r>
       <r>    1.0811    0.0000 </r>
       <r>    5.0737    0.0000 </r>
       <r>    5.8628    0.0000 </r>
      </set>
      <set comment="kpoint 210">
       <r>  -18.8297    1.0000 </r>
       <r>  -17.1249    1.0000 </r>
       <r>  -13.9883    1.0000 </r>
       <r>  -12.4135    1.0000 </r>
       <r>  -12.2334    1.0000 </r>
       <r>  -10.7724    1.0000 </r>
       <r>   -6.4748    1.0000 </r>
       <r>   -4.6685    1.0000 </r>
       <r>   -1.0057    0.0000 </r>
       <r>    1.0552    0.0000 </r>
       <r>    5.0874    0.0000 </r>
       <r>    5.8790    0.0000 </r>
      </set>
      <set comment="kpoint 211">
       <r>  -18.8005    1.0000 </r>
       <r>  -17.1027    1.0000 </r>
       <r>  -14.2118    1.0000 </r>
       <r>  -12.6275    1.0000 </r>
       <r>  -11.9848    1.0000 </r>
       <r>  -10.5640    1.0000 </r>
       <r>   -6.4484    1.0000 </r>
       <r>   -4.6756    1.0000 </r>
       <r>   -1.0365    0.0000 </r>
       <r>    0.9794    0.0000 </r>
       <r>    5.1285    0.0000 </r>
       <r>    5.9272    0.0000 </r>
      </set>
      <set comment="kpoint 212">
       <r>  -18.7519    1.0000 </r>
       <r>  -17.0673    1.0000 </r>
       <r>  -14.4934    1.0000 </r>
       <r>  -12.9042    1.0000 </r>
       <r>  -11.6617    1.0000 </r>
       <r>  -10.2991    1.0000 </r>
       <r>   -6.4048    1.0000 </r>
       <r>   -4.6892    1.0000 </r>
       <r>   -1.0820    0.0000 </r>
       <r>    0.8592    0.0000 </r>
       <r>    5.1966    0.0000 </r>
       <r>    6.0063    0.0000 </r>
      </set>
      <set comment="kpoint 213">
       <r>  -18.6841    1.0000 </r>
       <r>  -17.0212    1.0000 </r>
       <r>  -14.7900    1.0000 </r>
       <r>  -13.2060    1.0000 </r>
       <r>  -11.3066    1.0000 </r>
       <r>  -10.0186    1.0000 </r>
       <r>   -6.3445    1.0000 </r>
       <r>   -4.7115    1.0000 </r>
       <r>   -1.1341    0.0000 </r>
       <r>    0.7024    0.0000 </r>
       <r>    5.2909    0.0000 </r>
       <r>    6.1150    0.0000 </r>
      </set>
      <set comment="kpoint 214">
       <r>  -18.5973    1.0000 </r>
       <r>  -16.9696    1.0000 </r>
       <r>  -15.0782    1.0000 </r>
       <r>  -13.5148    1.0000 </r>
       <r>  -10.9414    1.0000 </r>
       <r>   -9.7454    1.0000 </r>
       <r>   -6.2683    1.0000 </r>
       <r>   -4.7456    1.0000 </r>
       <r>   -1.1834    0.0000 </r>
       <r>    0.5181    0.0000 </r>
       <r>    5.4078    0.0000 </r>
       <r>    6.1825    0.0000 </r>
      </set>
      <set comment="kpoint 215">
       <r>  -18.4920    1.0000 </r>
       <r>  -16.9221    1.0000 </r>
       <r>  -15.3394    1.0000 </r>
       <r>  -13.8211    1.0000 </r>
       <r>  -10.5794    1.0000 </r>
       <r>   -9.4946    1.0000 </r>
       <r>   -6.1771    1.0000 </r>
       <r>   -4.7942    1.0000 </r>
       <r>   -1.2205    0.0000 </r>
       <r>    0.3154    0.0000 </r>
       <r>    5.5118    0.0000 </r>
       <r>    5.7837    0.0000 </r>
      </set>
      <set comment="kpoint 216">
       <r>  -18.3686    1.0000 </r>
       <r>  -16.8960    1.0000 </r>
       <r>  -15.5514    1.0000 </r>
       <r>  -14.1194    1.0000 </r>
       <r>  -10.2312    1.0000 </r>
       <r>   -9.2786    1.0000 </r>
       <r>   -6.0724    1.0000 </r>
       <r>   -4.8596    1.0000 </r>
       <r>   -1.2367    0.0000 </r>
       <r>    0.1027    0.0000 </r>
       <r>    5.3030    0.0000 </r>
       <r>    5.7887    0.0000 </r>
      </set>
      <set comment="kpoint 217">
       <r>  -18.2278    1.0000 </r>
       <r>  -16.9168    1.0000 </r>
       <r>  -15.6858    1.0000 </r>
       <r>  -14.4057    1.0000 </r>
       <r>   -9.9064    1.0000 </r>
       <r>   -9.1077    1.0000 </r>
       <r>   -5.9558    1.0000 </r>
       <r>   -4.9427    1.0000 </r>
       <r>   -1.2257    0.0000 </r>
       <r>   -0.1121    0.0000 </r>
       <r>    5.0102    0.0000 </r>
       <r>    5.8307    0.0000 </r>
      </set>
      <set comment="kpoint 218">
       <r>  -18.0708    1.0000 </r>
       <r>  -17.0040    1.0000 </r>
       <r>  -15.7214    1.0000 </r>
       <r>  -14.6769    1.0000 </r>
       <r>   -9.6142    1.0000 </r>
       <r>   -8.9913    1.0000 </r>
       <r>   -5.8295    1.0000 </r>
       <r>   -5.0431    1.0000 </r>
       <r>   -1.1834    0.0000 </r>
       <r>   -0.3222    0.0000 </r>
       <r>    4.7914    0.0000 </r>
       <r>    5.4313    0.0000 </r>
      </set>
      <set comment="kpoint 219">
       <r>  -17.8990    1.0000 </r>
       <r>  -17.1503    1.0000 </r>
       <r>  -15.6644    1.0000 </r>
       <r>  -14.9301    1.0000 </r>
       <r>   -9.3640    1.0000 </r>
       <r>   -8.9362    1.0000 </r>
       <r>   -5.6960    1.0000 </r>
       <r>   -5.1585    1.0000 </r>
       <r>   -1.1085    0.0000 </r>
       <r>   -0.5214    0.0000 </r>
       <r>    4.6627    0.0000 </r>
       <r>    5.1024    0.0000 </r>
      </set>
      <set comment="kpoint 220">
       <r>  -17.7152    1.0000 </r>
       <r>  -17.3306    1.0000 </r>
       <r>  -15.5394    1.0000 </r>
       <r>  -15.1619    1.0000 </r>
       <r>   -9.1646    1.0000 </r>
       <r>   -8.9467    1.0000 </r>
       <r>   -5.5584    1.0000 </r>
       <r>   -5.2856    1.0000 </r>
       <r>   -1.0018    0.0000 </r>
       <r>   -0.7043    0.0000 </r>
       <r>    4.6299    0.0000 </r>
       <r>    4.8540    0.0000 </r>
      </set>
      <set comment="kpoint 221">
       <r>  -17.5232    1.0000 </r>
       <r>  -17.5232    1.0000 </r>
       <r>  -15.3675    1.0000 </r>
       <r>  -15.3675    1.0000 </r>
       <r>   -9.0237    1.0000 </r>
       <r>   -9.0237    1.0000 </r>
       <r>   -5.4203    1.0000 </r>
       <r>   -5.4203    1.0000 </r>
       <r>   -0.8659    0.0000 </r>
       <r>   -0.8659    0.0000 </r>
       <r>    4.6945    0.0000 </r>
       <r>    4.6945    0.0000 </r>
      </set>
      <set comment="kpoint 222">
       <r>  -18.4354    1.0000 </r>
       <r>  -17.5781    1.0000 </r>
       <r>  -13.5336    1.0000 </r>
       <r>  -12.7481    1.0000 </r>
       <r>  -11.9982    1.0000 </r>
       <r>  -11.2553    1.0000 </r>
       <r>   -6.0422    1.0000 </r>
       <r>   -5.1287    1.0000 </r>
       <r>   -0.5079    0.0000 </r>
       <r>    0.5320    0.0000 </r>
       <r>    5.6485    0.0000 </r>
       <r>    6.4052    0.0000 </r>
      </set>
      <set comment="kpoint 223">
       <r>  -18.4259    1.0000 </r>
       <r>  -17.5694    1.0000 </r>
       <r>  -13.6254    1.0000 </r>
       <r>  -12.8367    1.0000 </r>
       <r>  -11.9007    1.0000 </r>
       <r>  -11.1659    1.0000 </r>
       <r>   -6.0347    1.0000 </r>
       <r>   -5.1261    1.0000 </r>
       <r>   -0.5249    0.0000 </r>
       <r>    0.5081    0.0000 </r>
       <r>    5.6621    0.0000 </r>
       <r>    6.4223    0.0000 </r>
      </set>
      <set comment="kpoint 224">
       <r>  -18.3972    1.0000 </r>
       <r>  -17.5437    1.0000 </r>
       <r>  -13.8510    1.0000 </r>
       <r>  -13.0562    1.0000 </r>
       <r>  -11.6586    1.0000 </r>
       <r>  -10.9445    1.0000 </r>
       <r>   -6.0123    1.0000 </r>
       <r>   -5.1185    1.0000 </r>
       <r>   -0.5743    0.0000 </r>
       <r>    0.4383    0.0000 </r>
       <r>    5.7030    0.0000 </r>
       <r>    6.4728    0.0000 </r>
      </set>
      <set comment="kpoint 225">
       <r>  -18.3497    1.0000 </r>
       <r>  -17.5013    1.0000 </r>
       <r>  -14.1373    1.0000 </r>
       <r>  -13.3381    1.0000 </r>
       <r>  -11.3461    1.0000 </r>
       <r>  -10.6614    1.0000 </r>
       <r>   -5.9754    1.0000 </r>
       <r>   -5.1071    1.0000 </r>
       <r>   -0.6505    0.0000 </r>
       <r>    0.3280    0.0000 </r>
       <r>    5.7706    0.0000 </r>
       <r>    6.5554    0.0000 </r>
      </set>
      <set comment="kpoint 226">
       <r>  -18.2836    1.0000 </r>
       <r>  -17.4433    1.0000 </r>
       <r>  -14.4434    1.0000 </r>
       <r>  -13.6438    1.0000 </r>
       <r>  -11.0054    1.0000 </r>
       <r>  -10.3582    1.0000 </r>
       <r>   -5.9248    1.0000 </r>
       <r>   -5.0936    1.0000 </r>
       <r>   -0.7457    0.0000 </r>
       <r>    0.1849    0.0000 </r>
       <r>    5.8633    0.0000 </r>
       <r>    6.6683    0.0000 </r>
      </set>
      <set comment="kpoint 227">
       <r>  -18.1992    1.0000 </r>
       <r>  -17.3716    1.0000 </r>
       <r>  -14.7494    1.0000 </r>
       <r>  -13.9549    1.0000 </r>
       <r>  -10.6586    1.0000 </r>
       <r>  -10.0575    1.0000 </r>
       <r>   -5.8618    1.0000 </r>
       <r>   -5.0808    1.0000 </r>
       <r>   -0.8500    0.0000 </r>
       <r>    0.0183    0.0000 </r>
       <r>    5.9710    0.0000 </r>
       <r>    6.4530    0.0000 </r>
      </set>
      <set comment="kpoint 228">
       <r>  -18.0972    1.0000 </r>
       <r>  -17.2894    1.0000 </r>
       <r>  -15.0432    1.0000 </r>
       <r>  -14.2619    1.0000 </r>
       <r>  -10.3195    1.0000 </r>
       <r>   -9.7741    1.0000 </r>
       <r>   -5.7878    1.0000 </r>
       <r>   -5.0717    1.0000 </r>
       <r>   -0.9533    0.0000 </r>
       <r>   -0.1625    0.0000 </r>
       <r>    5.8921    0.0000 </r>
       <r>    6.2035    0.0000 </r>
      </set>
      <set comment="kpoint 229">
       <r>  -17.9786    1.0000 </r>
       <r>  -17.2022    1.0000 </r>
       <r>  -15.3143    1.0000 </r>
       <r>  -14.5588    1.0000 </r>
       <r>   -9.9991    1.0000 </r>
       <r>   -9.5198    1.0000 </r>
       <r>   -5.7050    1.0000 </r>
       <r>   -5.0698    1.0000 </r>
       <r>   -1.0452    0.0000 </r>
       <r>   -0.3483    0.0000 </r>
       <r>    5.5041    0.0000 </r>
       <r>    5.9960    0.0000 </r>
      </set>
      <set comment="kpoint 230">
       <r>  -17.8447    1.0000 </r>
       <r>  -17.1207    1.0000 </r>
       <r>  -15.5492    1.0000 </r>
       <r>  -14.8411    1.0000 </r>
       <r>   -9.7073    1.0000 </r>
       <r>   -9.3052    1.0000 </r>
       <r>   -5.6158    1.0000 </r>
       <r>   -5.0788    1.0000 </r>
       <r>   -1.1167    0.0000 </r>
       <r>   -0.5306    0.0000 </r>
       <r>    5.1571    0.0000 </r>
       <r>    5.5689    0.0000 </r>
      </set>
      <set comment="kpoint 231">
       <r>  -17.6978    1.0000 </r>
       <r>  -17.0634    1.0000 </r>
       <r>  -15.7276    1.0000 </r>
       <r>  -15.1046    1.0000 </r>
       <r>   -9.4538    1.0000 </r>
       <r>   -9.1399    1.0000 </r>
       <r>   -5.5232    1.0000 </r>
       <r>   -5.1014    1.0000 </r>
       <r>   -1.1599    0.0000 </r>
       <r>   -0.7017    0.0000 </r>
       <r>    4.8860    0.0000 </r>
       <r>    5.2077    0.0000 </r>
      </set>
      <set comment="kpoint 232">
       <r>  -17.5419    1.0000 </r>
       <r>  -17.0566    1.0000 </r>
       <r>  -15.8221    1.0000 </r>
       <r>  -15.3442    1.0000 </r>
       <r>   -9.2478    1.0000 </r>
       <r>   -9.0321    1.0000 </r>
       <r>   -5.4308    1.0000 </r>
       <r>   -5.1396    1.0000 </r>
       <r>   -1.1696    0.0000 </r>
       <r>   -0.8543    0.0000 </r>
       <r>    4.7021    0.0000 </r>
       <r>    4.9234    0.0000 </r>
      </set>
      <set comment="kpoint 233">
       <r>  -17.3836    1.0000 </r>
       <r>  -17.1175    1.0000 </r>
       <r>  -15.8148    1.0000 </r>
       <r>  -15.5523    1.0000 </r>
       <r>   -9.0976    1.0000 </r>
       <r>   -8.9877    1.0000 </r>
       <r>   -5.3425    1.0000 </r>
       <r>   -5.1937    1.0000 </r>
       <r>   -1.1429    0.0000 </r>
       <r>   -0.9821    0.0000 </r>
       <r>    4.6124    0.0000 </r>
       <r>    4.7253    0.0000 </r>
      </set>
      <set comment="kpoint 234">
       <r>  -17.2352    1.0000 </r>
       <r>  -17.2352    1.0000 </r>
       <r>  -15.7162    1.0000 </r>
       <r>  -15.7162    1.0000 </r>
       <r>   -9.0097    1.0000 </r>
       <r>   -9.0097    1.0000 </r>
       <r>   -5.2622    1.0000 </r>
       <r>   -5.2622    1.0000 </r>
       <r>   -1.0796    0.0000 </r>
       <r>   -1.0796    0.0000 </r>
       <r>    4.6203    0.0000 </r>
       <r>    4.6203    0.0000 </r>
      </set>
      <set comment="kpoint 235">
       <r>  -18.0139    1.0000 </r>
       <r>  -18.0139    1.0000 </r>
       <r>  -13.1504    1.0000 </r>
       <r>  -13.1504    1.0000 </r>
       <r>  -11.6372    1.0000 </r>
       <r>  -11.6372    1.0000 </r>
       <r>   -5.5892    1.0000 </r>
       <r>   -5.5892    1.0000 </r>
       <r>    0.0017    0.0000 </r>
       <r>    0.0017    0.0000 </r>
       <r>    6.2526    0.0000 </r>
       <r>    6.2526    0.0000 </r>
      </set>
      <set comment="kpoint 236">
       <r>  -18.0047    1.0000 </r>
       <r>  -18.0047    1.0000 </r>
       <r>  -13.2411    1.0000 </r>
       <r>  -13.2411    1.0000 </r>
       <r>  -11.5433    1.0000 </r>
       <r>  -11.5433    1.0000 </r>
       <r>   -5.5835    1.0000 </r>
       <r>   -5.5835    1.0000 </r>
       <r>   -0.0195    0.0000 </r>
       <r>   -0.0195    0.0000 </r>
       <r>    6.2662    0.0000 </r>
       <r>    6.2662    0.0000 </r>
      </set>
      <set comment="kpoint 237">
       <r>  -17.9771    1.0000 </r>
       <r>  -17.9771    1.0000 </r>
       <r>  -13.4647    1.0000 </r>
       <r>  -13.4647    1.0000 </r>
       <r>  -11.3105    1.0000 </r>
       <r>  -11.3105    1.0000 </r>
       <r>   -5.5669    1.0000 </r>
       <r>   -5.5669    1.0000 </r>
       <r>   -0.0809    0.0000 </r>
       <r>   -0.0809    0.0000 </r>
       <r>    6.3067    0.0000 </r>
       <r>    6.3067    0.0000 </r>
      </set>
      <set comment="kpoint 238">
       <r>  -17.9314    1.0000 </r>
       <r>  -17.9314    1.0000 </r>
       <r>  -13.7502    1.0000 </r>
       <r>  -13.7502    1.0000 </r>
       <r>  -11.0115    1.0000 </r>
       <r>  -11.0115    1.0000 </r>
       <r>   -5.5400    1.0000 </r>
       <r>   -5.5400    1.0000 </r>
       <r>   -0.1774    0.0000 </r>
       <r>   -0.1774    0.0000 </r>
       <r>    6.3735    0.0000 </r>
       <r>    6.3735    0.0000 </r>
      </set>
      <set comment="kpoint 239">
       <r>  -17.8681    1.0000 </r>
       <r>  -17.8681    1.0000 </r>
       <r>  -14.0579    1.0000 </r>
       <r>  -14.0579    1.0000 </r>
       <r>  -10.6882    1.0000 </r>
       <r>  -10.6882    1.0000 </r>
       <r>   -5.5041    1.0000 </r>
       <r>   -5.5041    1.0000 </r>
       <r>   -0.3010    0.0000 </r>
       <r>   -0.3010    0.0000 </r>
       <r>    6.4631    0.0000 </r>
       <r>    6.4631    0.0000 </r>
      </set>
      <set comment="kpoint 240">
       <r>  -17.7879    1.0000 </r>
       <r>  -17.7879    1.0000 </r>
       <r>  -14.3690    1.0000 </r>
       <r>  -14.3690    1.0000 </r>
       <r>  -10.3630    1.0000 </r>
       <r>  -10.3630    1.0000 </r>
       <r>   -5.4608    1.0000 </r>
       <r>   -5.4608    1.0000 </r>
       <r>   -0.4424    0.0000 </r>
       <r>   -0.4424    0.0000 </r>
       <r>    6.5312    0.0000 </r>
       <r>    6.5316    0.0000 </r>
      </set>
      <set comment="kpoint 241">
       <r>  -17.6922    1.0000 </r>
       <r>  -17.6922    1.0000 </r>
       <r>  -14.6733    1.0000 </r>
       <r>  -14.6733    1.0000 </r>
       <r>  -10.0501    1.0000 </r>
       <r>  -10.0501    1.0000 </r>
       <r>   -5.4127    1.0000 </r>
       <r>   -5.4127    1.0000 </r>
       <r>   -0.5916    0.0000 </r>
       <r>   -0.5916    0.0000 </r>
       <r>    6.1789    0.0000 </r>
       <r>    6.1789    0.0000 </r>
      </set>
      <set comment="kpoint 242">
       <r>  -17.5829    1.0000 </r>
       <r>  -17.5829    1.0000 </r>
       <r>  -14.9639    1.0000 </r>
       <r>  -14.9639    1.0000 </r>
       <r>   -9.7609    1.0000 </r>
       <r>   -9.7609    1.0000 </r>
       <r>   -5.3625    1.0000 </r>
       <r>   -5.3625    1.0000 </r>
       <r>   -0.7389    0.0000 </r>
       <r>   -0.7389    0.0000 </r>
       <r>    5.7338    0.0000 </r>
       <r>    5.7338    0.0000 </r>
      </set>
      <set comment="kpoint 243">
       <r>  -17.4637    1.0000 </r>
       <r>  -17.4637    1.0000 </r>
       <r>  -15.2342    1.0000 </r>
       <r>  -15.2342    1.0000 </r>
       <r>   -9.5059    1.0000 </r>
       <r>   -9.5059    1.0000 </r>
       <r>   -5.3137    1.0000 </r>
       <r>   -5.3137    1.0000 </r>
       <r>   -0.8750    0.0000 </r>
       <r>   -0.8750    0.0000 </r>
       <r>    5.3436    0.0000 </r>
       <r>    5.3436    0.0000 </r>
      </set>
      <set comment="kpoint 244">
       <r>  -17.3407    1.0000 </r>
       <r>  -17.3407    1.0000 </r>
       <r>  -15.4762    1.0000 </r>
       <r>  -15.4762    1.0000 </r>
       <r>   -9.2948    1.0000 </r>
       <r>   -9.2948    1.0000 </r>
       <r>   -5.2701    1.0000 </r>
       <r>   -5.2701    1.0000 </r>
       <r>   -0.9912    0.0000 </r>
       <r>   -0.9912    0.0000 </r>
       <r>    5.0252    0.0000 </r>
       <r>    5.0252    0.0000 </r>
      </set>
      <set comment="kpoint 245">
       <r>  -17.2253    1.0000 </r>
       <r>  -17.2253    1.0000 </r>
       <r>  -15.6774    1.0000 </r>
       <r>  -15.6774    1.0000 </r>
       <r>   -9.1365    1.0000 </r>
       <r>   -9.1365    1.0000 </r>
       <r>   -5.2355    1.0000 </r>
       <r>   -5.2355    1.0000 </r>
       <r>   -1.0802    0.0000 </r>
       <r>   -1.0802    0.0000 </r>
       <r>    4.7894    0.0000 </r>
       <r>    4.7894    0.0000 </r>
      </set>
      <set comment="kpoint 246">
       <r>  -17.1373    1.0000 </r>
       <r>  -17.1373    1.0000 </r>
       <r>  -15.8171    1.0000 </r>
       <r>  -15.8171    1.0000 </r>
       <r>   -9.0383    1.0000 </r>
       <r>   -9.0383    1.0000 </r>
       <r>   -5.2131    1.0000 </r>
       <r>   -5.2131    1.0000 </r>
       <r>   -1.1361    0.0000 </r>
       <r>   -1.1361    0.0000 </r>
       <r>    4.6443    0.0000 </r>
       <r>    4.6443    0.0000 </r>
      </set>
      <set comment="kpoint 247">
       <r>  -17.1032    1.0000 </r>
       <r>  -17.1032    1.0000 </r>
       <r>  -15.8684    1.0000 </r>
       <r>  -15.8684    1.0000 </r>
       <r>   -9.0049    1.0000 </r>
       <r>   -9.0049    1.0000 </r>
       <r>   -5.2054    1.0000 </r>
       <r>   -5.2054    1.0000 </r>
       <r>   -1.1552    0.0000 </r>
       <r>   -1.1552    0.0000 </r>
       <r>    4.5954    0.0000 </r>
       <r>    4.5954    0.0000 </r>
      </set>
     </set>
    </set>
   </array>
  </eigenvalues>
  <separator name="orbital magnetization" >
   <v name="MAGDIPOLOUT">      0.00000000      0.00000000      0.00000000</v>
  </separator>
 </calculation>
 <structure name="finalpos" >
  <crystal>
   <varray name="basis" >
    <v>       4.25846655       0.00000000       0.00000000 </v>
    <v>       0.00000000       2.51701783       0.00000000 </v>
    <v>       0.00000000       0.00000000      19.67021705 </v>
   </varray>
   <i name="volume">    210.83790140 </i>
   <varray name="rec_basis" >
    <v>       0.23482631       0.00000000       0.00000000 </v>
    <v>       0.00000000       0.39729556       0.00000000 </v>
    <v>       0.00000000       0.00000000       0.05083828 </v>
   </varray>
  </crystal>
  <varray name="positions" >
   <v>       0.00052170      -0.00000000       0.00000000 </v>
   <v>       0.16614497       0.50000000      -0.00000000 </v>
   <v>       0.50052170       0.50000000       0.00000000 </v>
   <v>       0.66614497       0.00000000      -0.00000000 </v>
  </varray>
 </structure>
</modeling>
