gr                                      
           1
     4.258467    0.000000    0.000000
     0.000000    2.517018    0.000000
     0.000000    0.000000   19.670217
   C 
   4
Direct configuration=     1
   0.00053179  0.00000000  0.00000000
   0.16613488  0.50000000  0.00000000
   0.50053179  0.50000000  0.00000000
   0.66613488  0.00000000  0.00000000
Direct configuration=     2
   0.00048094 -0.00000000 -0.00000000
   0.16618572  0.50000000  0.00000000
   0.50048094  0.50000000 -0.00000000
   0.66618572  0.00000000  0.00000000
Direct configuration=     3
   0.00052169 -0.00000000 -0.00000000
   0.16614497  0.50000000  0.00000000
   0.50052169  0.50000000 -0.00000000
   0.66614497  0.00000000  0.00000000
Direct configuration=     4
   0.00052170 -0.00000000  0.00000000
   0.16614497  0.50000000 -0.00000000
   0.50052170  0.50000000  0.00000000
   0.66614497  0.00000000 -0.00000000
