    4    4  400    1
  0.5270948E+02  0.4258504E-09  0.2516894E-09  0.1967101E-08  0.5000000E-15
  1.000000000000000E-004
  CAR 
 gr                                      
     16    247     12
 
  0.0000000E+00  0.0000000E+00  0.0000000E+00  0.1157407E-02
    1      -22.115093
    2      -16.765819
    3      -15.884774
    4      -10.251950
    5       -9.417079
    6       -5.955871
    7       -5.747234
    8       -4.944763
    9       -1.127282
   10        0.540545
   11        1.339272
   12        1.730546
 
  0.4166667E-01  0.0000000E+00  0.0000000E+00  0.2314815E-02
    1      -22.104743
    2      -16.955287
    3      -15.680241
    4      -10.239652
    5       -9.406710
    6       -5.979375
    7       -5.787927
    8       -5.014164
    9       -1.042837
   10        0.554573
   11        1.353448
   12        1.744901
 
  0.8333333E-01  0.0000000E+00  0.0000000E+00  0.2314815E-02
    1      -22.073697
    2      -17.316093
    3      -15.274329
    4      -10.202775
    5       -9.375652
    6       -6.048540
    7       -5.908495
    8       -5.205664
    9       -0.806383
   10        0.596653
   11        1.395975
   12        1.787965
 
  0.1250000E+00  0.0000000E+00  0.0000000E+00  0.2314815E-02
    1      -22.021975
    2      -17.705963
    3      -14.809592
    4      -10.141377
    5       -9.324057
    6       -6.159566
    7       -6.104630
    8       -5.482919
    9       -0.454793
   10        0.666784
   11        1.466840
   12        1.859740
 
  0.1666667E+00  0.0000000E+00  0.0000000E+00  0.2314815E-02
    1      -21.949611
    2      -18.093710
    3      -14.317686
    4      -10.055554
    5       -9.252183
    6       -6.369830
    7       -6.306824
    8       -5.811097
    9       -0.023791
   10        0.764956
   11        1.566024
   12        1.960223
 
  0.2083333E+00  0.0000000E+00  0.0000000E+00  0.2314815E-02
    1      -21.856655
    2      -18.470469
    3      -13.808160
    4       -9.945448
    5       -9.160401
    6       -6.696205
    7       -6.483646
    8       -6.165113
    9        0.460279
   10        0.891158
   11        1.693495
   12        2.089414
 
  0.2500000E+00  0.0000000E+00  0.0000000E+00  0.2314815E-02
    1      -21.743171
    2      -18.832718
    3      -13.285431
    4       -9.811245
    5       -9.049211
    6       -7.075249
    7       -6.683056
    8       -6.528676
    9        0.979481
   10        1.045367
   11        1.849210
   12        2.247310
 
  0.2916667E+00  0.0000000E+00  0.0000000E+00  0.2314815E-02
    1      -21.609240
    2      -19.178687
    3      -12.752413
    4       -9.653189
    5       -8.919255
    6       -7.498480
    7       -6.898330
    8       -6.891400
    9        1.227551
   10        1.521358
   11        2.033103
   12        2.433906
 
  0.3333333E+00  0.0000000E+00  0.0000000E+00  0.2314815E-02
    1      -21.454957
    2      -19.507325
    3      -12.211573
    4       -9.471587
    5       -8.771342
    6       -7.957859
    7       -7.246541
    8       -7.123328
    9        1.437666
   10        2.076561
   11        2.245072
   12        2.649193
 
  0.3750000E+00  0.0000000E+00  0.0000000E+00  0.2314815E-02
    1      -21.280438
    2      -19.817929
    3      -11.665342
    4       -9.266823
    5       -8.606472
    6       -8.446043
    7       -7.589585
    8       -7.352654
    9        1.675651
   10        2.484949
   11        2.636995
   12        2.893157
 
  0.4166667E+00  0.0000000E+00  0.0000000E+00  0.2314815E-02
    1      -21.085816
    2      -20.109985
    3      -11.116317
    4       -9.039376
    5       -8.956479
    6       -8.425878
    7       -7.917402
    8       -7.581680
    9        1.941421
   10        2.752395
   11        3.165766
   12        3.191970
 
  0.4583333E+00  0.0000000E+00  0.0000000E+00  0.2314815E-02
    1      -20.871252
    2      -20.383093
    3      -10.567386
    4       -9.483411
    5       -8.789843
    6       -8.231063
    7       -8.227752
    8       -7.806500
    9        2.234850
   10        2.903686
   11        3.046528
   12        3.466952
 
  0.5000000E+00  0.0000000E+00  0.0000000E+00  0.1157407E-02
    1      -20.636937
    2      -20.636937
    3      -10.021829
    4      -10.021829
    5       -8.518981
    6       -8.518981
    7       -8.023861
    8       -8.023861
    9        2.555735
   10        2.555735
   11        3.363472
   12        3.363472
 
  0.0000000E+00  0.2777778E-01  0.0000000E+00  0.2314815E-02
    1      -22.101956
    2      -16.754493
    3      -15.874153
    4      -10.236340
    5       -9.475914
    6       -6.010037
    7       -5.779066
    8       -4.928844
    9       -1.133023
   10        0.558322
   11        1.357302
   12        1.748800
 
  0.4166667E-01  0.2777778E-01  0.0000000E+00  0.4629630E-02
    1      -22.091607
    2      -16.943843
    3      -15.669798
    4      -10.224046
    5       -9.465517
    6       -6.036850
    7       -5.815728
    8       -4.998415
    9       -1.048538
   10        0.572351
   11        1.371478
   12        1.763155
 
  0.8333333E-01  0.2777778E-01  0.0000000E+00  0.4629630E-02
    1      -22.060565
    2      -17.304436
    3      -15.264280
    4      -10.187182
    5       -9.434374
    6       -6.117717
    7       -5.922560
    8       -5.190299
    9       -0.812088
   10        0.614435
   11        1.414001
   12        1.806221
 
  0.1250000E+00  0.2777778E-01  0.0000000E+00  0.4629630E-02
    1      -22.008850
    2      -17.694096
    3      -14.800061
    4      -10.125806
    5       -9.382631
    6       -6.257103
    7       -6.087332
    8       -5.467935
    9       -0.460765
   10        0.684572
   11        1.484861
   12        1.877996
 
  0.1666667E+00  0.2777778E-01  0.0000000E+00  0.4629630E-02
    1      -21.936497
    2      -18.081657
    3      -14.308789
    4      -10.040015
    5       -9.310538
    6       -6.469980
    7       -6.283369
    8       -5.796383
    9       -0.030404
   10        0.782753
   11        1.584037
   12        1.978481
 
  0.2083333E+00  0.2777778E-01  0.0000000E+00  0.4629630E-02
    1      -21.843555
    2      -18.458253
    3      -13.800032
    4       -9.929949
    5       -9.218452
    6       -6.764059
    7       -6.488794
    8       -6.150548
    9        0.452643
   10        0.908966
   11        1.711499
   12        2.107674
 
  0.2500000E+00  0.2777778E-01  0.0000000E+00  0.4629630E-02
    1      -21.730089
    2      -18.820361
    3      -13.278234
    4       -9.795795
    5       -9.106855
    6       -7.124092
    7       -6.703669
    8       -6.514161
    9        0.970469
   10        1.063187
   11        1.867203
   12        2.265573
 
  0.2916667E+00  0.2777778E-01  0.0000000E+00  0.4629630E-02
    1      -21.596179
    2      -19.166208
    3      -12.746342
    4       -9.637798
    5       -8.976366
    6       -7.534471
    7       -6.928568
    8       -6.876869
    9        1.245385
   10        1.510663
   11        2.051084
   12        2.452173
 
  0.3333333E+00  0.2777778E-01  0.0000000E+00  0.4629630E-02
    1      -21.441922
    2      -19.494742
    3      -12.206869
    4       -9.456263
    5       -8.827762
    6       -7.984296
    7       -7.231952
    8       -7.160290
    9        1.455515
   10        2.063946
   11        2.263044
   12        2.667466
 
  0.3750000E+00  0.2777778E-01  0.0000000E+00  0.4629630E-02
    1      -21.267433
    2      -19.805256
    3      -11.662305
    4       -9.251575
    5       -8.662006
    6       -8.465049
    7       -7.574912
    8       -7.394614
    9        1.693518
   10        2.502914
   11        2.622367
   12        2.911437
 
  0.4166667E+00  0.2777778E-01  0.0000000E+00  0.4629630E-02
    1      -21.072847
    2      -20.097234
    3      -11.115317
    4       -9.024212
    5       -8.969589
    6       -8.480277
    7       -7.902632
    8       -7.627472
    9        1.959310
   10        2.770367
   11        3.175946
   12        3.184059
 
  0.4583333E+00  0.2777778E-01  0.0000000E+00  0.4629630E-02
    1      -20.858326
    2      -20.370275
    3      -10.568886
    4       -9.491798
    5       -8.774772
    6       -8.284017
    7       -8.212880
    8       -7.855277
    9        2.252770
   10        2.921769
   11        3.064535
   12        3.485270
 
  0.5000000E+00  0.2777778E-01  0.0000000E+00  0.2314815E-02
    1      -20.624061
    2      -20.624061
    3      -10.026408
    4      -10.026408
    5       -8.504008
    6       -8.504008
    7       -8.074977
    8       -8.074977
    9        2.573708
   10        2.573708
   11        3.381504
   12        3.381504
 
  0.0000000E+00  0.5555556E-01  0.0000000E+00  0.2314815E-02
    1      -22.062556
    2      -16.720521
    3      -15.842486
    4      -10.189540
    5       -9.647600
    6       -6.168304
    7       -5.873587
    8       -4.881105
    9       -1.151044
   10        0.611661
   11        1.411386
   12        1.803564
 
  0.4166667E-01  0.5555556E-01  0.0000000E+00  0.4629630E-02
    1      -22.052211
    2      -16.909532
    3      -15.638655
    4      -10.177260
    5       -9.637113
    6       -6.201635
    7       -5.901631
    8       -4.951206
    9       -1.066423
   10        0.625693
   11        1.425558
   12        1.817920
 
  0.8333333E-01  0.5555556E-01  0.0000000E+00  0.4629630E-02
    1      -22.021181
    2      -17.269493
    3      -15.234326
    4      -10.140437
    5       -9.605695
    6       -6.299844
    7       -5.985184
    8       -5.144272
    9       -0.829972
   10        0.667786
   11        1.468071
   12        1.860987
 
  0.1250000E+00  0.5555556E-01  0.0000000E+00  0.4629630E-02
    1      -21.969488
    2      -17.658527
    3      -14.771690
    4      -10.079129
    5       -9.553475
    6       -6.458991
    7       -6.121379
    8       -5.423077
    9       -0.479455
   10        0.737938
   11        1.538914
   12        1.932765
 
  0.1666667E+00  0.5555556E-01  0.0000000E+00  0.4629630E-02
    1      -21.897167
    2      -18.045527
    3      -14.282375
    4       -9.993432
    5       -9.480672
    6       -6.675635
    7       -6.303184
    8       -5.752347
    9       -0.051041
   10        0.836141
   11        1.638067
   12        2.033255
 
  0.2083333E+00  0.5555556E-01  0.0000000E+00  0.4629630E-02
    1      -21.804268
    2      -18.421631
    3      -13.775998
    4       -9.883489
    5       -9.387601
    6       -6.948019
    7       -6.519346
    8       -6.106957
    9        0.428890
   10        0.962381
   11        1.765500
   12        2.162454
 
  0.2500000E+00  0.5555556E-01  0.0000000E+00  0.4629630E-02
    1      -21.690854
    2      -18.783314
    3      -13.257090
    4       -9.749486
    5       -9.274683
    6       -7.274552
    7       -6.757142
    8       -6.470721
    9        0.942528
   10        1.116634
   11        1.921169
   12        2.320361
 
  0.2916667E+00  0.5555556E-01  0.0000000E+00  0.4629630E-02
    1      -21.557009
    2      -19.128794
    3      -12.728715
    4       -9.591666
    5       -9.142456
    6       -7.651395
    7       -7.005907
    8       -6.833374
    9        1.298868
   10        1.477601
   11        2.105013
   12        2.506972
 
  0.3333333E+00  0.5555556E-01  0.0000000E+00  0.4629630E-02
    1      -21.402830
    2      -19.457011
    3      -12.193538
    4       -9.410337
    5       -8.991590
    6       -8.072051
    7       -7.258276
    8       -7.188274
    9        1.509038
   10        2.025020
   11        2.316937
   12        2.722277
 
  0.3750000E+00  0.5555556E-01  0.0000000E+00  0.4629630E-02
    1      -21.228433
    2      -19.767253
    3      -11.654240
    4       -9.205881
    5       -8.822910
    6       -8.528780
    7       -7.530976
    8       -7.509289
    9        1.747086
   10        2.556786
   11        2.577225
   12        2.966267
 
  0.4166667E+00  0.5555556E-01  0.0000000E+00  0.4629630E-02
    1      -21.033956
    2      -20.058996
    3      -11.113739
    4       -9.013944
    5       -8.978776
    6       -8.637416
    7       -7.858398
    8       -7.755294
    9        2.012932
   10        2.824256
   11        3.125873
   12        3.238920
 
  0.4583333E+00  0.5555556E-01  0.0000000E+00  0.4629630E-02
    1      -20.819562
    2      -20.331834
    3      -10.575332
    4       -9.520633
    5       -8.729616
    6       -8.436315
    7       -8.168333
    8       -7.993363
    9        2.306468
   10        2.975837
   11        3.118533
   12        3.540230
 
  0.5000000E+00  0.5555556E-01  0.0000000E+00  0.2314815E-02
    1      -20.585446
    2      -20.585446
    3      -10.042820
    4      -10.042820
    5       -8.459150
    6       -8.459150
    7       -8.221055
    8       -8.221055
    9        2.627529
   10        2.627529
   11        3.435585
   12        3.435585
 
  0.0000000E+00  0.8333333E-01  0.0000000E+00  0.2314815E-02
    1      -21.996929
    2      -16.663915
    3      -15.790405
    4      -10.111650
    5       -9.918986
    6       -6.419233
    7       -6.027969
    8       -4.801605
    9       -1.183712
   10        0.700584
   11        1.501502
   12        1.894843
 
  0.4166667E-01  0.8333333E-01  0.0000000E+00  0.4629630E-02
    1      -21.986591
    2      -16.852420
    3      -15.587405
    4      -10.099392
    5       -9.908326
    6       -6.458642
    7       -6.046626
    8       -4.872645
    9       -1.098826
   10        0.714618
   11        1.515668
   12        1.909199
 
  0.8333333E-01  0.8333333E-01  0.0000000E+00  0.4629630E-02
    1      -21.955583
    2      -17.211362
    3      -15.185093
    4      -10.062639
    5       -9.876380
    6       -6.570588
    7       -6.107052
    8       -5.067794
    9       -0.862318
   10        0.756718
   11        1.558163
   12        1.952267
 
  0.1250000E+00  0.8333333E-01  0.0000000E+00  0.4629630E-02
    1      -21.903927
    2      -17.599352
    3      -14.725210
    4      -10.001447
    5       -9.823242
    6       -6.742404
    7       -6.216519
    8       -5.348633
    9       -0.513145
   10        0.826885
   11        1.628974
   12        2.024049
 
  0.1666667E+00  0.8333333E-01  0.0000000E+00  0.4629630E-02
    1      -21.831660
    2      -17.985408
    3      -14.239339
    4       -9.915913
    5       -9.749071
    6       -6.963046
    7       -6.377458
    8       -5.679315
    9       -0.088053
   10        0.925110
   11        1.728083
   12        2.124543
 
  0.2083333E+00  0.8333333E-01  0.0000000E+00  0.4629630E-02
    1      -21.738830
    2      -18.360684
    3      -13.737198
    4       -9.806180
    5       -9.654092
    6       -7.225458
    7       -6.585727
    8       -6.034675
    9        0.386545
   10        1.051381
   11        1.855461
   12        2.253750
 
  0.2500000E+00  0.8333333E-01  0.0000000E+00  0.4629630E-02
    1      -21.625505
    2      -18.721649
    3      -13.223486
    4       -9.672434
    5       -9.538597
    6       -7.526404
    7       -6.831684
    8       -6.398676
    9        0.893020
   10        1.205673
   11        2.011064
   12        2.411668
 
  0.2916667E+00  0.8333333E-01  0.0000000E+00  0.4629630E-02
    1      -21.491769
    2      -19.066510
    3      -12.701504
    4       -9.514920
    5       -9.402951
    6       -7.865443
    7       -7.102186
    8       -6.761218
    9        1.387951
   10        1.419338
   11        2.194834
   12        2.598291
 
  0.3333333E+00  0.8333333E-01  0.0000000E+00  0.4629630E-02
    1      -21.337719
    2      -19.394193
    3      -12.174226
    4       -9.333944
    5       -9.247589
    6       -8.242955
    7       -7.383444
    8       -7.115787
    9        1.598170
   10        1.956703
   11        2.406686
   12        2.813614
 
  0.3750000E+00  0.8333333E-01  0.0000000E+00  0.4629630E-02
    1      -21.163477
    2      -19.703975
    3      -11.644744
    4       -9.129888
    5       -9.073022
    6       -8.657820
    7       -7.663990
    8       -7.458031
    9        1.836271
   10        2.498053
   11        2.646484
   12        3.057627
 
  0.4166667E+00  0.8333333E-01  0.0000000E+00  0.4629630E-02
    1      -20.969183
    2      -19.995323
    3      -11.116511
    4       -9.106291
    5       -8.903226
    6       -8.879834
    7       -7.936184
    8       -7.784932
    9        2.102178
   10        2.913968
   11        3.036702
   12        3.330315
 
  0.4583333E+00  0.8333333E-01  0.0000000E+00  0.4629630E-02
    1      -20.755004
    2      -20.267821
    3      -10.593511
    4       -9.582625
    5       -8.668686
    6       -8.654549
    7       -8.195728
    8       -8.094323
    9        2.395792
   10        3.065521
   11        3.208441
   12        3.556796
 
  0.5000000E+00  0.8333333E-01  0.0000000E+00  0.2314815E-02
    1      -20.521140
    2      -20.521140
    3      -10.080407
    4      -10.080407
    5       -8.440339
    6       -8.440339
    7       -8.384601
    8       -8.384601
    9        2.716977
   10        2.716977
   11        3.525658
   12        3.525658
 
  0.0000000E+00  0.1111111E+00  0.0000000E+00  0.2314815E-02
    1      -21.905138
    2      -16.584695
    3      -15.719102
    4      -10.271655
    5      -10.002834
    6       -6.747121
    7       -6.237798
    8       -4.690443
    9       -1.234892
   10        0.825119
   11        1.627613
   12        2.022641
 
  0.4166667E-01  0.1111111E+00  0.0000000E+00  0.4629630E-02
    1      -21.894810
    2      -16.772632
    3      -15.517181
    4      -10.260701
    5       -9.990610
    6       -6.791501
    7       -6.247226
    8       -4.762930
    9       -1.149538
   10        0.839151
   11        1.641769
   12        2.036997
 
  0.8333333E-01  0.1111111E+00  0.0000000E+00  0.4629630E-02
    1      -21.863834
    2      -17.130218
    3      -15.117780
    4      -10.227850
    5       -9.953958
    6       -6.914290
    7       -6.284638
    8       -4.961251
    9       -0.912795
   10        0.881250
   11        1.684233
   12        2.080065
 
  0.1250000E+00  0.1111111E+00  0.0000000E+00  0.4629630E-02
    1      -21.812231
    2      -17.516747
    3      -14.662041
    4      -10.173131
    5       -9.892935
    6       -7.096123
    7       -6.365652
    8       -5.245132
    9       -0.565477
   10        0.951417
   11        1.754994
   12        2.151847
 
  0.1666667E+00  0.1111111E+00  0.0000000E+00  0.4629630E-02
    1      -21.740038
    2      -17.901461
    3      -14.181463
    4      -10.096588
    5       -9.807639
    6       -7.321405
    7       -6.499504
    8       -5.577878
    9       -0.145170
   10        1.049650
   11        1.854031
   12        2.252345
 
  0.2083333E+00  0.1111111E+00  0.0000000E+00  0.4629630E-02
    1      -21.647307
    2      -18.275555
    3      -13.685937
    4       -9.998269
    5       -9.698213
    6       -7.580021
    7       -6.687424
    8       -5.934299
    9        0.321712
   10        1.175939
   11        1.981315
   12        2.381558
 
  0.2500000E+00  0.1111111E+00  0.0000000E+00  0.4629630E-02
    1      -21.534108
    2      -18.635494
    3      -13.180479
    4       -9.878213
    5       -9.564844
    6       -7.866132
    7       -6.924309
    8       -6.298601
    9        0.817836
   10        1.330259
   11        2.136804
   12        2.539484
 
  0.2916667E+00  0.1111111E+00  0.0000000E+00  0.4629630E-02
    1      -21.400524
    2      -18.979470
    3      -12.668831
    4       -9.736426
    5       -9.407777
    6       -8.177383
    7       -7.200276
    8       -6.660936
    9        1.331526
   10        1.512573
   11        2.320442
   12        2.726120
 
  0.3333333E+00  0.1111111E+00  0.0000000E+00  0.4629630E-02
    1      -21.246659
    2      -19.306391
    3      -12.154578
    4       -9.572852
    5       -9.227318
    6       -8.514360
    7       -7.502061
    8       -7.014983
    9        1.722832
   10        1.854378
   11        2.532154
   12        2.941460
 
  0.3750000E+00  0.1111111E+00  0.0000000E+00  0.4629630E-02
    1      -21.072635
    2      -19.615517
    3      -11.641620
    4       -9.387330
    5       -9.023849
    6       -8.879623
    7       -7.814771
    8       -7.356528
    9        1.960975
   10        2.379852
   11        2.771827
   12        3.185495
 
  0.4166667E+00  0.1111111E+00  0.0000000E+00  0.4629630E-02
    1      -20.878599
    2      -19.906301
    3      -11.134454
    4       -9.275786
    5       -9.179570
    6       -8.797839
    7       -8.124342
    8       -7.682641
    9        2.226925
   10        2.902397
   11        3.039274
   12        3.458213
 
  0.4583333E+00  0.1111111E+00  0.0000000E+00  0.4629630E-02
    1      -20.664726
    2      -20.178316
    3      -10.638330
    4       -9.703258
    5       -8.949178
    6       -8.549877
    7       -8.420096
    8       -7.991218
    9        2.520589
   10        3.190520
   11        3.334024
   12        3.416040
 
  0.5000000E+00  0.1111111E+00  0.0000000E+00  0.2314815E-02
    1      -20.431218
    2      -20.431218
    3      -10.159201
    4      -10.159201
    5       -8.695869
    6       -8.695869
    7       -8.280695
    8       -8.280695
    9        2.841844
   10        2.841844
   11        3.651406
   12        3.651406
 
  0.0000000E+00  0.1388889E+00  0.0000000E+00  0.2314815E-02
    1      -21.787275
    2      -16.482893
    3      -15.630612
    4      -10.685088
    5       -9.863330
    6       -7.135132
    7       -6.497464
    8       -4.547761
    9       -1.309755
   10        0.985284
   11        1.789663
   12        2.186964
 
  0.4166667E-01  0.1388889E+00  0.0000000E+00  0.4629630E-02
    1      -21.776960
    2      -16.670368
    3      -15.429921
    4      -10.673641
    5       -9.851152
    6       -7.183689
    7       -6.497794
    8       -4.622378
    9       -1.223580
   10        0.999310
   11        1.803803
   12        2.201319
 
  0.8333333E-01  0.1388889E+00  0.0000000E+00  0.4629630E-02
    1      -21.746024
    2      -17.026345
    3      -15.034485
    4      -10.639271
    5       -9.814638
    6       -7.315682
    7       -6.511836
    8       -4.825282
    9       -0.986183
   10        1.041392
   11        1.846219
   12        2.244385
 
  0.1250000E+00  0.1388889E+00  0.0000000E+00  0.4629630E-02
    1      -21.694489
    2      -17.410992
    3      -14.584717
    4      -10.581879
    5       -9.753845
    6       -7.506456
    7       -6.562167
    8       -5.113434
    9       -0.641126
   10        1.111537
   11        1.916898
   12        2.316164
 
  0.1666667E+00  0.1388889E+00  0.0000000E+00  0.4629630E-02
    1      -21.622395
    2      -17.793939
    3      -14.111992
    4      -10.501282
    5       -9.668873
    6       -7.737105
    7       -6.663709
    8       -5.448983
    9       -0.227123
   10        1.209751
   11        2.015818
   12        2.416659
 
  0.2083333E+00  0.1388889E+00  0.0000000E+00  0.4629630E-02
    1      -21.529793
    2      -18.166468
    3      -13.626527
    4      -10.397174
    5       -9.559864
    6       -7.995592
    7       -6.822215
    8       -5.806775
    9        0.229507
   10        1.336027
   11        2.142946
   12        2.545872
 
  0.2500000E+00  0.1388889E+00  0.0000000E+00  0.4629630E-02
    1      -21.416756
    2      -18.525046
    3      -13.133931
    4      -10.269069
    5       -9.427010
    6       -8.274453
    7       -7.036554
    8       -6.171393
    9        0.711913
   10        1.490346
   11        2.298238
   12        2.703803
 
  0.2916667E+00  0.1388889E+00  0.0000000E+00  0.4629630E-02
    1      -21.283371
    2      -18.867849
    3      -12.638813
    4      -10.116227
    5       -9.270554
    6       -8.569444
    7       -7.300490
    8       -6.533356
    9        1.208955
   10        1.672671
   11        2.481634
   12        2.890448
 
  0.3333333E+00  0.1388889E+00  0.0000000E+00  0.4629630E-02
    1      -21.129745
    2      -19.193762
    3      -12.145935
    4       -9.937568
    5       -9.090803
    6       -8.879044
    7       -7.603953
    8       -6.886617
    9        1.712752
   10        1.882948
   11        2.693058
   12        3.105801
 
  0.3750000E+00  0.1388889E+00  0.0000000E+00  0.4629630E-02
    1      -20.956007
    2      -19.502022
    3      -11.660695
    4       -9.731620
    5       -9.204317
    6       -8.888137
    7       -7.934026
    8       -7.227147
    9        2.121108
   10        2.217321
   11        2.932412
   12        3.349854
 
  0.4166667E+00  0.1388889E+00  0.0000000E+00  0.4629630E-02
    1      -20.762310
    2      -19.792062
    3      -11.189263
    4       -9.548676
    5       -9.496652
    6       -8.663026
    7       -8.275893
    8       -7.552141
    9        2.387070
   10        2.717821
   11        3.199566
   12        3.622596
 
  0.4583333E+00  0.1388889E+00  0.0000000E+00  0.4629630E-02
    1      -20.548836
    2      -20.063441
    3      -10.738167
    4       -9.916902
    5       -9.231265
    6       -8.614284
    7       -8.416050
    8       -7.859573
    9        2.680737
   10        3.210126
   11        3.350674
   12        3.494352
 
  0.5000000E+00  0.1388889E+00  0.0000000E+00  0.2314815E-02
    1      -20.315796
    2      -20.315796
    3      -10.313068
    4      -10.313068
    5       -8.935786
    6       -8.935786
    7       -8.147929
    8       -8.147929
    9        3.001990
   10        3.001990
   11        3.690486
   12        3.690486
 
  0.0000000E+00  0.1666667E+00  0.0000000E+00  0.2314815E-02
    1      -21.643459
    2      -16.358549
    3      -15.528360
    4      -11.138556
    5       -9.693458
    6       -7.567507
    7       -6.800584
    8       -4.373743
    9       -1.414408
   10        1.181080
   11        1.987572
   12        2.387817
 
  0.4166667E-01  0.1666667E+00  0.0000000E+00  0.4629630E-02
    1      -21.633162
    2      -16.545957
    3      -15.328914
    4      -11.126270
    5       -9.681340
    6       -7.619793
    7       -6.791890
    8       -4.451481
    9       -1.326774
   10        1.195095
   11        2.001686
   12        2.402170
 
  0.8333333E-01  0.1666667E+00  0.0000000E+00  0.4629630E-02
    1      -21.602276
    2      -16.900196
    3      -14.938846
    4      -11.089297
    5       -9.645006
    6       -7.760140
    7       -6.782221
    8       -4.660911
    9       -1.087822
   10        1.237144
   11        2.044025
   12        2.445229
 
  0.1250000E+00  0.1666667E+00  0.0000000E+00  0.4629630E-02
    1      -21.550827
    2      -17.282520
    3      -14.497770
    4      -11.027280
    5       -9.584515
    6       -7.959422
    7       -6.800130
    8       -4.954898
    9       -0.745171
   10        1.307239
   11        2.114572
   12        2.516999
 
  0.1666667E+00  0.1666667E+00  0.0000000E+00  0.4629630E-02
    1      -21.478853
    2      -17.663227
    3      -14.036919
    4      -10.939560
    5       -9.499968
    6       -8.196067
    7       -6.865472
    8       -5.294092
    9       -0.338953
   10        1.405394
   11        2.213297
   12        2.617484
 
  0.2083333E+00  0.1666667E+00  0.0000000E+00  0.4629630E-02
    1      -21.386411
    2      -18.033755
    3      -13.567171
    4      -10.825081
    5       -9.391508
    6       -8.456714
    7       -6.987982
    8       -5.653529
    9        0.104834
   10        1.531614
   11        2.340155
   12        2.746688
 
  0.2500000E+00  0.1666667E+00  0.0000000E+00  0.4629630E-02
    1      -21.273575
    2      -18.390594
    3      -13.095316
    4      -10.682258
    5       -9.259330
    6       -8.732990
    7       -7.170032
    8       -6.018384
    9        0.570128
   10        1.685889
   11        2.495086
   12        2.904614
 
  0.2916667E+00  0.1666667E+00  0.0000000E+00  0.4629630E-02
    1      -21.140437
    2      -18.731899
    3      -12.627621
    4      -10.508844
    5       -9.103680
    6       -9.019617
    7       -7.408562
    8       -6.379693
    9        1.046587
   10        1.868183
   11        2.677999
   12        3.091261
 
  0.3333333E+00  0.1666667E+00  0.0000000E+00  0.4629630E-02
    1      -20.987110
    2      -19.056528
    3      -12.170861
    4      -10.301940
    5       -9.313592
    6       -8.924866
    7       -7.696458
    8       -6.731782
    9        1.527067
   10        2.078439
   11        2.888761
   12        3.306622
 
  0.3750000E+00  0.1666667E+00  0.0000000E+00  0.4629630E-02
    1      -20.813729
    2      -19.363688
    3      -11.732285
    4      -10.058469
    5       -9.613941
    6       -8.723267
    7       -8.023630
    8       -7.070868
    9        2.006281
   10        2.316581
   11        3.127140
   12        3.550688
 
  0.4166667E+00  0.1666667E+00  0.0000000E+00  0.4629630E-02
    1      -20.620457
    2      -19.652788
    3      -11.318469
    4       -9.921778
    5       -9.776586
    6       -8.499353
    7       -8.377796
    8       -7.394304
    9        2.480037
   10        2.582517
   11        3.392503
   12        3.823447
 
  0.4583333E+00  0.1666667E+00  0.0000000E+00  0.4629630E-02
    1      -20.407483
    2      -19.923362
    3      -10.933147
    4      -10.240466
    5       -9.458028
    6       -8.744976
    7       -8.253695
    8       -7.700167
    9        2.876138
   10        2.944724
   11        3.545899
   12        3.675858
 
  0.5000000E+00  0.1666667E+00  0.0000000E+00  0.2314815E-02
    1      -20.175032
    2      -20.175032
    3      -10.575453
    4      -10.575453
    5       -9.110043
    6       -9.110043
    7       -7.987005
    8       -7.987005
    9        3.197317
   10        3.197317
   11        3.396206
   12        3.396206
 