<?xml version="1.0" encoding="ISO-8859-1"?>
<modeling>
 <generator>
  <i name="program" type="string">vasp </i>
  <i name="version" type="string">5.3.5  </i>
  <i name="subversion" type="string">31Mar14 (build Mar 02 2015 18:14:16) complex                          parallel </i>
  <i name="platform" type="string">LinuxIFC </i>
  <i name="date" type="string">2018 08 09 </i>
  <i name="time" type="string">20:59:23 </i>
 </generator>
 <incar>
  <i type="string" name="SYSTEM">  gr</i>
  <i type="string" name="PREC">accurate : accuracy</i>
  <i type="string" name="ALGO"> FAST.</i>
  <i type="int" name="NELM">   100</i>
  <i type="int" name="NELMDL">    -3</i>
  <i type="int" name="NELMIN">     5</i>
  <i type="int" name="IBRION">     1</i>
  <i name="EDIFF">      0.00000000</i>
  <i name="EDIFFG">     -0.00000100</i>
  <i type="int" name="NSW">   400</i>
  <i type="int" name="ISIF">     2</i>
  <i name="ENCUT">   2000.00000000</i>
  <i type="int" name="ISMEAR">     0</i>
  <i name="SIGMA">      0.05000000</i>
  <i type="int" name="NWRITE">     2</i>
  <i type="logical" name="LWAVE"> F  </i>
  <i type="logical" name="LCHARG"> F  </i>
  <i type="int" name="NELM">   100</i>
 </incar>
 <kpoints>
  <generation param="Gamma">
   <v type="int" name="divisions">      24       36        1 </v>
   <v name="usershift">      0.00000000       0.00000000       0.00000000 </v>
   <v name="genvec1">      0.04166667       0.00000000       0.00000000 </v>
   <v name="genvec2">      0.00000000       0.02777778       0.00000000 </v>
   <v name="genvec3">      0.00000000       0.00000000       1.00000000 </v>
   <v name="shift">      0.00000000       0.00000000       0.00000000 </v>
  </generation>
  <varray name="kpointlist" >
   <v>       0.00000000       0.00000000       0.00000000 </v>
   <v>       0.04166667       0.00000000       0.00000000 </v>
   <v>       0.08333333       0.00000000       0.00000000 </v>
   <v>       0.12500000       0.00000000       0.00000000 </v>
   <v>       0.16666667       0.00000000       0.00000000 </v>
   <v>       0.20833333       0.00000000       0.00000000 </v>
   <v>       0.25000000       0.00000000       0.00000000 </v>
   <v>       0.29166667       0.00000000       0.00000000 </v>
   <v>       0.33333333       0.00000000       0.00000000 </v>
   <v>       0.37500000       0.00000000       0.00000000 </v>
   <v>       0.41666667       0.00000000       0.00000000 </v>
   <v>       0.45833333       0.00000000       0.00000000 </v>
   <v>       0.50000000       0.00000000       0.00000000 </v>
   <v>       0.00000000       0.02777778       0.00000000 </v>
   <v>       0.04166667       0.02777778       0.00000000 </v>
   <v>       0.08333333       0.02777778       0.00000000 </v>
   <v>       0.12500000       0.02777778       0.00000000 </v>
   <v>       0.16666667       0.02777778       0.00000000 </v>
   <v>       0.20833333       0.02777778       0.00000000 </v>
   <v>       0.25000000       0.02777778       0.00000000 </v>
   <v>       0.29166667       0.02777778       0.00000000 </v>
   <v>       0.33333333       0.02777778       0.00000000 </v>
   <v>       0.37500000       0.02777778       0.00000000 </v>
   <v>       0.41666667       0.02777778       0.00000000 </v>
   <v>       0.45833333       0.02777778       0.00000000 </v>
   <v>       0.50000000       0.02777778       0.00000000 </v>
   <v>       0.00000000       0.05555556       0.00000000 </v>
   <v>       0.04166667       0.05555556       0.00000000 </v>
   <v>       0.08333333       0.05555556       0.00000000 </v>
   <v>       0.12500000       0.05555556       0.00000000 </v>
   <v>       0.16666667       0.05555556       0.00000000 </v>
   <v>       0.20833333       0.05555556       0.00000000 </v>
   <v>       0.25000000       0.05555556       0.00000000 </v>
   <v>       0.29166667       0.05555556       0.00000000 </v>
   <v>       0.33333333       0.05555556       0.00000000 </v>
   <v>       0.37500000       0.05555556       0.00000000 </v>
   <v>       0.41666667       0.05555556       0.00000000 </v>
   <v>       0.45833333       0.05555556       0.00000000 </v>
   <v>       0.50000000       0.05555556       0.00000000 </v>
   <v>       0.00000000       0.08333333       0.00000000 </v>
   <v>       0.04166667       0.08333333       0.00000000 </v>
   <v>       0.08333333       0.08333333       0.00000000 </v>
   <v>       0.12500000       0.08333333       0.00000000 </v>
   <v>       0.16666667       0.08333333       0.00000000 </v>
   <v>       0.20833333       0.08333333       0.00000000 </v>
   <v>       0.25000000       0.08333333       0.00000000 </v>
   <v>       0.29166667       0.08333333       0.00000000 </v>
   <v>       0.33333333       0.08333333       0.00000000 </v>
   <v>       0.37500000       0.08333333       0.00000000 </v>
   <v>       0.41666667       0.08333333       0.00000000 </v>
   <v>       0.45833333       0.08333333       0.00000000 </v>
   <v>       0.50000000       0.08333333       0.00000000 </v>
   <v>       0.00000000       0.11111111       0.00000000 </v>
   <v>       0.04166667       0.11111111       0.00000000 </v>
   <v>       0.08333333       0.11111111       0.00000000 </v>
   <v>       0.12500000       0.11111111       0.00000000 </v>
   <v>       0.16666667       0.11111111       0.00000000 </v>
   <v>       0.20833333       0.11111111       0.00000000 </v>
   <v>       0.25000000       0.11111111       0.00000000 </v>
   <v>       0.29166667       0.11111111       0.00000000 </v>
   <v>       0.33333333       0.11111111       0.00000000 </v>
   <v>       0.37500000       0.11111111       0.00000000 </v>
   <v>       0.41666667       0.11111111       0.00000000 </v>
   <v>       0.45833333       0.11111111       0.00000000 </v>
   <v>       0.50000000       0.11111111       0.00000000 </v>
   <v>       0.00000000       0.13888889       0.00000000 </v>
   <v>       0.04166667       0.13888889       0.00000000 </v>
   <v>       0.08333333       0.13888889       0.00000000 </v>
   <v>       0.12500000       0.13888889       0.00000000 </v>
   <v>       0.16666667       0.13888889       0.00000000 </v>
   <v>       0.20833333       0.13888889       0.00000000 </v>
   <v>       0.25000000       0.13888889       0.00000000 </v>
   <v>       0.29166667       0.13888889       0.00000000 </v>
   <v>       0.33333333       0.13888889       0.00000000 </v>
   <v>       0.37500000       0.13888889       0.00000000 </v>
   <v>       0.41666667       0.13888889       0.00000000 </v>
   <v>       0.45833333       0.13888889       0.00000000 </v>
   <v>       0.50000000       0.13888889       0.00000000 </v>
   <v>       0.00000000       0.16666667       0.00000000 </v>
   <v>       0.04166667       0.16666667       0.00000000 </v>
   <v>       0.08333333       0.16666667       0.00000000 </v>
   <v>       0.12500000       0.16666667       0.00000000 </v>
   <v>       0.16666667       0.16666667       0.00000000 </v>
   <v>       0.20833333       0.16666667       0.00000000 </v>
   <v>       0.25000000       0.16666667       0.00000000 </v>
   <v>       0.29166667       0.16666667       0.00000000 </v>
   <v>       0.33333333       0.16666667       0.00000000 </v>
   <v>       0.37500000       0.16666667       0.00000000 </v>
   <v>       0.41666667       0.16666667       0.00000000 </v>
   <v>       0.45833333       0.16666667       0.00000000 </v>
   <v>       0.50000000       0.16666667       0.00000000 </v>
   <v>       0.00000000       0.19444444       0.00000000 </v>
   <v>       0.04166667       0.19444444       0.00000000 </v>
   <v>       0.08333333       0.19444444       0.00000000 </v>
   <v>       0.12500000       0.19444444       0.00000000 </v>
   <v>       0.16666667       0.19444444       0.00000000 </v>
   <v>       0.20833333       0.19444444       0.00000000 </v>
   <v>       0.25000000       0.19444444       0.00000000 </v>
   <v>       0.29166667       0.19444444       0.00000000 </v>
   <v>       0.33333333       0.19444444       0.00000000 </v>
   <v>       0.37500000       0.19444444       0.00000000 </v>
   <v>       0.41666667       0.19444444       0.00000000 </v>
   <v>       0.45833333       0.19444444       0.00000000 </v>
   <v>       0.50000000       0.19444444       0.00000000 </v>
   <v>       0.00000000       0.22222222       0.00000000 </v>
   <v>       0.04166667       0.22222222       0.00000000 </v>
   <v>       0.08333333       0.22222222       0.00000000 </v>
   <v>       0.12500000       0.22222222       0.00000000 </v>
   <v>       0.16666667       0.22222222       0.00000000 </v>
   <v>       0.20833333       0.22222222       0.00000000 </v>
   <v>       0.25000000       0.22222222       0.00000000 </v>
   <v>       0.29166667       0.22222222       0.00000000 </v>
   <v>       0.33333333       0.22222222       0.00000000 </v>
   <v>       0.37500000       0.22222222       0.00000000 </v>
   <v>       0.41666667       0.22222222       0.00000000 </v>
   <v>       0.45833333       0.22222222       0.00000000 </v>
   <v>       0.50000000       0.22222222       0.00000000 </v>
   <v>       0.00000000       0.25000000       0.00000000 </v>
   <v>       0.04166667       0.25000000       0.00000000 </v>
   <v>       0.08333333       0.25000000       0.00000000 </v>
   <v>       0.12500000       0.25000000       0.00000000 </v>
   <v>       0.16666667       0.25000000       0.00000000 </v>
   <v>       0.20833333       0.25000000       0.00000000 </v>
   <v>       0.25000000       0.25000000       0.00000000 </v>
   <v>       0.29166667       0.25000000       0.00000000 </v>
   <v>       0.33333333       0.25000000       0.00000000 </v>
   <v>       0.37500000       0.25000000       0.00000000 </v>
   <v>       0.41666667       0.25000000       0.00000000 </v>
   <v>       0.45833333       0.25000000       0.00000000 </v>
   <v>       0.50000000       0.25000000       0.00000000 </v>
   <v>       0.00000000       0.27777778       0.00000000 </v>
   <v>       0.04166667       0.27777778       0.00000000 </v>
   <v>       0.08333333       0.27777778       0.00000000 </v>
   <v>       0.12500000       0.27777778       0.00000000 </v>
   <v>       0.16666667       0.27777778       0.00000000 </v>
   <v>       0.20833333       0.27777778       0.00000000 </v>
   <v>       0.25000000       0.27777778       0.00000000 </v>
   <v>       0.29166667       0.27777778       0.00000000 </v>
   <v>       0.33333333       0.27777778       0.00000000 </v>
   <v>       0.37500000       0.27777778       0.00000000 </v>
   <v>       0.41666667       0.27777778       0.00000000 </v>
   <v>       0.45833333       0.27777778       0.00000000 </v>
   <v>       0.50000000       0.27777778       0.00000000 </v>
   <v>       0.00000000       0.30555556       0.00000000 </v>
   <v>       0.04166667       0.30555556       0.00000000 </v>
   <v>       0.08333333       0.30555556       0.00000000 </v>
   <v>       0.12500000       0.30555556       0.00000000 </v>
   <v>       0.16666667       0.30555556       0.00000000 </v>
   <v>       0.20833333       0.30555556       0.00000000 </v>
   <v>       0.25000000       0.30555556       0.00000000 </v>
   <v>       0.29166667       0.30555556       0.00000000 </v>
   <v>       0.33333333       0.30555556       0.00000000 </v>
   <v>       0.37500000       0.30555556       0.00000000 </v>
   <v>       0.41666667       0.30555556       0.00000000 </v>
   <v>       0.45833333       0.30555556       0.00000000 </v>
   <v>       0.50000000       0.30555556       0.00000000 </v>
   <v>       0.00000000       0.33333333       0.00000000 </v>
   <v>       0.04166667       0.33333333       0.00000000 </v>
   <v>       0.08333333       0.33333333       0.00000000 </v>
   <v>       0.12500000       0.33333333       0.00000000 </v>
   <v>       0.16666667       0.33333333       0.00000000 </v>
   <v>       0.20833333       0.33333333       0.00000000 </v>
   <v>       0.25000000       0.33333333       0.00000000 </v>
   <v>       0.29166667       0.33333333       0.00000000 </v>
   <v>       0.33333333       0.33333333       0.00000000 </v>
   <v>       0.37500000       0.33333333       0.00000000 </v>
   <v>       0.41666667       0.33333333       0.00000000 </v>
   <v>       0.45833333       0.33333333       0.00000000 </v>
   <v>       0.50000000       0.33333333       0.00000000 </v>
   <v>       0.00000000       0.36111111       0.00000000 </v>
   <v>       0.04166667       0.36111111       0.00000000 </v>
   <v>       0.08333333       0.36111111       0.00000000 </v>
   <v>       0.12500000       0.36111111       0.00000000 </v>
   <v>       0.16666667       0.36111111       0.00000000 </v>
   <v>       0.20833333       0.36111111       0.00000000 </v>
   <v>       0.25000000       0.36111111       0.00000000 </v>
   <v>       0.29166667       0.36111111       0.00000000 </v>
   <v>       0.33333333       0.36111111       0.00000000 </v>
   <v>       0.37500000       0.36111111       0.00000000 </v>
   <v>       0.41666667       0.36111111       0.00000000 </v>
   <v>       0.45833333       0.36111111       0.00000000 </v>
   <v>       0.50000000       0.36111111       0.00000000 </v>
   <v>       0.00000000       0.38888889       0.00000000 </v>
   <v>       0.04166667       0.38888889       0.00000000 </v>
   <v>       0.08333333       0.38888889       0.00000000 </v>
   <v>       0.12500000       0.38888889       0.00000000 </v>
   <v>       0.16666667       0.38888889       0.00000000 </v>
   <v>       0.20833333       0.38888889       0.00000000 </v>
   <v>       0.25000000       0.38888889       0.00000000 </v>
   <v>       0.29166667       0.38888889       0.00000000 </v>
   <v>       0.33333333       0.38888889       0.00000000 </v>
   <v>       0.37500000       0.38888889       0.00000000 </v>
   <v>       0.41666667       0.38888889       0.00000000 </v>
   <v>       0.45833333       0.38888889       0.00000000 </v>
   <v>       0.50000000       0.38888889       0.00000000 </v>
   <v>       0.00000000       0.41666667       0.00000000 </v>
   <v>       0.04166667       0.41666667       0.00000000 </v>
   <v>       0.08333333       0.41666667       0.00000000 </v>
   <v>       0.12500000       0.41666667       0.00000000 </v>
   <v>       0.16666667       0.41666667       0.00000000 </v>
   <v>       0.20833333       0.41666667       0.00000000 </v>
   <v>       0.25000000       0.41666667       0.00000000 </v>
   <v>       0.29166667       0.41666667       0.00000000 </v>
   <v>       0.33333333       0.41666667       0.00000000 </v>
   <v>       0.37500000       0.41666667       0.00000000 </v>
   <v>       0.41666667       0.41666667       0.00000000 </v>
   <v>       0.45833333       0.41666667       0.00000000 </v>
   <v>       0.50000000       0.41666667       0.00000000 </v>
   <v>       0.00000000       0.44444444       0.00000000 </v>
   <v>       0.04166667       0.44444444       0.00000000 </v>
   <v>       0.08333333       0.44444444       0.00000000 </v>
   <v>       0.12500000       0.44444444       0.00000000 </v>
   <v>       0.16666667       0.44444444       0.00000000 </v>
   <v>       0.20833333       0.44444444       0.00000000 </v>
   <v>       0.25000000       0.44444444       0.00000000 </v>
   <v>       0.29166667       0.44444444       0.00000000 </v>
   <v>       0.33333333       0.44444444       0.00000000 </v>
   <v>       0.37500000       0.44444444       0.00000000 </v>
   <v>       0.41666667       0.44444444       0.00000000 </v>
   <v>       0.45833333       0.44444444       0.00000000 </v>
   <v>       0.50000000       0.44444444       0.00000000 </v>
   <v>       0.00000000       0.47222222       0.00000000 </v>
   <v>       0.04166667       0.47222222       0.00000000 </v>
   <v>       0.08333333       0.47222222       0.00000000 </v>
   <v>       0.12500000       0.47222222       0.00000000 </v>
   <v>       0.16666667       0.47222222       0.00000000 </v>
   <v>       0.20833333       0.47222222       0.00000000 </v>
   <v>       0.25000000       0.47222222       0.00000000 </v>
   <v>       0.29166667       0.47222222       0.00000000 </v>
   <v>       0.33333333       0.47222222       0.00000000 </v>
   <v>       0.37500000       0.47222222       0.00000000 </v>
   <v>       0.41666667       0.47222222       0.00000000 </v>
   <v>       0.45833333       0.47222222       0.00000000 </v>
   <v>       0.50000000       0.47222222       0.00000000 </v>
   <v>       0.00000000       0.50000000       0.00000000 </v>
   <v>       0.04166667       0.50000000       0.00000000 </v>
   <v>       0.08333333       0.50000000       0.00000000 </v>
   <v>       0.12500000       0.50000000       0.00000000 </v>
   <v>       0.16666667       0.50000000       0.00000000 </v>
   <v>       0.20833333       0.50000000       0.00000000 </v>
   <v>       0.25000000       0.50000000       0.00000000 </v>
   <v>       0.29166667       0.50000000       0.00000000 </v>
   <v>       0.33333333       0.50000000       0.00000000 </v>
   <v>       0.37500000       0.50000000       0.00000000 </v>
   <v>       0.41666667       0.50000000       0.00000000 </v>
   <v>       0.45833333       0.50000000       0.00000000 </v>
   <v>       0.50000000       0.50000000       0.00000000 </v>
  </varray>
  <varray name="weights" >
   <v>       0.00115741 </v>
   <v>       0.00231481 </v>
   <v>       0.00231481 </v>
   <v>       0.00231481 </v>
   <v>       0.00231481 </v>
   <v>       0.00231481 </v>
   <v>       0.00231481 </v>
   <v>       0.00231481 </v>
   <v>       0.00231481 </v>
   <v>       0.00231481 </v>
   <v>       0.00231481 </v>
   <v>       0.00231481 </v>
   <v>       0.00115741 </v>
   <v>       0.00231481 </v>
   <v>       0.00462963 </v>
   <v>       0.00462963 </v>
   <v>       0.00462963 </v>
   <v>       0.00462963 </v>
   <v>       0.00462963 </v>
   <v>       0.00462963 </v>
   <v>       0.00462963 </v>
   <v>       0.00462963 </v>
   <v>       0.00462963 </v>
   <v>       0.00462963 </v>
   <v>       0.00462963 </v>
   <v>       0.00231481 </v>
   <v>       0.00231481 </v>
   <v>       0.00462963 </v>
   <v>       0.00462963 </v>
   <v>       0.00462963 </v>
   <v>       0.00462963 </v>
   <v>       0.00462963 </v>
   <v>       0.00462963 </v>
   <v>       0.00462963 </v>
   <v>       0.00462963 </v>
   <v>       0.00462963 </v>
   <v>       0.00462963 </v>
   <v>       0.00462963 </v>
   <v>       0.00231481 </v>
   <v>       0.00231481 </v>
   <v>       0.00462963 </v>
   <v>       0.00462963 </v>
   <v>       0.00462963 </v>
   <v>       0.00462963 </v>
   <v>       0.00462963 </v>
   <v>       0.00462963 </v>
   <v>       0.00462963 </v>
   <v>       0.00462963 </v>
   <v>       0.00462963 </v>
   <v>       0.00462963 </v>
   <v>       0.00462963 </v>
   <v>       0.00231481 </v>
   <v>       0.00231481 </v>
   <v>       0.00462963 </v>
   <v>       0.00462963 </v>
   <v>       0.00462963 </v>
   <v>       0.00462963 </v>
   <v>       0.00462963 </v>
   <v>       0.00462963 </v>
   <v>       0.00462963 </v>
   <v>       0.00462963 </v>
   <v>       0.00462963 </v>
   <v>       0.00462963 </v>
   <v>       0.00462963 </v>
   <v>       0.00231481 </v>
   <v>       0.00231481 </v>
   <v>       0.00462963 </v>
   <v>       0.00462963 </v>
   <v>       0.00462963 </v>
   <v>       0.00462963 </v>
   <v>       0.00462963 </v>
   <v>       0.00462963 </v>
   <v>       0.00462963 </v>
   <v>       0.00462963 </v>
   <v>       0.00462963 </v>
   <v>       0.00462963 </v>
   <v>       0.00462963 </v>
   <v>       0.00231481 </v>
   <v>       0.00231481 </v>
   <v>       0.00462963 </v>
   <v>       0.00462963 </v>
   <v>       0.00462963 </v>
   <v>       0.00462963 </v>
   <v>       0.00462963 </v>
   <v>       0.00462963 </v>
   <v>       0.00462963 </v>
   <v>       0.00462963 </v>
   <v>       0.00462963 </v>
   <v>       0.00462963 </v>
   <v>       0.00462963 </v>
   <v>       0.00231481 </v>
   <v>       0.00231481 </v>
   <v>       0.00462963 </v>
   <v>       0.00462963 </v>
   <v>       0.00462963 </v>
   <v>       0.00462963 </v>
   <v>       0.00462963 </v>
   <v>       0.00462963 </v>
   <v>       0.00462963 </v>
   <v>       0.00462963 </v>
   <v>       0.00462963 </v>
   <v>       0.00462963 </v>
   <v>       0.00462963 </v>
   <v>       0.00231481 </v>
   <v>       0.00231481 </v>
   <v>       0.00462963 </v>
   <v>       0.00462963 </v>
   <v>       0.00462963 </v>
   <v>       0.00462963 </v>
   <v>       0.00462963 </v>
   <v>       0.00462963 </v>
   <v>       0.00462963 </v>
   <v>       0.00462963 </v>
   <v>       0.00462963 </v>
   <v>       0.00462963 </v>
   <v>       0.00462963 </v>
   <v>       0.00231481 </v>
   <v>       0.00231481 </v>
   <v>       0.00462963 </v>
   <v>       0.00462963 </v>
   <v>       0.00462963 </v>
   <v>       0.00462963 </v>
   <v>       0.00462963 </v>
   <v>       0.00462963 </v>
   <v>       0.00462963 </v>
   <v>       0.00462963 </v>
   <v>       0.00462963 </v>
   <v>       0.00462963 </v>
   <v>       0.00462963 </v>
   <v>       0.00231481 </v>
   <v>       0.00231481 </v>
   <v>       0.00462963 </v>
   <v>       0.00462963 </v>
   <v>       0.00462963 </v>
   <v>       0.00462963 </v>
   <v>       0.00462963 </v>
   <v>       0.00462963 </v>
   <v>       0.00462963 </v>
   <v>       0.00462963 </v>
   <v>       0.00462963 </v>
   <v>       0.00462963 </v>
   <v>       0.00462963 </v>
   <v>       0.00231481 </v>
   <v>       0.00231481 </v>
   <v>       0.00462963 </v>
   <v>       0.00462963 </v>
   <v>       0.00462963 </v>
   <v>       0.00462963 </v>
   <v>       0.00462963 </v>
   <v>       0.00462963 </v>
   <v>       0.00462963 </v>
   <v>       0.00462963 </v>
   <v>       0.00462963 </v>
   <v>       0.00462963 </v>
   <v>       0.00462963 </v>
   <v>       0.00231481 </v>
   <v>       0.00231481 </v>
   <v>       0.00462963 </v>
   <v>       0.00462963 </v>
   <v>       0.00462963 </v>
   <v>       0.00462963 </v>
   <v>       0.00462963 </v>
   <v>       0.00462963 </v>
   <v>       0.00462963 </v>
   <v>       0.00462963 </v>
   <v>       0.00462963 </v>
   <v>       0.00462963 </v>
   <v>       0.00462963 </v>
   <v>       0.00231481 </v>
   <v>       0.00231481 </v>
   <v>       0.00462963 </v>
   <v>       0.00462963 </v>
   <v>       0.00462963 </v>
   <v>       0.00462963 </v>
   <v>       0.00462963 </v>
   <v>       0.00462963 </v>
   <v>       0.00462963 </v>
   <v>       0.00462963 </v>
   <v>       0.00462963 </v>
   <v>       0.00462963 </v>
   <v>       0.00462963 </v>
   <v>       0.00231481 </v>
   <v>       0.00231481 </v>
   <v>       0.00462963 </v>
   <v>       0.00462963 </v>
   <v>       0.00462963 </v>
   <v>       0.00462963 </v>
   <v>       0.00462963 </v>
   <v>       0.00462963 </v>
   <v>       0.00462963 </v>
   <v>       0.00462963 </v>
   <v>       0.00462963 </v>
   <v>       0.00462963 </v>
   <v>       0.00462963 </v>
   <v>       0.00231481 </v>
   <v>       0.00231481 </v>
   <v>       0.00462963 </v>
   <v>       0.00462963 </v>
   <v>       0.00462963 </v>
   <v>       0.00462963 </v>
   <v>       0.00462963 </v>
   <v>       0.00462963 </v>
   <v>       0.00462963 </v>
   <v>       0.00462963 </v>
   <v>       0.00462963 </v>
   <v>       0.00462963 </v>
   <v>       0.00462963 </v>
   <v>       0.00231481 </v>
   <v>       0.00231481 </v>
   <v>       0.00462963 </v>
   <v>       0.00462963 </v>
   <v>       0.00462963 </v>
   <v>       0.00462963 </v>
   <v>       0.00462963 </v>
   <v>       0.00462963 </v>
   <v>       0.00462963 </v>
   <v>       0.00462963 </v>
   <v>       0.00462963 </v>
   <v>       0.00462963 </v>
   <v>       0.00462963 </v>
   <v>       0.00231481 </v>
   <v>       0.00231481 </v>
   <v>       0.00462963 </v>
   <v>       0.00462963 </v>
   <v>       0.00462963 </v>
   <v>       0.00462963 </v>
   <v>       0.00462963 </v>
   <v>       0.00462963 </v>
   <v>       0.00462963 </v>
   <v>       0.00462963 </v>
   <v>       0.00462963 </v>
   <v>       0.00462963 </v>
   <v>       0.00462963 </v>
   <v>       0.00231481 </v>
   <v>       0.00115741 </v>
   <v>       0.00231481 </v>
   <v>       0.00231481 </v>
   <v>       0.00231481 </v>
   <v>       0.00231481 </v>
   <v>       0.00231481 </v>
   <v>       0.00231481 </v>
   <v>       0.00231481 </v>
   <v>       0.00231481 </v>
   <v>       0.00231481 </v>
   <v>       0.00231481 </v>
   <v>       0.00231481 </v>
   <v>       0.00115741 </v>
  </varray>
 </kpoints>
 <parameters>
  <separator name="general" >
   <i type="string" name="SYSTEM">gr</i>
   <i type="logical" name="LCOMPAT"> F  </i>
  </separator>
  <separator name="electronic" >
   <i type="string" name="PREC">accura</i>
   <i name="ENMAX">   2000.00000000</i>
   <i name="ENAUG">    644.87300000</i>
   <i name="EDIFF">      0.00000000</i>
   <i type="int" name="IALGO">    68</i>
   <i type="int" name="IWAVPR">    11</i>
   <i type="int" name="NBANDS">    12</i>
   <i name="NELECT">     16.00000000</i>
   <i type="int" name="TURBO">     0</i>
   <i type="int" name="IRESTART">     0</i>
   <i type="int" name="NREBOOT">     0</i>
   <i type="int" name="NMIN">     0</i>
   <i name="EREF">      0.00000000</i>
   <separator name="electronic smearing" >
    <i type="int" name="ISMEAR">     0</i>
    <i name="SIGMA">      0.05000000</i>
    <i name="KSPACING">      0.50000000</i>
    <i type="logical" name="KGAMMA"> T  </i>
   </separator>
   <separator name="electronic projectors" >
    <i type="logical" name="LREAL"> F  </i>
    <v name="ROPT">      0.00000000</v>
    <i type="int" name="LMAXPAW">  -100</i>
    <i type="int" name="LMAXMIX">     2</i>
    <i type="logical" name="NLSPLINE"> F  </i>
   </separator>
   <separator name="electronic startup" >
    <i type="int" name="ISTART">     0</i>
    <i type="int" name="ICHARG">     2</i>
    <i type="int" name="INIWAV">     1</i>
   </separator>
   <separator name="electronic spin" >
    <i type="int" name="ISPIN">     1</i>
    <i type="logical" name="LNONCOLLINEAR"> F  </i>
    <v name="MAGMOM">      1.00000000      1.00000000      1.00000000      1.00000000</v>
    <i name="NUPDOWN">     -1.00000000</i>
    <i type="logical" name="LSORBIT"> F  </i>
    <v name="SAXIS">      0.00000000      0.00000000      1.00000000</v>
    <i type="logical" name="LSPIRAL"> F  </i>
    <v name="QSPIRAL">      0.00000000      0.00000000      0.00000000</v>
    <i type="logical" name="LZEROZ"> F  </i>
   </separator>
   <separator name="electronic exchange-correlation" >
    <i type="logical" name="LASPH"> F  </i>
    <i type="logical" name="LMETAGGA"> F  </i>
   </separator>
   <separator name="electronic convergence" >
    <i type="int" name="NELM">   100</i>
    <i type="int" name="NELMDL">    -3</i>
    <i type="int" name="NELMIN">     5</i>
    <i name="ENINI">   2000.00000000</i>
    <separator name="electronic convergence detail" >
     <i type="logical" name="LDIAG"> T  </i>
     <i type="logical" name="LSUBROT"> F  </i>
     <i name="WEIMIN">      0.00100000</i>
     <i name="EBREAK">      0.00000000</i>
     <i name="DEPER">      0.30000000</i>
     <i type="int" name="NRMM">     4</i>
     <i name="TIME">      0.40000000</i>
    </separator>
   </separator>
   <separator name="electronic mixer" >
    <i name="AMIX">      0.40000000</i>
    <i name="BMIX">      1.00000000</i>
    <i name="AMIN">      0.10000000</i>
    <i name="AMIX_MAG">      1.60000000</i>
    <i name="BMIX_MAG">      1.00000000</i>
    <separator name="electronic mixer details" >
     <i type="int" name="IMIX">     4</i>
     <i type="int" name="MAXMIX">   -45</i>
     <i name="WC">    100.00000000</i>
     <i type="int" name="INIMIX">     1</i>
     <i type="int" name="MIXPRE">     1</i>
     <i type="int" name="MREMOVE">     5</i>
    </separator>
   </separator>
   <separator name="electronic dipolcorrection" >
    <i type="logical" name="LDIPOL"> F  </i>
    <i type="logical" name="LMONO"> F  </i>
    <i type="int" name="IDIPOL">     0</i>
    <i name="EPSILON">      1.00000000</i>
    <v name="DIPOL">   -100.00000000   -100.00000000   -100.00000000</v>
    <i name="EFIELD">      0.00000000</i>
   </separator>
  </separator>
  <separator name="grids" >
   <i type="int" name="NGX">    64</i>
   <i type="int" name="NGY">    40</i>
   <i type="int" name="NGZ">   288</i>
   <i type="int" name="NGXF">   128</i>
   <i type="int" name="NGYF">    80</i>
   <i type="int" name="NGZF">   576</i>
   <i type="logical" name="ADDGRID"> F  </i>
  </separator>
  <separator name="ionic" >
   <i type="int" name="NSW">   400</i>
   <i type="int" name="IBRION">     1</i>
   <i type="int" name="ISIF">     2</i>
   <i name="PSTRESS">      0.00000000</i>
   <i name="EDIFFG">     -0.00000100</i>
   <i type="int" name="NFREE">     0</i>
   <i name="POTIM">      0.50000000</i>
   <i name="SMASS">     -3.00000000</i>
   <i name="SCALEE">      1.00000000</i>
  </separator>
  <separator name="ionic md" >
   <i name="TEBEG">      0.00010000</i>
   <i name="TEEND">      0.00010000</i>
   <i type="int" name="NBLOCK">     1</i>
   <i type="int" name="KBLOCK">   400</i>
   <i type="int" name="NPACO">   256</i>
   <i name="APACO">     16.00000000</i>
  </separator>
  <separator name="symmetry" >
   <i type="int" name="ISYM">     2</i>
   <i name="SYMPREC">      0.00001000</i>
  </separator>
  <separator name="dos" >
   <i type="logical" name="LORBIT"> F  </i>
   <v name="RWIGS">     -1.00000000</v>
   <i type="int" name="NEDOS">   301</i>
   <i name="EMIN">     10.00000000</i>
   <i name="EMAX">    -10.00000000</i>
   <i name="EFERMI">      0.00000000</i>
  </separator>
  <separator name="writing" >
   <i type="int" name="NWRITE">     2</i>
   <i type="logical" name="LWAVE"> F  </i>
   <i type="logical" name="LCHARG"> F  </i>
   <i type="logical" name="LPARD"> F  </i>
   <i type="logical" name="LVTOT"> F  </i>
   <i type="logical" name="LVHAR"> F  </i>
   <i type="logical" name="LELF"> F  </i>
   <i type="logical" name="LOPTICS"> F  </i>
   <v name="STM">      0.00000000      0.00000000      0.00000000      0.00000000      0.00000000      0.00000000      0.00000000</v>
  </separator>
  <separator name="performance" >
   <i type="int" name="NPAR">     4</i>
   <i type="int" name="NSIM">     4</i>
   <i type="int" name="NBLK">    -1</i>
   <i type="logical" name="LPLANE"> T  </i>
   <i type="logical" name="LSCALAPACK"> F  </i>
   <i type="logical" name="LSCAAWARE"> F  </i>
   <i type="logical" name="LSCALU"> F  </i>
   <i type="logical" name="LASYNC"> F  </i>
   <i type="logical" name="LORBITALREAL"> F  </i>
  </separator>
  <separator name="miscellaneous" >
   <i type="int" name="IDIOT">     3</i>
   <i type="logical" name="LMUSIC"> F  </i>
   <v name="POMASS">     12.01100000</v>
   <v name="DARWINR">      0.00000000</v>
   <v name="DARWINV">      1.00000000</v>
   <i type="logical" name="LCORR"> T  </i>
  </separator>
  <i type="logical" name="GGA_COMPAT"> T  </i>
  <i type="logical" name="LBERRY"> F  </i>
  <i type="int" name="ICORELEVEL">     0</i>
  <i type="logical" name="LDAU"> F  </i>
  <i type="int" name="I_CONSTRAINED_M">     0</i>
  <separator name="electronic exchange-correlation" >
   <i type="string" name="GGA">--</i>
   <i type="int" name="VOSKOWN">     0</i>
   <i type="logical" name="LHFCALC"> F  </i>
   <i type="string" name="PRECFOCK"></i>
   <i type="logical" name="LSYMGRAD"> F  </i>
   <i type="logical" name="LHFONE"> F  </i>
   <i type="logical" name="LRHFCALC"> F  </i>
   <i type="logical" name="LTHOMAS"> F  </i>
   <i type="logical" name="LMODELHF"> F  </i>
   <i name="ENCUT4O">     -1.00000000</i>
   <i type="int" name="EXXOEP">     0</i>
   <i type="int" name="FOURORBIT">     0</i>
   <i name="AEXX">      0.00000000</i>
   <i name="HFALPHA">      0.00000000</i>
   <i name="MCALPHA">      0.00000000</i>
   <i name="ALDAX">      1.00000000</i>
   <i name="AGGAX">      1.00000000</i>
   <i name="ALDAC">      1.00000000</i>
   <i name="AGGAC">      1.00000000</i>
   <i type="int" name="NKREDX">     1</i>
   <i type="int" name="NKREDY">     1</i>
   <i type="int" name="NKREDZ">     1</i>
   <i type="logical" name="SHIFTRED"> F  </i>
   <i type="logical" name="ODDONLY"> F  </i>
   <i type="logical" name="EVENONLY"> F  </i>
   <i type="int" name="LMAXFOCK">     0</i>
   <i type="int" name="NMAXFOCKAE">     0</i>
   <i type="logical" name="LFOCKAEDFT"> F  </i>
   <i name="HFSCREEN">      0.00000000</i>
   <i name="HFSCREENC">      0.00000000</i>
   <i type="int" name="NBANDSGWLOW">     0</i>
  </separator>
  <separator name="vdW DFT" >
   <i type="logical" name="LUSE_VDW"> F  </i>
   <i name="Zab_VDW">     -0.84910000</i>
   <i name="PARAM1">      0.12340000</i>
   <i name="PARAM2">      1.00000000</i>
   <i name="PARAM3">      0.00000000</i>
  </separator>
  <separator name="model GW" >
   <i type="int" name="MODEL_GW">     0</i>
   <i name="MODEL_EPS0">     31.62568521</i>
   <i name="MODEL_ALPHA">      1.00000000</i>
  </separator>
  <separator name="linear response parameters" >
   <i type="logical" name="LEPSILON"> F  </i>
   <i type="logical" name="LRPA"> F  </i>
   <i type="logical" name="LNABLA"> F  </i>
   <i type="logical" name="LVEL"> F  </i>
   <i type="int" name="KINTER">     0</i>
   <i name="CSHIFT">      0.10000000</i>
   <i name="OMEGAMAX">     -1.00000000</i>
   <i name="DEG_THRESHOLD">      0.00200000</i>
  </separator>
  <separator name="orbital magnetization" >
   <i type="logical" name="NUCIND"> F  </i>
   <v name="MAGPOS">      0.00000000      0.00000000      0.00000000</v>
   <i type="logical" name="LNICSALL"> T  </i>
   <i type="logical" name="ORBITALMAG"> F  </i>
   <i type="logical" name="LMAGBLOCH"> F  </i>
   <i type="logical" name="LCHIMAG"> F  </i>
   <i type="logical" name="LGAUGE"> T  </i>
   <i type="int" name="MAGATOM">     0</i>
   <v name="MAGDIPOL">      0.00000000      0.00000000      0.00000000</v>
   <v name="AVECCONST">      0.00000000      0.00000000      0.00000000</v>
  </separator>
  <separator name="response functions" >
   <i type="logical" name="LADDER"> F  </i>
   <i type="logical" name="LFXC"> F  </i>
   <i type="logical" name="LHARTREE"> T  </i>
   <i type="int" name="IBSE">     0</i>
   <i type="logical" name="LTCTE"> F  </i>
   <i type="logical" name="LTETE"> F  </i>
   <i type="logical" name="LTRIPLET"> F  </i>
   <i type="logical" name="LFXCEPS"> F  </i>
   <i type="logical" name="LFXHEG"> F  </i>
   <i type="logical" name="L2ORDER"> F  </i>
   <i type="logical" name="LUSEW"> F  </i>
   <i name="ENCUTGW">     -2.00000000</i>
   <i name="ENCUTGWSOFT">     -2.00000000</i>
   <i name="ENCUTLF">     -1.00000000</i>
   <i type="int" name="LMAXMP2">    -1</i>
   <i name="SCISSOR">      0.00000000</i>
   <i type="int" name="NOMEGA">     0</i>
   <i type="int" name="NOMEGAR">     0</i>
   <i type="int" name="NBANDSGW">    -1</i>
   <i type="int" name="NBANDSO">    -1</i>
   <i type="int" name="NBANDSV">    -1</i>
   <i type="int" name="NELM">   100</i>
   <i type="int" name="DIM">     3</i>
   <i type="int" name="ANTIRES">     0</i>
   <i name="OMEGAMAX">    -30.00000000</i>
   <i name="OMEGAMIN">    -30.00000000</i>
   <i name="OMEGATL">   -200.00000000</i>
   <i type="int" name="OMEGAGRID">     0</i>
   <i name="CSHIFT">     -0.10000000</i>
   <i type="logical" name="SELFENERGY"> F  </i>
   <i type="logical" name="LSPECTRAL"> F  </i>
   <i type="logical" name="ODDONLYGW"> F  </i>
   <i type="logical" name="EVENONLYGW"> F  </i>
   <i type="int" name="NKREDLFX">     1</i>
   <i type="int" name="NKREDLFY">     1</i>
   <i type="int" name="NKREDLFZ">     1</i>
   <i type="int" name="MAXMEM">  1800</i>
   <i type="int" name="TELESCOPE">     0</i>
   <i type="int" name="TAUPAR">     1</i>
  </separator>
  <separator name="External order field" >
   <i name="OFIELD_KAPPA">      0.00000000</i>
   <v name="OFIELD_K">      0.00000000      0.00000000      0.00000000</v>
   <i name="OFIELD_Q6_NEAR">      0.00000000</i>
   <i name="OFIELD_Q6_FAR">      0.00000000</i>
   <i name="OFIELD_A">      0.00000000</i>
  </separator>
 </parameters>
 <atominfo>
  <atoms>       4 </atoms>
  <types>       1 </types>
  <array name="atoms" >
   <dimension dim="1">ion</dimension>
   <field type="string">element</field>
   <field type="int">atomtype</field>
   <set>
    <rc><c>C </c><c>   1</c></rc>
    <rc><c>C </c><c>   1</c></rc>
    <rc><c>C </c><c>   1</c></rc>
    <rc><c>C </c><c>   1</c></rc>
   </set>
  </array>
  <array name="atomtypes" >
   <dimension dim="1">type</dimension>
   <field type="int">atomspertype</field>
   <field type="string">element</field>
   <field>mass</field>
   <field>valence</field>
   <field type="string">pseudopotential</field>
   <set>
    <rc><c>   4</c><c>C </c><c>     12.01100000</c><c>      4.00000000</c><c> PAW_PBE C 08Apr2002                    </c></rc>
   </set>
  </array>
 </atominfo>
 <structure name="initialpos" >
  <crystal>
   <varray name="basis" >
    <v>       4.25850440       0.00000000       0.00000000 </v>
    <v>       0.00000000       2.51689446       0.00000000 </v>
    <v>       0.00000000       0.00000000      19.67100639 </v>
   </varray>
   <i name="volume">    210.83790140 </i>
   <varray name="rec_basis" >
    <v>       0.23482423       0.00000000       0.00000000 </v>
    <v>       0.00000000       0.39731503       0.00000000 </v>
    <v>       0.00000000       0.00000000       0.05083624 </v>
   </varray>
  </crystal>
  <varray name="positions" >
   <v>       0.00051919       0.00000000       0.00000000 </v>
   <v>       0.16614747       0.50000000       0.00000000 </v>
   <v>       0.50051919       0.50000000       0.00000000 </v>
   <v>       0.66614747       0.00000000       0.00000000 </v>
  </varray>
 </structure>
 <calculation>
  <scstep>
   <time name="dav">  317.29  319.08</time>
   <time name="total">  320.02  321.87</time>
   <energy>
    <i name="alphaZ">      6.18334092 </i>
    <i name="ewald">   2476.25607232 </i>
    <i name="hartreedc">  -2904.94863948 </i>
    <i name="XCdc">     54.87243460 </i>
    <i name="pawpsdc">    151.32577238 </i>
    <i name="pawaedc">   -155.92769107 </i>
    <i name="eentropy">     -0.00193875 </i>
    <i name="bandstr">    -28.38841797 </i>
    <i name="atom">    588.62352690 </i>
    <i name="e_fr_energy">    187.99445987 </i>
    <i name="e_wo_entrp">    187.99639861 </i>
    <i name="e_0_energy">    187.99542924 </i>
   </energy>
  </scstep>
  <scstep>
   <time name="dav">  483.58  486.82</time>
   <time name="total">  483.59  486.83</time>
   <energy>
    <i name="e_fr_energy">     -9.52943848 </i>
    <i name="e_wo_entrp">     -9.52927895 </i>
    <i name="e_0_energy">     -9.52935872 </i>
   </energy>
  </scstep>
  <scstep>
   <time name="dav">  365.63  367.64</time>
   <time name="total">  398.99  401.41</time>
   <energy>
    <i name="e_fr_energy">    -38.18819244 </i>
    <i name="e_wo_entrp">    -38.18819243 </i>
    <i name="e_0_energy">    -38.18819244 </i>
   </energy>
  </scstep>
  <scstep>
   <time name="diag">   86.56   87.21</time>
   <time name="diis">  366.53  367.26</time>
   <time name="orth">    3.08    3.08</time>
   <time name="total">  492.39  493.89</time>
   <energy>
    <i name="e_fr_energy">    -37.60566749 </i>
    <i name="e_wo_entrp">    -37.60566734 </i>
    <i name="e_0_energy">    -37.60566741 </i>
   </energy>
  </scstep>
  <scstep>
   <time name="diag">   87.06   87.20</time>
   <time name="diis">  364.56  366.57</time>
   <time name="orth">    3.09    3.10</time>
   <time name="total">  490.84  493.26</time>
   <energy>
    <i name="e_fr_energy">    -36.89064121 </i>
    <i name="e_wo_entrp">    -36.89064083 </i>
    <i name="e_0_energy">    -36.89064102 </i>
   </energy>
  </scstep>
  <scstep>
   <time name="diag">   87.09   87.14</time>
   <time name="diis">  407.18  407.89</time>
   <time name="orth">    3.08    3.10</time>
   <time name="total">  533.02  534.02</time>
   <energy>
    <i name="e_fr_energy">    -36.89288324 </i>
    <i name="e_wo_entrp">    -36.89288286 </i>
    <i name="e_0_energy">    -36.89288305 </i>
   </energy>
  </scstep>
  <scstep>
   <time name="diag">   86.70   87.13</time>
   <time name="diis">  365.62  366.05</time>
   <time name="orth">    3.08    3.08</time>
   <time name="total">  491.51  492.43</time>
   <energy>
    <i name="e_fr_energy">    -36.88381503 </i>
    <i name="e_wo_entrp">    -36.88381473 </i>
    <i name="e_0_energy">    -36.88381488 </i>
   </energy>
  </scstep>
  <scstep>
   <time name="diag">   87.11   87.12</time>
   <time name="diis">  368.72  368.81</time>
   <time name="orth">    3.10    3.10</time>
   <time name="total">  495.05  495.19</time>
   <energy>
    <i name="e_fr_energy">    -36.87892320 </i>
    <i name="e_wo_entrp">    -36.87892287 </i>
    <i name="e_0_energy">    -36.87892303 </i>
   </energy>
  </scstep>
  <scstep>
   <time name="diag">   87.13   87.15</time>
   <time name="diis">  352.16  352.23</time>
   <time name="orth">    3.10    3.10</time>
   <time name="total">  478.20  478.48</time>
   <energy>
    <i name="e_fr_energy">    -36.87872671 </i>
    <i name="e_wo_entrp">    -36.87872633 </i>
    <i name="e_0_energy">    -36.87872652 </i>
   </energy>
  </scstep>
  <scstep>
   <time name="diag">   87.09   87.15</time>
   <time name="diis">  351.21  352.95</time>
   <time name="orth">    3.08    3.10</time>
   <time name="total">  477.03  479.05</time>
   <energy>
    <i name="e_fr_energy">    -36.87860262 </i>
    <i name="e_wo_entrp">    -36.87860227 </i>
    <i name="e_0_energy">    -36.87860244 </i>
   </energy>
  </scstep>
  <scstep>
   <time name="diag">   86.72   87.10</time>
   <time name="diis">  354.93  355.09</time>
   <time name="orth">    3.10    3.10</time>
   <time name="total">  480.75  481.36</time>
   <energy>
    <i name="e_fr_energy">    -36.88096876 </i>
    <i name="e_wo_entrp">    -36.88096843 </i>
    <i name="e_0_energy">    -36.88096860 </i>
   </energy>
  </scstep>
  <scstep>
   <time name="diag">   86.86   87.09</time>
   <time name="diis">  354.29  354.90</time>
   <time name="orth">    3.08    3.08</time>
   <time name="total">  480.17  481.33</time>
   <energy>
    <i name="e_fr_energy">    -36.88143943 </i>
    <i name="e_wo_entrp">    -36.88143909 </i>
    <i name="e_0_energy">    -36.88143926 </i>
   </energy>
  </scstep>
  <scstep>
   <time name="diag">   86.90   87.12</time>
   <time name="diis">  361.48  361.74</time>
   <time name="orth">    3.10    3.10</time>
   <time name="total">  487.13  488.02</time>
   <energy>
    <i name="e_fr_energy">    -36.88169991 </i>
    <i name="e_wo_entrp">    -36.88169957 </i>
    <i name="e_0_energy">    -36.88169974 </i>
   </energy>
  </scstep>
  <scstep>
   <time name="diag">   87.01   87.06</time>
   <time name="diis">  356.21  356.27</time>
   <time name="orth">    3.08    3.08</time>
   <time name="total">  481.90  482.04</time>
   <energy>
    <i name="e_fr_energy">    -36.88178090 </i>
    <i name="e_wo_entrp">    -36.88178055 </i>
    <i name="e_0_energy">    -36.88178072 </i>
   </energy>
  </scstep>
  <scstep>
   <time name="diag">   87.17   87.19</time>
   <time name="diis">  357.10  357.20</time>
   <time name="orth">    3.12    3.12</time>
   <time name="total">  483.21  483.37</time>
   <energy>
    <i name="e_fr_energy">    -36.88179172 </i>
    <i name="e_wo_entrp">    -36.88179137 </i>
    <i name="e_0_energy">    -36.88179155 </i>
   </energy>
  </scstep>
  <scstep>
   <time name="diag">   87.01   87.03</time>
   <time name="diis">  352.92  353.00</time>
   <time name="orth">    3.12    3.12</time>
   <time name="total">  478.86  478.97</time>
   <energy>
    <i name="e_fr_energy">    -36.88180451 </i>
    <i name="e_wo_entrp">    -36.88180416 </i>
    <i name="e_0_energy">    -36.88180434 </i>
   </energy>
  </scstep>
  <scstep>
   <time name="diag">   86.89   87.15</time>
   <time name="diis">  361.01  362.61</time>
   <time name="orth">    3.06    3.09</time>
   <time name="total">  486.07  488.32</time>
   <energy>
    <i name="e_fr_energy">    -36.88181012 </i>
    <i name="e_wo_entrp">    -36.88180977 </i>
    <i name="e_0_energy">    -36.88180994 </i>
   </energy>
  </scstep>
  <scstep>
   <time name="diag">   86.84   87.21</time>
   <time name="diis">  349.47  350.08</time>
   <time name="orth">    3.06    3.09</time>
   <time name="total">  474.47  475.88</time>
   <energy>
    <i name="e_fr_energy">    -36.88181121 </i>
    <i name="e_wo_entrp">    -36.88181086 </i>
    <i name="e_0_energy">    -36.88181104 </i>
   </energy>
  </scstep>
  <scstep>
   <time name="diag">   86.21   87.10</time>
   <time name="diis">  351.44  354.36</time>
   <time name="orth">    3.07    3.09</time>
   <time name="total">  476.04  480.29</time>
   <energy>
    <i name="e_fr_energy">    -36.88181196 </i>
    <i name="e_wo_entrp">    -36.88181161 </i>
    <i name="e_0_energy">    -36.88181179 </i>
   </energy>
  </scstep>
  <scstep>
   <time name="diag">   86.46   87.20</time>
   <time name="diis">  270.76  272.55</time>
   <time name="orth">    3.07    3.08</time>
   <time name="total">  395.84  398.68</time>
   <energy>
    <i name="e_fr_energy">    -36.88181201 </i>
    <i name="e_wo_entrp">    -36.88181167 </i>
    <i name="e_0_energy">    -36.88181184 </i>
   </energy>
  </scstep>
  <scstep>
   <time name="diag">   86.60   87.17</time>
   <time name="diis">  263.93  266.27</time>
   <time name="orth">    3.07    3.09</time>
   <time name="total">  388.73  392.03</time>
   <energy>
    <i name="e_fr_energy">    -36.88181203 </i>
    <i name="e_wo_entrp">    -36.88181168 </i>
    <i name="e_0_energy">    -36.88181186 </i>
   </energy>
  </scstep>
  <scstep>
   <time name="diag">   86.26   87.11</time>
   <time name="diis">  238.85  241.55</time>
   <time name="orth">    3.07    3.07</time>
   <time name="total">  363.56  367.53</time>
   <energy>
    <i name="e_fr_energy">    -36.88181203 </i>
    <i name="e_wo_entrp">    -36.88181168 </i>
    <i name="e_0_energy">    -36.88181186 </i>
   </energy>
  </scstep>
  <scstep>
   <time name="diag">   86.54   87.13</time>
   <time name="diis">  230.09  230.44</time>
   <time name="orth">    3.07    3.09</time>
   <time name="total">  355.16  356.22</time>
   <energy>
    <i name="e_fr_energy">    -36.88181203 </i>
    <i name="e_wo_entrp">    -36.88181168 </i>
    <i name="e_0_energy">    -36.88181186 </i>
   </energy>
  </scstep>
  <scstep>
   <time name="diag">   86.94   87.14</time>
   <time name="diis">  216.88  217.50</time>
   <time name="orth">    3.07    3.07</time>
   <time name="total">  342.18  343.06</time>
   <energy>
    <i name="e_fr_energy">    -36.88181203 </i>
    <i name="e_wo_entrp">    -36.88181168 </i>
    <i name="e_0_energy">    -36.88181186 </i>
   </energy>
  </scstep>
  <scstep>
   <time name="diag">   86.72   87.25</time>
   <time name="diis">  206.43  207.67</time>
   <time name="orth">    3.07    3.09</time>
   <time name="total">  298.80  300.65</time>
   <energy>
    <i name="alphaZ">      6.18334092 </i>
    <i name="ewald">   2476.25607232 </i>
    <i name="hartreedc">  -2970.47568616 </i>
    <i name="XCdc">     57.21680030 </i>
    <i name="pawpsdc">    270.42604760 </i>
    <i name="pawaedc">   -275.54476278 </i>
    <i name="eentropy">     -0.00000035 </i>
    <i name="bandstr">   -189.56715080 </i>
    <i name="atom">    588.62352690 </i>
    <i name="e_fr_energy">    -36.88181203 </i>
    <i name="e_wo_entrp">    -36.88181168 </i>
    <i name="e_0_energy">    -36.88181186 </i>
   </energy>
  </scstep>
  <structure>
   <crystal>
    <varray name="basis" >
     <v>       4.25850440       0.00000000       0.00000000 </v>
     <v>       0.00000000       2.51689446       0.00000000 </v>
     <v>       0.00000000       0.00000000      19.67100639 </v>
    </varray>
    <i name="volume">    210.83790140 </i>
    <varray name="rec_basis" >
     <v>       0.23482423       0.00000000       0.00000000 </v>
     <v>       0.00000000       0.39731503       0.00000000 </v>
     <v>       0.00000000       0.00000000       0.05083624 </v>
    </varray>
   </crystal>
   <varray name="positions" >
    <v>       0.00051919       0.00000000       0.00000000 </v>
    <v>       0.16614747       0.50000000       0.00000000 </v>
    <v>       0.50051919       0.50000000       0.00000000 </v>
    <v>       0.66614747       0.00000000       0.00000000 </v>
   </varray>
  </structure>
  <varray name="forces" >
   <v>       0.00055943      -0.00000000       0.00000000 </v>
   <v>      -0.00055943      -0.00000000      -0.00000000 </v>
   <v>       0.00055943       0.00000000       0.00000000 </v>
   <v>      -0.00055943       0.00000000      -0.00000000 </v>
  </varray>
  <varray name="stress" >
   <v>       0.00254939       0.00000000       0.00000000 </v>
   <v>       0.00000000     -33.13957847       0.00000000 </v>
   <v>       0.00000000       0.00000000      -0.01022468 </v>
  </varray>
  <energy>
   <i name="e_fr_energy">    -36.88181203 </i>
   <i name="e_wo_entrp">    -36.88181186 </i>
   <i name="e_0_energy">     -0.00000035 </i>
  </energy>
  <time name="totalsc">11236.8511278.20</time>
 </calculation>
 <calculation>
  <scstep>
   <time name="dav">  334.97  335.43</time>
   <time name="total">  370.66  371.12</time>
   <energy>
    <i name="alphaZ">      6.18334092 </i>
    <i name="ewald">   2476.25561003 </i>
    <i name="hartreedc">  -2970.47548803 </i>
    <i name="XCdc">     57.21678721 </i>
    <i name="pawpsdc">    270.42605020 </i>
    <i name="pawaedc">   -275.54476538 </i>
    <i name="eentropy">     -0.00000036 </i>
    <i name="bandstr">   -189.56687342 </i>
    <i name="atom">    588.62352690 </i>
    <i name="e_fr_energy">    -36.88181194 </i>
    <i name="e_wo_entrp">    -36.88181158 </i>
    <i name="e_0_energy">    -36.88181176 </i>
   </energy>
  </scstep>
  <scstep>
   <time name="diag">   87.01   87.04</time>
   <time name="diis">  351.43  351.53</time>
   <time name="orth">    3.10    3.10</time>
   <time name="total">  477.13  477.28</time>
   <energy>
    <i name="e_fr_energy">    -36.88181194 </i>
    <i name="e_wo_entrp">    -36.88181158 </i>
    <i name="e_0_energy">    -36.88181176 </i>
   </energy>
  </scstep>
  <scstep>
   <time name="diag">   86.99   87.04</time>
   <time name="diis">  353.55  354.93</time>
   <time name="orth">    3.09    3.11</time>
   <time name="total">  478.54  480.21</time>
   <energy>
    <i name="e_fr_energy">    -36.88181193 </i>
    <i name="e_wo_entrp">    -36.88181158 </i>
    <i name="e_0_energy">    -36.88181176 </i>
   </energy>
  </scstep>
  <scstep>
   <time name="diag">   86.60   87.04</time>
   <time name="diis">  353.19  354.35</time>
   <time name="orth">    3.10    3.10</time>
   <time name="total">  478.10  479.73</time>
   <energy>
    <i name="e_fr_energy">    -36.88181193 </i>
    <i name="e_wo_entrp">    -36.88181158 </i>
    <i name="e_0_energy">    -36.88181176 </i>
   </energy>
  </scstep>
  <scstep>
   <time name="diag">   86.57   87.00</time>
   <time name="diis">  237.27  239.58</time>
   <time name="orth">    3.09    3.12</time>
   <time name="total">  361.64  364.77</time>
   <energy>
    <i name="e_fr_energy">    -36.88181193 </i>
    <i name="e_wo_entrp">    -36.88181158 </i>
    <i name="e_0_energy">    -36.88181175 </i>
   </energy>
  </scstep>
  <scstep>
   <time name="diag">   86.66   87.11</time>
   <time name="diis">  232.32  232.36</time>
   <time name="orth">    3.10    3.10</time>
   <time name="total">  324.73  325.26</time>
   <energy>
    <i name="alphaZ">      6.18334092 </i>
    <i name="ewald">   2476.25561003 </i>
    <i name="hartreedc">  -2970.47530839 </i>
    <i name="XCdc">     57.21677948 </i>
    <i name="pawpsdc">    270.42524709 </i>
    <i name="pawaedc">   -275.54395888 </i>
    <i name="eentropy">     -0.00000036 </i>
    <i name="bandstr">   -189.56704873 </i>
    <i name="atom">    588.62352690 </i>
    <i name="e_fr_energy">    -36.88181193 </i>
    <i name="e_wo_entrp">    -36.88181158 </i>
    <i name="e_0_energy">    -36.88181175 </i>
   </energy>
  </scstep>
  <structure>
   <crystal>
    <varray name="basis" >
     <v>       4.25850440       0.00000000       0.00000000 </v>
     <v>       0.00000000       2.51689446       0.00000000 </v>
     <v>       0.00000000       0.00000000      19.67100639 </v>
    </varray>
    <i name="volume">    210.83790140 </i>
    <varray name="rec_basis" >
     <v>       0.23482423       0.00000000       0.00000000 </v>
     <v>       0.00000000       0.39731503       0.00000000 </v>
     <v>       0.00000000       0.00000000       0.05083624 </v>
    </varray>
   </crystal>
   <varray name="positions" >
    <v>       0.00052553      -0.00000000       0.00000000 </v>
    <v>       0.16614114       0.50000000      -0.00000000 </v>
    <v>       0.50052553       0.50000000       0.00000000 </v>
    <v>       0.66614114       0.00000000      -0.00000000 </v>
   </varray>
  </structure>
  <varray name="forces" >
   <v>      -0.00225601       0.00000000       0.00000000 </v>
   <v>       0.00225601       0.00000000      -0.00000000 </v>
   <v>      -0.00225601      -0.00000000       0.00000000 </v>
   <v>       0.00225601       0.00000000      -0.00000000 </v>
  </varray>
  <varray name="stress" >
   <v>      -0.00824029       0.00000000       0.00000000 </v>
   <v>       0.00000000     -33.13236544       0.00000000 </v>
   <v>       0.00000000       0.00000000      -0.01023804 </v>
  </varray>
  <energy>
   <i name="e_fr_energy">    -36.88181193 </i>
   <i name="e_wo_entrp">    -36.88181175 </i>
   <i name="e_0_energy">     -0.00000036 </i>
  </energy>
  <time name="totalsc"> 2597.08 2605.42</time>
 </calculation>
 <calculation>
  <scstep>
   <time name="dav">  346.44  347.81</time>
   <time name="total">  382.15  383.88</time>
   <energy>
    <i name="alphaZ">      6.18334092 </i>
    <i name="ewald">   2476.25598038 </i>
    <i name="hartreedc">  -2970.47546644 </i>
    <i name="XCdc">     57.21678998 </i>
    <i name="pawpsdc">    270.42524511 </i>
    <i name="pawaedc">   -275.54395687 </i>
    <i name="eentropy">     -0.00000035 </i>
    <i name="bandstr">   -189.56727167 </i>
    <i name="atom">    588.62352690 </i>
    <i name="e_fr_energy">    -36.88181203 </i>
    <i name="e_wo_entrp">    -36.88181168 </i>
    <i name="e_0_energy">    -36.88181186 </i>
   </energy>
  </scstep>
  <scstep>
   <time name="diag">   86.68   87.15</time>
   <time name="diis">  352.29  354.31</time>
   <time name="orth">    3.07    3.07</time>
   <time name="total">  477.88  480.37</time>
   <energy>
    <i name="e_fr_energy">    -36.88181204 </i>
    <i name="e_wo_entrp">    -36.88181169 </i>
    <i name="e_0_energy">    -36.88181186 </i>
   </energy>
  </scstep>
  <scstep>
   <time name="diag">   86.69   87.13</time>
   <time name="diis">  357.60  357.74</time>
   <time name="orth">    3.09    3.09</time>
   <time name="total">  483.53  484.12</time>
   <energy>
    <i name="e_fr_energy">    -36.88181204 </i>
    <i name="e_wo_entrp">    -36.88181169 </i>
    <i name="e_0_energy">    -36.88181186 </i>
   </energy>
  </scstep>
  <scstep>
   <time name="diag">   87.13   87.18</time>
   <time name="diis">  338.33  338.60</time>
   <time name="orth">    3.09    3.09</time>
   <time name="total">  464.89  465.29</time>
   <energy>
    <i name="e_fr_energy">    -36.88181204 </i>
    <i name="e_wo_entrp">    -36.88181169 </i>
    <i name="e_0_energy">    -36.88181186 </i>
   </energy>
  </scstep>
  <scstep>
   <time name="diag">   87.17   87.19</time>
   <time name="diis">  237.48  237.53</time>
   <time name="orth">    3.08    3.08</time>
   <time name="total">  330.38  330.46</time>
   <energy>
    <i name="alphaZ">      6.18334092 </i>
    <i name="ewald">   2476.25598038 </i>
    <i name="hartreedc">  -2970.47559469 </i>
    <i name="XCdc">     57.21679577 </i>
    <i name="pawpsdc">    270.42587273 </i>
    <i name="pawaedc">   -275.54458712 </i>
    <i name="eentropy">     -0.00000035 </i>
    <i name="bandstr">   -189.56714658 </i>
    <i name="atom">    588.62352690 </i>
    <i name="e_fr_energy">    -36.88181204 </i>
    <i name="e_wo_entrp">    -36.88181169 </i>
    <i name="e_0_energy">    -36.88181186 </i>
   </energy>
  </scstep>
  <structure>
   <crystal>
    <varray name="basis" >
     <v>       4.25850440       0.00000000       0.00000000 </v>
     <v>       0.00000000       2.51689446       0.00000000 </v>
     <v>       0.00000000       0.00000000      19.67100639 </v>
    </varray>
    <i name="volume">    210.83790140 </i>
    <varray name="rec_basis" >
     <v>       0.23482423       0.00000000       0.00000000 </v>
     <v>       0.00000000       0.39731503       0.00000000 </v>
     <v>       0.00000000       0.00000000       0.05083624 </v>
    </varray>
   </crystal>
   <varray name="positions" >
    <v>       0.00052045      -0.00000000       0.00000000 </v>
    <v>       0.16614621       0.50000000      -0.00000000 </v>
    <v>       0.50052045       0.50000000       0.00000000 </v>
    <v>       0.66614621       0.00000000      -0.00000000 </v>
   </varray>
  </structure>
  <varray name="forces" >
   <v>       0.00000758      -0.00000000      -0.00000000 </v>
   <v>      -0.00000758       0.00000000       0.00000000 </v>
   <v>       0.00000758       0.00000000      -0.00000000 </v>
   <v>      -0.00000758      -0.00000000       0.00000000 </v>
  </varray>
  <varray name="stress" >
   <v>       0.00034201       0.00000000       0.00000000 </v>
   <v>       0.00000000     -33.13806105       0.00000000 </v>
   <v>       0.00000000       0.00000000      -0.01020542 </v>
  </varray>
  <energy>
   <i name="e_fr_energy">    -36.88181204 </i>
   <i name="e_wo_entrp">    -36.88181186 </i>
   <i name="e_0_energy">     -0.00000035 </i>
  </energy>
  <time name="totalsc"> 2244.80 2250.21</time>
 </calculation>
 <calculation>
  <scstep>
   <time name="dav">  282.96  283.11</time>
   <time name="total">  319.27  319.44</time>
   <energy>
    <i name="alphaZ">      6.18334092 </i>
    <i name="ewald">   2476.25597914 </i>
    <i name="hartreedc">  -2970.47559850 </i>
    <i name="XCdc">     57.21679597 </i>
    <i name="pawpsdc">    270.42589229 </i>
    <i name="pawaedc">   -275.54460679 </i>
    <i name="eentropy">     -0.00000035 </i>
    <i name="bandstr">   -189.56714163 </i>
    <i name="atom">    588.62352690 </i>
    <i name="e_fr_energy">    -36.88181203 </i>
    <i name="e_wo_entrp">    -36.88181169 </i>
    <i name="e_0_energy">    -36.88181186 </i>
   </energy>
  </scstep>
  <scstep>
   <time name="diag">   87.12   87.13</time>
   <time name="diis">  218.83  218.86</time>
   <time name="orth">    3.07    3.07</time>
   <time name="total">  345.42  345.48</time>
   <energy>
    <i name="e_fr_energy">    -36.88181204 </i>
    <i name="e_wo_entrp">    -36.88181169 </i>
    <i name="e_0_energy">    -36.88181186 </i>
   </energy>
  </scstep>
  <scstep>
   <time name="diag">   87.16   87.19</time>
   <time name="diis">  210.21  210.25</time>
   <time name="orth">    3.08    3.08</time>
   <time name="total">  336.71  337.31</time>
   <energy>
    <i name="e_fr_energy">    -36.88181204 </i>
    <i name="e_wo_entrp">    -36.88181169 </i>
    <i name="e_0_energy">    -36.88181186 </i>
   </energy>
  </scstep>
  <scstep>
   <time name="diag">   87.09   87.13</time>
   <time name="diis">  202.12  202.27</time>
   <time name="orth">    3.07    3.07</time>
   <time name="total">  328.59  338.57</time>
   <energy>
    <i name="e_fr_energy">    -36.88181204 </i>
    <i name="e_wo_entrp">    -36.88181169 </i>
    <i name="e_0_energy">    -36.88181186 </i>
   </energy>
  </scstep>
  <scstep>
   <time name="diag">   87.13   87.20</time>
   <time name="diis">  194.57  194.60</time>
   <time name="orth">    3.08    3.08</time>
   <time name="total">  321.15  321.30</time>
   <energy>
    <i name="e_fr_energy">    -36.88181204 </i>
    <i name="e_wo_entrp">    -36.88181169 </i>
    <i name="e_0_energy">    -36.88181186 </i>
   </energy>
  </scstep>
  <scstep>
   <time name="diag">   87.12   87.14</time>
   <time name="diis">  184.56  184.60</time>
   <time name="orth">    3.08    3.08</time>
   <time name="total">  311.17  311.25</time>
   <energy>
    <i name="e_fr_energy">    -36.88181204 </i>
    <i name="e_wo_entrp">    -36.88181169 </i>
    <i name="e_0_energy">    -36.88181186 </i>
   </energy>
  </scstep>
  <scstep>
   <time name="diag">   87.11   87.14</time>
   <time name="diis">  183.56  183.71</time>
   <time name="orth">    3.08    3.08</time>
   <time name="total">  310.11  310.33</time>
   <energy>
    <i name="e_fr_energy">    -36.88181204 </i>
    <i name="e_wo_entrp">    -36.88181169 </i>
    <i name="e_0_energy">    -36.88181186 </i>
   </energy>
  </scstep>
  <scstep>
   <time name="diag">   87.06   87.19</time>
   <time name="diis">  177.79  178.44</time>
   <time name="orth">    3.07    3.09</time>
   <time name="total">  270.59  271.40</time>
   <energy>
    <i name="alphaZ">      6.18334092 </i>
    <i name="ewald">   2476.25597914 </i>
    <i name="hartreedc">  -2970.47560750 </i>
    <i name="XCdc">     57.21679614 </i>
    <i name="pawpsdc">    270.42588797 </i>
    <i name="pawaedc">   -275.54460250 </i>
    <i name="eentropy">     -0.00000035 </i>
    <i name="bandstr">   -189.56713276 </i>
    <i name="atom">    588.62352690 </i>
    <i name="e_fr_energy">    -36.88181204 </i>
    <i name="e_wo_entrp">    -36.88181169 </i>
    <i name="e_0_energy">    -36.88181186 </i>
   </energy>
  </scstep>
  <structure>
   <crystal>
    <varray name="basis" >
     <v>       4.25850440       0.00000000       0.00000000 </v>
     <v>       0.00000000       2.51689446       0.00000000 </v>
     <v>       0.00000000       0.00000000      19.67100639 </v>
    </varray>
    <i name="volume">    210.83790140 </i>
    <varray name="rec_basis" >
     <v>       0.23482423       0.00000000       0.00000000 </v>
     <v>       0.00000000       0.39731503       0.00000000 </v>
     <v>       0.00000000       0.00000000       0.05083624 </v>
    </varray>
   </crystal>
   <varray name="positions" >
    <v>       0.00052047      -0.00000000      -0.00000000 </v>
    <v>       0.16614620       0.50000000       0.00000000 </v>
    <v>       0.50052047       0.50000000      -0.00000000 </v>
    <v>       0.66614620      -0.00000000       0.00000000 </v>
   </varray>
  </structure>
  <varray name="forces" >
   <v>      -0.00001030       0.00000000      -0.00000000 </v>
   <v>       0.00001030      -0.00000000       0.00000000 </v>
   <v>      -0.00001030      -0.00000000      -0.00000000 </v>
   <v>       0.00001030       0.00000000       0.00000000 </v>
  </varray>
  <varray name="stress" >
   <v>       0.00036470       0.00000000       0.00000000 </v>
   <v>       0.00000000     -33.13809133       0.00000000 </v>
   <v>       0.00000000       0.00000000      -0.01021212 </v>
  </varray>
  <energy>
   <i name="e_fr_energy">    -36.88181204 </i>
   <i name="e_wo_entrp">    -36.88181186 </i>
   <i name="e_0_energy">     -0.00000035 </i>
  </energy>
  <time name="totalsc"> 2648.51 2660.89</time>
 </calculation>
 <calculation>
  <scstep>
   <time name="dav">  272.64  274.16</time>
   <time name="total">  308.77  310.60</time>
   <energy>
    <i name="alphaZ">      6.18334092 </i>
    <i name="ewald">   2476.25597986 </i>
    <i name="hartreedc">  -2970.47560813 </i>
    <i name="XCdc">     57.21679616 </i>
    <i name="pawpsdc">    270.42588798 </i>
    <i name="pawaedc">   -275.54460251 </i>
    <i name="eentropy">     -0.00000035 </i>
    <i name="bandstr">   -189.56713286 </i>
    <i name="atom">    588.62352690 </i>
    <i name="e_fr_energy">    -36.88181203 </i>
    <i name="e_wo_entrp">    -36.88181169 </i>
    <i name="e_0_energy">    -36.88181186 </i>
   </energy>
  </scstep>
  <scstep>
   <time name="diag">   87.10   87.18</time>
   <time name="diis">  164.97  165.20</time>
   <time name="orth">    3.09    3.09</time>
   <time name="total">  291.57  291.91</time>
   <energy>
    <i name="e_fr_energy">    -36.88181204 </i>
    <i name="e_wo_entrp">    -36.88181169 </i>
    <i name="e_0_energy">    -36.88181186 </i>
   </energy>
  </scstep>
  <scstep>
   <time name="diag">   86.96   87.14</time>
   <time name="diis">  162.82  163.27</time>
   <time name="orth">    3.07    3.09</time>
   <time name="total">  289.05  289.91</time>
   <energy>
    <i name="e_fr_energy">    -36.88181204 </i>
    <i name="e_wo_entrp">    -36.88181169 </i>
    <i name="e_0_energy">    -36.88181186 </i>
   </energy>
  </scstep>
  <scstep>
   <time name="diag">   86.67   87.19</time>
   <time name="diis">  154.33  155.32</time>
   <time name="orth">    3.07    3.07</time>
   <time name="total">  280.15  281.97</time>
   <energy>
    <i name="e_fr_energy">    -36.88181204 </i>
    <i name="e_wo_entrp">    -36.88181169 </i>
    <i name="e_0_energy">    -36.88181186 </i>
   </energy>
  </scstep>
  <scstep>
   <time name="diag">   86.67   87.15</time>
   <time name="diis">  148.63  149.49</time>
   <time name="orth">    3.06    3.09</time>
   <time name="total">  274.40  276.47</time>
   <energy>
    <i name="e_fr_energy">    -36.88181204 </i>
    <i name="e_wo_entrp">    -36.88181169 </i>
    <i name="e_0_energy">    -36.88181186 </i>
   </energy>
  </scstep>
  <scstep>
   <time name="diag">   86.48   87.13</time>
   <time name="diis">  152.62  153.79</time>
   <time name="orth">    3.08    3.09</time>
   <time name="total">  278.01  280.35</time>
   <energy>
    <i name="e_fr_energy">    -36.88181204 </i>
    <i name="e_wo_entrp">    -36.88181169 </i>
    <i name="e_0_energy">    -36.88181186 </i>
   </energy>
  </scstep>
  <scstep>
   <time name="diag">   86.83   87.05</time>
   <time name="diis">  150.38  150.41</time>
   <time name="orth">    3.10    3.10</time>
   <time name="total">  242.94  243.23</time>
   <energy>
    <i name="alphaZ">      6.18334092 </i>
    <i name="ewald">   2476.25597986 </i>
    <i name="hartreedc">  -2970.47560783 </i>
    <i name="XCdc">     57.21679614 </i>
    <i name="pawpsdc">    270.42588964 </i>
    <i name="pawaedc">   -275.54460418 </i>
    <i name="eentropy">     -0.00000035 </i>
    <i name="bandstr">   -189.56713314 </i>
    <i name="atom">    588.62352690 </i>
    <i name="e_fr_energy">    -36.88181204 </i>
    <i name="e_wo_entrp">    -36.88181169 </i>
    <i name="e_0_energy">    -36.88181186 </i>
   </energy>
  </scstep>
  <structure>
   <crystal>
    <varray name="basis" >
     <v>       4.25850440       0.00000000       0.00000000 </v>
     <v>       0.00000000       2.51689446       0.00000000 </v>
     <v>       0.00000000       0.00000000      19.67100639 </v>
    </varray>
    <i name="volume">    210.83790140 </i>
    <varray name="rec_basis" >
     <v>       0.23482423       0.00000000       0.00000000 </v>
     <v>       0.00000000       0.39731503       0.00000000 </v>
     <v>       0.00000000       0.00000000       0.05083624 </v>
    </varray>
   </crystal>
   <varray name="positions" >
    <v>       0.00052046      -0.00000000      -0.00000000 </v>
    <v>       0.16614621       0.50000000       0.00000000 </v>
    <v>       0.50052046       0.50000000      -0.00000000 </v>
    <v>       0.66614621      -0.00000000       0.00000000 </v>
   </varray>
  </structure>
  <varray name="forces" >
   <v>      -0.00000165       0.00000000      -0.00000000 </v>
   <v>       0.00000165       0.00000000       0.00000000 </v>
   <v>      -0.00000165       0.00000000      -0.00000000 </v>
   <v>       0.00000165      -0.00000000       0.00000000 </v>
  </varray>
  <varray name="stress" >
   <v>       0.00040197       0.00000000       0.00000000 </v>
   <v>       0.00000000     -33.13812495       0.00000000 </v>
   <v>       0.00000000       0.00000000      -0.01021718 </v>
  </varray>
  <energy>
   <i name="e_fr_energy">    -36.88181204 </i>
   <i name="e_wo_entrp">    -36.88181186 </i>
   <i name="e_0_energy">     -0.00000035 </i>
  </energy>
  <time name="totalsc"> 2073.29 2083.09</time>
 </calculation>
 <calculation>
  <scstep>
   <time name="dav">  274.85  275.79</time>
   <time name="total">  311.08  312.21</time>
   <energy>
    <i name="alphaZ">      6.18334092 </i>
    <i name="ewald">   2476.25597999 </i>
    <i name="hartreedc">  -2970.47560789 </i>
    <i name="XCdc">     57.21679615 </i>
    <i name="pawpsdc">    270.42588965 </i>
    <i name="pawaedc">   -275.54460419 </i>
    <i name="eentropy">     -0.00000035 </i>
    <i name="bandstr">   -189.56713322 </i>
    <i name="atom">    588.62352690 </i>
    <i name="e_fr_energy">    -36.88181203 </i>
    <i name="e_wo_entrp">    -36.88181169 </i>
    <i name="e_0_energy">    -36.88181186 </i>
   </energy>
  </scstep>
  <scstep>
   <time name="diag">   86.59   87.05</time>
   <time name="diis">  139.10  139.70</time>
   <time name="orth">    3.07    3.09</time>
   <time name="total">  265.06  266.35</time>
   <energy>
    <i name="e_fr_energy">    -36.88181204 </i>
    <i name="e_wo_entrp">    -36.88181169 </i>
    <i name="e_0_energy">    -36.88181186 </i>
   </energy>
  </scstep>
  <scstep>
   <time name="diag">   86.68   87.09</time>
   <time name="diis">  142.90  143.58</time>
   <time name="orth">    3.08    3.10</time>
   <time name="total">  268.96  270.26</time>
   <energy>
    <i name="e_fr_energy">    -36.88181204 </i>
    <i name="e_wo_entrp">    -36.88181169 </i>
    <i name="e_0_energy">    -36.88181186 </i>
   </energy>
  </scstep>
  <scstep>
   <time name="diag">   87.04   87.07</time>
   <time name="diis">  142.28  142.35</time>
   <time name="orth">    3.09    3.10</time>
   <time name="total">  268.87  268.99</time>
   <energy>
    <i name="e_fr_energy">    -36.88181204 </i>
    <i name="e_wo_entrp">    -36.88181169 </i>
    <i name="e_0_energy">    -36.88181186 </i>
   </energy>
  </scstep>
  <scstep>
   <time name="diag">   86.66   87.04</time>
   <time name="diis">  145.51  145.54</time>
   <time name="orth">    3.10    3.10</time>
   <time name="total">  271.72  272.16</time>
   <energy>
    <i name="e_fr_energy">    -36.88181204 </i>
    <i name="e_wo_entrp">    -36.88181169 </i>
    <i name="e_0_energy">    -36.88181186 </i>
   </energy>
  </scstep>
  <scstep>
   <time name="diag">   87.17   87.19</time>
   <time name="diis">  133.94  134.04</time>
   <time name="orth">    3.08    3.08</time>
   <time name="total">  260.52  260.81</time>
   <energy>
    <i name="e_fr_energy">    -36.88181204 </i>
    <i name="e_wo_entrp">    -36.88181169 </i>
    <i name="e_0_energy">    -36.88181186 </i>
   </energy>
  </scstep>
  <scstep>
   <time name="diag">   86.78   87.09</time>
   <time name="diis">  134.75  134.77</time>
   <time name="orth">    3.10    3.10</time>
   <time name="total">  261.00  261.75</time>
   <energy>
    <i name="e_fr_energy">    -36.88181204 </i>
    <i name="e_wo_entrp">    -36.88181169 </i>
    <i name="e_0_energy">    -36.88181186 </i>
   </energy>
  </scstep>
  <scstep>
   <time name="diag">   87.08   87.10</time>
   <time name="diis">  130.87  131.04</time>
   <time name="orth">    3.09    3.10</time>
   <time name="total">  257.50  257.71</time>
   <energy>
    <i name="e_fr_energy">    -36.88181204 </i>
    <i name="e_wo_entrp">    -36.88181169 </i>
    <i name="e_0_energy">    -36.88181186 </i>
   </energy>
  </scstep>
  <scstep>
   <time name="diag">   87.09   87.11</time>
   <time name="diis">  130.80  130.87</time>
   <time name="orth">    3.09    3.09</time>
   <time name="total">  257.53  257.65</time>
   <energy>
    <i name="e_fr_energy">    -36.88181204 </i>
    <i name="e_wo_entrp">    -36.88181169 </i>
    <i name="e_0_energy">    -36.88181186 </i>
   </energy>
  </scstep>
  <scstep>
   <time name="diag">   87.05   87.07</time>
   <time name="diis">  120.24  120.29</time>
   <time name="orth">    3.09    3.09</time>
   <time name="total">  213.06  213.13</time>
   <energy>
    <i name="alphaZ">      6.18334092 </i>
    <i name="ewald">   2476.25597999 </i>
    <i name="hartreedc">  -2970.47560811 </i>
    <i name="XCdc">     57.21679616 </i>
    <i name="pawpsdc">    270.42588996 </i>
    <i name="pawaedc">   -275.54460450 </i>
    <i name="eentropy">     -0.00000035 </i>
    <i name="bandstr">   -189.56713301 </i>
    <i name="atom">    588.62352690 </i>
    <i name="e_fr_energy">    -36.88181204 </i>
    <i name="e_wo_entrp">    -36.88181169 </i>
    <i name="e_0_energy">    -36.88181186 </i>
   </energy>
  </scstep>
  <structure>
   <crystal>
    <varray name="basis" >
     <v>       4.25850440       0.00000000       0.00000000 </v>
     <v>       0.00000000       2.51689446       0.00000000 </v>
     <v>       0.00000000       0.00000000      19.67100639 </v>
    </varray>
    <i name="volume">    210.83790140 </i>
    <varray name="rec_basis" >
     <v>       0.23482423       0.00000000       0.00000000 </v>
     <v>       0.00000000       0.39731503       0.00000000 </v>
     <v>       0.00000000       0.00000000       0.05083624 </v>
    </varray>
   </crystal>
   <varray name="positions" >
    <v>       0.00052046      -0.00000000      -0.00000000 </v>
    <v>       0.16614621       0.50000000       0.00000000 </v>
    <v>       0.50052046       0.50000000      -0.00000000 </v>
    <v>       0.66614621      -0.00000000       0.00000000 </v>
   </varray>
  </structure>
  <varray name="forces" >
   <v>      -0.00000188       0.00000000       0.00000000 </v>
   <v>       0.00000188      -0.00000000       0.00000000 </v>
   <v>      -0.00000188       0.00000000       0.00000000 </v>
   <v>       0.00000188      -0.00000000       0.00000000 </v>
  </varray>
  <varray name="stress" >
   <v>       0.00040022       0.00000000       0.00000000 </v>
   <v>       0.00000000     -33.13812260       0.00000000 </v>
   <v>       0.00000000       0.00000000      -0.01021572 </v>
  </varray>
  <energy>
   <i name="e_fr_energy">    -36.88181204 </i>
   <i name="e_wo_entrp">    -36.88181186 </i>
   <i name="e_0_energy">     -0.00000035 </i>
  </energy>
  <time name="totalsc"> 2744.01 2750.04</time>
 </calculation>
 <calculation>
  <scstep>
   <time name="dav">  257.84  257.99</time>
   <time name="total">  294.28  294.43</time>
   <energy>
    <i name="alphaZ">      6.18334092 </i>
    <i name="ewald">   2476.25597887 </i>
    <i name="hartreedc">  -2970.47560762 </i>
    <i name="XCdc">     57.21679612 </i>
    <i name="pawpsdc">    270.42588996 </i>
    <i name="pawaedc">   -275.54460450 </i>
    <i name="eentropy">     -0.00000035 </i>
    <i name="bandstr">   -189.56713235 </i>
    <i name="atom">    588.62352690 </i>
    <i name="e_fr_energy">    -36.88181203 </i>
    <i name="e_wo_entrp">    -36.88181169 </i>
    <i name="e_0_energy">    -36.88181186 </i>
   </energy>
  </scstep>
  <scstep>
   <time name="diag">   86.23   87.13</time>
   <time name="diis">  128.39  129.72</time>
   <time name="orth">    3.08    3.08</time>
   <time name="total">  253.79  256.38</time>
   <energy>
    <i name="e_fr_energy">    -36.88181204 </i>
    <i name="e_wo_entrp">    -36.88181169 </i>
    <i name="e_0_energy">    -36.88181186 </i>
   </energy>
  </scstep>
  <scstep>
   <time name="diag">   86.38   87.10</time>
   <time name="diis">  120.17  121.42</time>
   <time name="orth">    3.09    3.10</time>
   <time name="total">  245.75  248.06</time>
   <energy>
    <i name="e_fr_energy">    -36.88181204 </i>
    <i name="e_wo_entrp">    -36.88181169 </i>
    <i name="e_0_energy">    -36.88181186 </i>
   </energy>
  </scstep>
  <scstep>
   <time name="diag">   86.39   87.13</time>
   <time name="diis">  116.27  117.08</time>
   <time name="orth">    3.08    3.11</time>
   <time name="total">  241.93  243.79</time>
   <energy>
    <i name="e_fr_energy">    -36.88181204 </i>
    <i name="e_wo_entrp">    -36.88181169 </i>
    <i name="e_0_energy">    -36.88181186 </i>
   </energy>
  </scstep>
  <scstep>
   <time name="diag">   86.48   87.26</time>
   <time name="diis">  123.24  124.00</time>
   <time name="orth">    3.08    3.09</time>
   <time name="total">  248.98  250.85</time>
   <energy>
    <i name="e_fr_energy">    -36.88181204 </i>
    <i name="e_wo_entrp">    -36.88181169 </i>
    <i name="e_0_energy">    -36.88181186 </i>
   </energy>
  </scstep>
  <scstep>
   <time name="diag">   86.64   87.13</time>
   <time name="diis">  137.68  138.12</time>
   <time name="orth">    3.08    3.10</time>
   <time name="total">  263.56  264.77</time>
   <energy>
    <i name="e_fr_energy">    -36.88181204 </i>
    <i name="e_wo_entrp">    -36.88181169 </i>
    <i name="e_0_energy">    -36.88181186 </i>
   </energy>
  </scstep>
  <scstep>
   <time name="diag">   86.50   87.05</time>
   <time name="diis">  127.70  128.95</time>
   <time name="orth">    3.07    3.09</time>
   <time name="total">  253.42  255.56</time>
   <energy>
    <i name="e_fr_energy">    -36.88181204 </i>
    <i name="e_wo_entrp">    -36.88181169 </i>
    <i name="e_0_energy">    -36.88181186 </i>
   </energy>
  </scstep>
  <scstep>
   <time name="diag">   86.69   87.07</time>
   <time name="diis">  125.69  126.62</time>
   <time name="orth">    3.07    3.07</time>
   <time name="total">  251.80  253.21</time>
   <energy>
    <i name="e_fr_energy">    -36.88181204 </i>
    <i name="e_wo_entrp">    -36.88181169 </i>
    <i name="e_0_energy">    -36.88181186 </i>
   </energy>
  </scstep>
  <scstep>
   <time name="diag">   86.64   87.06</time>
   <time name="diis">  123.01  124.23</time>
   <time name="orth">    3.07    3.09</time>
   <time name="total">  248.77  250.87</time>
   <energy>
    <i name="e_fr_energy">    -36.88181204 </i>
    <i name="e_wo_entrp">    -36.88181169 </i>
    <i name="e_0_energy">    -36.88181186 </i>
   </energy>
  </scstep>
  <scstep>
   <time name="diag">   86.56   87.09</time>
   <time name="diis">  119.42  120.33</time>
   <time name="orth">    3.07    3.09</time>
   <time name="total">  245.08  246.96</time>
   <energy>
    <i name="e_fr_energy">    -36.88181204 </i>
    <i name="e_wo_entrp">    -36.88181169 </i>
    <i name="e_0_energy">    -36.88181186 </i>
   </energy>
  </scstep>
  <scstep>
   <time name="diag">   86.31   87.08</time>
   <time name="diis">  118.44  119.45</time>
   <time name="orth">    3.11    3.12</time>
   <time name="total">  244.02  246.16</time>
   <energy>
    <i name="e_fr_energy">    -36.88181204 </i>
    <i name="e_wo_entrp">    -36.88181169 </i>
    <i name="e_0_energy">    -36.88181186 </i>
   </energy>
  </scstep>
  <scstep>
   <time name="diag">   86.70   87.17</time>
   <time name="diis">  123.64  123.98</time>
   <time name="orth">    3.07    3.07</time>
   <time name="total">  249.62  250.69</time>
   <energy>
    <i name="e_fr_energy">    -36.88181204 </i>
    <i name="e_wo_entrp">    -36.88181169 </i>
    <i name="e_0_energy">    -36.88181186 </i>
   </energy>
  </scstep>
  <scstep>
   <time name="diag">   86.38   87.10</time>
   <time name="diis">  114.88  115.89</time>
   <time name="orth">    3.07    3.09</time>
   <time name="total">  206.99  208.78</time>
   <energy>
    <i name="alphaZ">      6.18334092 </i>
    <i name="ewald">   2476.25597887 </i>
    <i name="hartreedc">  -2970.47560690 </i>
    <i name="XCdc">     57.21679609 </i>
    <i name="pawpsdc">    270.42588668 </i>
    <i name="pawaedc">   -275.54460121 </i>
    <i name="eentropy">     -0.00000035 </i>
    <i name="bandstr">   -189.56713305 </i>
    <i name="atom">    588.62352690 </i>
    <i name="e_fr_energy">    -36.88181204 </i>
    <i name="e_wo_entrp">    -36.88181169 </i>
    <i name="e_0_energy">    -36.88181186 </i>
   </energy>
  </scstep>
  <structure>
   <crystal>
    <varray name="basis" >
     <v>       4.25850440       0.00000000       0.00000000 </v>
     <v>       0.00000000       2.51689446       0.00000000 </v>
     <v>       0.00000000       0.00000000      19.67100639 </v>
    </varray>
    <i name="volume">    210.83790140 </i>
[...]
       <r>   -9.0465    1.0000 </r>
       <r>   -5.6508    1.0000 </r>
       <r>   -5.6508    1.0000 </r>
       <r>   -0.5439    0.0000 </r>
       <r>   -0.5439    0.0000 </r>
       <r>    4.8167    0.0000 </r>
       <r>    4.8167    0.0000 </r>
      </set>
      <set comment="kpoint 209">
       <r>  -18.8395    1.0000 </r>
       <r>  -17.1322    1.0000 </r>
       <r>  -13.8973    1.0000 </r>
       <r>  -12.3333    1.0000 </r>
       <r>  -12.3278    1.0000 </r>
       <r>  -10.8567    1.0000 </r>
       <r>   -6.4834    1.0000 </r>
       <r>   -4.6659    1.0000 </r>
       <r>   -0.9947    0.0000 </r>
       <r>    1.0813    0.0000 </r>
       <r>    5.0741    0.0000 </r>
       <r>    5.8632    0.0000 </r>
      </set>
      <set comment="kpoint 210">
       <r>  -18.8297    1.0000 </r>
       <r>  -17.1247    1.0000 </r>
       <r>  -13.9887    1.0000 </r>
       <r>  -12.4137    1.0000 </r>
       <r>  -12.2336    1.0000 </r>
       <r>  -10.7725    1.0000 </r>
       <r>   -6.4746    1.0000 </r>
       <r>   -4.6681    1.0000 </r>
       <r>   -1.0056    0.0000 </r>
       <r>    1.0554    0.0000 </r>
       <r>    5.0878    0.0000 </r>
       <r>    5.8794    0.0000 </r>
      </set>
      <set comment="kpoint 211">
       <r>  -18.8005    1.0000 </r>
       <r>  -17.1025    1.0000 </r>
       <r>  -14.2122    1.0000 </r>
       <r>  -12.6277    1.0000 </r>
       <r>  -11.9851    1.0000 </r>
       <r>  -10.5642    1.0000 </r>
       <r>   -6.4483    1.0000 </r>
       <r>   -4.6753    1.0000 </r>
       <r>   -1.0365    0.0000 </r>
       <r>    0.9796    0.0000 </r>
       <r>    5.1289    0.0000 </r>
       <r>    5.9276    0.0000 </r>
      </set>
      <set comment="kpoint 212">
       <r>  -18.7519    1.0000 </r>
       <r>  -17.0671    1.0000 </r>
       <r>  -14.4937    1.0000 </r>
       <r>  -12.9044    1.0000 </r>
       <r>  -11.6620    1.0000 </r>
       <r>  -10.2993    1.0000 </r>
       <r>   -6.4047    1.0000 </r>
       <r>   -4.6888    1.0000 </r>
       <r>   -1.0819    0.0000 </r>
       <r>    0.8594    0.0000 </r>
       <r>    5.1970    0.0000 </r>
       <r>    6.0067    0.0000 </r>
      </set>
      <set comment="kpoint 213">
       <r>  -18.6841    1.0000 </r>
       <r>  -17.0210    1.0000 </r>
       <r>  -14.7903    1.0000 </r>
       <r>  -13.2062    1.0000 </r>
       <r>  -11.3069    1.0000 </r>
       <r>  -10.0188    1.0000 </r>
       <r>   -6.3444    1.0000 </r>
       <r>   -4.7112    1.0000 </r>
       <r>   -1.1340    0.0000 </r>
       <r>    0.7027    0.0000 </r>
       <r>    5.2913    0.0000 </r>
       <r>    6.1153    0.0000 </r>
      </set>
      <set comment="kpoint 214">
       <r>  -18.5973    1.0000 </r>
       <r>  -16.9694    1.0000 </r>
       <r>  -15.0785    1.0000 </r>
       <r>  -13.5149    1.0000 </r>
       <r>  -10.9417    1.0000 </r>
       <r>   -9.7456    1.0000 </r>
       <r>   -6.2681    1.0000 </r>
       <r>   -4.7453    1.0000 </r>
       <r>   -1.1833    0.0000 </r>
       <r>    0.5184    0.0000 </r>
       <r>    5.4082    0.0000 </r>
       <r>    6.1824    0.0000 </r>
      </set>
      <set comment="kpoint 215">
       <r>  -18.4920    1.0000 </r>
       <r>  -16.9219    1.0000 </r>
       <r>  -15.3397    1.0000 </r>
       <r>  -13.8212    1.0000 </r>
       <r>  -10.5798    1.0000 </r>
       <r>   -9.4949    1.0000 </r>
       <r>   -6.1770    1.0000 </r>
       <r>   -4.7939    1.0000 </r>
       <r>   -1.2204    0.0000 </r>
       <r>    0.3156    0.0000 </r>
       <r>    5.5121    0.0000 </r>
       <r>    5.7838    0.0000 </r>
      </set>
      <set comment="kpoint 216">
       <r>  -18.3686    1.0000 </r>
       <r>  -16.8958    1.0000 </r>
       <r>  -15.5517    1.0000 </r>
       <r>  -14.1195    1.0000 </r>
       <r>  -10.2316    1.0000 </r>
       <r>   -9.2789    1.0000 </r>
       <r>   -6.0722    1.0000 </r>
       <r>   -4.8593    1.0000 </r>
       <r>   -1.2366    0.0000 </r>
       <r>    0.1030    0.0000 </r>
       <r>    5.3030    0.0000 </r>
       <r>    5.7890    0.0000 </r>
      </set>
      <set comment="kpoint 217">
       <r>  -18.2278    1.0000 </r>
       <r>  -16.9166    1.0000 </r>
       <r>  -15.6861    1.0000 </r>
       <r>  -14.4057    1.0000 </r>
       <r>   -9.9067    1.0000 </r>
       <r>   -9.1081    1.0000 </r>
       <r>   -5.9557    1.0000 </r>
       <r>   -4.9425    1.0000 </r>
       <r>   -1.2255    0.0000 </r>
       <r>   -0.1118    0.0000 </r>
       <r>    5.0102    0.0000 </r>
       <r>    5.8308    0.0000 </r>
      </set>
      <set comment="kpoint 218">
       <r>  -18.0708    1.0000 </r>
       <r>  -17.0039    1.0000 </r>
       <r>  -15.7216    1.0000 </r>
       <r>  -14.6770    1.0000 </r>
       <r>   -9.6146    1.0000 </r>
       <r>   -8.9916    1.0000 </r>
       <r>   -5.8294    1.0000 </r>
       <r>   -5.0429    1.0000 </r>
       <r>   -1.1832    0.0000 </r>
       <r>   -0.3219    0.0000 </r>
       <r>    4.7914    0.0000 </r>
       <r>    5.4313    0.0000 </r>
      </set>
      <set comment="kpoint 219">
       <r>  -17.8990    1.0000 </r>
       <r>  -17.1502    1.0000 </r>
       <r>  -15.6646    1.0000 </r>
       <r>  -14.9302    1.0000 </r>
       <r>   -9.3644    1.0000 </r>
       <r>   -8.9366    1.0000 </r>
       <r>   -5.6959    1.0000 </r>
       <r>   -5.1583    1.0000 </r>
       <r>   -1.1083    0.0000 </r>
       <r>   -0.5212    0.0000 </r>
       <r>    4.6627    0.0000 </r>
       <r>    5.1024    0.0000 </r>
      </set>
      <set comment="kpoint 220">
       <r>  -17.7151    1.0000 </r>
       <r>  -17.3305    1.0000 </r>
       <r>  -15.5395    1.0000 </r>
       <r>  -15.1620    1.0000 </r>
       <r>   -9.1650    1.0000 </r>
       <r>   -8.9471    1.0000 </r>
       <r>   -5.5583    1.0000 </r>
       <r>   -5.2854    1.0000 </r>
       <r>   -1.0016    0.0000 </r>
       <r>   -0.7041    0.0000 </r>
       <r>    4.6299    0.0000 </r>
       <r>    4.8540    0.0000 </r>
      </set>
      <set comment="kpoint 221">
       <r>  -17.5232    1.0000 </r>
       <r>  -17.5232    1.0000 </r>
       <r>  -15.3676    1.0000 </r>
       <r>  -15.3676    1.0000 </r>
       <r>   -9.0241    1.0000 </r>
       <r>   -9.0241    1.0000 </r>
       <r>   -5.4201    1.0000 </r>
       <r>   -5.4201    1.0000 </r>
       <r>   -0.8657    0.0000 </r>
       <r>   -0.8657    0.0000 </r>
       <r>    4.6945    0.0000 </r>
       <r>    4.6945    0.0000 </r>
      </set>
      <set comment="kpoint 222">
       <r>  -18.4354    1.0000 </r>
       <r>  -17.5779    1.0000 </r>
       <r>  -13.5339    1.0000 </r>
       <r>  -12.7484    1.0000 </r>
       <r>  -11.9984    1.0000 </r>
       <r>  -11.2554    1.0000 </r>
       <r>   -6.0420    1.0000 </r>
       <r>   -5.1285    1.0000 </r>
       <r>   -0.5078    0.0000 </r>
       <r>    0.5322    0.0000 </r>
       <r>    5.6490    0.0000 </r>
       <r>    6.4057    0.0000 </r>
      </set>
      <set comment="kpoint 223">
       <r>  -18.4258    1.0000 </r>
       <r>  -17.5693    1.0000 </r>
       <r>  -13.6258    1.0000 </r>
       <r>  -12.8370    1.0000 </r>
       <r>  -11.9009    1.0000 </r>
       <r>  -11.1660    1.0000 </r>
       <r>   -6.0345    1.0000 </r>
       <r>   -5.1258    1.0000 </r>
       <r>   -0.5249    0.0000 </r>
       <r>    0.5083    0.0000 </r>
       <r>    5.6626    0.0000 </r>
       <r>    6.4227    0.0000 </r>
      </set>
      <set comment="kpoint 224">
       <r>  -18.3972    1.0000 </r>
       <r>  -17.5435    1.0000 </r>
       <r>  -13.8513    1.0000 </r>
       <r>  -13.0564    1.0000 </r>
       <r>  -11.6589    1.0000 </r>
       <r>  -10.9447    1.0000 </r>
       <r>   -6.0121    1.0000 </r>
       <r>   -5.1182    1.0000 </r>
       <r>   -0.5742    0.0000 </r>
       <r>    0.4385    0.0000 </r>
       <r>    5.7035    0.0000 </r>
       <r>    6.4733    0.0000 </r>
      </set>
      <set comment="kpoint 225">
       <r>  -18.3497    1.0000 </r>
       <r>  -17.5011    1.0000 </r>
       <r>  -14.1376    1.0000 </r>
       <r>  -13.3383    1.0000 </r>
       <r>  -11.3463    1.0000 </r>
       <r>  -10.6616    1.0000 </r>
       <r>   -5.9752    1.0000 </r>
       <r>   -5.1068    1.0000 </r>
       <r>   -0.6504    0.0000 </r>
       <r>    0.3282    0.0000 </r>
       <r>    5.7710    0.0000 </r>
       <r>    6.5559    0.0000 </r>
      </set>
      <set comment="kpoint 226">
       <r>  -18.2835    1.0000 </r>
       <r>  -17.4432    1.0000 </r>
       <r>  -14.4437    1.0000 </r>
       <r>  -13.6440    1.0000 </r>
       <r>  -11.0057    1.0000 </r>
       <r>  -10.3585    1.0000 </r>
       <r>   -5.9246    1.0000 </r>
       <r>   -5.0934    1.0000 </r>
       <r>   -0.7456    0.0000 </r>
       <r>    0.1851    0.0000 </r>
       <r>    5.8637    0.0000 </r>
       <r>    6.6687    0.0000 </r>
      </set>
      <set comment="kpoint 227">
       <r>  -18.1991    1.0000 </r>
       <r>  -17.3715    1.0000 </r>
       <r>  -14.7497    1.0000 </r>
       <r>  -13.9551    1.0000 </r>
       <r>  -10.6589    1.0000 </r>
       <r>  -10.0578    1.0000 </r>
       <r>   -5.8616    1.0000 </r>
       <r>   -5.0805    1.0000 </r>
       <r>   -0.8499    0.0000 </r>
       <r>    0.0185    0.0000 </r>
       <r>    5.9715    0.0000 </r>
       <r>    6.4530    0.0000 </r>
      </set>
      <set comment="kpoint 228">
       <r>  -18.0972    1.0000 </r>
       <r>  -17.2892    1.0000 </r>
       <r>  -15.0435    1.0000 </r>
       <r>  -14.2621    1.0000 </r>
       <r>  -10.3198    1.0000 </r>
       <r>   -9.7744    1.0000 </r>
       <r>   -5.7876    1.0000 </r>
       <r>   -5.0714    1.0000 </r>
       <r>   -0.9532    0.0000 </r>
       <r>   -0.1623    0.0000 </r>
       <r>    5.8922    0.0000 </r>
       <r>    6.2038    0.0000 </r>
      </set>
      <set comment="kpoint 229">
       <r>  -17.9785    1.0000 </r>
       <r>  -17.2020    1.0000 </r>
       <r>  -15.3145    1.0000 </r>
       <r>  -14.5589    1.0000 </r>
       <r>   -9.9994    1.0000 </r>
       <r>   -9.5201    1.0000 </r>
       <r>   -5.7048    1.0000 </r>
       <r>   -5.0696    1.0000 </r>
       <r>   -1.0451    0.0000 </r>
       <r>   -0.3481    0.0000 </r>
       <r>    5.5041    0.0000 </r>
       <r>    5.9960    0.0000 </r>
      </set>
      <set comment="kpoint 230">
       <r>  -17.8446    1.0000 </r>
       <r>  -17.1205    1.0000 </r>
       <r>  -15.5495    1.0000 </r>
       <r>  -14.8412    1.0000 </r>
       <r>   -9.7076    1.0000 </r>
       <r>   -9.3055    1.0000 </r>
       <r>   -5.6156    1.0000 </r>
       <r>   -5.0785    1.0000 </r>
       <r>   -1.1165    0.0000 </r>
       <r>   -0.5304    0.0000 </r>
       <r>    5.1571    0.0000 </r>
       <r>    5.5689    0.0000 </r>
      </set>
      <set comment="kpoint 231">
       <r>  -17.6978    1.0000 </r>
       <r>  -17.0632    1.0000 </r>
       <r>  -15.7279    1.0000 </r>
       <r>  -15.1048    1.0000 </r>
       <r>   -9.4541    1.0000 </r>
       <r>   -9.1403    1.0000 </r>
       <r>   -5.5230    1.0000 </r>
       <r>   -5.1012    1.0000 </r>
       <r>   -1.1598    0.0000 </r>
       <r>   -0.7015    0.0000 </r>
       <r>    4.8860    0.0000 </r>
       <r>    5.2077    0.0000 </r>
      </set>
      <set comment="kpoint 232">
       <r>  -17.5418    1.0000 </r>
       <r>  -17.0564    1.0000 </r>
       <r>  -15.8224    1.0000 </r>
       <r>  -15.3444    1.0000 </r>
       <r>   -9.2482    1.0000 </r>
       <r>   -9.0325    1.0000 </r>
       <r>   -5.4306    1.0000 </r>
       <r>   -5.1394    1.0000 </r>
       <r>   -1.1694    0.0000 </r>
       <r>   -0.8541    0.0000 </r>
       <r>    4.7021    0.0000 </r>
       <r>    4.9234    0.0000 </r>
      </set>
      <set comment="kpoint 233">
       <r>  -17.3835    1.0000 </r>
       <r>  -17.1173    1.0000 </r>
       <r>  -15.8150    1.0000 </r>
       <r>  -15.5525    1.0000 </r>
       <r>   -9.0980    1.0000 </r>
       <r>   -8.9881    1.0000 </r>
       <r>   -5.3423    1.0000 </r>
       <r>   -5.1935    1.0000 </r>
       <r>   -1.1427    0.0000 </r>
       <r>   -0.9818    0.0000 </r>
       <r>    4.6124    0.0000 </r>
       <r>    4.7253    0.0000 </r>
      </set>
      <set comment="kpoint 234">
       <r>  -17.2351    1.0000 </r>
       <r>  -17.2351    1.0000 </r>
       <r>  -15.7164    1.0000 </r>
       <r>  -15.7164    1.0000 </r>
       <r>   -9.0101    1.0000 </r>
       <r>   -9.0101    1.0000 </r>
       <r>   -5.2620    1.0000 </r>
       <r>   -5.2620    1.0000 </r>
       <r>   -1.0794    0.0000 </r>
       <r>   -1.0794    0.0000 </r>
       <r>    4.6203    0.0000 </r>
       <r>    4.6203    0.0000 </r>
      </set>
      <set comment="kpoint 235">
       <r>  -18.0139    1.0000 </r>
       <r>  -18.0139    1.0000 </r>
       <r>  -13.1507    1.0000 </r>
       <r>  -13.1507    1.0000 </r>
       <r>  -11.6374    1.0000 </r>
       <r>  -11.6374    1.0000 </r>
       <r>   -5.5889    1.0000 </r>
       <r>   -5.5889    1.0000 </r>
       <r>    0.0018    0.0000 </r>
       <r>    0.0018    0.0000 </r>
       <r>    6.2531    0.0000 </r>
       <r>    6.2531    0.0000 </r>
      </set>
      <set comment="kpoint 236">
       <r>  -18.0046    1.0000 </r>
       <r>  -18.0046    1.0000 </r>
       <r>  -13.2414    1.0000 </r>
       <r>  -13.2414    1.0000 </r>
       <r>  -11.5434    1.0000 </r>
       <r>  -11.5434    1.0000 </r>
       <r>   -5.5833    1.0000 </r>
       <r>   -5.5833    1.0000 </r>
       <r>   -0.0193    0.0000 </r>
       <r>   -0.0193    0.0000 </r>
       <r>    6.2667    0.0000 </r>
       <r>    6.2667    0.0000 </r>
      </set>
      <set comment="kpoint 237">
       <r>  -17.9770    1.0000 </r>
       <r>  -17.9770    1.0000 </r>
       <r>  -13.4650    1.0000 </r>
       <r>  -13.4650    1.0000 </r>
       <r>  -11.3107    1.0000 </r>
       <r>  -11.3107    1.0000 </r>
       <r>   -5.5667    1.0000 </r>
       <r>   -5.5667    1.0000 </r>
       <r>   -0.0808    0.0000 </r>
       <r>   -0.0808    0.0000 </r>
       <r>    6.3072    0.0000 </r>
       <r>    6.3072    0.0000 </r>
      </set>
      <set comment="kpoint 238">
       <r>  -17.9313    1.0000 </r>
       <r>  -17.9313    1.0000 </r>
       <r>  -13.7504    1.0000 </r>
       <r>  -13.7504    1.0000 </r>
       <r>  -11.0117    1.0000 </r>
       <r>  -11.0117    1.0000 </r>
       <r>   -5.5398    1.0000 </r>
       <r>   -5.5398    1.0000 </r>
       <r>   -0.1772    0.0000 </r>
       <r>   -0.1772    0.0000 </r>
       <r>    6.3740    0.0000 </r>
       <r>    6.3740    0.0000 </r>
      </set>
      <set comment="kpoint 239">
       <r>  -17.8680    1.0000 </r>
       <r>  -17.8680    1.0000 </r>
       <r>  -14.0581    1.0000 </r>
       <r>  -14.0581    1.0000 </r>
       <r>  -10.6884    1.0000 </r>
       <r>  -10.6884    1.0000 </r>
       <r>   -5.5038    1.0000 </r>
       <r>   -5.5038    1.0000 </r>
       <r>   -0.3008    0.0000 </r>
       <r>   -0.3008    0.0000 </r>
       <r>    6.4636    0.0000 </r>
       <r>    6.4636    0.0000 </r>
      </set>
      <set comment="kpoint 240">
       <r>  -17.7878    1.0000 </r>
       <r>  -17.7878    1.0000 </r>
       <r>  -14.3692    1.0000 </r>
       <r>  -14.3692    1.0000 </r>
       <r>  -10.3632    1.0000 </r>
       <r>  -10.3632    1.0000 </r>
       <r>   -5.4606    1.0000 </r>
       <r>   -5.4606    1.0000 </r>
       <r>   -0.4422    0.0000 </r>
       <r>   -0.4422    0.0000 </r>
       <r>    6.5316    0.0000 </r>
       <r>    6.5316    0.0000 </r>
      </set>
      <set comment="kpoint 241">
       <r>  -17.6921    1.0000 </r>
       <r>  -17.6921    1.0000 </r>
       <r>  -14.6735    1.0000 </r>
       <r>  -14.6735    1.0000 </r>
       <r>  -10.0504    1.0000 </r>
       <r>  -10.0504    1.0000 </r>
       <r>   -5.4124    1.0000 </r>
       <r>   -5.4124    1.0000 </r>
       <r>   -0.5915    0.0000 </r>
       <r>   -0.5915    0.0000 </r>
       <r>    6.1789    0.0000 </r>
       <r>    6.1789    0.0000 </r>
      </set>
      <set comment="kpoint 242">
       <r>  -17.5828    1.0000 </r>
       <r>  -17.5828    1.0000 </r>
       <r>  -14.9641    1.0000 </r>
       <r>  -14.9641    1.0000 </r>
       <r>   -9.7612    1.0000 </r>
       <r>   -9.7612    1.0000 </r>
       <r>   -5.3622    1.0000 </r>
       <r>   -5.3622    1.0000 </r>
       <r>   -0.7388    0.0000 </r>
       <r>   -0.7388    0.0000 </r>
       <r>    5.7338    0.0000 </r>
       <r>    5.7338    0.0000 </r>
      </set>
      <set comment="kpoint 243">
       <r>  -17.4636    1.0000 </r>
       <r>  -17.4636    1.0000 </r>
       <r>  -15.2344    1.0000 </r>
       <r>  -15.2344    1.0000 </r>
       <r>   -9.5063    1.0000 </r>
       <r>   -9.5063    1.0000 </r>
       <r>   -5.3135    1.0000 </r>
       <r>   -5.3135    1.0000 </r>
       <r>   -0.8748    0.0000 </r>
       <r>   -0.8748    0.0000 </r>
       <r>    5.3436    0.0000 </r>
       <r>    5.3436    0.0000 </r>
      </set>
      <set comment="kpoint 244">
       <r>  -17.3405    1.0000 </r>
       <r>  -17.3405    1.0000 </r>
       <r>  -15.4764    1.0000 </r>
       <r>  -15.4764    1.0000 </r>
       <r>   -9.2952    1.0000 </r>
       <r>   -9.2952    1.0000 </r>
       <r>   -5.2699    1.0000 </r>
       <r>   -5.2699    1.0000 </r>
       <r>   -0.9910    0.0000 </r>
       <r>   -0.9910    0.0000 </r>
       <r>    5.0252    0.0000 </r>
       <r>    5.0252    0.0000 </r>
      </set>
      <set comment="kpoint 245">
       <r>  -17.2251    1.0000 </r>
       <r>  -17.2251    1.0000 </r>
       <r>  -15.6776    1.0000 </r>
       <r>  -15.6776    1.0000 </r>
       <r>   -9.1369    1.0000 </r>
       <r>   -9.1369    1.0000 </r>
       <r>   -5.2352    1.0000 </r>
       <r>   -5.2352    1.0000 </r>
       <r>   -1.0800    0.0000 </r>
       <r>   -1.0800    0.0000 </r>
       <r>    4.7894    0.0000 </r>
       <r>    4.7894    0.0000 </r>
      </set>
      <set comment="kpoint 246">
       <r>  -17.1372    1.0000 </r>
       <r>  -17.1372    1.0000 </r>
       <r>  -15.8173    1.0000 </r>
       <r>  -15.8173    1.0000 </r>
       <r>   -9.0386    1.0000 </r>
       <r>   -9.0386    1.0000 </r>
       <r>   -5.2129    1.0000 </r>
       <r>   -5.2129    1.0000 </r>
       <r>   -1.1359    0.0000 </r>
       <r>   -1.1359    0.0000 </r>
       <r>    4.6444    0.0000 </r>
       <r>    4.6444    0.0000 </r>
      </set>
      <set comment="kpoint 247">
       <r>  -17.1031    1.0000 </r>
       <r>  -17.1031    1.0000 </r>
       <r>  -15.8687    1.0000 </r>
       <r>  -15.8687    1.0000 </r>
       <r>   -9.0053    1.0000 </r>
       <r>   -9.0053    1.0000 </r>
       <r>   -5.2052    1.0000 </r>
       <r>   -5.2052    1.0000 </r>
       <r>   -1.1550    0.0000 </r>
       <r>   -1.1550    0.0000 </r>
       <r>    4.5954    0.0000 </r>
       <r>    4.5954    0.0000 </r>
      </set>
     </set>
    </set>
   </array>
  </eigenvalues>
  <separator name="orbital magnetization" >
   <v name="MAGDIPOLOUT">      0.00000000      0.00000000      0.00000000</v>
  </separator>
 </calculation>
 <structure name="finalpos" >
  <crystal>
   <varray name="basis" >
    <v>       4.25850440       0.00000000       0.00000000 </v>
    <v>       0.00000000       2.51689446       0.00000000 </v>
    <v>       0.00000000       0.00000000      19.67100639 </v>
   </varray>
   <i name="volume">    210.83790140 </i>
   <varray name="rec_basis" >
    <v>       0.23482423       0.00000000       0.00000000 </v>
    <v>       0.00000000       0.39731503       0.00000000 </v>
    <v>       0.00000000       0.00000000       0.05083624 </v>
   </varray>
  </crystal>
  <varray name="positions" >
   <v>       0.00052045       0.00000000      -0.00000000 </v>
   <v>       0.16614621       0.50000000       0.00000000 </v>
   <v>       0.50052045       0.50000000      -0.00000000 </v>
   <v>       0.66614621      -0.00000000       0.00000000 </v>
  </varray>
 </structure>
</modeling>
