gr                                      
           1
     4.258504    0.000000    0.000000
     0.000000    2.516894    0.000000
     0.000000    0.000000   19.671006
   C 
   4
Direct configuration=     1
   0.00051919  0.00000000  0.00000000
   0.16614747  0.50000000  0.00000000
   0.50051919  0.50000000  0.00000000
   0.66614747  0.00000000  0.00000000
Direct configuration=     2
   0.00052553 -0.00000000  0.00000000
   0.16614114  0.50000000 -0.00000000
   0.50052553  0.50000000  0.00000000
   0.66614114  0.00000000 -0.00000000
Direct configuration=     3
   0.00052045 -0.00000000  0.00000000
   0.16614621  0.50000000 -0.00000000
   0.50052045  0.50000000  0.00000000
   0.66614621  0.00000000 -0.00000000
Direct configuration=     4
   0.00052047 -0.00000000 -0.00000000
   0.16614620  0.50000000  0.00000000
   0.50052047  0.50000000 -0.00000000
   0.66614620 -0.00000000  0.00000000
Direct configuration=     5
   0.00052046 -0.00000000 -0.00000000
   0.16614621  0.50000000  0.00000000
   0.50052046  0.50000000 -0.00000000
   0.66614621 -0.00000000  0.00000000
Direct configuration=     6
   0.00052046 -0.00000000 -0.00000000
   0.16614621  0.50000000  0.00000000
   0.50052046  0.50000000 -0.00000000
   0.66614621 -0.00000000  0.00000000
Direct configuration=     7
   0.00052047 -0.00000000 -0.00000000
   0.16614619  0.50000000  0.00000000
   0.50052047  0.50000000 -0.00000000
   0.66614619  0.00000000  0.00000000
Direct configuration=     8
   0.00052045  0.00000000 -0.00000000
   0.16614621  0.50000000  0.00000000
   0.50052045  0.50000000 -0.00000000
   0.66614621 -0.00000000  0.00000000
