    4    4  400    1
  0.5270948E+02  0.4273813E-09  0.2467053E-09  0.1999654E-08  0.5000000E-15
  1.000000000000000E-004
  CAR 
 gr                                      
     16    247     12
 
  0.0000000E+00  0.0000000E+00  0.0000000E+00  0.1157407E-02
    1      -22.252942
    2      -17.021924
    3      -15.972447
    4      -10.358391
    5       -9.156280
    6       -5.786966
    7       -5.785396
    8       -5.111865
    9       -1.075673
   10        0.523957
   11        1.325026
   12        1.708017
 
  0.4166667E-01  0.0000000E+00  0.0000000E+00  0.2314815E-02
    1      -22.242695
    2      -17.186662
    3      -15.792447
    4      -10.346150
    5       -9.146097
    6       -5.829731
    7       -5.807960
    8       -5.178328
    9       -0.993225
   10        0.537855
   11        1.339108
   12        1.722268
 
  0.8333333E-01  0.0000000E+00  0.0000000E+00  0.2314815E-02
    1      -22.211961
    2      -17.523357
    3      -15.410047
    4      -10.309446
    5       -9.115598
    6       -5.956261
    7       -5.874402
    8       -5.362762
    9       -0.761009
   10        0.579551
   11        1.381349
   12        1.765024
 
  0.1250000E+00  0.0000000E+00  0.0000000E+00  0.2314815E-02
    1      -22.160758
    2      -17.899546
    3      -14.957970
    4      -10.248334
    5       -9.064937
    6       -6.161565
    7       -5.981189
    8       -5.631886
    9       -0.412819
   10        0.649052
   11        1.451737
   12        1.836284
 
  0.1666667E+00  0.0000000E+00  0.0000000E+00  0.2314815E-02
    1      -22.089120
    2      -18.278467
    3      -14.473423
    4      -10.162914
    5       -8.994376
    6       -6.438194
    7       -6.123057
    8       -5.952704
    9        0.017476
   10        0.746362
   11        1.550251
   12        1.936051
 
  0.2083333E+00  0.0000000E+00  0.0000000E+00  0.2314815E-02
    1      -21.997098
    2      -18.648746
    3      -13.968414
    4      -10.053327
    5       -8.904293
    6       -6.777253
    7       -6.300647
    8       -6.293729
    9        0.504058
   10        0.871481
   11        1.676856
   12        2.064326
 
  0.2500000E+00  0.0000000E+00  0.0000000E+00  0.2314815E-02
    1      -21.884752
    2      -19.005805
    3      -13.448368
    4       -9.919761
    5       -8.795196
    6       -7.169331
    7       -6.659339
    8       -6.486586
    9        1.024397
   10        1.028879
   11        1.831501
   12        2.221106
 
  0.2916667E+00  0.0000000E+00  0.0000000E+00  0.2314815E-02
    1      -21.752164
    2      -19.347377
    3      -12.916625
    4       -9.762461
    5       -8.667736
    6       -7.605222
    7       -7.018150
    8       -6.695193
    9        1.205087
   10        1.579136
   11        2.014108
   12        2.406391
 
  0.3333333E+00  0.0000000E+00  0.0000000E+00  0.2314815E-02
    1      -21.599431
    2      -19.672159
    3      -12.375828
    4       -9.581738
    5       -8.522731
    6       -8.076376
    7       -7.370103
    8       -6.913628
    9        1.413513
   10        2.144928
   11        2.224552
   12        2.620176
 
  0.3750000E+00  0.0000000E+00  0.0000000E+00  0.2314815E-02
    1      -21.426667
    2      -19.979306
    3      -11.828461
    4       -9.377982
    5       -8.575125
    6       -8.361194
    7       -7.710501
    8       -7.136644
    9        1.649624
   10        2.462615
   11        2.716913
   12        2.862450
 
  0.4166667E+00  0.0000000E+00  0.0000000E+00  0.2314815E-02
    1      -21.234009
    2      -20.268225
    3      -11.277102
    4       -9.151681
    5       -9.094744
    6       -8.184367
    7       -8.036080
    8       -7.359709
    9        1.913347
   10        2.727849
   11        3.133201
   12        3.241577
 
  0.4583333E+00  0.0000000E+00  0.0000000E+00  0.2314815E-02
    1      -21.021620
    2      -20.538471
    3      -10.724586
    4       -9.629412
    5       -8.903448
    6       -8.344505
    7       -7.993764
    8       -7.578978
    9        2.204585
   10        2.868985
   11        3.019088
   12        3.432403
 
  0.5000000E+00  0.0000000E+00  0.0000000E+00  0.1157407E-02
    1      -20.789697
    2      -20.789697
    3      -10.174124
    4      -10.174124
    5       -8.634058
    6       -8.634058
    7       -7.791225
    8       -7.791225
    9        2.523201
   10        2.523201
   11        3.331647
   12        3.331647
 
  0.0000000E+00  0.2777778E-01  0.0000000E+00  0.2314815E-02
    1      -22.239275
    2      -17.010198
    3      -15.960856
    4      -10.342064
    5       -9.217879
    6       -5.842223
    7       -5.817128
    8       -5.095234
    9       -1.079605
   10        0.542495
   11        1.343808
   12        1.727025
 
  0.4166667E-01  0.2777778E-01  0.0000000E+00  0.4629630E-02
    1      -22.229029
    2      -17.174766
    3      -15.781077
    4      -10.329827
    5       -9.207679
    6       -5.885229
    7       -5.838777
    8       -5.161843
    9       -0.997130
   10        0.556393
   11        1.357889
   12        1.741277
 
  0.8333333E-01  0.2777778E-01  0.0000000E+00  0.4629630E-02
    1      -22.198299
    2      -17.511201
    3      -15.399092
    4      -10.293135
    5       -9.177128
    6       -6.009262
    7       -5.905813
    8       -5.346609
    9       -0.764937
   10        0.598091
   11        1.400128
   12        1.784033
 
  0.1250000E+00  0.2777778E-01  0.0000000E+00  0.4629630E-02
    1      -22.147103
    2      -17.887162
    3      -14.947509
    4      -10.232045
    5       -9.126377
    6       -6.209538
    7       -6.014813
    8       -5.616077
    9       -0.417000
   10        0.667595
   11        1.470512
   12        1.855294
 
  0.1666667E+00  0.2777778E-01  0.0000000E+00  0.4629630E-02
    1      -22.075477
    2      -18.265889
    3      -14.463540
    4      -10.146655
    5       -9.055682
    6       -6.479801
    7       -6.159716
    8       -5.937148
    9        0.012712
   10        0.764911
   11        1.569020
   12        1.955063
 
  0.2083333E+00  0.2777778E-01  0.0000000E+00  0.4629630E-02
    1      -21.983468
    2      -18.636003
    3      -13.959214
    4      -10.037105
    5       -8.965412
    6       -6.812022
    7       -6.333739
    8       -6.285237
    9        0.498363
   10        0.890039
   11        1.695617
   12        2.083339
 
  0.2500000E+00  0.2777778E-01  0.0000000E+00  0.4629630E-02
    1      -21.871140
    2      -18.992920
    3      -13.439976
    4       -9.903585
    5       -8.856061
    6       -7.197393
    7       -6.643988
    8       -6.529932
    9        1.021932
   10        1.042965
   11        1.850254
   12        2.240122
 
  0.2916667E+00  0.2777778E-01  0.0000000E+00  0.4629630E-02
    1      -21.738574
    2      -19.334371
    3      -12.909196
    4       -9.746339
    5       -8.728266
    6       -7.627077
    7       -7.002794
    8       -6.741658
    9        1.223667
   10        1.570659
   11        2.032853
   12        2.425410
 
  0.3333333E+00  0.2777778E-01  0.0000000E+00  0.4629630E-02
    1      -21.585868
    2      -19.659048
    3      -12.369550
    4       -9.565679
    5       -8.582825
    6       -8.092705
    7       -7.354702
    8       -6.962882
    9        1.432107
   10        2.134722
   11        2.243292
   12        2.639198
 
  0.3750000E+00  0.2777778E-01  0.0000000E+00  0.4629630E-02
    1      -21.413135
    2      -19.966106
    3      -11.823563
    4       -9.361994
    5       -8.586663
    6       -8.420728
    7       -7.695030
    8       -7.188313
    9        1.668233
   10        2.481354
   11        2.705003
   12        2.881478
 
  0.4166667E+00  0.2777778E-01  0.0000000E+00  0.4629630E-02
    1      -21.220513
    2      -20.254947
    3      -11.273860
    4       -9.135771
    5       -9.102201
    6       -8.243187
    7       -8.020525
    8       -7.413422
    9        1.931973
   10        2.746599
   11        3.152236
   12        3.260402
 
  0.4583333E+00  0.2777778E-01  0.0000000E+00  0.4629630E-02
    1      -21.008167
    2      -20.525125
    3      -10.723337
    4       -9.633432
    5       -8.887622
    6       -8.328859
    7       -8.051686
    8       -7.634388
    9        2.223233
   10        2.887714
   11        3.037869
   12        3.451449
 
  0.5000000E+00  0.2777778E-01  0.0000000E+00  0.2314815E-02
    1      -20.776293
    2      -20.776293
    3      -10.175269
    4      -10.175269
    5       -8.618321
    6       -8.618321
    7       -7.848024
    8       -7.848024
    9        2.541880
   10        2.541880
   11        3.350403
   12        3.350403
 
  0.0000000E+00  0.5555556E-01  0.0000000E+00  0.2314815E-02
    1      -22.198284
    2      -16.975023
    3      -15.926233
    4      -10.293117
    5       -9.397746
    6       -6.008178
    7       -5.906884
    8       -5.045359
    9       -1.092234
   10        0.598113
   11        1.400148
   12        1.784053
 
  0.4166667E-01  0.5555556E-01  0.0000000E+00  0.4629630E-02
    1      -22.188043
    2      -17.139092
    3      -15.747111
    4      -10.280893
    5       -9.387491
    6       -6.051214
    7       -5.926528
    8       -5.112418
    9       -1.009671
   10        0.612012
   11        1.414226
   12        1.798305
 
  0.8333333E-01  0.5555556E-01  0.0000000E+00  0.4629630E-02
    1      -22.157325
    2      -17.474753
    3      -15.366379
    4      -10.244239
    5       -9.356770
    6       -6.172284
    7       -5.990944
    8       -5.298212
    9       -0.777538
   10        0.653714
   11        1.456456
   12        1.841062
 
  0.1250000E+00  0.5555556E-01  0.0000000E+00  0.4629630E-02
    1      -22.106152
    2      -17.850031
    3      -14.916298
    4      -10.183212
    5       -9.305723
    6       -6.361984
    7       -6.102218
    8       -5.568730
    9       -0.430367
   10        0.723226
   11        1.526827
   12        1.912325
 
  0.1666667E+00  0.5555556E-01  0.0000000E+00  0.4629630E-02
    1      -22.034558
    2      -18.228176
    3      -14.434097
    4      -10.097911
    5       -9.234584
    6       -6.614982
    7       -6.254510
    8       -5.890572
    9       -0.002436
   10        0.820556
   11        1.625316
   12        2.012096
 
  0.2083333E+00  0.5555556E-01  0.0000000E+00  0.4629630E-02
    1      -21.942592
    2      -18.597793
    3      -13.931865
    4       -9.988476
    5       -9.143694
    6       -6.926376
    7       -6.438983
    8       -6.239105
    9        0.480372
   10        0.945702
   11        1.751891
   12        2.140377
 
  0.2500000E+00  0.5555556E-01  0.0000000E+00  0.4629630E-02
    1      -21.830317
    2      -18.954285
    3      -13.415120
    4       -9.855097
    5       -9.033508
    6       -7.290233
    7       -6.646622
    8       -6.598030
    9        1.000111
   10        1.098654
   11        1.906503
   12        2.297166
 
  0.2916667E+00  0.5555556E-01  0.0000000E+00  0.4629630E-02
    1      -21.697818
    2      -19.295370
    3      -12.887321
    4       -9.698017
    5       -8.904608
    6       -7.699606
    7       -6.956820
    8       -6.869392
    9        1.279386
   10        1.544154
   11        2.089076
   12        2.482462
 
  0.3333333E+00  0.5555556E-01  0.0000000E+00  0.4629630E-02
    1      -21.545190
    2      -19.619733
    3      -12.351253
    4       -9.517548
    5       -8.757729
    6       -8.147081
    7       -7.308587
    8       -7.100535
    9        1.487860
   10        2.102904
   11        2.299495
   12        2.696260
 
  0.3750000E+00  0.5555556E-01  0.0000000E+00  0.4629630E-02
    1      -21.372551
    2      -19.926519
    3      -11.809574
    4       -9.314078
    5       -8.625354
    6       -8.593778
    7       -7.648697
    8       -7.334493
    9        1.724024
   10        2.537553
   11        2.667814
   12        2.938553
 
  0.4166667E+00  0.5555556E-01  0.0000000E+00  0.4629630E-02
    1      -21.180039
    2      -20.215127
    3      -11.265074
    4       -9.127618
    5       -9.088092
    6       -8.413867
    7       -7.973932
    8       -7.566728
    9        1.987807
   10        2.802831
   11        3.209329
   12        3.226619
 
  0.4583333E+00  0.5555556E-01  0.0000000E+00  0.4629630E-02
    1      -20.967821
    2      -20.485103
    3      -10.720841
    4       -9.647755
    5       -8.840200
    6       -8.281989
    7       -8.219356
    8       -7.793539
    9        2.279120
   10        2.943787
   11        3.094197
   12        3.508570
 
  0.5000000E+00  0.5555556E-01  0.0000000E+00  0.2314815E-02
    1      -20.736097
    2      -20.736097
    3      -10.180387
    4      -10.180387
    5       -8.571171
    6       -8.571171
    7       -8.011906
    8       -8.011906
    9        2.597838
   10        2.597838
   11        3.406648
   12        3.406648
 
  0.0000000E+00  0.8333333E-01  0.0000000E+00  0.2314815E-02
    1      -22.130004
    2      -16.916411
    3      -15.869063
    4      -10.211650
    5       -9.682458
    6       -6.271056
    7       -6.054087
    8       -4.962303
    9       -1.116056
   10        0.690823
   11        1.494023
   12        1.879103
 
  0.4166667E-01  0.8333333E-01  0.0000000E+00  0.4629630E-02
    1      -22.119770
    2      -17.079684
    3      -15.691015
    4      -10.199448
    5       -9.672092
    6       -6.315100
    7       -6.069578
    8       -5.030157
    9       -1.033320
   10        0.704722
   11        1.508096
   12        1.893355
 
  0.8333333E-01  0.8333333E-01  0.0000000E+00  0.4629630E-02
    1      -22.089075
    2      -17.414082
    3      -15.312390
    4      -10.162859
    5       -9.641033
    6       -6.436754
    7       -6.124490
    8       -5.217758
    9       -0.801253
   10        0.746425
   11        1.550311
   12        1.936112
 
  0.1250000E+00  0.8333333E-01  0.0000000E+00  0.4629630E-02
    1      -22.037940
    2      -17.788225
    3      -14.864886
    4      -10.101942
    5       -9.589397
    6       -6.620480
    7       -6.228386
    8       -5.490106
    9       -0.455382
   10        0.815941
   11        1.620657
   12        2.007376
 
  0.1666667E+00  0.8333333E-01  0.0000000E+00  0.4629630E-02
    1      -21.966400
    2      -18.165396
    3      -14.385758
    4      -10.016794
    5       -9.517379
    6       -6.856959
    7       -6.381162
    8       -5.813275
    9       -0.030516
   10        0.913281
   11        1.719112
   12        2.107150
 
  0.2083333E+00  0.8333333E-01  0.0000000E+00  0.4629630E-02
    1      -21.874505
    2      -18.534180
    3      -13.887196
    4       -9.907556
    5       -9.425259
    6       -7.141482
    7       -6.575496
    8       -6.162559
    9        0.447391
   10        1.038445
   11        1.845645
   12        2.235436
 
  0.2500000E+00  0.8333333E-01  0.0000000E+00  0.4629630E-02
    1      -21.762321
    2      -18.889957
    3      -13.374859
    4       -9.774418
    5       -9.313409
    6       -7.471548
    7       -6.800276
    8       -6.521768
    9        0.960527
   10        1.191423
   11        2.000208
   12        2.392232
 
  0.2916667E+00  0.8333333E-01  0.0000000E+00  0.4629630E-02
    1      -21.629932
    2      -19.230428
    3      -12.852376
    4       -9.617624
    5       -9.182306
    6       -7.844868
    7       -7.043669
    8       -6.880514
    9        1.372189
   10        1.496481
   11        2.182731
   12        2.577538
 
  0.3333333E+00  0.8333333E-01  0.0000000E+00  0.4629630E-02
    1      -21.477436
    2      -19.554262
    3      -12.322749
    4       -9.437483
    5       -9.032540
    6       -8.257919
    7       -7.295451
    8       -7.232024
    9        1.580702
   10        2.045982
   11        2.393108
   12        2.791349
 
  0.3750000E+00  0.8333333E-01  0.0000000E+00  0.4629630E-02
    1      -21.304952
    2      -19.860593
    3      -11.788907
    4       -9.234383
    5       -8.864837
    6       -8.705616
    7       -7.571748
    8       -7.547960
    9        1.816909
   10        2.601214
   11        2.631152
   12        3.033658
 
  0.4166667E+00  0.8333333E-01  0.0000000E+00  0.4629630E-02
    1      -21.112624
    2      -20.148809
    3      -11.253981
    4       -9.181887
    5       -9.008806
    6       -8.680077
    7       -7.896529
    8       -7.795846
    9        2.080739
   10        2.896482
   11        3.153208
   12        3.304457
 
  0.4583333E+00  0.8333333E-01  0.0000000E+00  0.4629630E-02
    1      -20.900621
    2      -20.418447
    3      -10.721481
    4       -9.680463
    5       -8.761358
    6       -8.479328
    7       -8.204103
    8       -8.035387
    9        2.372104
   10        3.036945
   11        3.188034
   12        3.603732
 
  0.5000000E+00  0.8333333E-01  0.0000000E+00  0.2314815E-02
    1      -20.669148
    2      -20.669148
    3      -10.195429
    4      -10.195429
    5       -8.492799
    6       -8.492799
    7       -8.263895
    8       -8.263895
    9        2.690891
   10        2.690891
   11        3.500284
   12        3.500284
 
  0.0000000E+00  0.1111111E+00  0.0000000E+00  0.2314815E-02
    1      -22.034497
    2      -16.834383
    3      -15.790260
    4      -10.097838
    5      -10.053293
    6       -6.614158
    7       -6.255288
    8       -4.846167
    9       -1.155197
   10        0.820640
   11        1.625396
   12        2.012177
 
  0.4166667E-01  0.1111111E+00  0.0000000E+00  0.4629630E-02
    1      -22.024274
    2      -16.996621
    3      -15.613671
    4      -10.085667
    5      -10.042733
    6       -6.659734
    7       -6.265151
    8       -4.915244
    9       -1.072152
   10        0.834536
   11        1.639461
   12        2.026429
 
  0.8333333E-01  0.1111111E+00  0.0000000E+00  0.4629630E-02
    1      -21.993611
    2      -17.329309
    3      -15.238050
    4      -10.049174
    5      -10.011078
    6       -6.784249
    7       -6.305499
    8       -5.105591
    9       -0.840081
   10        0.876230
   11        1.681652
   12        2.069185
 
  0.1250000E+00  0.1111111E+00  0.0000000E+00  0.4629630E-02
    1      -21.942529
    2      -17.701873
    3      -14.794344
    4       -9.988417
    5       -9.958399
    6       -6.967581
    7       -6.392082
    8       -5.380676
    9       -0.496049
   10        0.945736
   11        1.751957
   12        2.140449
 
  0.1666667E+00  0.1111111E+00  0.0000000E+00  0.4629630E-02
    1      -21.871065
    2      -18.077671
    3      -14.319831
    4       -9.903493
    5       -9.884819
    6       -7.195885
    7       -6.531493
    8       -5.705793
    9       -0.075651
   10        1.043069
   11        1.850355
   12        2.240223
 
  0.2083333E+00  0.1111111E+00  0.0000000E+00  0.4629630E-02
    1      -21.779270
    2      -18.445275
    3      -13.826867
    4       -9.794543
    5       -9.790503
    6       -7.461329
    7       -6.721735
    8       -6.056150
    9        0.395083
   10        1.168234
   11        1.976816
   12        2.368511
 
  0.2500000E+00  0.1111111E+00  0.0000000E+00  0.4629630E-02
    1      -21.667214
    2      -18.800039
    3      -13.321347
    4       -9.675667
    5       -9.661758
    6       -7.760234
    7       -6.954703
    8       -6.415740
    9        0.898558
   10        1.321222
   11        2.131295
   12        2.525313
 
  0.2916667E+00  0.1111111E+00  0.0000000E+00  0.4629630E-02
    1      -21.534979
    2      -19.139639
    3      -12.807211
    4       -9.540565
    5       -9.505381
    6       -8.091904
    7       -7.218225
    8       -6.774386
    9        1.422676
   10        1.502008
   11        2.313729
   12        2.710628
 
  0.3333333E+00  0.1111111E+00  0.0000000E+00  0.4629630E-02
    1      -21.382667
    2      -19.462724
    3      -12.287870
    4       -9.385492
    5       -9.325722
    6       -8.457235
    7       -7.498345
    8       -7.125487
    9        1.710548
   10        1.958564
   11        2.524023
   12        2.924451
 
  0.3750000E+00  0.1111111E+00  0.0000000E+00  0.4629630E-02
    1      -21.210403
    2      -19.768410
    3      -11.766778
    4       -9.210777
    5       -9.123166
    6       -8.856770
    7       -7.782011
    8       -7.464620
    9        1.946783
   10        2.499104
   11        2.762021
   12        3.166776
 
  0.4166667E+00  0.1111111E+00  0.0000000E+00  0.4629630E-02
    1      -21.018334
    2      -20.056069
    3      -11.247743
    4       -9.288990
    5       -9.016780
    6       -8.898192
    7       -8.059279
    8       -7.788714
    9        2.210641
   10        3.027412
   11        3.037627
   12        3.437594
 
  0.4583333E+00  0.1111111E+00  0.0000000E+00  0.4629630E-02
    1      -20.806636
    2      -20.325229
    3      -10.735128
    4       -9.749911
    5       -8.803908
    6       -8.651399
    7       -8.323935
    8       -8.095564
    9        2.502031
   10        3.166938
   11        3.319278
   12        3.561091
 
  0.5000000E+00  0.1111111E+00  0.0000000E+00  0.2314815E-02
    1      -20.575517
    2      -20.575517
    3      -10.233960
    4      -10.233960
    5       -8.572682
    6       -8.572682
    7       -8.383537
    8       -8.383537
    9        2.820845
   10        2.820845
   11        3.630911
   12        3.630911
 
  0.0000000E+00  0.1388889E+00  0.0000000E+00  0.2314815E-02
    1      -21.911852
    2      -16.728967
    3      -15.691375
    4      -10.489564
    5       -9.951928
    6       -7.019682
    7       -6.505948
    8       -4.697099
    9       -1.215297
   10        0.987572
   11        1.794211
   12        2.183280
 
  0.4166667E-01  0.1388889E+00  0.0000000E+00  0.4629630E-02
    1      -21.901642
    2      -16.890025
    3      -15.516589
    4      -10.478672
    5       -9.939801
    6       -7.067164
    7       -6.509104
    8       -4.767963
    9       -1.131700
   10        1.001460
   11        1.808263
   12        2.197531
 
  0.8333333E-01  0.1388889E+00  0.0000000E+00  0.4629630E-02
    1      -21.871019
    2      -17.220623
    3      -15.144964
    4      -10.445996
    5       -9.903438
    6       -7.195890
    7       -6.531437
    8       -4.962265
    9       -0.899383
   10        1.043132
   11        1.850415
   12        2.240284
 
  0.1250000E+00  0.1388889E+00  0.0000000E+00  0.4629630E-02
    1      -21.820006
    2      -17.591171
    3      -14.706563
    4      -10.391525
    5       -9.842898
    6       -7.382193
    7       -6.593904
    8       -5.241200
    9       -0.557682
   10        1.112606
   11        1.920655
   12        2.311543
 
  0.1666667E+00  0.1388889E+00  0.0000000E+00  0.4629630E-02
    1      -21.748642
    2      -17.965189
    3      -14.238683
    4      -10.315236
    5       -9.758278
    6       -7.608840
    7       -6.708828
    8       -5.568980
    9       -0.143266
   10        1.209903
   11        2.018961
   12        2.411313
 
  0.2083333E+00  0.1388889E+00  0.0000000E+00  0.4629630E-02
    1      -21.656978
    2      -18.331249
    3      -13.753952
    4      -10.217071
    5       -9.649721
    6       -7.865301
    7       -6.879436
    8       -5.920749
    9        0.317799
   10        1.335036
   11        2.145303
   12        2.539598
 
  0.2500000E+00  0.1388889E+00  0.0000000E+00  0.4629630E-02
    1      -21.545084
    2      -18.684685
    3      -13.258689
    4      -10.096918
    5       -9.517418
    6       -8.145488
    7       -7.102276
    8       -6.280783
    9        0.808275
   10        1.488003
   11        2.299638
   12        2.696401
 
  0.2916667E+00  0.1388889E+00  0.0000000E+00  0.4629630E-02
    1      -21.413049
    2      -19.023143
    3      -12.757421
    4       -9.954567
    5       -9.361613
    6       -8.446643
    7       -7.368897
    8       -6.639217
    9        1.316504
   10        1.668778
   11        2.481907
   12        2.881721
 
  0.3333333E+00  0.1388889E+00  0.0000000E+00  0.4629630E-02
    1      -21.260977
    2      -19.345247
    3      -12.254353
    4       -9.789666
    5       -9.182615
    6       -8.768902
    7       -7.667117
    8       -6.989697
    9        1.834101
   10        1.877315
   11        2.692029
   12        3.095552
 
  0.3750000E+00  0.1388889E+00  0.0000000E+00  0.4629630E-02
    1      -21.088998
    2      -19.650088
    3      -11.753996
    4       -9.601664
    5       -9.114792
    6       -8.980806
    7       -7.982344
    8       -7.327972
    9        2.113549
   10        2.354572
   11        2.929887
   12        3.337890
 
  0.4166667E+00  0.1388889E+00  0.0000000E+00  0.4629630E-02
    1      -20.897266
    2      -19.937021
    3      -11.261493
    4       -9.487999
    5       -9.389800
    6       -8.756662
    7       -8.299472
    8       -7.651087
    9        2.377400
   10        2.872492
   11        3.195278
   12        3.608724
 
  0.4583333E+00  0.1388889E+00  0.0000000E+00  0.4629630E-02
    1      -20.685963
    2      -20.205556
    3      -10.782725
    4       -9.891194
    5       -9.153216
    6       -8.605440
    7       -8.510774
    8       -7.956917
    9        2.668772
   10        3.333592
   11        3.382633
   12        3.487629
 
  0.5000000E+00  0.1388889E+00  0.0000000E+00  0.2314815E-02
    1      -20.455307
    2      -20.455307
    3      -10.324017
    4      -10.324017
    5       -8.891428
    6       -8.891428
    7       -8.243880
    8       -8.243880
    9        2.987550
   10        2.987550
   11        3.791677
   12        3.791677
 
  0.0000000E+00  0.1666667E+00  0.0000000E+00  0.2314815E-02
    1      -21.762185
    2      -16.600201
    3      -15.575018
    4      -10.970729
    5       -9.774255
    6       -7.471059
    7       -6.800688
    8       -4.515292
    9       -1.303216
   10        1.191611
   11        2.000388
   12        2.392415
 
  0.4166667E-01  0.1666667E+00  0.0000000E+00  0.4629630E-02
    1      -21.751992
    2      -16.760086
    3      -15.402333
    4      -10.959266
    5       -9.762184
    6       -7.520740
    7       -6.796404
    8       -4.588750
    9       -1.218616
   10        1.205487
   11        2.014419
   12        2.406663
 
  0.8333333E-01  0.1666667E+00  0.0000000E+00  0.4629630E-02
    1      -21.721420
    2      -17.088316
    3      -15.035920
    4      -10.924823
    5       -9.725992
    6       -7.654574
    7       -6.798458
    8       -4.788660
    9       -0.985455
   10        1.247121
   11        2.056509
   12        2.449410
 
  0.1250000E+00  0.1666667E+00  0.0000000E+00  0.4629630E-02
    1      -21.670493
    2      -17.456419
    3      -14.604920
    4      -10.867222
    5       -9.665736
    6       -7.845794
    7       -6.832444
    8       -5.072867
    9       -0.646399
   10        1.316536
   11        2.126642
   12        2.520659
 
  0.1666667E+00  0.1666667E+00  0.0000000E+00  0.4629630E-02
    1      -21.599249
    2      -17.828225
    3      -14.146671
    4      -10.786135
    5       -9.581517
    6       -8.074566
    7       -6.915587
    8       -5.404147
    9       -0.239509
   10        1.413760
   11        2.224796
   12        2.620418
 
  0.2083333E+00  0.1666667E+00  0.0000000E+00  0.4629630E-02
    1      -21.507745
    2      -18.192352
    3      -13.674305
    4      -10.681024
    5       -9.473478
    6       -8.328564
    7       -7.055546
    8       -5.757661
    9        0.209247
   10        1.538818
   11        2.350933
   12        2.748692
 
  0.2500000E+00  0.1666667E+00  0.0000000E+00  0.4629630E-02
    1      -21.396053
    2      -18.544117
    3      -13.194969
    4      -10.551055
    5       -9.341811
    6       -8.600135
    7       -7.252957
    8       -6.118138
    9        0.683220
   10        1.691714
   11        2.505006
   12        2.905487
 
  0.2916667E+00  0.1666667E+00  0.0000000E+00  0.4629630E-02
    1      -21.264263
    2      -18.881141
    3      -12.714385
    4      -10.394980
    5       -9.186761
    6       -8.884720
    7       -7.503219
    8       -6.476157
    9        1.171414
   10        1.872431
   11        2.686948
   12        3.090803
 
  0.3333333E+00  0.1666667E+00  0.0000000E+00  0.4629630E-02
    1      -21.112488
    2      -19.202012
    3      -12.238368
    4      -10.211024
    5       -9.180233
    6       -9.008637
    7       -7.797747
    8       -6.825701
    9        1.666086
   10        2.080920
   11        2.896675
   12        3.304638
 
  0.3750000E+00  0.1666667E+00  0.0000000E+00  0.4629630E-02
    1      -20.940862
    2      -19.505795
    3      -11.773406
    4       -9.996892
    5       -9.486968
    6       -8.807822
    7       -8.124911
    8       -7.162750
    9        2.161399
   10        2.317111
   11        3.134072
   12        3.546982
 
  0.4166667E+00  0.1666667E+00  0.0000000E+00  0.4629630E-02
    1      -20.749548
    2      -19.791819
    3      -11.326576
    4       -9.807657
    5       -9.750159
    6       -8.584785
    7       -8.470768
    8       -7.484502
    9        2.580912
   10        2.652681
   11        3.398982
   12        3.817827
 
  0.4583333E+00  0.1666667E+00  0.0000000E+00  0.4629630E-02
    1      -20.538737
    2      -20.059575
    3      -10.904524
    4      -10.147212
    5       -9.469519
    6       -8.819894
    7       -8.340110
    8       -7.788932
    9        2.872215
   10        3.135980
   11        3.536790
   12        3.691096
 
  0.5000000E+00  0.1666667E+00  0.0000000E+00  0.2314815E-02
    1      -20.308656
    2      -20.308656
    3      -10.511442
    4      -10.511442
    5       -9.156985
    6       -9.156985
    7       -8.074522
    8       -8.074522
    9        3.190891
   10        3.190891
   11        3.607677
   12        3.607677
 