       N       E                     dE             d eps       ncg     rms          rms(c)
DAV:   1     0.190679970099E+03    0.19068E+03   -0.10599E+04  5928   0.274E+03
DAV:   2    -0.948518671801E+01   -0.20017E+03   -0.17772E+03 10508   0.260E+02
DAV:   3    -0.384009416774E+02   -0.28916E+02   -0.28496E+02  7340   0.120E+02    0.737E+00
RMM:   4    -0.376929945445E+02    0.70795E+00   -0.92748E+00  5928   0.263E+01    0.425E+00
RMM:   5    -0.369222364001E+02    0.77076E+00   -0.28565E+00  5929   0.116E+01    0.729E-01
RMM:   6    -0.369238147147E+02   -0.15783E-02   -0.83264E-02  6379   0.204E+00    0.525E-01
RMM:   7    -0.369141809435E+02    0.96338E-02   -0.33959E-02  5942   0.160E+00    0.349E-01
RMM:   8    -0.369082012930E+02    0.59797E-02   -0.81404E-03  5932   0.595E-01    0.135E-01
RMM:   9    -0.369079115228E+02    0.28977E-03   -0.21341E-02  5930   0.865E-01    0.165E-01
RMM:  10    -0.369077059376E+02    0.20559E-03   -0.28855E-03  5930   0.383E-01    0.309E-02
RMM:  11    -0.369103274125E+02   -0.26215E-02   -0.87839E-04  5935   0.184E-01    0.484E-02
RMM:  12    -0.369174160278E+02   -0.70886E-02   -0.42752E-04  5941   0.106E-01    0.152E-02
RMM:  13    -0.369249446400E+02   -0.75286E-02   -0.59857E-02  6066   0.433E-02    0.153E-02
RMM:  14    -0.369252442421E+02   -0.29960E-03   -0.86883E-04  5936   0.167E-02    0.123E-02
RMM:  15    -0.369253736258E+02   -0.12938E-03   -0.11081E-04  5931   0.281E-02    0.210E-03
RMM:  16    -0.369253937525E+02   -0.20127E-04   -0.30546E-06  5939   0.963E-03    0.259E-03
RMM:  17    -0.369254105182E+02   -0.16766E-04   -0.36182E-06  5930   0.103E-02    0.165E-03
RMM:  18    -0.369254122001E+02   -0.16819E-05   -0.93365E-08  6058   0.206E-03    0.126E-03
RMM:  19    -0.369254148577E+02   -0.26575E-05   -0.41364E-08  5928   0.135E-03    0.958E-04
RMM:  20    -0.369254171757E+02   -0.23181E-05   -0.23551E-07  5928   0.270E-03    0.502E-04
RMM:  21    -0.369254178731E+02   -0.69734E-06   -0.31993E-08  5990   0.130E-03    0.117E-04
RMM:  22    -0.369254180534E+02   -0.18030E-06   -0.81082E-09  5928   0.495E-04    0.142E-04
RMM:  23    -0.369254180105E+02    0.42891E-07   -0.12772E-09  5878   0.241E-04    0.338E-05
RMM:  24    -0.369254180038E+02    0.66601E-08   -0.33391E-10  4466   0.105E-04    0.679E-06
RMM:  25    -0.369254180030E+02    0.85424E-09   -0.17253E-11  3845   0.523E-05    0.182E-06
RMM:  26    -0.369254180029E+02    0.96634E-10   -0.20056E-11  3732   0.425E-05
   1 F= -.36925418E+02 E0= -.36925355E+02  d E =-.369254E+02
       N       E                     dE             d eps       ncg     rms          rms(c)
DAV:   1    -0.369243962350E+02    0.10218E-02   -0.92601E-02  6712   0.286E+00    0.625E-02
RMM:   2    -0.369244380992E+02   -0.41864E-04   -0.14842E-03  5929   0.344E-01    0.441E-02
RMM:   3    -0.369243894657E+02    0.48634E-04   -0.26940E-04  5953   0.132E-01    0.109E-02
RMM:   4    -0.369243849026E+02    0.45631E-05   -0.15804E-05  6095   0.318E-02    0.314E-03
RMM:   5    -0.369243850637E+02   -0.16107E-06   -0.12271E-06  6179   0.796E-03    0.155E-03
RMM:   6    -0.369243849731E+02    0.90577E-07   -0.21170E-07  6104   0.355E-03    0.113E-04
RMM:   7    -0.369243849732E+02   -0.94474E-10   -0.11680E-08  6100   0.774E-04    0.887E-05
RMM:   8    -0.369243849724E+02    0.83855E-09   -0.86061E-10  5507   0.230E-04    0.145E-05
RMM:   9    -0.369243849726E+02   -0.25693E-09   -0.48034E-11  3874   0.701E-05    0.400E-06
RMM:  10    -0.369243849727E+02   -0.58890E-10   -0.26021E-11  3793   0.545E-05
   2 F= -.36924385E+02 E0= -.36924339E+02  d E =0.103303E-02
       N       E                     dE             d eps       ncg     rms          rms(c)
DAV:   1    -0.369254954320E+02   -0.11105E-02   -0.59489E-02  6372   0.230E+00    0.502E-02
RMM:   2    -0.369255210610E+02   -0.25629E-04   -0.94120E-04  5928   0.277E-01    0.354E-02
RMM:   3    -0.369254893037E+02    0.31757E-04   -0.16964E-04  5970   0.105E-01    0.849E-03
RMM:   4    -0.369254865473E+02    0.27564E-05   -0.95295E-06  6077   0.245E-02    0.251E-03
RMM:   5    -0.369254866318E+02   -0.84546E-07   -0.74753E-07  6192   0.624E-03    0.119E-03
RMM:   6    -0.369254865802E+02    0.51593E-07   -0.12356E-07  6094   0.271E-03    0.896E-05
RMM:   7    -0.369254865823E+02   -0.20515E-08   -0.72208E-09  6085   0.611E-04    0.701E-05
RMM:   8    -0.369254865820E+02    0.24602E-09   -0.51612E-10  4895   0.181E-04    0.113E-05
RMM:   9    -0.369254865827E+02   -0.66620E-09   -0.23431E-11  3825   0.643E-05    0.328E-06
RMM:  10    -0.369254865826E+02    0.12631E-09   -0.22267E-11  3773   0.528E-05    0.805E-07
RMM:  11    -0.369254865828E+02   -0.24090E-09   -0.97588E-12  3485   0.399E-05    0.141E-07
RMM:  12    -0.369254865828E+02   -0.20350E-10   -0.73726E-12  3217   0.340E-05
   3 F= -.36925487E+02 E0= -.36925421E+02  d E =-.110161E-02
       N       E                     dE             d eps       ncg     rms          rms(c)
DAV:   1    -0.369254865875E+02   -0.46666E-08   -0.27977E-07  6772   0.503E-03    0.109E-04
RMM:   2    -0.369254865881E+02   -0.62835E-09   -0.45070E-09  5866   0.605E-04    0.772E-05
RMM:   3    -0.369254865884E+02   -0.28490E-09   -0.82285E-10  5819   0.232E-04    0.185E-05
RMM:   4    -0.369254865882E+02    0.23692E-09   -0.15961E-11  3619   0.578E-05    0.515E-06
RMM:   5    -0.369254865882E+02   -0.77989E-10   -0.37849E-11  3724   0.607E-05
   4 F= -.36925487E+02 E0= -.36925421E+02  d E =-.540058E-08
       N       E                     dE             d eps       ncg     rms          rms(c)
DAV:   1    -0.369254865878E+02    0.35243E-09    0.57339E-09  4996   0.890E-05    0.110E-06
RMM:   2    -0.369254865882E+02   -0.36027E-09    0.33275E-13  3005   0.275E-05    0.620E-07
RMM:   3    -0.369254865883E+02   -0.12312E-09   -0.13117E-12  2729   0.282E-05    0.155E-07
RMM:   4    -0.369254865883E+02    0.37403E-10   -0.27461E-12  2187   0.260E-05    0.317E-07
RMM:   5    -0.369254865882E+02    0.39904E-10   -0.63793E-13  2219   0.236E-05
   5 F= -.36925487E+02 E0= -.36925421E+02  d E =0.243290E-10
       N       E                     dE             d eps       ncg     rms          rms(c)
DAV:   1    -0.369254865874E+02    0.81241E-09    0.57883E-09  4632   0.434E-05    0.656E-07
RMM:   2    -0.369254865883E+02   -0.87607E-09    0.34088E-14  1259   0.123E-05    0.403E-07
RMM:   3    -0.369254865882E+02    0.15598E-09    0.26830E-13  1235   0.122E-05    0.116E-08
RMM:   4    -0.369254865883E+02   -0.16905E-09   -0.13446E-13  1210   0.121E-05    0.639E-09
RMM:   5    -0.369254865885E+02   -0.13267E-09    0.41407E-14   899   0.121E-05    0.484E-09
RMM:   6    -0.369254865882E+02    0.23840E-09   -0.50042E-14   754   0.120E-05    0.770E-09
RMM:   7    -0.369254865882E+02   -0.17849E-10   -0.20835E-13   943   0.120E-05
   6 F= -.36925487E+02 E0= -.36925421E+02  d E =-.287628E-10
       N       E                     dE             d eps       ncg     rms          rms(c)
DAV:   1    -0.369254865877E+02    0.49056E-09    0.58077E-09  4096   0.172E-05    0.452E-07
RMM:   2    -0.369254865882E+02   -0.49749E-09   -0.21876E-14   430   0.562E-06    0.278E-07
RMM:   3    -0.369254865882E+02    0.76511E-10    0.19573E-14   801   0.560E-06    0.493E-09
RMM:   4    -0.369254865882E+02   -0.66620E-10    0.00000E+00   661   0.559E-06    0.198E-09
RMM:   5    -0.369254865879E+02    0.27671E-09    0.00000E+00   536   0.559E-06    0.420E-10
RMM:   6    -0.369254865882E+02   -0.24625E-09    0.00000E+00   852   0.559E-06    0.335E-10
RMM:   7    -0.369254865884E+02   -0.23169E-09    0.00000E+00   569   0.559E-06    0.242E-10
RMM:   8    -0.369254865882E+02    0.25830E-09    0.00000E+00   486   0.559E-06    0.185E-10
RMM:   9    -0.369254865880E+02    0.12506E-09    0.00000E+00   845   0.559E-06    0.178E-10
RMM:  10    -0.369254865881E+02   -0.70258E-10    0.00000E+00   495   0.559E-06
   7 F= -.36925487E+02 E0= -.36925421E+02  d E =0.132673E-09
       N       E                     dE             d eps       ncg     rms          rms(c)
DAV:   1    -0.369254865876E+02    0.46293E-09    0.58045E-09  3404   0.246E-05    0.430E-07
RMM:   2    -0.369254865885E+02   -0.87914E-09    0.00000E+00   327   0.639E-06    0.265E-07
RMM:   3    -0.369254865884E+02    0.41268E-10    0.00000E+00   501   0.624E-06    0.512E-09
RMM:   4    -0.369254865884E+02    0.51841E-10    0.00000E+00   194   0.624E-06    0.194E-09
RMM:   5    -0.369254865880E+02    0.35777E-09    0.00000E+00   326   0.624E-06    0.369E-10
RMM:   6    -0.369254865883E+02   -0.25318E-09    0.00000E+00   578   0.624E-06    0.120E-10
RMM:   7    -0.369254865884E+02   -0.10186E-09    0.00000E+00   493   0.624E-06    0.693E-11
RMM:   8    -0.369254865880E+02    0.32344E-09    0.00000E+00   271   0.624E-06    0.286E-10
RMM:   9    -0.369254865884E+02   -0.37414E-09    0.00000E+00   465   0.624E-06    0.176E-10
RMM:  10    -0.369254865884E+02    0.18304E-10    0.00000E+00   535   0.624E-06
   8 F= -.36925487E+02 E0= -.36925421E+02  d E =-.282512E-09
       N       E                     dE             d eps       ncg     rms          rms(c)
DAV:   1    -0.369254865877E+02    0.67780E-09    0.57844E-09  3352   0.440E-05    0.801E-07
RMM:   2    -0.369254865882E+02   -0.45543E-09    0.00000E+00   366   0.113E-05    0.495E-07
RMM:   3    -0.369254865885E+02   -0.27046E-09    0.00000E+00   372   0.110E-05    0.102E-08
RMM:   4    -0.369254865879E+02    0.51637E-09    0.00000E+00   444   0.110E-05    0.358E-09
RMM:   5    -0.369254865882E+02   -0.23897E-09    0.00000E+00   716   0.110E-05    0.286E-10
RMM:   6    -0.369254865883E+02   -0.99817E-10    0.00000E+00   510   0.110E-05
   9 F= -.36925487E+02 E0= -.36925421E+02  d E =0.111186E-09
