<?xml version="1.0" encoding="ISO-8859-1"?>
<modeling>
 <generator>
  <i name="program" type="string">vasp </i>
  <i name="version" type="string">5.3.5  </i>
  <i name="subversion" type="string">31Mar14 (build Mar 02 2015 18:14:16) complex                          parallel </i>
  <i name="platform" type="string">LinuxIFC </i>
  <i name="date" type="string">2018 08 10 </i>
  <i name="time" type="string">15:18:19 </i>
 </generator>
 <incar>
  <i type="string" name="SYSTEM">  gr</i>
  <i type="string" name="PREC">accurate : accuracy</i>
  <i type="string" name="ALGO"> FAST.</i>
  <i type="int" name="NELM">   100</i>
  <i type="int" name="NELMDL">    -3</i>
  <i type="int" name="NELMIN">     5</i>
  <i type="int" name="IBRION">     1</i>
  <i name="EDIFF">      0.00000000</i>
  <i name="EDIFFG">     -0.00000100</i>
  <i type="int" name="NSW">   400</i>
  <i type="int" name="ISIF">     2</i>
  <i name="ENCUT">   2000.00000000</i>
  <i type="int" name="ISMEAR">     0</i>
  <i name="SIGMA">      0.05000000</i>
  <i type="int" name="NWRITE">     2</i>
  <i type="logical" name="LWAVE"> F  </i>
  <i type="logical" name="LCHARG"> F  </i>
  <i type="int" name="NELM">   100</i>
 </incar>
 <kpoints>
  <generation param="Gamma">
   <v type="int" name="divisions">      24       36        1 </v>
   <v name="usershift">      0.00000000       0.00000000       0.00000000 </v>
   <v name="genvec1">      0.04166667       0.00000000       0.00000000 </v>
   <v name="genvec2">      0.00000000       0.02777778       0.00000000 </v>
   <v name="genvec3">      0.00000000       0.00000000       1.00000000 </v>
   <v name="shift">      0.00000000       0.00000000       0.00000000 </v>
  </generation>
  <varray name="kpointlist" >
   <v>       0.00000000       0.00000000       0.00000000 </v>
   <v>       0.04166667       0.00000000       0.00000000 </v>
   <v>       0.08333333       0.00000000       0.00000000 </v>
   <v>       0.12500000       0.00000000       0.00000000 </v>
   <v>       0.16666667       0.00000000       0.00000000 </v>
   <v>       0.20833333       0.00000000       0.00000000 </v>
   <v>       0.25000000       0.00000000       0.00000000 </v>
   <v>       0.29166667       0.00000000       0.00000000 </v>
   <v>       0.33333333       0.00000000       0.00000000 </v>
   <v>       0.37500000       0.00000000       0.00000000 </v>
   <v>       0.41666667       0.00000000       0.00000000 </v>
   <v>       0.45833333       0.00000000       0.00000000 </v>
   <v>       0.50000000       0.00000000       0.00000000 </v>
   <v>       0.00000000       0.02777778       0.00000000 </v>
   <v>       0.04166667       0.02777778       0.00000000 </v>
   <v>       0.08333333       0.02777778       0.00000000 </v>
   <v>       0.12500000       0.02777778       0.00000000 </v>
   <v>       0.16666667       0.02777778       0.00000000 </v>
   <v>       0.20833333       0.02777778       0.00000000 </v>
   <v>       0.25000000       0.02777778       0.00000000 </v>
   <v>       0.29166667       0.02777778       0.00000000 </v>
   <v>       0.33333333       0.02777778       0.00000000 </v>
   <v>       0.37500000       0.02777778       0.00000000 </v>
   <v>       0.41666667       0.02777778       0.00000000 </v>
   <v>       0.45833333       0.02777778       0.00000000 </v>
   <v>       0.50000000       0.02777778       0.00000000 </v>
   <v>       0.00000000       0.05555556       0.00000000 </v>
   <v>       0.04166667       0.05555556       0.00000000 </v>
   <v>       0.08333333       0.05555556       0.00000000 </v>
   <v>       0.12500000       0.05555556       0.00000000 </v>
   <v>       0.16666667       0.05555556       0.00000000 </v>
   <v>       0.20833333       0.05555556       0.00000000 </v>
   <v>       0.25000000       0.05555556       0.00000000 </v>
   <v>       0.29166667       0.05555556       0.00000000 </v>
   <v>       0.33333333       0.05555556       0.00000000 </v>
   <v>       0.37500000       0.05555556       0.00000000 </v>
   <v>       0.41666667       0.05555556       0.00000000 </v>
   <v>       0.45833333       0.05555556       0.00000000 </v>
   <v>       0.50000000       0.05555556       0.00000000 </v>
   <v>       0.00000000       0.08333333       0.00000000 </v>
   <v>       0.04166667       0.08333333       0.00000000 </v>
   <v>       0.08333333       0.08333333       0.00000000 </v>
   <v>       0.12500000       0.08333333       0.00000000 </v>
   <v>       0.16666667       0.08333333       0.00000000 </v>
   <v>       0.20833333       0.08333333       0.00000000 </v>
   <v>       0.25000000       0.08333333       0.00000000 </v>
   <v>       0.29166667       0.08333333       0.00000000 </v>
   <v>       0.33333333       0.08333333       0.00000000 </v>
   <v>       0.37500000       0.08333333       0.00000000 </v>
   <v>       0.41666667       0.08333333       0.00000000 </v>
   <v>       0.45833333       0.08333333       0.00000000 </v>
   <v>       0.50000000       0.08333333       0.00000000 </v>
   <v>       0.00000000       0.11111111       0.00000000 </v>
   <v>       0.04166667       0.11111111       0.00000000 </v>
   <v>       0.08333333       0.11111111       0.00000000 </v>
   <v>       0.12500000       0.11111111       0.00000000 </v>
   <v>       0.16666667       0.11111111       0.00000000 </v>
   <v>       0.20833333       0.11111111       0.00000000 </v>
   <v>       0.25000000       0.11111111       0.00000000 </v>
   <v>       0.29166667       0.11111111       0.00000000 </v>
   <v>       0.33333333       0.11111111       0.00000000 </v>
   <v>       0.37500000       0.11111111       0.00000000 </v>
   <v>       0.41666667       0.11111111       0.00000000 </v>
   <v>       0.45833333       0.11111111       0.00000000 </v>
   <v>       0.50000000       0.11111111       0.00000000 </v>
   <v>       0.00000000       0.13888889       0.00000000 </v>
   <v>       0.04166667       0.13888889       0.00000000 </v>
   <v>       0.08333333       0.13888889       0.00000000 </v>
   <v>       0.12500000       0.13888889       0.00000000 </v>
   <v>       0.16666667       0.13888889       0.00000000 </v>
   <v>       0.20833333       0.13888889       0.00000000 </v>
   <v>       0.25000000       0.13888889       0.00000000 </v>
   <v>       0.29166667       0.13888889       0.00000000 </v>
   <v>       0.33333333       0.13888889       0.00000000 </v>
   <v>       0.37500000       0.13888889       0.00000000 </v>
   <v>       0.41666667       0.13888889       0.00000000 </v>
   <v>       0.45833333       0.13888889       0.00000000 </v>
   <v>       0.50000000       0.13888889       0.00000000 </v>
   <v>       0.00000000       0.16666667       0.00000000 </v>
   <v>       0.04166667       0.16666667       0.00000000 </v>
   <v>       0.08333333       0.16666667       0.00000000 </v>
   <v>       0.12500000       0.16666667       0.00000000 </v>
   <v>       0.16666667       0.16666667       0.00000000 </v>
   <v>       0.20833333       0.16666667       0.00000000 </v>
   <v>       0.25000000       0.16666667       0.00000000 </v>
   <v>       0.29166667       0.16666667       0.00000000 </v>
   <v>       0.33333333       0.16666667       0.00000000 </v>
   <v>       0.37500000       0.16666667       0.00000000 </v>
   <v>       0.41666667       0.16666667       0.00000000 </v>
   <v>       0.45833333       0.16666667       0.00000000 </v>
   <v>       0.50000000       0.16666667       0.00000000 </v>
   <v>       0.00000000       0.19444444       0.00000000 </v>
   <v>       0.04166667       0.19444444       0.00000000 </v>
   <v>       0.08333333       0.19444444       0.00000000 </v>
   <v>       0.12500000       0.19444444       0.00000000 </v>
   <v>       0.16666667       0.19444444       0.00000000 </v>
   <v>       0.20833333       0.19444444       0.00000000 </v>
   <v>       0.25000000       0.19444444       0.00000000 </v>
   <v>       0.29166667       0.19444444       0.00000000 </v>
   <v>       0.33333333       0.19444444       0.00000000 </v>
   <v>       0.37500000       0.19444444       0.00000000 </v>
   <v>       0.41666667       0.19444444       0.00000000 </v>
   <v>       0.45833333       0.19444444       0.00000000 </v>
   <v>       0.50000000       0.19444444       0.00000000 </v>
   <v>       0.00000000       0.22222222       0.00000000 </v>
   <v>       0.04166667       0.22222222       0.00000000 </v>
   <v>       0.08333333       0.22222222       0.00000000 </v>
   <v>       0.12500000       0.22222222       0.00000000 </v>
   <v>       0.16666667       0.22222222       0.00000000 </v>
   <v>       0.20833333       0.22222222       0.00000000 </v>
   <v>       0.25000000       0.22222222       0.00000000 </v>
   <v>       0.29166667       0.22222222       0.00000000 </v>
   <v>       0.33333333       0.22222222       0.00000000 </v>
   <v>       0.37500000       0.22222222       0.00000000 </v>
   <v>       0.41666667       0.22222222       0.00000000 </v>
   <v>       0.45833333       0.22222222       0.00000000 </v>
   <v>       0.50000000       0.22222222       0.00000000 </v>
   <v>       0.00000000       0.25000000       0.00000000 </v>
   <v>       0.04166667       0.25000000       0.00000000 </v>
   <v>       0.08333333       0.25000000       0.00000000 </v>
   <v>       0.12500000       0.25000000       0.00000000 </v>
   <v>       0.16666667       0.25000000       0.00000000 </v>
   <v>       0.20833333       0.25000000       0.00000000 </v>
   <v>       0.25000000       0.25000000       0.00000000 </v>
   <v>       0.29166667       0.25000000       0.00000000 </v>
   <v>       0.33333333       0.25000000       0.00000000 </v>
   <v>       0.37500000       0.25000000       0.00000000 </v>
   <v>       0.41666667       0.25000000       0.00000000 </v>
   <v>       0.45833333       0.25000000       0.00000000 </v>
   <v>       0.50000000       0.25000000       0.00000000 </v>
   <v>       0.00000000       0.27777778       0.00000000 </v>
   <v>       0.04166667       0.27777778       0.00000000 </v>
   <v>       0.08333333       0.27777778       0.00000000 </v>
   <v>       0.12500000       0.27777778       0.00000000 </v>
   <v>       0.16666667       0.27777778       0.00000000 </v>
   <v>       0.20833333       0.27777778       0.00000000 </v>
   <v>       0.25000000       0.27777778       0.00000000 </v>
   <v>       0.29166667       0.27777778       0.00000000 </v>
   <v>       0.33333333       0.27777778       0.00000000 </v>
   <v>       0.37500000       0.27777778       0.00000000 </v>
   <v>       0.41666667       0.27777778       0.00000000 </v>
   <v>       0.45833333       0.27777778       0.00000000 </v>
   <v>       0.50000000       0.27777778       0.00000000 </v>
   <v>       0.00000000       0.30555556       0.00000000 </v>
   <v>       0.04166667       0.30555556       0.00000000 </v>
   <v>       0.08333333       0.30555556       0.00000000 </v>
   <v>       0.12500000       0.30555556       0.00000000 </v>
   <v>       0.16666667       0.30555556       0.00000000 </v>
   <v>       0.20833333       0.30555556       0.00000000 </v>
   <v>       0.25000000       0.30555556       0.00000000 </v>
   <v>       0.29166667       0.30555556       0.00000000 </v>
   <v>       0.33333333       0.30555556       0.00000000 </v>
   <v>       0.37500000       0.30555556       0.00000000 </v>
   <v>       0.41666667       0.30555556       0.00000000 </v>
   <v>       0.45833333       0.30555556       0.00000000 </v>
   <v>       0.50000000       0.30555556       0.00000000 </v>
   <v>       0.00000000       0.33333333       0.00000000 </v>
   <v>       0.04166667       0.33333333       0.00000000 </v>
   <v>       0.08333333       0.33333333       0.00000000 </v>
   <v>       0.12500000       0.33333333       0.00000000 </v>
   <v>       0.16666667       0.33333333       0.00000000 </v>
   <v>       0.20833333       0.33333333       0.00000000 </v>
   <v>       0.25000000       0.33333333       0.00000000 </v>
   <v>       0.29166667       0.33333333       0.00000000 </v>
   <v>       0.33333333       0.33333333       0.00000000 </v>
   <v>       0.37500000       0.33333333       0.00000000 </v>
   <v>       0.41666667       0.33333333       0.00000000 </v>
   <v>       0.45833333       0.33333333       0.00000000 </v>
   <v>       0.50000000       0.33333333       0.00000000 </v>
   <v>       0.00000000       0.36111111       0.00000000 </v>
   <v>       0.04166667       0.36111111       0.00000000 </v>
   <v>       0.08333333       0.36111111       0.00000000 </v>
   <v>       0.12500000       0.36111111       0.00000000 </v>
   <v>       0.16666667       0.36111111       0.00000000 </v>
   <v>       0.20833333       0.36111111       0.00000000 </v>
   <v>       0.25000000       0.36111111       0.00000000 </v>
   <v>       0.29166667       0.36111111       0.00000000 </v>
   <v>       0.33333333       0.36111111       0.00000000 </v>
   <v>       0.37500000       0.36111111       0.00000000 </v>
   <v>       0.41666667       0.36111111       0.00000000 </v>
   <v>       0.45833333       0.36111111       0.00000000 </v>
   <v>       0.50000000       0.36111111       0.00000000 </v>
   <v>       0.00000000       0.38888889       0.00000000 </v>
   <v>       0.04166667       0.38888889       0.00000000 </v>
   <v>       0.08333333       0.38888889       0.00000000 </v>
   <v>       0.12500000       0.38888889       0.00000000 </v>
   <v>       0.16666667       0.38888889       0.00000000 </v>
   <v>       0.20833333       0.38888889       0.00000000 </v>
   <v>       0.25000000       0.38888889       0.00000000 </v>
   <v>       0.29166667       0.38888889       0.00000000 </v>
   <v>       0.33333333       0.38888889       0.00000000 </v>
   <v>       0.37500000       0.38888889       0.00000000 </v>
   <v>       0.41666667       0.38888889       0.00000000 </v>
   <v>       0.45833333       0.38888889       0.00000000 </v>
   <v>       0.50000000       0.38888889       0.00000000 </v>
   <v>       0.00000000       0.41666667       0.00000000 </v>
   <v>       0.04166667       0.41666667       0.00000000 </v>
   <v>       0.08333333       0.41666667       0.00000000 </v>
   <v>       0.12500000       0.41666667       0.00000000 </v>
   <v>       0.16666667       0.41666667       0.00000000 </v>
   <v>       0.20833333       0.41666667       0.00000000 </v>
   <v>       0.25000000       0.41666667       0.00000000 </v>
   <v>       0.29166667       0.41666667       0.00000000 </v>
   <v>       0.33333333       0.41666667       0.00000000 </v>
   <v>       0.37500000       0.41666667       0.00000000 </v>
   <v>       0.41666667       0.41666667       0.00000000 </v>
   <v>       0.45833333       0.41666667       0.00000000 </v>
   <v>       0.50000000       0.41666667       0.00000000 </v>
   <v>       0.00000000       0.44444444       0.00000000 </v>
   <v>       0.04166667       0.44444444       0.00000000 </v>
   <v>       0.08333333       0.44444444       0.00000000 </v>
   <v>       0.12500000       0.44444444       0.00000000 </v>
   <v>       0.16666667       0.44444444       0.00000000 </v>
   <v>       0.20833333       0.44444444       0.00000000 </v>
   <v>       0.25000000       0.44444444       0.00000000 </v>
   <v>       0.29166667       0.44444444       0.00000000 </v>
   <v>       0.33333333       0.44444444       0.00000000 </v>
   <v>       0.37500000       0.44444444       0.00000000 </v>
   <v>       0.41666667       0.44444444       0.00000000 </v>
   <v>       0.45833333       0.44444444       0.00000000 </v>
   <v>       0.50000000       0.44444444       0.00000000 </v>
   <v>       0.00000000       0.47222222       0.00000000 </v>
   <v>       0.04166667       0.47222222       0.00000000 </v>
   <v>       0.08333333       0.47222222       0.00000000 </v>
   <v>       0.12500000       0.47222222       0.00000000 </v>
   <v>       0.16666667       0.47222222       0.00000000 </v>
   <v>       0.20833333       0.47222222       0.00000000 </v>
   <v>       0.25000000       0.47222222       0.00000000 </v>
   <v>       0.29166667       0.47222222       0.00000000 </v>
   <v>       0.33333333       0.47222222       0.00000000 </v>
   <v>       0.37500000       0.47222222       0.00000000 </v>
   <v>       0.41666667       0.47222222       0.00000000 </v>
   <v>       0.45833333       0.47222222       0.00000000 </v>
   <v>       0.50000000       0.47222222       0.00000000 </v>
   <v>       0.00000000       0.50000000       0.00000000 </v>
   <v>       0.04166667       0.50000000       0.00000000 </v>
   <v>       0.08333333       0.50000000       0.00000000 </v>
   <v>       0.12500000       0.50000000       0.00000000 </v>
   <v>       0.16666667       0.50000000       0.00000000 </v>
   <v>       0.20833333       0.50000000       0.00000000 </v>
   <v>       0.25000000       0.50000000       0.00000000 </v>
   <v>       0.29166667       0.50000000       0.00000000 </v>
   <v>       0.33333333       0.50000000       0.00000000 </v>
   <v>       0.37500000       0.50000000       0.00000000 </v>
   <v>       0.41666667       0.50000000       0.00000000 </v>
   <v>       0.45833333       0.50000000       0.00000000 </v>
   <v>       0.50000000       0.50000000       0.00000000 </v>
  </varray>
  <varray name="weights" >
   <v>       0.00115741 </v>
   <v>       0.00231481 </v>
   <v>       0.00231481 </v>
   <v>       0.00231481 </v>
   <v>       0.00231481 </v>
   <v>       0.00231481 </v>
   <v>       0.00231481 </v>
   <v>       0.00231481 </v>
   <v>       0.00231481 </v>
   <v>       0.00231481 </v>
   <v>       0.00231481 </v>
   <v>       0.00231481 </v>
   <v>       0.00115741 </v>
   <v>       0.00231481 </v>
   <v>       0.00462963 </v>
   <v>       0.00462963 </v>
   <v>       0.00462963 </v>
   <v>       0.00462963 </v>
   <v>       0.00462963 </v>
   <v>       0.00462963 </v>
   <v>       0.00462963 </v>
   <v>       0.00462963 </v>
   <v>       0.00462963 </v>
   <v>       0.00462963 </v>
   <v>       0.00462963 </v>
   <v>       0.00231481 </v>
   <v>       0.00231481 </v>
   <v>       0.00462963 </v>
   <v>       0.00462963 </v>
   <v>       0.00462963 </v>
   <v>       0.00462963 </v>
   <v>       0.00462963 </v>
   <v>       0.00462963 </v>
   <v>       0.00462963 </v>
   <v>       0.00462963 </v>
   <v>       0.00462963 </v>
   <v>       0.00462963 </v>
   <v>       0.00462963 </v>
   <v>       0.00231481 </v>
   <v>       0.00231481 </v>
   <v>       0.00462963 </v>
   <v>       0.00462963 </v>
   <v>       0.00462963 </v>
   <v>       0.00462963 </v>
   <v>       0.00462963 </v>
   <v>       0.00462963 </v>
   <v>       0.00462963 </v>
   <v>       0.00462963 </v>
   <v>       0.00462963 </v>
   <v>       0.00462963 </v>
   <v>       0.00462963 </v>
   <v>       0.00231481 </v>
   <v>       0.00231481 </v>
   <v>       0.00462963 </v>
   <v>       0.00462963 </v>
   <v>       0.00462963 </v>
   <v>       0.00462963 </v>
   <v>       0.00462963 </v>
   <v>       0.00462963 </v>
   <v>       0.00462963 </v>
   <v>       0.00462963 </v>
   <v>       0.00462963 </v>
   <v>       0.00462963 </v>
   <v>       0.00462963 </v>
   <v>       0.00231481 </v>
   <v>       0.00231481 </v>
   <v>       0.00462963 </v>
   <v>       0.00462963 </v>
   <v>       0.00462963 </v>
   <v>       0.00462963 </v>
   <v>       0.00462963 </v>
   <v>       0.00462963 </v>
   <v>       0.00462963 </v>
   <v>       0.00462963 </v>
   <v>       0.00462963 </v>
   <v>       0.00462963 </v>
   <v>       0.00462963 </v>
   <v>       0.00231481 </v>
   <v>       0.00231481 </v>
   <v>       0.00462963 </v>
   <v>       0.00462963 </v>
   <v>       0.00462963 </v>
   <v>       0.00462963 </v>
   <v>       0.00462963 </v>
   <v>       0.00462963 </v>
   <v>       0.00462963 </v>
   <v>       0.00462963 </v>
   <v>       0.00462963 </v>
   <v>       0.00462963 </v>
   <v>       0.00462963 </v>
   <v>       0.00231481 </v>
   <v>       0.00231481 </v>
   <v>       0.00462963 </v>
   <v>       0.00462963 </v>
   <v>       0.00462963 </v>
   <v>       0.00462963 </v>
   <v>       0.00462963 </v>
   <v>       0.00462963 </v>
   <v>       0.00462963 </v>
   <v>       0.00462963 </v>
   <v>       0.00462963 </v>
   <v>       0.00462963 </v>
   <v>       0.00462963 </v>
   <v>       0.00231481 </v>
   <v>       0.00231481 </v>
   <v>       0.00462963 </v>
   <v>       0.00462963 </v>
   <v>       0.00462963 </v>
   <v>       0.00462963 </v>
   <v>       0.00462963 </v>
   <v>       0.00462963 </v>
   <v>       0.00462963 </v>
   <v>       0.00462963 </v>
   <v>       0.00462963 </v>
   <v>       0.00462963 </v>
   <v>       0.00462963 </v>
   <v>       0.00231481 </v>
   <v>       0.00231481 </v>
   <v>       0.00462963 </v>
   <v>       0.00462963 </v>
   <v>       0.00462963 </v>
   <v>       0.00462963 </v>
   <v>       0.00462963 </v>
   <v>       0.00462963 </v>
   <v>       0.00462963 </v>
   <v>       0.00462963 </v>
   <v>       0.00462963 </v>
   <v>       0.00462963 </v>
   <v>       0.00462963 </v>
   <v>       0.00231481 </v>
   <v>       0.00231481 </v>
   <v>       0.00462963 </v>
   <v>       0.00462963 </v>
   <v>       0.00462963 </v>
   <v>       0.00462963 </v>
   <v>       0.00462963 </v>
   <v>       0.00462963 </v>
   <v>       0.00462963 </v>
   <v>       0.00462963 </v>
   <v>       0.00462963 </v>
   <v>       0.00462963 </v>
   <v>       0.00462963 </v>
   <v>       0.00231481 </v>
   <v>       0.00231481 </v>
   <v>       0.00462963 </v>
   <v>       0.00462963 </v>
   <v>       0.00462963 </v>
   <v>       0.00462963 </v>
   <v>       0.00462963 </v>
   <v>       0.00462963 </v>
   <v>       0.00462963 </v>
   <v>       0.00462963 </v>
   <v>       0.00462963 </v>
   <v>       0.00462963 </v>
   <v>       0.00462963 </v>
   <v>       0.00231481 </v>
   <v>       0.00231481 </v>
   <v>       0.00462963 </v>
   <v>       0.00462963 </v>
   <v>       0.00462963 </v>
   <v>       0.00462963 </v>
   <v>       0.00462963 </v>
   <v>       0.00462963 </v>
   <v>       0.00462963 </v>
   <v>       0.00462963 </v>
   <v>       0.00462963 </v>
   <v>       0.00462963 </v>
   <v>       0.00462963 </v>
   <v>       0.00231481 </v>
   <v>       0.00231481 </v>
   <v>       0.00462963 </v>
   <v>       0.00462963 </v>
   <v>       0.00462963 </v>
   <v>       0.00462963 </v>
   <v>       0.00462963 </v>
   <v>       0.00462963 </v>
   <v>       0.00462963 </v>
   <v>       0.00462963 </v>
   <v>       0.00462963 </v>
   <v>       0.00462963 </v>
   <v>       0.00462963 </v>
   <v>       0.00231481 </v>
   <v>       0.00231481 </v>
   <v>       0.00462963 </v>
   <v>       0.00462963 </v>
   <v>       0.00462963 </v>
   <v>       0.00462963 </v>
   <v>       0.00462963 </v>
   <v>       0.00462963 </v>
   <v>       0.00462963 </v>
   <v>       0.00462963 </v>
   <v>       0.00462963 </v>
   <v>       0.00462963 </v>
   <v>       0.00462963 </v>
   <v>       0.00231481 </v>
   <v>       0.00231481 </v>
   <v>       0.00462963 </v>
   <v>       0.00462963 </v>
   <v>       0.00462963 </v>
   <v>       0.00462963 </v>
   <v>       0.00462963 </v>
   <v>       0.00462963 </v>
   <v>       0.00462963 </v>
   <v>       0.00462963 </v>
   <v>       0.00462963 </v>
   <v>       0.00462963 </v>
   <v>       0.00462963 </v>
   <v>       0.00231481 </v>
   <v>       0.00231481 </v>
   <v>       0.00462963 </v>
   <v>       0.00462963 </v>
   <v>       0.00462963 </v>
   <v>       0.00462963 </v>
   <v>       0.00462963 </v>
   <v>       0.00462963 </v>
   <v>       0.00462963 </v>
   <v>       0.00462963 </v>
   <v>       0.00462963 </v>
   <v>       0.00462963 </v>
   <v>       0.00462963 </v>
   <v>       0.00231481 </v>
   <v>       0.00231481 </v>
   <v>       0.00462963 </v>
   <v>       0.00462963 </v>
   <v>       0.00462963 </v>
   <v>       0.00462963 </v>
   <v>       0.00462963 </v>
   <v>       0.00462963 </v>
   <v>       0.00462963 </v>
   <v>       0.00462963 </v>
   <v>       0.00462963 </v>
   <v>       0.00462963 </v>
   <v>       0.00462963 </v>
   <v>       0.00231481 </v>
   <v>       0.00115741 </v>
   <v>       0.00231481 </v>
   <v>       0.00231481 </v>
   <v>       0.00231481 </v>
   <v>       0.00231481 </v>
   <v>       0.00231481 </v>
   <v>       0.00231481 </v>
   <v>       0.00231481 </v>
   <v>       0.00231481 </v>
   <v>       0.00231481 </v>
   <v>       0.00231481 </v>
   <v>       0.00231481 </v>
   <v>       0.00115741 </v>
  </varray>
 </kpoints>
 <parameters>
  <separator name="general" >
   <i type="string" name="SYSTEM">gr</i>
   <i type="logical" name="LCOMPAT"> F  </i>
  </separator>
  <separator name="electronic" >
   <i type="string" name="PREC">accura</i>
   <i name="ENMAX">   2000.00000000</i>
   <i name="ENAUG">    644.87300000</i>
   <i name="EDIFF">      0.00000000</i>
   <i type="int" name="IALGO">    68</i>
   <i type="int" name="IWAVPR">    11</i>
   <i type="int" name="NBANDS">    12</i>
   <i name="NELECT">     16.00000000</i>
   <i type="int" name="TURBO">     0</i>
   <i type="int" name="IRESTART">     0</i>
   <i type="int" name="NREBOOT">     0</i>
   <i type="int" name="NMIN">     0</i>
   <i name="EREF">      0.00000000</i>
   <separator name="electronic smearing" >
    <i type="int" name="ISMEAR">     0</i>
    <i name="SIGMA">      0.05000000</i>
    <i name="KSPACING">      0.50000000</i>
    <i type="logical" name="KGAMMA"> T  </i>
   </separator>
   <separator name="electronic projectors" >
    <i type="logical" name="LREAL"> F  </i>
    <v name="ROPT">      0.00000000</v>
    <i type="int" name="LMAXPAW">  -100</i>
    <i type="int" name="LMAXMIX">     2</i>
    <i type="logical" name="NLSPLINE"> F  </i>
   </separator>
   <separator name="electronic startup" >
    <i type="int" name="ISTART">     0</i>
    <i type="int" name="ICHARG">     2</i>
    <i type="int" name="INIWAV">     1</i>
   </separator>
   <separator name="electronic spin" >
    <i type="int" name="ISPIN">     1</i>
    <i type="logical" name="LNONCOLLINEAR"> F  </i>
    <v name="MAGMOM">      1.00000000      1.00000000      1.00000000      1.00000000</v>
    <i name="NUPDOWN">     -1.00000000</i>
    <i type="logical" name="LSORBIT"> F  </i>
    <v name="SAXIS">      0.00000000      0.00000000      1.00000000</v>
    <i type="logical" name="LSPIRAL"> F  </i>
    <v name="QSPIRAL">      0.00000000      0.00000000      0.00000000</v>
    <i type="logical" name="LZEROZ"> F  </i>
   </separator>
   <separator name="electronic exchange-correlation" >
    <i type="logical" name="LASPH"> F  </i>
    <i type="logical" name="LMETAGGA"> F  </i>
   </separator>
   <separator name="electronic convergence" >
    <i type="int" name="NELM">   100</i>
    <i type="int" name="NELMDL">    -3</i>
    <i type="int" name="NELMIN">     5</i>
    <i name="ENINI">   2000.00000000</i>
    <separator name="electronic convergence detail" >
     <i type="logical" name="LDIAG"> T  </i>
     <i type="logical" name="LSUBROT"> F  </i>
     <i name="WEIMIN">      0.00100000</i>
     <i name="EBREAK">      0.00000000</i>
     <i name="DEPER">      0.30000000</i>
     <i type="int" name="NRMM">     4</i>
     <i name="TIME">      0.40000000</i>
    </separator>
   </separator>
   <separator name="electronic mixer" >
    <i name="AMIX">      0.40000000</i>
    <i name="BMIX">      1.00000000</i>
    <i name="AMIN">      0.10000000</i>
    <i name="AMIX_MAG">      1.60000000</i>
    <i name="BMIX_MAG">      1.00000000</i>
    <separator name="electronic mixer details" >
     <i type="int" name="IMIX">     4</i>
     <i type="int" name="MAXMIX">   -45</i>
     <i name="WC">    100.00000000</i>
     <i type="int" name="INIMIX">     1</i>
     <i type="int" name="MIXPRE">     1</i>
     <i type="int" name="MREMOVE">     5</i>
    </separator>
   </separator>
   <separator name="electronic dipolcorrection" >
    <i type="logical" name="LDIPOL"> F  </i>
    <i type="logical" name="LMONO"> F  </i>
    <i type="int" name="IDIPOL">     0</i>
    <i name="EPSILON">      1.00000000</i>
    <v name="DIPOL">   -100.00000000   -100.00000000   -100.00000000</v>
    <i name="EFIELD">      0.00000000</i>
   </separator>
  </separator>
  <separator name="grids" >
   <i type="int" name="NGX">    64</i>
   <i type="int" name="NGY">    36</i>
   <i type="int" name="NGZ">   294</i>
   <i type="int" name="NGXF">   128</i>
   <i type="int" name="NGYF">    72</i>
   <i type="int" name="NGZF">   588</i>
   <i type="logical" name="ADDGRID"> F  </i>
  </separator>
  <separator name="ionic" >
   <i type="int" name="NSW">   400</i>
   <i type="int" name="IBRION">     1</i>
   <i type="int" name="ISIF">     2</i>
   <i name="PSTRESS">      0.00000000</i>
   <i name="EDIFFG">     -0.00000100</i>
   <i type="int" name="NFREE">     0</i>
   <i name="POTIM">      0.50000000</i>
   <i name="SMASS">     -3.00000000</i>
   <i name="SCALEE">      1.00000000</i>
  </separator>
  <separator name="ionic md" >
   <i name="TEBEG">      0.00010000</i>
   <i name="TEEND">      0.00010000</i>
   <i type="int" name="NBLOCK">     1</i>
   <i type="int" name="KBLOCK">   400</i>
   <i type="int" name="NPACO">   256</i>
   <i name="APACO">     16.00000000</i>
  </separator>
  <separator name="symmetry" >
   <i type="int" name="ISYM">     2</i>
   <i name="SYMPREC">      0.00001000</i>
  </separator>
  <separator name="dos" >
   <i type="logical" name="LORBIT"> F  </i>
   <v name="RWIGS">     -1.00000000</v>
   <i type="int" name="NEDOS">   301</i>
   <i name="EMIN">     10.00000000</i>
   <i name="EMAX">    -10.00000000</i>
   <i name="EFERMI">      0.00000000</i>
  </separator>
  <separator name="writing" >
   <i type="int" name="NWRITE">     2</i>
   <i type="logical" name="LWAVE"> F  </i>
   <i type="logical" name="LCHARG"> F  </i>
   <i type="logical" name="LPARD"> F  </i>
   <i type="logical" name="LVTOT"> F  </i>
   <i type="logical" name="LVHAR"> F  </i>
   <i type="logical" name="LELF"> F  </i>
   <i type="logical" name="LOPTICS"> F  </i>
   <v name="STM">      0.00000000      0.00000000      0.00000000      0.00000000      0.00000000      0.00000000      0.00000000</v>
  </separator>
  <separator name="performance" >
   <i type="int" name="NPAR">     4</i>
   <i type="int" name="NSIM">     4</i>
   <i type="int" name="NBLK">    -1</i>
   <i type="logical" name="LPLANE"> T  </i>
   <i type="logical" name="LSCALAPACK"> F  </i>
   <i type="logical" name="LSCAAWARE"> F  </i>
   <i type="logical" name="LSCALU"> F  </i>
   <i type="logical" name="LASYNC"> F  </i>
   <i type="logical" name="LORBITALREAL"> F  </i>
  </separator>
  <separator name="miscellaneous" >
   <i type="int" name="IDIOT">     3</i>
   <i type="logical" name="LMUSIC"> F  </i>
   <v name="POMASS">     12.01100000</v>
   <v name="DARWINR">      0.00000000</v>
   <v name="DARWINV">      1.00000000</v>
   <i type="logical" name="LCORR"> T  </i>
  </separator>
  <i type="logical" name="GGA_COMPAT"> T  </i>
  <i type="logical" name="LBERRY"> F  </i>
  <i type="int" name="ICORELEVEL">     0</i>
  <i type="logical" name="LDAU"> F  </i>
  <i type="int" name="I_CONSTRAINED_M">     0</i>
  <separator name="electronic exchange-correlation" >
   <i type="string" name="GGA">--</i>
   <i type="int" name="VOSKOWN">     0</i>
   <i type="logical" name="LHFCALC"> F  </i>
   <i type="string" name="PRECFOCK"></i>
   <i type="logical" name="LSYMGRAD"> F  </i>
   <i type="logical" name="LHFONE"> F  </i>
   <i type="logical" name="LRHFCALC"> F  </i>
   <i type="logical" name="LTHOMAS"> F  </i>
   <i type="logical" name="LMODELHF"> F  </i>
   <i name="ENCUT4O">     -1.00000000</i>
   <i type="int" name="EXXOEP">     0</i>
   <i type="int" name="FOURORBIT">     0</i>
   <i name="AEXX">      0.00000000</i>
   <i name="HFALPHA">      0.00000000</i>
   <i name="MCALPHA">      0.00000000</i>
   <i name="ALDAX">      1.00000000</i>
   <i name="AGGAX">      1.00000000</i>
   <i name="ALDAC">      1.00000000</i>
   <i name="AGGAC">      1.00000000</i>
   <i type="int" name="NKREDX">     1</i>
   <i type="int" name="NKREDY">     1</i>
   <i type="int" name="NKREDZ">     1</i>
   <i type="logical" name="SHIFTRED"> F  </i>
   <i type="logical" name="ODDONLY"> F  </i>
   <i type="logical" name="EVENONLY"> F  </i>
   <i type="int" name="LMAXFOCK">     0</i>
   <i type="int" name="NMAXFOCKAE">     0</i>
   <i type="logical" name="LFOCKAEDFT"> F  </i>
   <i name="HFSCREEN">      0.00000000</i>
   <i name="HFSCREENC">      0.00000000</i>
   <i type="int" name="NBANDSGWLOW">     0</i>
  </separator>
  <separator name="vdW DFT" >
   <i type="logical" name="LUSE_VDW"> F  </i>
   <i name="Zab_VDW">     -0.84910000</i>
   <i name="PARAM1">      0.12340000</i>
   <i name="PARAM2">      1.00000000</i>
   <i name="PARAM3">      0.00000000</i>
  </separator>
  <separator name="model GW" >
   <i type="int" name="MODEL_GW">     0</i>
   <i name="MODEL_EPS0">     31.62568521</i>
   <i name="MODEL_ALPHA">      1.00000000</i>
  </separator>
  <separator name="linear response parameters" >
   <i type="logical" name="LEPSILON"> F  </i>
   <i type="logical" name="LRPA"> F  </i>
   <i type="logical" name="LNABLA"> F  </i>
   <i type="logical" name="LVEL"> F  </i>
   <i type="int" name="KINTER">     0</i>
   <i name="CSHIFT">      0.10000000</i>
   <i name="OMEGAMAX">     -1.00000000</i>
   <i name="DEG_THRESHOLD">      0.00200000</i>
  </separator>
  <separator name="orbital magnetization" >
   <i type="logical" name="NUCIND"> F  </i>
   <v name="MAGPOS">      0.00000000      0.00000000      0.00000000</v>
   <i type="logical" name="LNICSALL"> T  </i>
   <i type="logical" name="ORBITALMAG"> F  </i>
   <i type="logical" name="LMAGBLOCH"> F  </i>
   <i type="logical" name="LCHIMAG"> F  </i>
   <i type="logical" name="LGAUGE"> T  </i>
   <i type="int" name="MAGATOM">     0</i>
   <v name="MAGDIPOL">      0.00000000      0.00000000      0.00000000</v>
   <v name="AVECCONST">      0.00000000      0.00000000      0.00000000</v>
  </separator>
  <separator name="response functions" >
   <i type="logical" name="LADDER"> F  </i>
   <i type="logical" name="LFXC"> F  </i>
   <i type="logical" name="LHARTREE"> T  </i>
   <i type="int" name="IBSE">     0</i>
   <i type="logical" name="LTCTE"> F  </i>
   <i type="logical" name="LTETE"> F  </i>
   <i type="logical" name="LTRIPLET"> F  </i>
   <i type="logical" name="LFXCEPS"> F  </i>
   <i type="logical" name="LFXHEG"> F  </i>
   <i type="logical" name="L2ORDER"> F  </i>
   <i type="logical" name="LUSEW"> F  </i>
   <i name="ENCUTGW">     -2.00000000</i>
   <i name="ENCUTGWSOFT">     -2.00000000</i>
   <i name="ENCUTLF">     -1.00000000</i>
   <i type="int" name="LMAXMP2">    -1</i>
   <i name="SCISSOR">      0.00000000</i>
   <i type="int" name="NOMEGA">     0</i>
   <i type="int" name="NOMEGAR">     0</i>
   <i type="int" name="NBANDSGW">    -1</i>
   <i type="int" name="NBANDSO">    -1</i>
   <i type="int" name="NBANDSV">    -1</i>
   <i type="int" name="NELM">   100</i>
   <i type="int" name="DIM">     3</i>
   <i type="int" name="ANTIRES">     0</i>
   <i name="OMEGAMAX">    -30.00000000</i>
   <i name="OMEGAMIN">    -30.00000000</i>
   <i name="OMEGATL">   -200.00000000</i>
   <i type="int" name="OMEGAGRID">     0</i>
   <i name="CSHIFT">     -0.10000000</i>
   <i type="logical" name="SELFENERGY"> F  </i>
   <i type="logical" name="LSPECTRAL"> F  </i>
   <i type="logical" name="ODDONLYGW"> F  </i>
   <i type="logical" name="EVENONLYGW"> F  </i>
   <i type="int" name="NKREDLFX">     1</i>
   <i type="int" name="NKREDLFY">     1</i>
   <i type="int" name="NKREDLFZ">     1</i>
   <i type="int" name="MAXMEM">  1800</i>
   <i type="int" name="TELESCOPE">     0</i>
   <i type="int" name="TAUPAR">     1</i>
  </separator>
  <separator name="External order field" >
   <i name="OFIELD_KAPPA">      0.00000000</i>
   <v name="OFIELD_K">      0.00000000      0.00000000      0.00000000</v>
   <i name="OFIELD_Q6_NEAR">      0.00000000</i>
   <i name="OFIELD_Q6_FAR">      0.00000000</i>
   <i name="OFIELD_A">      0.00000000</i>
  </separator>
 </parameters>
 <atominfo>
  <atoms>       4 </atoms>
  <types>       1 </types>
  <array name="atoms" >
   <dimension dim="1">ion</dimension>
   <field type="string">element</field>
   <field type="int">atomtype</field>
   <set>
    <rc><c>C </c><c>   1</c></rc>
    <rc><c>C </c><c>   1</c></rc>
    <rc><c>C </c><c>   1</c></rc>
    <rc><c>C </c><c>   1</c></rc>
   </set>
  </array>
  <array name="atomtypes" >
   <dimension dim="1">type</dimension>
   <field type="int">atomspertype</field>
   <field type="string">element</field>
   <field>mass</field>
   <field>valence</field>
   <field type="string">pseudopotential</field>
   <set>
    <rc><c>   4</c><c>C </c><c>     12.01100000</c><c>      4.00000000</c><c> PAW_PBE C 08Apr2002                    </c></rc>
   </set>
  </array>
 </atominfo>
 <structure name="initialpos" >
  <crystal>
   <varray name="basis" >
    <v>       4.27381254       0.00000000       0.00000000 </v>
    <v>       0.00000000       2.46705252       0.00000000 </v>
    <v>       0.00000000       0.00000000      19.99653834 </v>
   </varray>
   <i name="volume">    210.83790140 </i>
   <varray name="rec_basis" >
    <v>       0.23398312       0.00000000       0.00000000 </v>
    <v>       0.00000000       0.40534200       0.00000000 </v>
    <v>       0.00000000       0.00000000       0.05000866 </v>
   </varray>
  </crystal>
  <varray name="positions" >
   <v>       0.00013158       0.00000000       0.00000000 </v>
   <v>       0.16653509       0.50000000       0.00000000 </v>
   <v>       0.50013158       0.50000000       0.00000000 </v>
   <v>       0.66653509       0.00000000       0.00000000 </v>
  </varray>
 </structure>
 <calculation>
  <scstep>
   <time name="dav">  294.10  294.76</time>
   <time name="total">  296.68  297.38</time>
   <energy>
    <i name="alphaZ">      6.18334092 </i>
    <i name="ewald">   2585.69091270 </i>
    <i name="hartreedc">  -3011.10636546 </i>
    <i name="XCdc">     55.09529400 </i>
    <i name="pawpsdc">    151.32577238 </i>
    <i name="pawaedc">   -155.92769107 </i>
    <i name="eentropy">     -0.00135744 </i>
    <i name="bandstr">    -29.20346284 </i>
    <i name="atom">    588.62352690 </i>
    <i name="e_fr_energy">    190.67997010 </i>
    <i name="e_wo_entrp">    190.68132754 </i>
    <i name="e_0_energy">    190.68064882 </i>
   </energy>
  </scstep>
  <scstep>
   <time name="dav">  445.66  448.95</time>
   <time name="total">  445.66  448.96</time>
   <energy>
    <i name="e_fr_energy">     -9.48518672 </i>
    <i name="e_wo_entrp">     -9.48495983 </i>
    <i name="e_0_energy">     -9.48507328 </i>
   </energy>
  </scstep>
  <scstep>
   <time name="dav">  338.95  341.44</time>
   <time name="total">  369.10  372.08</time>
   <energy>
    <i name="e_fr_energy">    -38.40094168 </i>
    <i name="e_wo_entrp">    -38.40094160 </i>
    <i name="e_0_energy">    -38.40094164 </i>
   </energy>
  </scstep>
  <scstep>
   <time name="diag">   79.70   79.93</time>
   <time name="diis">  337.69  340.21</time>
   <time name="orth">    3.10    3.10</time>
   <time name="total">  453.06  455.92</time>
   <energy>
    <i name="e_fr_energy">    -37.69299454 </i>
    <i name="e_wo_entrp">    -37.69299454 </i>
    <i name="e_0_energy">    -37.69299454 </i>
   </energy>
  </scstep>
  <scstep>
   <time name="diag">   79.63   79.93</time>
   <time name="diis">  335.71  337.71</time>
   <time name="orth">    3.08    3.11</time>
   <time name="total">  450.87  453.60</time>
   <energy>
    <i name="e_fr_energy">    -36.92223640 </i>
    <i name="e_wo_entrp">    -36.92223640 </i>
    <i name="e_0_energy">    -36.92223640 </i>
   </energy>
  </scstep>
  <scstep>
   <time name="diag">   79.09   79.84</time>
   <time name="diis">  363.43  366.61</time>
   <time name="orth">    3.08    3.08</time>
   <time name="total">  478.05  482.06</time>
   <energy>
    <i name="e_fr_energy">    -36.92381471 </i>
    <i name="e_wo_entrp">    -36.92381471 </i>
    <i name="e_0_energy">    -36.92381471 </i>
   </energy>
  </scstep>
  <scstep>
   <time name="diag">   79.75   79.86</time>
   <time name="diis">  335.28  336.85</time>
   <time name="orth">    3.08    3.10</time>
   <time name="total">  450.68  452.60</time>
   <energy>
    <i name="e_fr_energy">    -36.91418094 </i>
    <i name="e_wo_entrp">    -36.91418094 </i>
    <i name="e_0_energy">    -36.91418094 </i>
   </energy>
  </scstep>
  <scstep>
   <time name="diag">   79.30   79.83</time>
   <time name="diis">  337.96  338.42</time>
   <time name="orth">    3.09    3.10</time>
   <time name="total">  452.73  453.95</time>
   <energy>
    <i name="e_fr_energy">    -36.90820129 </i>
    <i name="e_wo_entrp">    -36.90820129 </i>
    <i name="e_0_energy">    -36.90820129 </i>
   </energy>
  </scstep>
  <scstep>
   <time name="diag">   78.92   79.79</time>
   <time name="diis">  322.92  325.77</time>
   <time name="orth">    3.09    3.10</time>
   <time name="total">  437.27  441.31</time>
   <energy>
    <i name="e_fr_energy">    -36.90791152 </i>
    <i name="e_wo_entrp">    -36.90791152 </i>
    <i name="e_0_energy">    -36.90791152 </i>
   </energy>
  </scstep>
  <scstep>
   <time name="diag">   79.68   79.79</time>
   <time name="diis">  325.14  326.29</time>
   <time name="orth">    3.09    3.09</time>
   <time name="total">  440.51  441.84</time>
   <energy>
    <i name="e_fr_energy">    -36.90770594 </i>
    <i name="e_wo_entrp">    -36.90770593 </i>
    <i name="e_0_energy">    -36.90770593 </i>
   </energy>
  </scstep>
  <scstep>
   <time name="diag">   79.10   79.73</time>
   <time name="diis">  325.25  328.43</time>
   <time name="orth">    3.09    3.10</time>
   <time name="total">  439.82  443.99</time>
   <energy>
    <i name="e_fr_energy">    -36.91032741 </i>
    <i name="e_wo_entrp">    -36.91032741 </i>
    <i name="e_0_energy">    -36.91032741 </i>
   </energy>
  </scstep>
  <scstep>
   <time name="diag">   79.07   79.77</time>
   <time name="diis">  325.09  326.80</time>
   <time name="orth">    3.09    3.09</time>
   <time name="total">  439.81  442.44</time>
   <energy>
    <i name="e_fr_energy">    -36.91741603 </i>
    <i name="e_wo_entrp">    -36.91728910 </i>
    <i name="e_0_energy">    -36.91735257 </i>
   </energy>
  </scstep>
  <scstep>
   <time name="diag">   79.22   79.78</time>
   <time name="diis">  335.49  337.06</time>
   <time name="orth">    3.08    3.10</time>
   <time name="total">  450.27  452.69</time>
   <energy>
    <i name="e_fr_energy">    -36.92494464 </i>
    <i name="e_wo_entrp">    -36.92481777 </i>
    <i name="e_0_energy">    -36.92488121 </i>
   </energy>
  </scstep>
  <scstep>
   <time name="diag">   79.32   79.76</time>
   <time name="diis">  320.64  323.86</time>
   <time name="orth">    3.09    3.10</time>
   <time name="total">  435.68  439.40</time>
   <energy>
    <i name="e_fr_energy">    -36.92524424 </i>
    <i name="e_wo_entrp">    -36.92511739 </i>
    <i name="e_0_energy">    -36.92518082 </i>
   </energy>
  </scstep>
  <scstep>
   <time name="diag">   79.71   79.74</time>
   <time name="diis">  325.10  325.98</time>
   <time name="orth">    3.08    3.08</time>
   <time name="total">  440.39  441.52</time>
   <energy>
    <i name="e_fr_energy">    -36.92537363 </i>
    <i name="e_wo_entrp">    -36.92524682 </i>
    <i name="e_0_energy">    -36.92531022 </i>
   </energy>
  </scstep>
  <scstep>
   <time name="diag">   79.59   79.79</time>
   <time name="diis">  324.07  325.45</time>
   <time name="orth">    3.08    3.08</time>
   <time name="total">  438.90  440.79</time>
   <energy>
    <i name="e_fr_energy">    -36.92539375 </i>
    <i name="e_wo_entrp">    -36.92526699 </i>
    <i name="e_0_energy">    -36.92533037 </i>
   </energy>
  </scstep>
  <scstep>
   <time name="diag">   79.62   79.80</time>
   <time name="diis">  323.37  325.09</time>
   <time name="orth">    3.08    3.08</time>
   <time name="total">  438.60  440.75</time>
   <energy>
    <i name="e_fr_energy">    -36.92541052 </i>
    <i name="e_wo_entrp">    -36.92528381 </i>
    <i name="e_0_energy">    -36.92534716 </i>
   </energy>
  </scstep>
  <scstep>
   <time name="diag">   79.43   79.77</time>
   <time name="diis">  331.72  334.64</time>
   <time name="orth">    3.09    3.10</time>
   <time name="total">  446.65  450.26</time>
   <energy>
    <i name="e_fr_energy">    -36.92541220 </i>
    <i name="e_wo_entrp">    -36.92528546 </i>
    <i name="e_0_energy">    -36.92534883 </i>
   </energy>
  </scstep>
  <scstep>
   <time name="diag">   79.16   79.80</time>
   <time name="diis">  323.64  327.08</time>
   <time name="orth">    3.09    3.10</time>
   <time name="total">  438.24  442.62</time>
   <energy>
    <i name="e_fr_energy">    -36.92541486 </i>
    <i name="e_wo_entrp">    -36.92528810 </i>
    <i name="e_0_energy">    -36.92535148 </i>
   </energy>
  </scstep>
  <scstep>
   <time name="diag">   79.47   79.88</time>
   <time name="diis">  326.46  326.62</time>
   <time name="orth">    3.08    3.08</time>
   <time name="total">  441.61  442.27</time>
   <energy>
    <i name="e_fr_energy">    -36.92541718 </i>
    <i name="e_wo_entrp">    -36.92529044 </i>
    <i name="e_0_energy">    -36.92535381 </i>
   </energy>
  </scstep>
  <scstep>
   <time name="diag">   79.73   79.79</time>
   <time name="diis">  331.50  332.76</time>
   <time name="orth">    3.08    3.08</time>
   <time name="total">  446.79  448.24</time>
   <energy>
    <i name="e_fr_energy">    -36.92541787 </i>
    <i name="e_wo_entrp">    -36.92529112 </i>
    <i name="e_0_energy">    -36.92535450 </i>
   </energy>
  </scstep>
  <scstep>
   <time name="diag">   79.59   79.83</time>
   <time name="diis">  327.67  328.08</time>
   <time name="orth">    3.10    3.10</time>
   <time name="total">  443.20  443.90</time>
   <energy>
    <i name="e_fr_energy">    -36.92541805 </i>
    <i name="e_wo_entrp">    -36.92529130 </i>
    <i name="e_0_energy">    -36.92535468 </i>
   </energy>
  </scstep>
  <scstep>
   <time name="diag">   79.63   79.79</time>
   <time name="diis">  324.43  325.27</time>
   <time name="orth">    3.10    3.13</time>
   <time name="total">  439.90  441.01</time>
   <energy>
    <i name="e_fr_energy">    -36.92541801 </i>
    <i name="e_wo_entrp">    -36.92529126 </i>
    <i name="e_0_energy">    -36.92535463 </i>
   </energy>
  </scstep>
  <scstep>
   <time name="diag">   79.60   79.76</time>
   <time name="diis">  249.74  250.25</time>
   <time name="orth">    3.08    3.08</time>
   <time name="total">  364.79  365.64</time>
   <energy>
    <i name="e_fr_energy">    -36.92541800 </i>
    <i name="e_wo_entrp">    -36.92529125 </i>
    <i name="e_0_energy">    -36.92535463 </i>
   </energy>
  </scstep>
  <scstep>
   <time name="diag">   78.94   79.70</time>
   <time name="diis">  219.36  220.90</time>
   <time name="orth">    3.08    3.10</time>
   <time name="total">  333.49  336.31</time>
   <energy>
    <i name="e_fr_energy">    -36.92541800 </i>
    <i name="e_wo_entrp">    -36.92529125 </i>
    <i name="e_0_energy">    -36.92535463 </i>
   </energy>
  </scstep>
  <scstep>
   <time name="diag">   79.53   79.69</time>
   <time name="diis">  217.62  218.10</time>
   <time name="orth">    3.08    3.08</time>
   <time name="total">  302.64  303.70</time>
   <energy>
    <i name="alphaZ">      6.18334092 </i>
    <i name="ewald">   2585.69091270 </i>
    <i name="hartreedc">  -3079.63894188 </i>
    <i name="XCdc">     57.51943848 </i>
    <i name="pawpsdc">    277.01090768 </i>
    <i name="pawaedc">   -282.15945896 </i>
    <i name="eentropy">     -0.00012675 </i>
    <i name="bandstr">   -190.15501710 </i>
    <i name="atom">    588.62352690 </i>
    <i name="e_fr_energy">    -36.92541800 </i>
    <i name="e_wo_entrp">    -36.92529125 </i>
    <i name="e_0_energy">    -36.92535463 </i>
   </energy>
  </scstep>
  <structure>
   <crystal>
    <varray name="basis" >
     <v>       4.27381254       0.00000000       0.00000000 </v>
     <v>       0.00000000       2.46705252       0.00000000 </v>
     <v>       0.00000000       0.00000000      19.99653834 </v>
    </varray>
    <i name="volume">    210.83790140 </i>
    <varray name="rec_basis" >
     <v>       0.23398312       0.00000000       0.00000000 </v>
     <v>       0.00000000       0.40534200       0.00000000 </v>
     <v>       0.00000000       0.00000000       0.05000866 </v>
    </varray>
   </crystal>
   <varray name="positions" >
    <v>       0.00013158       0.00000000       0.00000000 </v>
    <v>       0.16653509       0.50000000       0.00000000 </v>
    <v>       0.50013158       0.50000000       0.00000000 </v>
    <v>       0.66653509       0.00000000       0.00000000 </v>
   </varray>
  </structure>
  <varray name="forces" >
   <v>      -0.05957906       0.00000000       0.00000000 </v>
   <v>       0.05957906      -0.00000000      -0.00000000 </v>
   <v>      -0.05957906      -0.00000000       0.00000000 </v>
   <v>       0.05957906       0.00000000      -0.00000000 </v>
  </varray>
  <varray name="stress" >
   <v>      -0.32806524       0.00000000       0.00000000 </v>
   <v>       0.00000000       0.25076033       0.00000000 </v>
   <v>       0.00000000       0.00000000      -0.01002165 </v>
  </varray>
  <energy>
   <i name="e_fr_energy">    -36.92541800 </i>
   <i name="e_wo_entrp">    -36.92535463 </i>
   <i name="e_0_energy">     -0.00012675 </i>
  </energy>
  <time name="totalsc">11115.9311176.34</time>
 </calculation>
 <calculation>
  <scstep>
   <time name="dav">  319.25  320.46</time>
   <time name="total">  352.17  353.44</time>
   <energy>
    <i name="alphaZ">      6.18334092 </i>
    <i name="ewald">   2585.69406053 </i>
    <i name="hartreedc">  -3079.63922960 </i>
    <i name="XCdc">     57.51945764 </i>
    <i name="pawpsdc">    277.01092853 </i>
    <i name="pawaedc">   -282.15948018 </i>
    <i name="eentropy">     -0.00008391 </i>
    <i name="bandstr">   -190.15691706 </i>
    <i name="atom">    588.62352690 </i>
    <i name="e_fr_energy">    -36.92439624 </i>
    <i name="e_wo_entrp">    -36.92431232 </i>
    <i name="e_0_energy">    -36.92435428 </i>
   </energy>
  </scstep>
  <scstep>
   <time name="diag">   79.76   79.97</time>
   <time name="diis">  323.48  326.29</time>
   <time name="orth">    3.10    3.11</time>
   <time name="total">  438.77  442.08</time>
   <energy>
    <i name="e_fr_energy">    -36.92443810 </i>
    <i name="e_wo_entrp">    -36.92435096 </i>
    <i name="e_0_energy">    -36.92439453 </i>
   </energy>
  </scstep>
  <scstep>
   <time name="diag">   79.58   79.96</time>
   <time name="diis">  327.60  329.29</time>
   <time name="orth">    3.09    3.11</time>
   <time name="total">  442.55  444.81</time>
   <energy>
    <i name="e_fr_energy">    -36.92438947 </i>
    <i name="e_wo_entrp">    -36.92429672 </i>
    <i name="e_0_energy">    -36.92434309 </i>
   </energy>
  </scstep>
  <scstep>
   <time name="diag">   79.57   80.03</time>
   <time name="diis">  334.64  336.94</time>
   <time name="orth">    3.08    3.11</time>
   <time name="total">  449.52  452.68</time>
   <energy>
    <i name="e_fr_energy">    -36.92438490 </i>
    <i name="e_wo_entrp">    -36.92429350 </i>
    <i name="e_0_energy">    -36.92433920 </i>
   </energy>
  </scstep>
  <scstep>
   <time name="diag">   79.57   79.96</time>
   <time name="diis">  342.85  344.39</time>
   <time name="orth">    3.09    3.11</time>
   <time name="total">  458.08  460.12</time>
   <energy>
    <i name="e_fr_energy">    -36.92438506 </i>
    <i name="e_wo_entrp">    -36.92429382 </i>
    <i name="e_0_energy">    -36.92433944 </i>
   </energy>
  </scstep>
  <scstep>
   <time name="diag">   79.46   79.98</time>
   <time name="diis">  335.05  337.77</time>
   <time name="orth">    3.09    3.10</time>
   <time name="total">  450.17  453.66</time>
   <energy>
    <i name="e_fr_energy">    -36.92438497 </i>
    <i name="e_wo_entrp">    -36.92429355 </i>
    <i name="e_0_energy">    -36.92433926 </i>
   </energy>
  </scstep>
  <scstep>
   <time name="diag">   79.48   79.96</time>
   <time name="diis">  331.90  334.97</time>
   <time name="orth">    3.10    3.10</time>
   <time name="total">  446.84  450.68</time>
   <energy>
    <i name="e_fr_energy">    -36.92438497 </i>
    <i name="e_wo_entrp">    -36.92429354 </i>
    <i name="e_0_energy">    -36.92433926 </i>
   </energy>
  </scstep>
  <scstep>
   <time name="diag">   79.31   79.99</time>
   <time name="diis">  304.22  306.72</time>
   <time name="orth">    3.08    3.08</time>
   <time name="total">  418.93  422.44</time>
   <energy>
    <i name="e_fr_energy">    -36.92438497 </i>
    <i name="e_wo_entrp">    -36.92429355 </i>
    <i name="e_0_energy">    -36.92433926 </i>
   </energy>
  </scstep>
  <scstep>
   <time name="diag">   79.53   79.93</time>
   <time name="diis">  221.34  222.69</time>
   <time name="orth">    3.18    3.20</time>
   <time name="total">  336.41  338.59</time>
   <energy>
    <i name="e_fr_energy">    -36.92438497 </i>
    <i name="e_wo_entrp">    -36.92429355 </i>
    <i name="e_0_energy">    -36.92433926 </i>
   </energy>
  </scstep>
  <scstep>
   <time name="diag">   79.36   79.92</time>
   <time name="diis">  218.35  218.68</time>
   <time name="orth">    3.08    3.10</time>
   <time name="total">  303.28  304.21</time>
   <energy>
    <i name="alphaZ">      6.18334092 </i>
    <i name="ewald">   2585.69406053 </i>
    <i name="hartreedc">  -3079.64136818 </i>
    <i name="XCdc">     57.51956144 </i>
    <i name="pawpsdc">    277.01705768 </i>
    <i name="pawaedc">   -282.16564421 </i>
    <i name="eentropy">     -0.00009142 </i>
    <i name="bandstr">   -190.15482862 </i>
    <i name="atom">    588.62352690 </i>
    <i name="e_fr_energy">    -36.92438497 </i>
    <i name="e_wo_entrp">    -36.92429355 </i>
    <i name="e_0_energy">    -36.92433926 </i>
   </energy>
  </scstep>
  <structure>
   <crystal>
    <varray name="basis" >
     <v>       4.27381254       0.00000000       0.00000000 </v>
     <v>       0.00000000       2.46705252       0.00000000 </v>
     <v>       0.00000000       0.00000000      19.99653834 </v>
    </varray>
    <i name="volume">    210.83790140 </i>
    <varray name="rec_basis" >
     <v>       0.23398312       0.00000000       0.00000000 </v>
     <v>       0.00000000       0.40534200       0.00000000 </v>
     <v>       0.00000000       0.00000000       0.05000866 </v>
    </varray>
   </crystal>
   <varray name="positions" >
    <v>      -0.00054095       0.00000000       0.00000000 </v>
    <v>       0.16720761       0.50000000      -0.00000000 </v>
    <v>       0.49945905       0.50000000       0.00000000 </v>
    <v>       0.66720761       0.00000000      -0.00000000 </v>
   </varray>
  </structure>
  <varray name="forces" >
   <v>       0.24062952      -0.00000000      -0.00000000 </v>
   <v>      -0.24062952       0.00000000       0.00000000 </v>
   <v>       0.24062952      -0.00000000      -0.00000000 </v>
   <v>      -0.24062952       0.00000000       0.00000000 </v>
  </varray>
  <varray name="stress" >
   <v>       0.55777384       0.00000000       0.00000000 </v>
   <v>       0.00000000      -0.59370214       0.00000000 </v>
   <v>       0.00000000       0.00000000      -0.01008150 </v>
  </varray>
  <energy>
   <i name="e_fr_energy">    -36.92438497 </i>
   <i name="e_wo_entrp">    -36.92433926 </i>
   <i name="e_0_energy">     -0.00009142 </i>
  </energy>
  <time name="totalsc"> 4200.26 4227.21</time>
 </calculation>
 <calculation>
  <scstep>
   <time name="dav">  298.22  300.08</time>
   <time name="total">  331.03  333.18</time>
   <energy>
    <i name="alphaZ">      6.18334092 </i>
    <i name="ewald">   2585.69060044 </i>
    <i name="hartreedc">  -3079.64011089 </i>
    <i name="XCdc">     57.51947044 </i>
    <i name="pawpsdc">    277.01706636 </i>
    <i name="pawaedc">   -282.16565299 </i>
    <i name="eentropy">     -0.00012987 </i>
    <i name="bandstr">   -190.15360674 </i>
    <i name="atom">    588.62352690 </i>
    <i name="e_fr_energy">    -36.92549543 </i>
    <i name="e_wo_entrp">    -36.92536556 </i>
    <i name="e_0_energy">    -36.92543050 </i>
   </energy>
  </scstep>
  <scstep>
   <time name="diag">   79.62   79.96</time>
   <time name="diis">  322.57  324.95</time>
   <time name="orth">    3.08    3.10</time>
   <time name="total">  437.37  440.64</time>
   <energy>
    <i name="e_fr_energy">    -36.92552106 </i>
    <i name="e_wo_entrp">    -36.92539081 </i>
    <i name="e_0_energy">    -36.92545594 </i>
   </energy>
  </scstep>
  <scstep>
   <time name="diag">   79.66   79.95</time>
   <time name="diis">  327.19  328.22</time>
   <time name="orth">    3.08    3.08</time>
   <time name="total">  442.57  444.07</time>
   <energy>
    <i name="e_fr_energy">    -36.92548930 </i>
    <i name="e_wo_entrp">    -36.92535872 </i>
    <i name="e_0_energy">    -36.92542401 </i>
   </energy>
  </scstep>
  <scstep>
   <time name="diag">   79.73   80.02</time>
   <time name="diis">  332.34  334.19</time>
   <time name="orth">    3.09    3.10</time>
   <time name="total">  447.38  449.87</time>
   <energy>
    <i name="e_fr_energy">    -36.92548655 </i>
    <i name="e_wo_entrp">    -36.92535600 </i>
    <i name="e_0_energy">    -36.92542128 </i>
   </energy>
  </scstep>
  <scstep>
   <time name="diag">   79.34   79.90</time>
   <time name="diis">  340.14  343.29</time>
   <time name="orth">    3.08    3.08</time>
   <time name="total">  454.68  458.69</time>
   <energy>
    <i name="e_fr_energy">    -36.92548663 </i>
    <i name="e_wo_entrp">    -36.92535609 </i>
    <i name="e_0_energy">    -36.92542136 </i>
   </energy>
  </scstep>
  <scstep>
   <time name="diag">   79.65   79.94</time>
   <time name="diis">  335.19  335.67</time>
   <time name="orth">    3.08    3.08</time>
   <time name="total">  450.58  451.47</time>
   <energy>
    <i name="e_fr_energy">    -36.92548658 </i>
    <i name="e_wo_entrp">    -36.92535604 </i>
    <i name="e_0_energy">    -36.92542131 </i>
   </energy>
  </scstep>
  <scstep>
   <time name="diag">   79.88   79.95</time>
   <time name="diis">  335.96  336.56</time>
   <time name="orth">    3.09    3.11</time>
   <time name="total">  451.41  452.37</time>
   <energy>
    <i name="e_fr_energy">    -36.92548658 </i>
    <i name="e_wo_entrp">    -36.92535604 </i>
    <i name="e_0_energy">    -36.92542131 </i>
   </energy>
  </scstep>
  <scstep>
   <time name="diag">   79.37   79.96</time>
   <time name="diis">  275.34  277.26</time>
   <time name="orth">    3.09    3.11</time>
   <time name="total">  390.12  392.94</time>
   <energy>
    <i name="e_fr_energy">    -36.92548658 </i>
    <i name="e_wo_entrp">    -36.92535604 </i>
    <i name="e_0_energy">    -36.92542131 </i>
   </energy>
  </scstep>
  <scstep>
   <time name="diag">   79.39   79.94</time>
   <time name="diis">  219.37  221.63</time>
   <time name="orth">    3.08    3.11</time>
   <time name="total">  333.98  337.27</time>
   <energy>
    <i name="e_fr_energy">    -36.92548658 </i>
    <i name="e_wo_entrp">    -36.92535604 </i>
    <i name="e_0_energy">    -36.92542131 </i>
   </energy>
  </scstep>
  <scstep>
   <time name="diag">   79.20   79.93</time>
   <time name="diis">  217.30  219.47</time>
   <time name="orth">    3.09    3.10</time>
   <time name="total">  331.92  335.13</time>
   <energy>
    <i name="e_fr_energy">    -36.92548658 </i>
    <i name="e_wo_entrp">    -36.92535604 </i>
    <i name="e_0_energy">    -36.92542131 </i>
   </energy>
  </scstep>
  <scstep>
   <time name="diag">   79.53   79.94</time>
   <time name="diis">  209.81  210.36</time>
   <time name="orth">    3.08    3.08</time>
   <time name="total">  324.81  325.93</time>
   <energy>
    <i name="e_fr_energy">    -36.92548658 </i>
    <i name="e_wo_entrp">    -36.92535604 </i>
    <i name="e_0_energy">    -36.92542131 </i>
   </energy>
  </scstep>
  <scstep>
   <time name="diag">   79.68   79.93</time>
   <time name="diis">  201.24  203.10</time>
   <time name="orth">    3.08    3.11</time>
   <time name="total">  286.47  288.61</time>
   <energy>
    <i name="alphaZ">      6.18334092 </i>
    <i name="ewald">   2585.69060044 </i>
    <i name="hartreedc">  -3079.63871120 </i>
    <i name="XCdc">     57.51942714 </i>
    <i name="pawpsdc">    277.01035026 </i>
    <i name="pawaedc">   -282.15889922 </i>
    <i name="eentropy">     -0.00013054 </i>
    <i name="bandstr">   -190.15499129 </i>
    <i name="atom">    588.62352690 </i>
    <i name="e_fr_energy">    -36.92548658 </i>
    <i name="e_wo_entrp">    -36.92535604 </i>
    <i name="e_0_energy">    -36.92542131 </i>
   </energy>
  </scstep>
  <structure>
   <crystal>
    <varray name="basis" >
     <v>       4.27381254       0.00000000       0.00000000 </v>
     <v>       0.00000000       2.46705252       0.00000000 </v>
     <v>       0.00000000       0.00000000      19.99653834 </v>
    </varray>
    <i name="volume">    210.83790140 </i>
    <varray name="rec_basis" >
     <v>       0.23398312       0.00000000       0.00000000 </v>
     <v>       0.00000000       0.40534200       0.00000000 </v>
     <v>       0.00000000       0.00000000       0.05000866 </v>
    </varray>
   </crystal>
   <varray name="positions" >
    <v>      -0.00000189       0.00000000       0.00000000 </v>
    <v>       0.16666856       0.50000000      -0.00000000 </v>
    <v>       0.49999811       0.50000000       0.00000000 </v>
    <v>       0.66666856       0.00000000      -0.00000000 </v>
   </varray>
  </structure>
  <varray name="forces" >
   <v>      -0.00052968       0.00000000      -0.00000000 </v>
   <v>       0.00052968      -0.00000000       0.00000000 </v>
   <v>      -0.00052968      -0.00000000      -0.00000000 </v>
   <v>       0.00052968       0.00000000      -0.00000000 </v>
  </varray>
  <varray name="stress" >
   <v>      -0.16205062       0.00000000       0.00000000 </v>
   <v>       0.00000000       0.08129767       0.00000000 </v>
   <v>       0.00000000       0.00000000      -0.01002805 </v>
  </varray>
  <energy>
   <i name="e_fr_energy">    -36.92548658 </i>
   <i name="e_wo_entrp">    -36.92542131 </i>
   <i name="e_0_energy">     -0.00013054 </i>
  </energy>
  <time name="totalsc"> 4783.50 4812.12</time>
 </calculation>
 <calculation>
  <scstep>
   <time name="dav">  311.91  312.84</time>
   <time name="total">  344.58  345.76</time>
   <energy>
    <i name="alphaZ">      6.18334092 </i>
    <i name="ewald">   2585.69059974 </i>
    <i name="hartreedc">  -3079.63871175 </i>
    <i name="XCdc">     57.51942714 </i>
    <i name="pawpsdc">    277.01035081 </i>
    <i name="pawaedc">   -282.15889978 </i>
    <i name="eentropy">     -0.00013055 </i>
    <i name="bandstr">   -190.15499003 </i>
    <i name="atom">    588.62352690 </i>
    <i name="e_fr_energy">    -36.92548659 </i>
    <i name="e_wo_entrp">    -36.92535604 </i>
    <i name="e_0_energy">    -36.92542131 </i>
   </energy>
  </scstep>
  <scstep>
   <time name="diag">   79.49   79.99</time>
   <time name="diis">  319.40  321.45</time>
   <time name="orth">    3.08    3.10</time>
   <time name="total">  434.50  437.24</time>
   <energy>
    <i name="e_fr_energy">    -36.92548659 </i>
    <i name="e_wo_entrp">    -36.92535604 </i>
    <i name="e_0_energy">    -36.92542131 </i>
   </energy>
  </scstep>
  <scstep>
   <time name="diag">   79.78   80.00</time>
   <time name="diis">  318.30  319.51</time>
   <time name="orth">    3.09    3.10</time>
   <time name="total">  433.66  435.26</time>
   <energy>
    <i name="e_fr_energy">    -36.92548659 </i>
    <i name="e_wo_entrp">    -36.92535604 </i>
    <i name="e_0_energy">    -36.92542131 </i>
   </energy>
  </scstep>
  <scstep>
   <time name="diag">   79.57   80.03</time>
   <time name="diis">  209.28  210.71</time>
   <time name="orth">    3.08    3.08</time>
   <time name="total">  324.67  326.61</time>
   <energy>
    <i name="e_fr_energy">    -36.92548659 </i>
    <i name="e_wo_entrp">    -36.92535604 </i>
    <i name="e_0_energy">    -36.92542131 </i>
   </energy>
  </scstep>
  <scstep>
   <time name="diag">   79.35   80.01</time>
   <time name="diis">  214.10  215.74</time>
   <time name="orth">    3.10    3.10</time>
   <time name="total">  299.01  301.33</time>
   <energy>
    <i name="alphaZ">      6.18334092 </i>
    <i name="ewald">   2585.69059974 </i>
    <i name="hartreedc">  -3079.63871220 </i>
    <i name="XCdc">     57.51942715 </i>
    <i name="pawpsdc">    277.01034581 </i>
    <i name="pawaedc">   -282.15889478 </i>
    <i name="eentropy">     -0.00013055 </i>
    <i name="bandstr">   -190.15498957 </i>
    <i name="atom">    588.62352690 </i>
    <i name="e_fr_energy">    -36.92548659 </i>
    <i name="e_wo_entrp">    -36.92535604 </i>
    <i name="e_0_energy">    -36.92542131 </i>
   </energy>
  </scstep>
  <structure>
   <crystal>
    <varray name="basis" >
     <v>       4.27381254       0.00000000       0.00000000 </v>
     <v>       0.00000000       2.46705252       0.00000000 </v>
     <v>       0.00000000       0.00000000      19.99653834 </v>
    </varray>
    <i name="volume">    210.83790140 </i>
    <varray name="rec_basis" >
     <v>       0.23398312       0.00000000       0.00000000 </v>
     <v>       0.00000000       0.40534200       0.00000000 </v>
     <v>       0.00000000       0.00000000       0.05000866 </v>
    </varray>
   </crystal>
   <varray name="positions" >
    <v>      -0.00000307       0.00000000       0.00000000 </v>
    <v>       0.16666974       0.50000000      -0.00000000 </v>
    <v>       0.49999693       0.50000000       0.00000000 </v>
    <v>       0.66666974       0.00000000      -0.00000000 </v>
   </varray>
  </structure>
  <varray name="forces" >
   <v>       0.00000787       0.00000000      -0.00000000 </v>
   <v>      -0.00000787      -0.00000000       0.00000000 </v>
   <v>       0.00000787       0.00000000      -0.00000000 </v>
   <v>      -0.00000787      -0.00000000       0.00000000 </v>
  </varray>
  <varray name="stress" >
   <v>      -0.16060819       0.00000000       0.00000000 </v>
   <v>       0.00000000       0.07984128       0.00000000 </v>
   <v>       0.00000000       0.00000000      -0.01003107 </v>
  </varray>
  <energy>
   <i name="e_fr_energy">    -36.92548659 </i>
   <i name="e_wo_entrp">    -36.92542131 </i>
   <i name="e_0_energy">     -0.00013055 </i>
  </energy>
  <time name="totalsc"> 1938.87 1949.80</time>
 </calculation>
 <calculation>
  <scstep>
   <time name="dav">  254.46  256.33</time>
   <time name="total">  286.64  288.87</time>
   <energy>
    <i name="alphaZ">      6.18334092 </i>
    <i name="ewald">   2585.69059975 </i>
    <i name="hartreedc">  -3079.63871229 </i>
    <i name="XCdc">     57.51942713 </i>
    <i name="pawpsdc">    277.01035236 </i>
    <i name="pawaedc">   -282.15890131 </i>
    <i name="eentropy">     -0.00013055 </i>
    <i name="bandstr">   -190.15498950 </i>
    <i name="atom">    588.62352690 </i>
    <i name="e_fr_energy">    -36.92548659 </i>
    <i name="e_wo_entrp">    -36.92535604 </i>
    <i name="e_0_energy">    -36.92542131 </i>
   </energy>
  </scstep>
  <scstep>
   <time name="diag">   79.52   79.95</time>
   <time name="diis">  199.41  200.18</time>
   <time name="orth">    3.08    3.08</time>
   <time name="total">  314.59  316.01</time>
   <energy>
    <i name="e_fr_energy">    -36.92548659 </i>
    <i name="e_wo_entrp">    -36.92535604 </i>
    <i name="e_0_energy">    -36.92542131 </i>
   </energy>
  </scstep>
  <scstep>
   <time name="diag">   79.49   79.94</time>
   <time name="diis">  189.40  190.66</time>
   <time name="orth">    3.10    3.10</time>
   <time name="total">  304.56  306.40</time>
   <energy>
    <i name="e_fr_energy">    -36.92548659 </i>
    <i name="e_wo_entrp">    -36.92535604 </i>
    <i name="e_0_energy">    -36.92542131 </i>
   </energy>
  </scstep>
  <scstep>
   <time name="diag">   79.86   79.94</time>
   <time name="diis">  174.34  175.27</time>
   <time name="orth">    3.07    3.10</time>
   <time name="total">  289.98  291.28</time>
   <energy>
    <i name="e_fr_energy">    -36.92548659 </i>
    <i name="e_wo_entrp">    -36.92535604 </i>
    <i name="e_0_energy">    -36.92542131 </i>
   </energy>
  </scstep>
  <scstep>
   <time name="diag">   79.84   79.96</time>
   <time name="diis">  175.20  175.67</time>
   <time name="orth">    3.10    3.10</time>
   <time name="total">  260.59  261.21</time>
   <energy>
    <i name="alphaZ">      6.18334092 </i>
    <i name="ewald">   2585.69059975 </i>
    <i name="hartreedc">  -3079.63871151 </i>
    <i name="XCdc">     57.51942711 </i>
    <i name="pawpsdc">    277.01034837 </i>
    <i name="pawaedc">   -282.15889732 </i>
    <i name="eentropy">     -0.00013055 </i>
    <i name="bandstr">   -190.15499026 </i>
    <i name="atom">    588.62352690 </i>
    <i name="e_fr_energy">    -36.92548659 </i>
    <i name="e_wo_entrp">    -36.92535604 </i>
    <i name="e_0_energy">    -36.92542131 </i>
   </energy>
  </scstep>
  <structure>
   <crystal>
    <varray name="basis" >
     <v>       4.27381254       0.00000000       0.00000000 </v>
     <v>       0.00000000       2.46705252       0.00000000 </v>
     <v>       0.00000000       0.00000000      19.99653834 </v>
    </varray>
    <i name="volume">    210.83790140 </i>
    <varray name="rec_basis" >
     <v>       0.23398312       0.00000000       0.00000000 </v>
     <v>       0.00000000       0.40534200       0.00000000 </v>
     <v>       0.00000000       0.00000000       0.05000866 </v>
    </varray>
   </crystal>
   <varray name="positions" >
    <v>      -0.00000306       0.00000000      -0.00000000 </v>
    <v>       0.16666972       0.50000000       0.00000000 </v>
    <v>       0.49999694       0.50000000      -0.00000000 </v>
    <v>       0.66666972       0.00000000       0.00000000 </v>
   </varray>
  </structure>
  <varray name="forces" >
   <v>      -0.00001232      -0.00000000      -0.00000000 </v>
   <v>       0.00001232       0.00000000       0.00000000 </v>
   <v>      -0.00001232       0.00000000      -0.00000000 </v>
   <v>       0.00001232      -0.00000000       0.00000000 </v>
  </varray>
  <varray name="stress" >
   <v>      -0.16058857       0.00000000       0.00000000 </v>
   <v>       0.00000000       0.07983377       0.00000000 </v>
   <v>       0.00000000       0.00000000      -0.01003771 </v>
  </varray>
  <energy>
   <i name="e_fr_energy">    -36.92548659 </i>
   <i name="e_wo_entrp">    -36.92542131 </i>
   <i name="e_0_energy">     -0.00013055 </i>
  </energy>
  <time name="totalsc"> 1557.86 1565.94</time>
 </calculation>
 <calculation>
  <scstep>
   <time name="dav">  243.53  244.96</time>
   <time name="total">  276.41  277.89</time>
   <energy>
    <i name="alphaZ">      6.18334092 </i>
    <i name="ewald">   2585.69059974 </i>
    <i name="hartreedc">  -3079.63871145 </i>
    <i name="XCdc">     57.51942711 </i>
    <i name="pawpsdc">    277.01034842 </i>
    <i name="pawaedc">   -282.15889737 </i>
    <i name="eentropy">     -0.00013055 </i>
    <i name="bandstr">   -190.15499031 </i>
    <i name="atom">    588.62352690 </i>
    <i name="e_fr_energy">    -36.92548659 </i>
    <i name="e_wo_entrp">    -36.92535604 </i>
    <i name="e_0_energy">    -36.92542131 </i>
   </energy>
  </scstep>
  <scstep>
   <time name="diag">   79.60   79.93</time>
   <time name="diis">  139.43  140.70</time>
   <time name="orth">    3.08    3.08</time>
   <time name="total">  254.70  256.65</time>
   <energy>
    <i name="e_fr_energy">    -36.92548659 </i>
    <i name="e_wo_entrp">    -36.92535604 </i>
    <i name="e_0_energy">    -36.92542131 </i>
   </energy>
  </scstep>
  <scstep>
   <time name="diag">   79.30   79.92</time>
   <time name="diis">  141.46  142.00</time>
   <time name="orth">    3.09    3.10</time>
   <time name="total">  256.61  257.94</time>
   <energy>
    <i name="e_fr_energy">    -36.92548659 </i>
    <i name="e_wo_entrp">    -36.92535604 </i>
    <i name="e_0_energy">    -36.92542131 </i>
   </energy>
  </scstep>
  <scstep>
   <time name="diag">   79.81   79.91</time>
   <time name="diis">  138.81  139.47</time>
   <time name="orth">    3.08    3.10</time>
   <time name="total">  254.47  255.40</time>
   <energy>
    <i name="e_fr_energy">    -36.92548659 </i>
    <i name="e_wo_entrp">    -36.92535604 </i>
    <i name="e_0_energy">    -36.92542131 </i>
   </energy>
  </scstep>
  <scstep>
   <time name="diag">   79.53   79.91</time>
   <time name="diis">  128.29  128.45</time>
   <time name="orth">    3.10    3.10</time>
   <time name="total">  243.66  244.39</time>
   <energy>
    <i name="e_fr_energy">    -36.92548659 </i>
    <i name="e_wo_entrp">    -36.92535604 </i>
    <i name="e_0_energy">    -36.92542131 </i>
   </energy>
  </scstep>
  <scstep>
   <time name="diag">   79.49   79.93</time>
   <time name="diis">  120.02  120.41</time>
   <time name="orth">    3.08    3.08</time>
   <time name="total">  235.42  236.32</time>
   <energy>
    <i name="e_fr_energy">    -36.92548659 </i>
    <i name="e_wo_entrp">    -36.92535604 </i>
    <i name="e_0_energy">    -36.92542131 </i>
   </energy>
  </scstep>
  <scstep>
   <time name="diag">   79.71   79.87</time>
   <time name="diis">  131.44  131.59</time>
   <time name="orth">    3.09    3.10</time>
   <time name="total">  216.74  217.08</time>
   <energy>
    <i name="alphaZ">      6.18334092 </i>
    <i name="ewald">   2585.69059974 </i>
    <i name="hartreedc">  -3079.63871185 </i>
    <i name="XCdc">     57.51942711 </i>
    <i name="pawpsdc">    277.01034962 </i>
    <i name="pawaedc">   -282.15889857 </i>
    <i name="eentropy">     -0.00013055 </i>
    <i name="bandstr">   -190.15498992 </i>
    <i name="atom">    588.62352690 </i>
    <i name="e_fr_energy">    -36.92548659 </i>
    <i name="e_wo_entrp">    -36.92535604 </i>
    <i name="e_0_energy">    -36.92542131 </i>
   </energy>
  </scstep>
  <structure>
   <crystal>
    <varray name="basis" >
     <v>       4.27381254       0.00000000       0.00000000 </v>
     <v>       0.00000000       2.46705252       0.00000000 </v>
     <v>       0.00000000       0.00000000      19.99653834 </v>
    </varray>
    <i name="volume">    210.83790140 </i>
    <varray name="rec_basis" >
     <v>       0.23398312       0.00000000       0.00000000 </v>
     <v>       0.00000000       0.40534200       0.00000000 </v>
     <v>       0.00000000       0.00000000       0.05000866 </v>
    </varray>
   </crystal>
   <varray name="positions" >
    <v>      -0.00000307       0.00000000      -0.00000000 </v>
    <v>       0.16666973       0.50000000       0.00000000 </v>
    <v>       0.49999693       0.50000000      -0.00000000 </v>
    <v>       0.66666973      -0.00000000       0.00000000 </v>
   </varray>
  </structure>
  <varray name="forces" >
   <v>      -0.00000189      -0.00000000       0.00000000 </v>
   <v>       0.00000189      -0.00000000      -0.00000000 </v>
   <v>      -0.00000189      -0.00000000       0.00000000 </v>
   <v>       0.00000189       0.00000000       0.00000000 </v>
  </varray>
  <varray name="stress" >
   <v>      -0.16055114       0.00000000       0.00000000 </v>
   <v>       0.00000000       0.07978932       0.00000000 </v>
   <v>       0.00000000       0.00000000      -0.01003337 </v>
  </varray>
  <energy>
   <i name="e_fr_energy">    -36.92548659 </i>
   <i name="e_wo_entrp">    -36.92542131 </i>
   <i name="e_0_energy">     -0.00013055 </i>
  </energy>
  <time name="totalsc"> 1838.89 1846.92</time>
 </calculation>
 <calculation>
  <scstep>
   <time name="dav">  226.81  228.00</time>
   <time name="total">  259.71  260.99</time>
   <energy>
    <i name="alphaZ">      6.18334092 </i>
    <i name="ewald">   2585.69059974 </i>
    <i name="hartreedc">  -3079.63871185 </i>
    <i name="XCdc">     57.51942711 </i>
    <i name="pawpsdc">    277.01034962 </i>
    <i name="pawaedc">   -282.15889857 </i>
    <i name="eentropy">     -0.00013055 </i>
    <i name="bandstr">   -190.15498992 </i>
    <i name="atom">    588.62352690 </i>
    <i name="e_fr_energy">    -36.92548659 </i>
    <i name="e_wo_entrp">    -36.92535604 </i>
    <i name="e_0_energy">    -36.92542131 </i>
   </energy>
  </scstep>
  <scstep>
   <time name="diag">   79.69   79.91</time>
   <time name="diis">  112.17  112.47</time>
   <time name="orth">    3.10    3.10</time>
   <time name="total">  227.92  228.46</time>
   <energy>
    <i name="e_fr_energy">    -36.92548659 </i>
    <i name="e_wo_entrp">    -36.92535604 </i>
    <i name="e_0_energy">    -36.92542131 </i>
   </energy>
  </scstep>
  <scstep>
   <time name="diag">   79.82   79.88</time>
   <time name="diis">  127.52  128.04</time>
   <time name="orth">    3.08    3.10</time>
   <time name="total">  243.12  244.01</time>
   <energy>
    <i name="e_fr_energy">    -36.92548659 </i>
    <i name="e_wo_entrp">    -36.92535604 </i>
    <i name="e_0_energy">    -36.92542131 </i>
   </energy>
  </scstep>
  <scstep>
   <time name="diag">   79.13   79.89</time>
   <time name="diis">  123.21  124.05</time>
   <time name="orth">    3.10    3.10</time>
   <time name="total">  238.38  240.01</time>
   <energy>
    <i name="e_fr_energy">    -36.92548659 </i>
    <i name="e_wo_entrp">    -36.92535604 </i>
    <i name="e_0_energy">    -36.92542131 </i>
   </energy>
  </scstep>
  <scstep>
   <time name="diag">   79.78   79.87</time>
   <time name="diis">  113.49  113.61</time>
   <time name="orth">    3.08    3.08</time>
   <time name="total">  229.22  229.47</time>
   <energy>
    <i name="e_fr_energy">    -36.92548659 </i>
    <i name="e_wo_entrp">    -36.92535604 </i>
    <i name="e_0_energy">    -36.92542131 </i>
   </energy>
  </scstep>
  <scstep>
   <time name="diag">   79.48   79.92</time>
   <time name="diis">  131.40  131.86</time>
   <time name="orth">    3.09    3.10</time>
   <time name="total">  246.86  247.89</time>
   <energy>
    <i name="e_fr_energy">    -36.92548659 </i>
    <i name="e_wo_entrp">    -36.92535604 </i>
    <i name="e_0_energy">    -36.92542131 </i>
   </energy>
  </scstep>
  <scstep>
   <time name="diag">   79.32   79.90</time>
   <time name="diis">  111.85  112.56</time>
   <time name="orth">    3.09    3.10</time>
   <time name="total">  227.04  228.51</time>
   <energy>
    <i name="e_fr_energy">    -36.92548659 </i>
    <i name="e_wo_entrp">    -36.92535604 </i>
    <i name="e_0_energy">    -36.92542131 </i>
   </energy>
  </scstep>
  <scstep>
   <time name="diag">   79.73   79.91</time>
   <time name="diis">  110.05  110.50</time>
   <time name="orth">    3.09    3.10</time>
   <time name="total">  225.74  226.46</time>
   <energy>
    <i name="e_fr_energy">    -36.92548659 </i>
    <i name="e_wo_entrp">    -36.92535604 </i>
    <i name="e_0_energy">    -36.92542131 </i>
   </energy>
  </scstep>
  <scstep>
   <time name="diag">   79.70   79.93</time>
   <time name="diis">  128.48  128.90</time>
   <time name="orth">    3.09    3.10</time>
   <time name="total">  244.06  244.92</time>
   <energy>
    <i name="e_fr_energy">    -36.92548659 </i>
    <i name="e_wo_entrp">    -36.92535604 </i>
    <i name="e_0_energy">    -36.92542131 </i>
   </energy>
  </scstep>
  <scstep>
   <time name="diag">   79.39   79.92</time>
   <time name="diis">  109.48  110.26</time>
   <time name="orth">    3.08    3.08</time>
   <time name="total">  194.42  195.77</time>
   <energy>
    <i name="alphaZ">      6.18334092 </i>
    <i name="ewald">   2585.69059974 </i>
    <i name="hartreedc">  -3079.63871172 </i>
    <i name="XCdc">     57.51942711 </i>
    <i name="pawpsdc">    277.01034959 </i>
    <i name="pawaedc">   -282.15889854 </i>
    <i name="eentropy">     -0.00013055 </i>
    <i name="bandstr">   -190.15499005 </i>
    <i name="atom">    588.62352690 </i>
    <i name="e_fr_energy">    -36.92548659 </i>
    <i name="e_wo_entrp">    -36.92535604 </i>
[...]
       <r>   -9.2051    1.0000 </r>
       <r>   -5.5947    1.0000 </r>
       <r>   -5.5947    1.0000 </r>
       <r>   -0.4219    0.0000 </r>
       <r>   -0.4219    0.0000 </r>
       <r>    4.8362    0.0000 </r>
       <r>    4.8362    0.0000 </r>
      </set>
      <set comment="kpoint 209">
       <r>  -18.8384    1.0000 </r>
       <r>  -17.0471    1.0000 </r>
       <r>  -14.0499    1.0000 </r>
       <r>  -12.4217    1.0000 </r>
       <r>  -12.4182    1.0000 </r>
       <r>  -10.8850    1.0000 </r>
       <r>   -6.4186    1.0000 </r>
       <r>   -4.5275    1.0000 </r>
       <r>   -0.9852    0.0000 </r>
       <r>    1.1827    0.0000 </r>
       <r>    5.2494    0.0000 </r>
       <r>    6.0379    0.0000 </r>
      </set>
      <set comment="kpoint 210">
       <r>  -18.8287    1.0000 </r>
       <r>  -17.0393    1.0000 </r>
       <r>  -14.1361    1.0000 </r>
       <r>  -12.5011    1.0000 </r>
       <r>  -12.3242    1.0000 </r>
       <r>  -10.8080    1.0000 </r>
       <r>   -6.4098    1.0000 </r>
       <r>   -4.5304    1.0000 </r>
       <r>   -0.9948    0.0000 </r>
       <r>    1.1571    0.0000 </r>
       <r>    5.2629    0.0000 </r>
       <r>    6.0540    0.0000 </r>
      </set>
      <set comment="kpoint 211">
       <r>  -18.7995    1.0000 </r>
       <r>  -17.0162    1.0000 </r>
       <r>  -14.3505    1.0000 </r>
       <r>  -12.7022    1.0000 </r>
       <r>  -12.0867    1.0000 </r>
       <r>  -10.6144    1.0000 </r>
       <r>   -6.3834    1.0000 </r>
       <r>   -4.5397    1.0000 </r>
       <r>   -1.0219    0.0000 </r>
       <r>    1.0823    0.0000 </r>
       <r>    5.3036    0.0000 </r>
       <r>    6.1017    0.0000 </r>
      </set>
      <set comment="kpoint 212">
       <r>  -18.7511    1.0000 </r>
       <r>  -16.9792    1.0000 </r>
       <r>  -14.6246    1.0000 </r>
       <r>  -12.9666    1.0000 </r>
       <r>  -11.7743    1.0000 </r>
       <r>  -10.3649    1.0000 </r>
       <r>   -6.3398    1.0000 </r>
       <r>   -4.5569    1.0000 </r>
       <r>   -1.0613    0.0000 </r>
       <r>    0.9635    0.0000 </r>
       <r>    5.3711    0.0000 </r>
       <r>    6.1801    0.0000 </r>
      </set>
      <set comment="kpoint 213">
       <r>  -18.6835    1.0000 </r>
       <r>  -16.9308    1.0000 </r>
       <r>  -14.9164    1.0000 </r>
       <r>  -13.2581    1.0000 </r>
       <r>  -11.4286    1.0000 </r>
       <r>  -10.0988    1.0000 </r>
       <r>   -6.2794    1.0000 </r>
       <r>   -4.5843    1.0000 </r>
       <r>   -1.1054    0.0000 </r>
       <r>    0.8083    0.0000 </r>
       <r>    5.4642    0.0000 </r>
       <r>    6.2879    0.0000 </r>
      </set>
      <set comment="kpoint 214">
       <r>  -18.5969    1.0000 </r>
       <r>  -16.8760    1.0000 </r>
       <r>  -15.2020    1.0000 </r>
       <r>  -13.5585    1.0000 </r>
       <r>  -11.0716    1.0000 </r>
       <r>   -9.8392    1.0000 </r>
       <r>   -6.2030    1.0000 </r>
       <r>   -4.6246    1.0000 </r>
       <r>   -1.1452    0.0000 </r>
       <r>    0.6257    0.0000 </r>
       <r>    5.5776    0.0000 </r>
       <r>    6.1667    0.0000 </r>
      </set>
      <set comment="kpoint 215">
       <r>  -18.4916    1.0000 </r>
       <r>  -16.8255    1.0000 </r>
       <r>  -15.4617    1.0000 </r>
       <r>  -13.8580    1.0000 </r>
       <r>  -10.7171    1.0000 </r>
       <r>   -9.6012    1.0000 </r>
       <r>   -6.1116    1.0000 </r>
       <r>   -4.6803    1.0000 </r>
       <r>   -1.1717    0.0000 </r>
       <r>    0.4243    0.0000 </r>
       <r>    5.6152    0.0000 </r>
       <r>    5.8364    0.0000 </r>
      </set>
      <set comment="kpoint 216">
       <r>  -18.3680    1.0000 </r>
       <r>  -16.8000    1.0000 </r>
       <r>  -15.6697    1.0000 </r>
       <r>  -14.1509    1.0000 </r>
       <r>  -10.3754    1.0000 </r>
       <r>   -9.3972    1.0000 </r>
       <r>   -6.0063    1.0000 </r>
       <r>   -4.7534    1.0000 </r>
       <r>   -1.1770    0.0000 </r>
       <r>    0.2126    0.0000 </r>
       <r>    5.3047    0.0000 </r>
       <r>    5.9466    0.0000 </r>
      </set>
      <set comment="kpoint 217">
       <r>  -18.2268    1.0000 </r>
       <r>  -16.8319    1.0000 </r>
       <r>  -15.7905    1.0000 </r>
       <r>  -14.4332    1.0000 </r>
       <r>  -10.0561    1.0000 </r>
       <r>   -9.2374    1.0000 </r>
       <r>   -5.8890    1.0000 </r>
       <r>   -4.8442    1.0000 </r>
       <r>   -1.1553    0.0000 </r>
       <r>   -0.0020    0.0000 </r>
       <r>    5.0104    0.0000 </r>
       <r>    5.8399    0.0000 </r>
      </set>
      <set comment="kpoint 218">
       <r>  -18.0687    1.0000 </r>
       <r>  -16.9414    1.0000 </r>
       <r>  -15.8021    1.0000 </r>
       <r>  -14.7019    1.0000 </r>
       <r>   -9.7682    1.0000 </r>
       <r>   -9.1306    1.0000 </r>
       <r>   -5.7615    1.0000 </r>
       <r>   -4.9517    1.0000 </r>
       <r>   -1.1032    0.0000 </r>
       <r>   -0.2126    0.0000 </r>
       <r>    4.7957    0.0000 </r>
       <r>    5.4427    0.0000 </r>
      </set>
      <set comment="kpoint 219">
       <r>  -17.8950    1.0000 </r>
       <r>  -17.1103    1.0000 </r>
       <r>  -15.7214    1.0000 </r>
       <r>  -14.9544    1.0000 </r>
       <r>   -9.5208    1.0000 </r>
       <r>   -9.0834    1.0000 </r>
       <r>   -5.6262    1.0000 </r>
       <r>   -5.0735    1.0000 </r>
       <r>   -1.0197    0.0000 </r>
       <r>   -0.4134    0.0000 </r>
       <r>    4.6712    0.0000 </r>
       <r>    5.1157    0.0000 </r>
      </set>
      <set comment="kpoint 220">
       <r>  -17.7075    1.0000 </r>
       <r>  -17.3068    1.0000 </r>
       <r>  -15.5798    1.0000 </r>
       <r>  -15.1878    1.0000 </r>
       <r>   -9.3224    1.0000 </r>
       <r>   -9.0997    1.0000 </r>
       <r>   -5.4862    1.0000 </r>
       <r>   -5.2058    1.0000 </r>
       <r>   -0.9060    0.0000 </r>
       <r>   -0.5989    0.0000 </r>
       <r>    4.6417    0.0000 </r>
       <r>    4.8682    0.0000 </r>
      </set>
      <set comment="kpoint 221">
       <r>  -17.5095    1.0000 </r>
       <r>  -17.5095    1.0000 </r>
       <r>  -15.3983    1.0000 </r>
       <r>  -15.3983    1.0000 </r>
       <r>   -9.1802    1.0000 </r>
       <r>   -9.1802    1.0000 </r>
       <r>   -5.3448    1.0000 </r>
       <r>   -5.3448    1.0000 </r>
       <r>   -0.7646    0.0000 </r>
       <r>   -0.7646    0.0000 </r>
       <r>    4.7083    0.0000 </r>
       <r>    4.7083    0.0000 </r>
      </set>
      <set comment="kpoint 222">
       <r>  -18.4156    1.0000 </r>
       <r>  -17.5162    1.0000 </r>
       <r>  -13.6730    1.0000 </r>
       <r>  -12.8582    1.0000 </r>
       <r>  -12.0676    1.0000 </r>
       <r>  -11.2964    1.0000 </r>
       <r>   -5.9582    1.0000 </r>
       <r>   -5.0072    1.0000 </r>
       <r>   -0.4766    0.0000 </r>
       <r>    0.6094    0.0000 </r>
       <r>    5.8496    0.0000 </r>
       <r>    6.6012    0.0000 </r>
      </set>
      <set comment="kpoint 223">
       <r>  -18.4060    1.0000 </r>
       <r>  -17.5074    1.0000 </r>
       <r>  -13.7592    1.0000 </r>
       <r>  -12.9403    1.0000 </r>
       <r>  -11.9764    1.0000 </r>
       <r>  -11.2139    1.0000 </r>
       <r>   -5.9507    1.0000 </r>
       <r>   -5.0048    1.0000 </r>
       <r>   -0.4929    0.0000 </r>
       <r>    0.5859    0.0000 </r>
       <r>    5.8632    0.0000 </r>
       <r>    6.6181    0.0000 </r>
      </set>
      <set comment="kpoint 224">
       <r>  -18.3774    1.0000 </r>
       <r>  -17.4811    1.0000 </r>
       <r>  -13.9741    1.0000 </r>
       <r>  -13.1474    1.0000 </r>
       <r>  -11.7467    1.0000 </r>
       <r>  -11.0066    1.0000 </r>
       <r>   -5.9283    1.0000 </r>
       <r>   -4.9981    1.0000 </r>
       <r>   -0.5400    0.0000 </r>
       <r>    0.5173    0.0000 </r>
       <r>    5.9037    0.0000 </r>
       <r>    6.6684    0.0000 </r>
      </set>
      <set comment="kpoint 225">
       <r>  -18.3298    1.0000 </r>
       <r>  -17.4378    1.0000 </r>
       <r>  -14.2512    1.0000 </r>
       <r>  -13.4177    1.0000 </r>
       <r>  -11.4461    1.0000 </r>
       <r>  -10.7379    1.0000 </r>
       <r>   -5.8915    1.0000 </r>
       <r>   -4.9881    1.0000 </r>
       <r>   -0.6128    0.0000 </r>
       <r>    0.4087    0.0000 </r>
       <r>    5.9706    0.0000 </r>
       <r>    6.7505    0.0000 </r>
      </set>
      <set comment="kpoint 226">
       <r>  -18.2635    1.0000 </r>
       <r>  -17.3784    1.0000 </r>
       <r>  -14.5508    1.0000 </r>
       <r>  -13.7141    1.0000 </r>
       <r>  -11.1161    1.0000 </r>
       <r>  -10.4479    1.0000 </r>
       <r>   -5.8411    1.0000 </r>
       <r>   -4.9766    1.0000 </r>
       <r>   -0.7033    0.0000 </r>
       <r>    0.2677    0.0000 </r>
       <r>    6.0618    0.0000 </r>
       <r>    6.8627    0.0000 </r>
      </set>
      <set comment="kpoint 227">
       <r>  -18.1788    1.0000 </r>
       <r>  -17.3043    1.0000 </r>
       <r>  -14.8527    1.0000 </r>
       <r>  -14.0179    1.0000 </r>
       <r>  -10.7789    1.0000 </r>
       <r>  -10.1593    1.0000 </r>
       <r>   -5.7781    1.0000 </r>
       <r>   -4.9663    1.0000 </r>
       <r>   -0.8023    0.0000 </r>
       <r>    0.1032    0.0000 </r>
       <r>    6.1558    0.0000 </r>
       <r>    6.4488    0.0000 </r>
      </set>
      <set comment="kpoint 228">
       <r>  -18.0762    1.0000 </r>
       <r>  -17.2186    1.0000 </r>
       <r>  -15.1449    1.0000 </r>
       <r>  -14.3192    1.0000 </r>
       <r>  -10.4484    1.0000 </r>
       <r>   -9.8873    1.0000 </r>
       <r>   -5.7041    1.0000 </r>
       <r>   -4.9603    1.0000 </r>
       <r>   -0.8997    0.0000 </r>
       <r>   -0.0755    0.0000 </r>
       <r>    5.9054    0.0000 </r>
       <r>    6.3723    0.0000 </r>
      </set>
      <set comment="kpoint 229">
       <r>  -17.9564    1.0000 </r>
       <r>  -17.1265    1.0000 </r>
       <r>  -15.4169    1.0000 </r>
       <r>  -14.6122    1.0000 </r>
       <r>  -10.1358    1.0000 </r>
       <r>   -9.6435    1.0000 </r>
       <r>   -5.6211    1.0000 </r>
       <r>   -4.9620    1.0000 </r>
       <r>   -0.9854    0.0000 </r>
       <r>   -0.2597    0.0000 </r>
       <r>    5.5004    0.0000 </r>
       <r>    5.9971    0.0000 </r>
      </set>
      <set comment="kpoint 230">
       <r>  -17.8206    1.0000 </r>
       <r>  -17.0387    1.0000 </r>
       <r>  -15.6550    1.0000 </r>
       <r>  -14.8924    1.0000 </r>
       <r>   -9.8507    1.0000 </r>
       <r>   -9.4384    1.0000 </r>
       <r>   -5.5315    1.0000 </r>
       <r>   -4.9747    1.0000 </r>
       <r>   -1.0506    0.0000 </r>
       <r>   -0.4409    0.0000 </r>
       <r>    5.1556    0.0000 </r>
       <r>    5.5723    0.0000 </r>
      </set>
      <set comment="kpoint 231">
       <r>  -17.6706    1.0000 </r>
       <r>  -16.9764    1.0000 </r>
       <r>  -15.8362    1.0000 </r>
       <r>  -15.1560    1.0000 </r>
       <r>   -9.6028    1.0000 </r>
       <r>   -9.2814    1.0000 </r>
       <r>   -5.4382    1.0000 </r>
       <r>   -5.0013    1.0000 </r>
       <r>   -1.0879    0.0000 </r>
       <r>   -0.6116    0.0000 </r>
       <r>    4.8884    0.0000 </r>
       <r>    5.2139    0.0000 </r>
      </set>
      <set comment="kpoint 232">
       <r>  -17.5094    1.0000 </r>
       <r>  -16.9724    1.0000 </r>
       <r>  -15.9264    1.0000 </r>
       <r>  -15.3985    1.0000 </r>
       <r>   -9.4008    1.0000 </r>
       <r>   -9.1802    1.0000 </r>
       <r>   -5.3447    1.0000 </r>
       <r>   -5.0433    1.0000 </r>
       <r>   -1.0921    0.0000 </r>
       <r>   -0.7646    0.0000 </r>
       <r>    4.7082    0.0000 </r>
       <r>    4.9321    0.0000 </r>
      </set>
      <set comment="kpoint 233">
       <r>  -17.3427    1.0000 </r>
       <r>  -17.0472    1.0000 </r>
       <r>  -15.9045    1.0000 </r>
       <r>  -15.6134    1.0000 </r>
       <r>   -9.2527    1.0000 </r>
       <r>   -9.1404    1.0000 </r>
       <r>   -5.2547    1.0000 </r>
       <r>   -5.1008    1.0000 </r>
       <r>   -1.0608    0.0000 </r>
       <r>   -0.8939    0.0000 </r>
       <r>    4.6213    0.0000 </r>
       <r>    4.7354    0.0000 </r>
      </set>
      <set comment="kpoint 234">
       <r>  -17.1815    1.0000 </r>
       <r>  -17.1815    1.0000 </r>
       <r>  -15.7893    1.0000 </r>
       <r>  -15.7893    1.0000 </r>
       <r>   -9.1647    1.0000 </r>
       <r>   -9.1647    1.0000 </r>
       <r>   -5.1722    1.0000 </r>
       <r>   -5.1722    1.0000 </r>
       <r>   -0.9940    0.0000 </r>
       <r>   -0.9940    0.0000 </r>
       <r>    4.6305    0.0000 </r>
       <r>    4.6305    0.0000 </r>
      </set>
      <set comment="kpoint 235">
       <r>  -17.9739    1.0000 </r>
       <r>  -17.9739    1.0000 </r>
       <r>  -13.2755    1.0000 </r>
       <r>  -13.2755    1.0000 </r>
       <r>  -11.6919    1.0000 </r>
       <r>  -11.6919    1.0000 </r>
       <r>   -5.4861    1.0000 </r>
       <r>   -5.4861    1.0000 </r>
       <r>    0.0556    0.0000 </r>
       <r>    0.0556    0.0000 </r>
       <r>    6.4814    0.0000 </r>
       <r>    6.4814    0.0000 </r>
      </set>
      <set comment="kpoint 236">
       <r>  -17.9646    1.0000 </r>
       <r>  -17.9646    1.0000 </r>
       <r>  -13.3601    1.0000 </r>
       <r>  -13.3601    1.0000 </r>
       <r>  -11.6047    1.0000 </r>
       <r>  -11.6047    1.0000 </r>
       <r>   -5.4805    1.0000 </r>
       <r>   -5.4805    1.0000 </r>
       <r>    0.0350    0.0000 </r>
       <r>    0.0350    0.0000 </r>
       <r>    6.4949    0.0000 </r>
       <r>    6.4949    0.0000 </r>
      </set>
      <set comment="kpoint 237">
       <r>  -17.9368    1.0000 </r>
       <r>  -17.9368    1.0000 </r>
       <r>  -13.5720    1.0000 </r>
       <r>  -13.5720    1.0000 </r>
       <r>  -11.3852    1.0000 </r>
       <r>  -11.3852    1.0000 </r>
       <r>   -5.4642    1.0000 </r>
       <r>   -5.4642    1.0000 </r>
       <r>   -0.0249    0.0000 </r>
       <r>   -0.0249    0.0000 </r>
       <r>    6.5351    0.0000 </r>
       <r>    6.5351    0.0000 </r>
      </set>
      <set comment="kpoint 238">
       <r>  -17.8907    1.0000 </r>
       <r>  -17.8907    1.0000 </r>
       <r>  -13.8469    1.0000 </r>
       <r>  -13.8469    1.0000 </r>
       <r>  -11.0994    1.0000 </r>
       <r>  -11.0994    1.0000 </r>
       <r>   -5.4378    1.0000 </r>
       <r>   -5.4378    1.0000 </r>
       <r>   -0.1191    0.0000 </r>
       <r>   -0.1191    0.0000 </r>
       <r>    6.6012    0.0000 </r>
       <r>    6.6012    0.0000 </r>
      </set>
      <set comment="kpoint 239">
       <r>  -17.8267    1.0000 </r>
       <r>  -17.8267    1.0000 </r>
       <r>  -14.1465    1.0000 </r>
       <r>  -14.1465    1.0000 </r>
       <r>  -10.7881    1.0000 </r>
       <r>  -10.7881    1.0000 </r>
       <r>   -5.4025    1.0000 </r>
       <r>   -5.4025    1.0000 </r>
       <r>   -0.2398    0.0000 </r>
       <r>   -0.2398    0.0000 </r>
       <r>    6.6880    0.0000 </r>
       <r>    6.6880    0.0000 </r>
      </set>
      <set comment="kpoint 240">
       <r>  -17.7454    1.0000 </r>
       <r>  -17.7454    1.0000 </r>
       <r>  -14.4517    1.0000 </r>
       <r>  -14.4517    1.0000 </r>
       <r>  -10.4737    1.0000 </r>
       <r>  -10.4737    1.0000 </r>
       <r>   -5.3601    1.0000 </r>
       <r>   -5.3601    1.0000 </r>
       <r>   -0.3780    0.0000 </r>
       <r>   -0.3780    0.0000 </r>
       <r>    6.6449    0.0000 </r>
       <r>    6.6449    0.0000 </r>
      </set>
      <set comment="kpoint 241">
       <r>  -17.6478    1.0000 </r>
       <r>  -17.6478    1.0000 </r>
       <r>  -14.7521    1.0000 </r>
       <r>  -14.7521    1.0000 </r>
       <r>  -10.1707    1.0000 </r>
       <r>  -10.1707    1.0000 </r>
       <r>   -5.3128    1.0000 </r>
       <r>   -5.3128    1.0000 </r>
       <r>   -0.5240    0.0000 </r>
       <r>   -0.5240    0.0000 </r>
       <r>    6.1789    0.0000 </r>
       <r>    6.1789    0.0000 </r>
      </set>
      <set comment="kpoint 242">
       <r>  -17.5358    1.0000 </r>
       <r>  -17.5358    1.0000 </r>
       <r>  -15.0409    1.0000 </r>
       <r>  -15.0409    1.0000 </r>
       <r>   -9.8907    1.0000 </r>
       <r>   -9.8907    1.0000 </r>
       <r>   -5.2636    1.0000 </r>
       <r>   -5.2636    1.0000 </r>
       <r>   -0.6681    0.0000 </r>
       <r>   -0.6681    0.0000 </r>
       <r>    5.7310    0.0000 </r>
       <r>    5.7310    0.0000 </r>
      </set>
      <set comment="kpoint 243">
       <r>  -17.4121    1.0000 </r>
       <r>  -17.4121    1.0000 </r>
       <r>  -15.3120    1.0000 </r>
       <r>  -15.3120    1.0000 </r>
       <r>   -9.6438    1.0000 </r>
       <r>   -9.6438    1.0000 </r>
       <r>   -5.2158    1.0000 </r>
       <r>   -5.2158    1.0000 </r>
       <r>   -0.8012    0.0000 </r>
       <r>   -0.8012    0.0000 </r>
       <r>    5.3434    0.0000 </r>
       <r>    5.3434    0.0000 </r>
      </set>
      <set comment="kpoint 244">
       <r>  -17.2825    1.0000 </r>
       <r>  -17.2825    1.0000 </r>
       <r>  -15.5580    1.0000 </r>
       <r>  -15.5580    1.0000 </r>
       <r>   -9.4396    1.0000 </r>
       <r>   -9.4396    1.0000 </r>
       <r>   -5.1731    1.0000 </r>
       <r>   -5.1731    1.0000 </r>
       <r>   -0.9149    0.0000 </r>
       <r>   -0.9149    0.0000 </r>
       <r>    5.0284    0.0000 </r>
       <r>    5.0284    0.0000 </r>
      </set>
      <set comment="kpoint 245">
       <r>  -17.1576    1.0000 </r>
       <r>  -17.1576    1.0000 </r>
       <r>  -15.7668    1.0000 </r>
       <r>  -15.7668    1.0000 </r>
       <r>   -9.2865    1.0000 </r>
       <r>   -9.2865    1.0000 </r>
       <r>   -5.1392    1.0000 </r>
       <r>   -5.1392    1.0000 </r>
       <r>   -1.0021    0.0000 </r>
       <r>   -1.0021    0.0000 </r>
       <r>    4.7956    0.0000 </r>
       <r>    4.7956    0.0000 </r>
      </set>
      <set comment="kpoint 246">
       <r>  -17.0589    1.0000 </r>
       <r>  -17.0589    1.0000 </r>
       <r>  -15.9161    1.0000 </r>
       <r>  -15.9161    1.0000 </r>
       <r>   -9.1916    1.0000 </r>
       <r>   -9.1916    1.0000 </r>
       <r>   -5.1174    1.0000 </r>
       <r>   -5.1174    1.0000 </r>
       <r>   -1.0568    0.0000 </r>
       <r>   -1.0568    0.0000 </r>
       <r>    4.6526    0.0000 </r>
       <r>    4.6526    0.0000 </r>
      </set>
      <set comment="kpoint 247">
       <r>  -17.0193    1.0000 </r>
       <r>  -17.0193    1.0000 </r>
       <r>  -15.9726    1.0000 </r>
       <r>  -15.9726    1.0000 </r>
       <r>   -9.1594    1.0000 </r>
       <r>   -9.1594    1.0000 </r>
       <r>   -5.1098    1.0000 </r>
       <r>   -5.1098    1.0000 </r>
       <r>   -1.0755    0.0000 </r>
       <r>   -1.0755    0.0000 </r>
       <r>    4.6044    0.0000 </r>
       <r>    4.6044    0.0000 </r>
      </set>
     </set>
    </set>
   </array>
  </eigenvalues>
  <separator name="orbital magnetization" >
   <v name="MAGDIPOLOUT">      0.00000000      0.00000000      0.00000000</v>
  </separator>
 </calculation>
 <structure name="finalpos" >
  <crystal>
   <varray name="basis" >
    <v>       4.27381254       0.00000000       0.00000000 </v>
    <v>       0.00000000       2.46705252       0.00000000 </v>
    <v>       0.00000000       0.00000000      19.99653834 </v>
   </varray>
   <i name="volume">    210.83790140 </i>
   <varray name="rec_basis" >
    <v>       0.23398312       0.00000000       0.00000000 </v>
    <v>       0.00000000       0.40534200       0.00000000 </v>
    <v>       0.00000000       0.00000000       0.05000866 </v>
   </varray>
  </crystal>
  <varray name="positions" >
   <v>      -0.00000307       0.00000000      -0.00000000 </v>
   <v>       0.16666974       0.50000000       0.00000000 </v>
   <v>       0.49999693       0.50000000      -0.00000000 </v>
   <v>       0.66666974      -0.00000000       0.00000000 </v>
  </varray>
 </structure>
</modeling>
