gr                                      
           1
     4.273813    0.000000    0.000000
     0.000000    2.467053    0.000000
     0.000000    0.000000   19.996538
   C 
   4
Direct configuration=     1
   0.00013158  0.00000000  0.00000000
   0.16653509  0.50000000  0.00000000
   0.50013158  0.50000000  0.00000000
   0.66653509  0.00000000  0.00000000
Direct configuration=     2
  -0.00054095  0.00000000  0.00000000
   0.16720761  0.50000000 -0.00000000
   0.49945905  0.50000000  0.00000000
   0.66720761  0.00000000 -0.00000000
Direct configuration=     3
  -0.00000189  0.00000000  0.00000000
   0.16666856  0.50000000 -0.00000000
   0.49999811  0.50000000  0.00000000
   0.66666856  0.00000000 -0.00000000
Direct configuration=     4
  -0.00000307  0.00000000  0.00000000
   0.16666974  0.50000000 -0.00000000
   0.49999693  0.50000000  0.00000000
   0.66666974  0.00000000 -0.00000000
Direct configuration=     5
  -0.00000306  0.00000000 -0.00000000
   0.16666972  0.50000000  0.00000000
   0.49999694  0.50000000 -0.00000000
   0.66666972  0.00000000  0.00000000
Direct configuration=     6
  -0.00000307  0.00000000 -0.00000000
   0.16666973  0.50000000  0.00000000
   0.49999693  0.50000000 -0.00000000
   0.66666973 -0.00000000  0.00000000
Direct configuration=     7
  -0.00000307  0.00000000 -0.00000000
   0.16666974  0.50000000  0.00000000
   0.49999693  0.50000000 -0.00000000
   0.66666974  0.00000000  0.00000000
Direct configuration=     8
  -0.00000306  0.00000000 -0.00000000
   0.16666973  0.50000000  0.00000000
   0.49999694  0.50000000 -0.00000000
   0.66666973  0.00000000  0.00000000
Direct configuration=     9
  -0.00000307  0.00000000 -0.00000000
   0.16666974  0.50000000  0.00000000
   0.49999693  0.50000000 -0.00000000
   0.66666974 -0.00000000  0.00000000
