    4    4  400    1
  0.5270948E+02  0.4316633E-09  0.2462785E-09  0.1983248E-08  0.5000000E-15
  1.000000000000000E-004
  CAR 
 gr                                      
     16    247     12
 
  0.0000000E+00  0.0000000E+00  0.0000000E+00  0.1157407E-02
    1      -22.183604
    2      -17.120696
    3      -15.918407
    4      -10.304843
    5       -9.011133
    6       -5.878678
    7       -5.760823
    8       -5.204313
    9       -1.122333
   10        0.532205
   11        1.332078
   12        1.718237
 
  0.4166667E-01  0.0000000E+00  0.0000000E+00  0.2314815E-02
    1      -22.173558
    2      -17.263919
    3      -15.760033
    4      -10.292873
    5       -9.001252
    6       -5.922079
    7       -5.782351
    8       -5.267545
    9       -1.043205
   10        0.545813
   11        1.345860
   12        1.732189
 
  0.8333333E-01  0.0000000E+00  0.0000000E+00  0.2314815E-02
    1      -22.143423
    2      -17.573895
    3      -15.404686
    4      -10.256983
    5       -8.971659
    6       -6.050375
    7       -5.845774
    8       -5.443620
    9       -0.819607
   10        0.586652
   11        1.387254
   12        1.774022
 
  0.1250000E+00  0.0000000E+00  0.0000000E+00  0.2314815E-02
    1      -22.093220
    2      -17.931704
    3      -14.971533
    4      -10.197230
    5       -8.922509
    6       -6.258203
    7       -5.947797
    8       -5.701824
    9       -0.482751
   10        0.654733
   11        1.456246
   12        1.843878
 
  0.1666667E+00  0.0000000E+00  0.0000000E+00  0.2314815E-02
    1      -22.022983
    2      -18.297126
    3      -14.501212
    4      -10.113712
    5       -8.854061
    6       -6.537624
    7       -6.083494
    8       -6.011058
    9       -0.064577
   10        0.750052
   11        1.552728
   12        1.941618
 
  0.2083333E+00  0.0000000E+00  0.0000000E+00  0.2314815E-02
    1      -21.932762
    2      -18.656567
    3      -14.007925
    4      -10.006570
    5       -8.766693
    6       -6.879246
    7       -6.347671
    8       -6.246964
    9        0.410055
   10        0.872633
   11        1.676769
   12        2.908312
 
  0.2500000E+00  0.0000000E+00  0.0000000E+00  0.2314815E-02
    1      -21.822619
    2      -19.004396
    3      -13.498101
    4       -9.875995
    5       -8.660908
    6       -7.273248
    7       -6.695626
    8       -6.431949
    9        0.923473
   10        1.022470
   11        1.828285
   12        2.221287
 
  0.2916667E+00  0.0000000E+00  0.0000000E+00  0.2314815E-02
    1      -21.692637
    2      -19.337833
    3      -12.975549
    4       -9.722231
    5       -8.537356
    6       -7.710139
    7       -7.044384
    8       -6.632329
    9        1.199519
   10        1.463010
   11        2.007153
   12        2.402624
 
  0.3333333E+00  0.0000000E+00  0.0000000E+00  0.2314815E-02
    1      -21.542914
    2      -19.655293
    3      -12.443127
    4       -9.545591
    5       -8.396848
    6       -8.181207
    7       -7.386968
    8       -6.842436
    9        1.403769
   10        2.018809
   11        2.213235
   12        2.612822
 
  0.3750000E+00  0.0000000E+00  0.0000000E+00  0.2314815E-02
    1      -21.373568
    2      -19.955777
    3      -11.903403
    4       -9.346467
    5       -8.678724
    6       -8.240389
    7       -7.718656
    8       -7.057221
    9        1.635613
   10        2.446960
   11        2.848251
   12        3.518160
 
  0.4166667E+00  0.0000000E+00  0.0000000E+00  0.2314815E-02
    1      -21.184739
    2      -20.238598
    3      -11.358964
    4       -9.195979
    5       -9.125352
    6       -8.069207
    7       -8.036156
    8       -7.272300
    9        1.893650
   10        2.706051
   11        3.115771
   12        3.190477
 
  0.4583333E+00  0.0000000E+00  0.0000000E+00  0.2314815E-02
    1      -20.976599
    2      -20.503251
    3      -10.812609
    4       -9.727207
    5       -8.882862
    6       -8.337110
    7       -7.884800
    8       -7.483936
    9        2.179091
   10        2.830375
   11        2.990239
   12        3.475496
 
  0.5000000E+00  0.0000000E+00  0.0000000E+00  0.1157407E-02
    1      -20.749353
    2      -20.749353
    3      -10.267485
    4      -10.267485
    5       -8.619780
    6       -8.619780
    7       -7.688980
    8       -7.688980
    9        2.491399
   10        2.491426
   11        3.294278
   12        3.298267
 
  0.0000000E+00  0.2777778E-01  0.0000000E+00  0.2314815E-02
    1      -22.169869
    2      -17.108853
    3      -15.906733
    4      -10.288478
    5       -9.073447
    6       -5.907154
    7       -5.818584
    8       -5.187655
    9       -1.125633
   10        0.550826
   11        1.350901
   12        1.741935
 
  0.4166667E-01  0.2777778E-01  0.0000000E+00  0.4629630E-02
    1      -22.159823
    2      -17.251930
    3      -15.748554
    4      -10.276513
    5       -9.063551
    6       -5.953923
    7       -5.836099
    8       -5.251018
    9       -1.046485
   10        0.564438
   11        1.364693
   12        1.751174
 
  0.8333333E-01  0.2777778E-01  0.0000000E+00  0.4629630E-02
    1      -22.129693
    2      -17.561662
    3      -15.393598
    4      -10.240635
    5       -9.033915
    6       -6.085720
    7       -5.894202
    8       -5.427400
    9       -0.822915
   10        0.605274
   11        1.406079
   12        3.549104
 
  0.1250000E+00  0.2777778E-01  0.0000000E+00  0.4629630E-02
    1      -22.079498
    2      -17.919248
    3      -14.960916
    4      -10.180902
    5       -8.984687
    6       -6.293340
    7       -5.993743
    8       -5.685925
    9       -0.486297
   10        0.673354
   11        1.475053
   12        1.863470
 
  0.1666667E+00  0.2777778E-01  0.0000000E+00  0.4629630E-02
    1      -22.009271
    2      -18.284479
    3      -14.491146
    4      -10.097413
    5       -8.916125
    6       -6.569757
    7       -6.129260
    8       -5.995400
    9       -0.068667
   10        0.768688
   11        1.571694
   12        1.960788
 
  0.2083333E+00  0.2777778E-01  0.0000000E+00  0.4629630E-02
    1      -21.919065
    2      -18.643757
    3      -13.998505
    4       -9.990307
    5       -8.828596
    6       -6.906914
    7       -6.332158
    8       -6.293862
    9        0.405094
   10        0.891276
   11        1.695597
   12        2.086608
 
  0.2500000E+00  0.2777778E-01  0.0000000E+00  0.4629630E-02
    1      -21.808940
    2      -18.991446
    3      -13.489443
    4       -9.859776
    5       -8.722596
    6       -7.295938
    7       -6.680176
    8       -6.480602
    9        0.917344
   10        1.041107
   11        1.847086
   12        2.240498
 
  0.2916667E+00  0.2777778E-01  0.0000000E+00  0.4629630E-02
    1      -21.678981
    2      -19.324762
    3      -12.967793
    4       -9.706065
    5       -8.598759
    6       -7.727907
    7       -7.028935
    8       -6.682942
    9        1.218172
   10        1.455468
   11        2.025975
   12        2.422525
 
  0.3333333E+00  0.2777778E-01  0.0000000E+00  0.4629630E-02
    1      -21.529284
    2      -19.642118
    3      -12.436440
    4       -9.529485
    5       -8.457883
    6       -8.194419
    7       -7.371481
    8       -6.894978
    9        1.422435
   10        2.009667
   11        2.232059
   12        2.631469
 
  0.3750000E+00  0.2777778E-01  0.0000000E+00  0.4629630E-02
    1      -21.359969
    2      -19.942513
    3      -11.897989
    4       -9.330429
    5       -8.687879
    6       -8.300954
    7       -7.703105
    8       -7.111534
    9        1.653840
   10        2.465126
   11        2.573528
   12        2.869127
 
  0.4166667E+00  0.2777778E-01  0.0000000E+00  0.4629630E-02
    1      -21.171178
    2      -20.225255
    3      -11.355066
    4       -9.201609
    5       -9.109388
    6       -8.129179
    7       -8.020528
    8       -7.328172
    9        1.912368
   10        2.724656
   11        3.135093
   12        3.214576
 
  0.4583333E+00  0.2777778E-01  0.0000000E+00  0.4629630E-02
    1      -20.963080
    2      -20.489840
    3      -10.810518
    4       -9.729822
    5       -8.866978
    6       -8.321396
    7       -7.944030
    8       -7.541139
    9        2.197797
   10        2.849340
   11        3.009331
   12        3.502497
 
  0.5000000E+00  0.2777778E-01  0.0000000E+00  0.2314815E-02
    1      -20.735885
    2      -20.735885
    3      -10.267546
    4      -10.267546
    5       -8.603981
    6       -8.603981
    7       -7.747296
    8       -7.747296
    9        2.510128
   10        2.510160
   11        3.311864
   12        3.312438
 
  0.0000000E+00  0.5555556E-01  0.0000000E+00  0.2314815E-02
    1      -22.128672
    2      -17.073330
    3      -15.871856
    4      -10.239418
    5       -9.255377
    6       -5.992000
    7       -5.987206
    8       -5.137702
    9       -1.136355
   10        0.606697
   11        1.407420
   12        1.794432
 
  0.4166667E-01  0.5555556E-01  0.0000000E+00  0.4629630E-02
    1      -22.118630
    2      -17.215976
    3      -15.714257
    4      -10.227465
    5       -9.245433
    6       -6.065399
    7       -5.976199
    8       -5.201472
    9       -1.057140
   10        0.620309
   11        1.421213
   12        1.808400
 
  0.8333333E-01  0.5555556E-01  0.0000000E+00  0.4629630E-02
    1      -22.088513
    2      -17.524979
    3      -15.360479
    4      -10.191624
    5       -9.215650
    6       -6.205580
    7       -6.020567
    8       -5.378795
    9       -0.833650
   10        0.661152
   11        1.462651
   12        1.852978
 
  0.1250000E+00  0.5555556E-01  0.0000000E+00  0.4629630E-02
    1      -22.038341
    2      -17.881901
    3      -14.929229
    4      -10.131954
    5       -9.166167
    6       -6.409860
    7       -6.115496
    8       -5.638303
    9       -0.497756
   10        0.729232
   11        1.531550
   12        1.920154
 
  0.1666667E+00  0.5555556E-01  0.0000000E+00  0.4629630E-02
    1      -21.968148
    2      -18.246559
    3      -14.461142
    4      -10.048550
    5       -9.097223
    6       -6.675519
    7       -6.252314
    8       -5.948518
    9       -0.081782
   10        0.824570
   11        1.628070
   12        3.851050
 
  0.2083333E+00  0.5555556E-01  0.0000000E+00  0.4629630E-02
    1      -21.877985
    2      -18.605346
    3      -13.970481
    4       -9.941556
    5       -9.009164
    6       -6.997834
    7       -6.421822
    8       -6.285714
    9        0.389330
   10        0.947170
   11        1.752062
   12        2.143942
 
  0.2500000E+00  0.5555556E-01  0.0000000E+00  0.4629630E-02
    1      -21.767915
    2      -18.952614
    3      -13.463762
    4       -9.811160
    5       -8.902450
    6       -7.370531
    7       -6.633917
    8       -6.615243
    9        0.898010
   10        1.097025
   11        1.903539
   12        4.240165
 
  0.2916667E+00  0.5555556E-01  0.0000000E+00  0.4629630E-02
    1      -21.638023
    2      -19.285567
    3      -12.944892
    4       -9.657609
    5       -8.777674
    6       -7.786440
    7       -6.982679
    8       -6.824757
    9        1.274119
   10        2.078775
   11        2.397431
   12        3.394352
 
  0.3333333E+00  0.5555556E-01  0.0000000E+00  0.4629630E-02
    1      -21.488406
    2      -19.602609
    3      -12.416854
    4       -9.481213
    5       -8.635583
    6       -8.238147
    7       -7.325105
    8       -7.043688
    9        1.478402
   10        1.981436
   11        2.288452
   12        2.688548
 
  0.3750000E+00  0.5555556E-01  0.0000000E+00  0.4629630E-02
    1      -21.319186
    2      -19.902733
    3      -11.882359
    4       -9.282363
    5       -8.718496
    6       -8.477097
    7       -7.656532
    8       -7.266464
    9        1.709890
   10        2.521584
   11        2.924866
   12        3.525769
 
  0.4166667E+00  0.5555556E-01  0.0000000E+00  0.4629630E-02
    1      -21.130506
    2      -20.185242
    3      -11.344172
    4       -9.220903
    5       -9.061549
    6       -8.303352
    7       -7.973715
    8       -7.488493
    9        1.968376
   10        2.781287
   11        3.191667
   12        3.270294
 
  0.4583333E+00  0.5555556E-01  0.0000000E+00  0.4629630E-02
    1      -20.922538
    2      -20.449625
    3      -10.805296
    4       -9.739492
    5       -8.819384
    6       -8.274324
    7       -8.115732
    8       -7.706009
    9        2.253880
   10        2.905371
   11        3.065759
   12        3.511386
 
  0.5000000E+00  0.5555556E-01  0.0000000E+00  0.2314815E-02
    1      -20.695494
    2      -20.695494
    3      -10.269112
    4      -10.269112
    5       -8.556644
    6       -8.556644
    7       -7.915929
    8       -7.915929
    9        2.566255
   10        2.566272
   11        3.368212
   12        3.371999
 
  0.0000000E+00  0.8333333E-01  0.0000000E+00  0.2314815E-02
    1      -22.060048
    2      -17.014137
    3      -15.814244
    4      -10.157767
    5       -9.543284
    6       -6.254130
    7       -6.131488
    8       -5.054515
    9       -1.156964
   10        0.699839
   11        1.501627
   12        1.889835
 
  0.4166667E-01  0.8333333E-01  0.0000000E+00  0.4629630E-02
    1      -22.050014
    2      -17.156092
    3      -15.657597
    4      -10.145835
    5       -9.533245
    6       -6.306288
    7       -6.138695
    8       -5.119006
    9       -1.077615
   10        0.713437
   11        1.515400
   12        1.903842
 
  0.8333333E-01  0.8333333E-01  0.0000000E+00  0.4629630E-02
    1      -22.019920
    2      -17.463907
    3      -15.305798
    4      -10.110058
    5       -9.503167
    6       -6.439109
    7       -6.181839
    8       -5.297984
    9       -0.854230
   10        0.754283
   11        1.556766
   12        1.946178
 
  0.1250000E+00  0.8333333E-01  0.0000000E+00  0.4629630E-02
    1      -21.969787
    2      -17.819725
    3      -14.877000
    4      -10.050492
    5       -9.453173
    6       -6.632482
    7       -6.274834
    8       -5.559204
    9       -0.519566
   10        0.822357
   11        1.625687
   12        2.015537
 
  0.1666667E+00  0.8333333E-01  0.0000000E+00  0.4629630E-02
    1      -21.899650
    2      -18.183428
    3      -14.411823
    4       -9.967237
    5       -9.383468
    6       -6.879234
    7       -6.415151
    8       -5.870691
    9       -0.106448
   10        0.917698
   11        1.722153
   12        4.085193
 
  0.2083333E+00  0.8333333E-01  0.0000000E+00  0.4629630E-02
    1      -21.809559
    2      -18.541393
    3      -13.924619
    4       -9.860433
    5       -9.294348
    6       -7.175600
    7       -6.594272
    8       -6.208633
    9        0.360095
   10        1.040306
   11        1.846137
   12        2.239053
 
  0.2500000E+00  0.8333333E-01  0.0000000E+00  0.4629630E-02
    1      -21.699581
    2      -18.887955
    3      -13.422018
    4       -9.730270
    5       -9.186208
    6       -7.518414
    7       -6.801586
    8       -6.557141
    9        0.862679
   10        1.190177
   11        1.997557
   12        2.392740
 
  0.2916667E+00  0.8333333E-01  0.0000000E+00  0.4629630E-02
    1      -21.569801
    2      -19.220298
    3      -12.908076
    4       -9.576993
    5       -9.059556
    6       -7.903853
    7       -7.026747
    8       -6.905893
    9        1.367287
   10        1.396627
   11        2.176382
   12        2.574369
 
  0.3333333E+00  0.8333333E-01  0.0000000E+00  0.4629630E-02
    1      -21.420318
    2      -19.536815
    3      -12.385957
    4       -9.400913
    5       -8.915027
    6       -8.326962
    7       -7.261017
    8       -7.248099
    9        1.571605
   10        1.929489
   11        2.382416
   12        2.784737
 
  0.3750000E+00  0.8333333E-01  0.0000000E+00  0.4629630E-02
    1      -21.251256
    2      -19.836485
    3      -11.858595
    4       -9.202419
    5       -8.781896
    6       -8.753404
    7       -7.579179
    8       -7.497626
    9        1.803075
   10        2.490824
   11        2.615510
   12        3.099899
 
  0.4166667E+00  0.8333333E-01  0.0000000E+00  0.4629630E-02
    1      -21.062761
    2      -20.118601
    3      -11.329027
    4       -9.262477
    5       -8.981996
    6       -8.575651
    7       -7.895941
    8       -7.731501
    9        2.061692
   10        2.875410
   11        3.275897
   12        3.353762
 
  0.4583333E+00  0.8333333E-01  0.0000000E+00  0.4629630E-02
    1      -20.855011
    2      -20.382644
    3      -10.800586
    4       -9.762699
    5       -8.740254
    6       -8.382947
    7       -8.196099
    8       -7.958840
    9        2.347173
   10        2.998861
   11        3.159867
   12        3.729861
 
  0.5000000E+00  0.8333333E-01  0.0000000E+00  0.2314815E-02
    1      -20.628219
    2      -20.628219
    3      -10.277041
    4      -10.277041
    5       -8.477961
    6       -8.477961
    7       -8.176744
    8       -8.176744
    9        2.659604
   10        2.659653
   11        3.461202
   12        3.465152
 
  0.0000000E+00  0.1111111E+00  0.0000000E+00  0.2314815E-02
    1      -21.964059
    2      -16.931297
    3      -15.734778
    4      -10.043700
    5       -9.918198
    6       -6.602235
    7       -6.322787
    8       -4.938202
    9       -1.191548
   10        0.830218
   11        1.633407
   12        2.023377
 
  0.4166667E-01  0.1111111E+00  0.0000000E+00  0.4629630E-02
    1      -21.954036
    2      -17.072342
    3      -15.579436
    4      -10.031799
    5       -9.907989
    6       -6.649470
    7       -6.330948
    8       -5.003796
    9       -1.111956
   10        0.843832
   11        1.647205
   12        2.037995
 
  0.8333333E-01  0.1111111E+00  0.0000000E+00  0.4629630E-02
    1      -21.923974
    2      -17.378548
    3      -15.230450
    4       -9.996114
    5       -9.877389
    6       -6.776259
    7       -6.368796
    8       -5.185288
    9       -0.888638
   10        0.884652
   11        1.688537
   12        2.079323
 
  0.1250000E+00  0.1111111E+00  0.0000000E+00  0.4629630E-02
    1      -21.873896
    2      -17.732837
    3      -14.805243
    4       -9.936703
    5       -9.826486
    6       -6.961255
    7       -6.453047
    8       -5.449069
    9       -0.555720
   10        0.952720
   11        1.757421
   12        2.149128
 
  0.1666667E+00  0.1111111E+00  0.0000000E+00  0.4629630E-02
    1      -21.803836
    2      -18.095199
    3      -14.344410
    4       -9.853665
    5       -9.755424
    6       -7.192013
    7       -6.588558
    8       -5.762429
    9       -0.146774
   10        1.048045
   11        1.853847
   12        2.247116
 
  0.2083333E+00  0.1111111E+00  0.0000000E+00  0.4629630E-02
    1      -21.713847
    2      -18.452003
    3      -13.862434
    4       -9.747139
    5       -9.664408
    6       -7.462221
    7       -6.771489
    8       -6.101441
    9        0.313071
   10        1.170641
   11        1.977752
   12        2.372568
 
  0.2500000E+00  0.1111111E+00  0.0000000E+00  0.4629630E-02
    1      -21.603999
    2      -18.797565
    3      -13.366147
    4       -9.617317
    5       -9.553707
    6       -7.769139
    7       -6.992563
    8       -6.450365
    9        0.806530
   10        1.320510
   11        2.129106
   12        2.526253
 
  0.2916667E+00  0.1111111E+00  0.0000000E+00  0.4629630E-02
    1      -21.474375
    2      -19.129046
    3      -12.859863
    4       -9.464443
    5       -9.423658
    6       -8.112033
    7       -7.239537
    8       -6.799069
    9        1.321564
   10        1.497628
   11        2.307836
   12        2.708119
 
  0.3333333E+00  0.1111111E+00  0.0000000E+00  0.4629630E-02
    1      -21.325080
    2      -19.444819
    3      -12.347073
    4       -9.288827
    5       -9.274668
    6       -8.490518
    7       -7.499755
    8       -7.140925
    9        1.701954
   10        1.849325
   11        2.513840
   12        2.917705
 
  0.3750000E+00  0.1111111E+00  0.0000000E+00  0.4629630E-02
    1      -21.156241
    2      -19.743846
    3      -11.831137
    4       -9.107225
    5       -9.090854
    6       -8.902990
    7       -7.762426
    8       -7.471470
    9        1.933432
   10        2.382554
   11        2.746910
   12        3.246575
 
  0.4166667E+00  0.1111111E+00  0.0000000E+00  0.4629630E-02
    1      -20.968008
    2      -20.025407
    3      -11.315620
    4       -9.345929
    5       -8.921910
    6       -8.871008
    7       -8.019771
    8       -7.787598
    9        2.192035
   10        3.006510
   11        3.283846
   12        3.449913
 
  0.4583333E+00  0.1111111E+00  0.0000000E+00  0.4629630E-02
    1      -20.760565
    2      -20.288971
    3      -10.804511
    4       -9.814285
    5       -8.719429
    6       -8.629890
    7       -8.266843
    8       -8.087078
    9        2.477561
   10        3.129363
   11        3.292377
   12        3.703864
 
  0.5000000E+00  0.1111111E+00  0.0000000E+00  0.2314815E-02
    1      -20.534131
    2      -20.534131
    3      -10.302353
    4      -10.302353
    5       -8.500669
    6       -8.500669
    7       -8.368259
    8       -8.368259
    9        2.790023
   10        2.790093
   11        3.595583
   12        3.600807
 
  0.0000000E+00  0.1388889E+00  0.0000000E+00  0.2314815E-02
    1      -21.840792
    2      -16.824837
    3      -15.634945
    4      -10.359230
    5       -9.897471
    6       -7.013337
    7       -6.562081
    8       -4.788913
    9       -1.245730
   10        0.997871
   11        1.802777
   12        2.195117
 
  0.4166667E-01  0.1388889E+00  0.0000000E+00  0.4629630E-02
    1      -21.830783
    2      -16.964826
    3      -15.481237
    4      -10.348730
    5       -9.885612
    6       -7.060060
    7       -6.566070
    8       -4.856116
    9       -1.165694
   10        1.011513
   11        1.816555
   12        2.209038
 
  0.8333333E-01  0.1388889E+00  0.0000000E+00  0.4629630E-02
    1      -21.800763
    2      -17.269063
    3      -15.135981
    4      -10.317235
    5       -9.850053
    6       -7.186434
    7       -6.590877
    8       -5.041223
    9       -0.942260
   10        1.052277
   11        1.857847
   12        2.252095
 
  0.1250000E+00  0.1388889E+00  0.0000000E+00  0.4629630E-02
    1      -21.750754
    2      -17.621410
    3      -14.715743
    4      -10.264767
    5       -9.790853
    6       -7.369447
    7       -6.656534
    8       -5.308609
    9       -0.611568
   10        1.120300
   11        1.926692
   12        2.321011
 
  0.1666667E+00  0.1388889E+00  0.0000000E+00  0.4629630E-02
    1      -21.680796
    2      -17.982040
    3      -14.261089
    4      -10.191354
    5       -9.708109
    6       -7.593041
    7       -6.773817
    8       -5.624536
    9       -0.208216
   10        1.215582
   11        2.023054
   12        2.418863
 
  0.2083333E+00  0.1388889E+00  0.0000000E+00  0.4629630E-02
    1      -21.590941
    2      -18.337335
    3      -13.786715
    4      -10.097023
    5       -9.601964
    6       -7.847787
    7       -6.944471
    8       -5.964965
    9        0.242578
   10        1.338139
   11        2.146856
   12        2.544375
 
  0.2500000E+00  0.1388889E+00  0.0000000E+00  0.4629630E-02
    1      -21.481258
    2      -18.681592
    3      -13.299797
    4       -9.981788
    5       -9.472608
    6       -8.128590
    7       -7.163741
    8       -6.314392
    9        0.723821
   10        1.487974
   11        2.298048
   12        2.698022
 
  0.2916667E+00  0.1388889E+00  0.0000000E+00  0.4629630E-02
    1      -21.351837
    2      -19.011945
    3      -12.805122
    4       -9.845625
    5       -9.320285
    6       -8.433606
    7       -7.422089
    8       -6.662965
    9        1.223904
   10        1.665064
   11        2.476649
   12        2.887429
 
  0.3333333E+00  0.1388889E+00  0.0000000E+00  0.4629630E-02
    1      -21.202786
    2      -19.326746
    3      -12.306817
    4       -9.688450
    5       -9.145303
    6       -8.763599
    7       -7.706667
    8       -7.004284
    9        1.734324
   10        1.869369
   11        2.682508
   12        3.089165
 
  0.3750000E+00  0.1388889E+00  0.0000000E+00  0.4629630E-02
    1      -21.034234
    2      -19.624933
    3      -11.809068
    4       -9.510090
    5       -9.120938
    6       -8.948049
    7       -8.003126
    8       -7.334052
    9        2.100832
   10        2.248682
   11        2.915560
   12        3.347388
 
  0.4166667E+00  0.1388889E+00  0.0000000E+00  0.4629630E-02
    1      -20.846342
    2      -19.905769
    3      -11.316497
    4       -9.507871
    5       -9.310275
    6       -8.728997
    7       -8.297953
    8       -7.649276
    9        2.359365
   10        2.771832
   11        3.175445
   12        3.648092
 
  0.4583333E+00  0.1388889E+00  0.0000000E+00  0.4629630E-02
    1      -20.639298
    2      -20.168709
    3      -10.834345
    4       -9.924599
    5       -9.088700
    6       -8.580756
    7       -8.488742
    8       -7.947801
    9        2.644980
   10        3.295700
   11        3.461488
   12        3.874420
 
  0.5000000E+00  0.1388889E+00  0.0000000E+00  0.2314815E-02
    1      -20.413330
    2      -20.413330
    3      -10.368413
    4      -10.368413
    5       -8.845272
    6       -8.845272
    7       -8.228029
    8       -8.228029
    9        2.957259
   10        2.957366
   11        3.753859
   12        3.771983
 
  0.0000000E+00  0.1666667E+00  0.0000000E+00  0.2314815E-02
    1      -21.690364
    2      -16.694797
    3      -15.517242
    4      -10.845749
    5       -9.719420
    6       -7.470577
    7       -6.844712
    8       -4.606847
    9       -1.326405
   10        1.202763
   11        2.009684
   12        2.404025
 
  0.4166667E-01  0.1666667E+00  0.0000000E+00  0.4629630E-02
    1      -21.680372
    2      -16.833690
    3      -15.365479
    4      -10.834749
    5       -9.707616
    6       -7.518226
    7       -6.842626
    8       -4.676375
    9       -1.245548
   10        1.216350
   11        2.023369
   12        2.418882
 
  0.8333333E-01  0.1666667E+00  0.0000000E+00  0.4629630E-02
    1      -21.650404
    2      -17.135695
    3      -15.025052
    4      -10.801710
    5       -9.672223
    6       -7.647050
    7       -6.850091
    8       -4.866598
    9       -1.021504
   10        1.257115
   11        2.064622
   12        2.460775
 
  0.1250000E+00  0.1666667E+00  0.0000000E+00  0.4629630E-02
    1      -21.600483
    2      -17.485708
    3      -14.611656
    4      -10.746521
    5       -9.613299
    6       -7.832071
    7       -6.890657
    8       -5.138928
    9       -0.693363
   10        1.325088
   11        2.133362
   12        2.530759
 
  0.1666667E+00  0.1666667E+00  0.0000000E+00  0.4629630E-02
    1      -21.530648
    2      -17.844204
    3      -14.165840
    4      -10.668967
    5       -9.530943
    6       -8.054662
    7       -6.979959
    8       -5.458245
    9       -0.297068
   10        1.420292
   11        2.229634
   12        2.630159
 
  0.2083333E+00  0.1666667E+00  0.0000000E+00  0.4629630E-02
    1      -21.440955
    2      -18.197619
    3      -13.702690
    4      -10.568697
    5       -9.425299
    6       -8.303239
    7       -7.124500
    8       -5.800448
    9        0.142166
   10        1.542761
   11        2.353181
   12        2.754106
 
  0.2500000E+00  0.1666667E+00  0.0000000E+00  0.4629630E-02
    1      -21.331476
    2      -18.540243
    3      -13.230040
    4      -10.445164
    5       -9.296557
    6       -8.570737
    7       -7.323963
    8       -6.150413
    9        0.607842
   10        1.692517
   11        2.504185
   12        2.908266
 
  0.2916667E+00  0.1666667E+00  0.0000000E+00  0.4629630E-02
    1      -21.202305
    2      -18.869186
    3      -12.753626
    4      -10.297541
    5       -9.144962
    6       -8.853191
    7       -7.572902
    8       -6.498689
    9        1.088930
   10        1.869526
   11        2.682492
   12        3.090032
 
  0.3333333E+00  0.1666667E+00  0.0000000E+00  0.4629630E-02
    1      -21.053554
    2      -19.182770
    3      -12.278860
    4      -10.124640
    5       -9.149219
    6       -8.970824
    7       -7.861930
    8       -6.839194
    9        1.577556
   10        2.073770
   11        2.888048
   12        3.299290
 
  0.3750000E+00  0.1666667E+00  0.0000000E+00  0.4629630E-02
    1      -20.885361
    2      -19.479908
    3      -11.811562
    4       -9.924870
    5       -9.459887
    6       -8.774522
    7       -8.178678
    8       -7.167849
    9        2.070248
   10        2.305164
   11        3.120994
   12        3.591880
 
  0.4166667E+00  0.1666667E+00  0.0000000E+00  0.4629630E-02
    1      -20.697892
    2      -19.759840
    3      -11.358164
    4       -9.788531
    5       -9.696414
    6       -8.556531
    7       -8.508737
    8       -7.481813
    9        2.563631
   10        3.353843
   11        3.673188
   12        3.817398
 
  0.4583333E+00  0.1666667E+00  0.0000000E+00  0.4629630E-02
    1      -20.491343
    2      -20.022000
    3      -10.925271
    4      -10.139922
    5       -9.437905
    6       -8.837010
    7       -8.317434
    8       -7.779028
    9        2.849055
   10        3.054008
   11        3.500499
   12        3.666841
 
  0.5000000E+00  0.1666667E+00  0.0000000E+00  0.2314815E-02
    1      -20.265951
    2      -20.265951
    3      -10.518356
    4      -10.518356
    5       -9.149925
    6       -9.149925
    7       -8.057960
    8       -8.057960
    9        3.161301
   10        3.161705
   11        3.505129
   12        3.970735
 