gr                                      
           1
     4.316633    0.000000    0.000000
     0.000000    2.462785    0.000000
     0.000000    0.000000   19.832485
   C 
   4
Direct configuration=     1
   0.99975281  0.00000000  0.00000000
   0.16691386  0.50000000  0.00000000
   0.49975281  0.50000000  0.00000000
   0.66691386  0.00000000  0.00000000
