    4    4  400    1
  0.5270948E+02  0.4400824E-09  0.2455501E-09  0.1951078E-08  0.5000000E-15
  1.000000000000000E-004
  CAR 
 gr                                      
     16    247     12
 
  0.0000000E+00  0.0000000E+00  0.0000000E+00  0.1157407E-02
    1      -22.047003
    2      -17.300322
    3      -15.802416
    4      -10.199423
    5       -8.739987
    6       -6.044889
    7       -5.718191
    8       -5.377468
    9       -1.204316
   10        0.549004
   11        1.346500
   12        1.742234
 
  0.4166667E-01  0.0000000E+00  0.0000000E+00  0.2314815E-02
    1      -22.037338
    2      -17.411622
    3      -15.676191
    4      -10.187970
    5       -8.730683
    6       -6.089470
    7       -5.737790
    8       -5.434743
    9       -1.131393
   10        0.562068
   11        1.359761
   12        1.755663
 
  0.8333333E-01  0.0000000E+00  0.0000000E+00  0.2314815E-02
    1      -22.008347
    2      -17.673902
    3      -15.369212
    4      -10.153631
    5       -8.702821
    6       -6.221030
    7       -5.795582
    8       -5.595263
    9       -0.924083
   10        0.601272
   11        1.399539
   12        1.795953
 
  0.1250000E+00  0.0000000E+00  0.0000000E+00  0.2314815E-02
    1      -21.960051
    2      -17.995292
    3      -14.973569
    4      -10.096463
    5       -8.656552
    6       -6.433453
    7       -5.888702
    8       -5.832878
    9       -0.609002
   10        0.666640
   11        1.465817
   12        1.863107
 
  0.1666667E+00  0.0000000E+00  0.0000000E+00  0.2314815E-02
    1      -21.892486
    2      -18.333256
    3      -14.532182
    4      -10.016565
    5       -8.592138
    6       -6.717828
    7       -6.120042
    8       -6.012840
    9       -0.214486
   10        0.758200
   11        1.558569
   12        1.957132
 
  0.2083333E+00  0.0000000E+00  0.0000000E+00  0.2314815E-02
    1      -21.805703
    2      -18.670672
    3      -14.062717
    4       -9.914080
    5       -8.509950
    6       -7.063814
    7       -6.434935
    8       -6.162783
    9        0.236498
   10        0.875974
   11        1.677748
   12        2.078032
 
  0.2500000E+00  0.0000000E+00  0.0000000E+00  0.2314815E-02
    1      -21.699768
    2      -18.999911
    3      -13.573533
    4       -9.789200
    5       -8.410488
    6       -7.460831
    7       -6.762249
    8       -6.332941
    9        0.727097
   10        1.019966
   11        1.823284
   12        2.225808
 
  0.2916667E+00  0.0000000E+00  0.0000000E+00  0.2314815E-02
    1      -21.574767
    2      -19.317110
    3      -13.069425
    4       -9.642174
    5       -8.294393
    6       -7.898884
    7       -7.091663
    8       -6.517782
    9        1.190162
   10        1.244948
   11        1.995062
   12        2.400459
 
  0.3333333E+00  0.0000000E+00  0.0000000E+00  0.2314815E-02
    1      -21.430806
    2      -19.620085
    3      -12.553742
    4       -9.473319
    5       -8.368999
    6       -8.162466
    7       -7.416226
    8       -6.712125
    9        1.386533
   10        1.780313
   11        2.192886
   12        2.601981
 
  0.3750000E+00  0.0000000E+00  0.0000000E+00  0.2314815E-02
    1      -21.268011
    2      -19.907481
    3      -12.029273
    4       -9.283034
    5       -8.863376
    6       -8.015692
    7       -7.731176
    8       -6.911299
    9        1.609032
   10        2.324069
   11        2.416379
   12        2.830367
 
  0.4166667E+00  0.0000000E+00  0.0000000E+00  0.2314815E-02
    1      -21.086538
    2      -20.178390
    3      -11.498673
    4       -9.375351
    5       -9.071819
    6       -8.033169
    7       -7.855277
    8       -7.111210
    9        1.857594
   10        2.664686
   11        2.862494
   12        3.085631
 
  0.4583333E+00  0.0000000E+00  0.0000000E+00  0.2314815E-02
    1      -20.886575
    2      -20.432172
    3      -10.964706
    4       -9.899286
    5       -8.840304
    6       -8.319798
    7       -7.682679
    8       -7.308328
    9        2.132135
   10        2.758660
   11        2.935245
   12        3.313947
 
  0.5000000E+00  0.0000000E+00  0.0000000E+00  0.1157407E-02
    1      -20.668356
    2      -20.668356
    3      -10.430419
    4      -10.430419
    5       -8.589289
    6       -8.589289
    7       -7.499659
    8       -7.499659
    9        2.432543
   10        2.432543
   11        3.215040
   12        3.215040
 
  0.0000000E+00  0.2777778E-01  0.0000000E+00  0.2314815E-02
    1      -22.033146
    2      -17.288268
    3      -15.790587
    4      -10.182996
    5       -8.803618
    6       -6.070236
    7       -5.777643
    8       -5.360773
    9       -1.206493
   10        0.567772
   11        1.365449
   12        1.761423
 
  0.4166667E-01  0.2777778E-01  0.0000000E+00  0.4629630E-02
    1      -22.023481
    2      -17.399457
    3      -15.664516
    4      -10.171547
    5       -8.794304
    6       -6.115266
    7       -5.796201
    8       -5.418156
    9       -1.133560
   10        0.580836
   11        1.378709
   12        1.774853
 
  0.8333333E-01  0.2777778E-01  0.0000000E+00  0.4629630E-02
    1      -21.994495
    2      -17.661523
    3      -15.357881
    4      -10.137219
    5       -8.766409
    6       -6.247240
    7       -5.851907
    8       -5.578933
    9       -0.926291
   10        0.620040
   11        1.418485
   12        1.815142
 
  0.1250000E+00  0.2777778E-01  0.0000000E+00  0.4629630E-02
    1      -21.946207
    2      -17.982704
    3      -14.962670
    4      -10.080070
    5       -8.720083
    6       -6.458824
    7       -5.943396
    8       -5.816827
    9       -0.611427
   10        0.685408
   11        1.484760
   12        1.882297
 
  0.1666667E+00  0.2777778E-01  0.0000000E+00  0.4629630E-02
    1      -21.878653
    2      -18.320484
    3      -14.521786
    4      -10.000198
    5       -8.655583
    6       -6.740935
    7       -6.104212
    8       -6.066880
    9       -0.217389
   10        0.776970
   11        1.577508
   12        1.976323
 
  0.2083333E+00  0.2777778E-01  0.0000000E+00  0.4629630E-02
    1      -21.791885
    2      -18.657741
    3      -14.052908
    4       -9.897747
    5       -8.573277
    6       -7.083684
    7       -6.419245
    8       -6.217005
    9        0.232836
   10        0.894747
   11        1.696682
   12        2.097223
 
  0.2500000E+00  0.2777778E-01  0.0000000E+00  0.4629630E-02
    1      -21.685969
    2      -18.986842
    3      -13.564408
    4       -9.772908
    5       -8.473656
    6       -7.477021
    7       -6.746625
    8       -6.387886
    9        0.722409
   10        1.038742
   11        1.842214
   12        2.245001
 
  0.2916667E+00  0.2777778E-01  0.0000000E+00  0.4629630E-02
    1      -21.560992
    2      -19.303923
    3      -13.061100
    4       -9.625931
    5       -8.357352
    6       -7.911351
    7       -7.076050
    8       -6.573730
    9        1.208944
   10        1.239000
   11        2.013989
   12        2.419654
 
  0.3333333E+00  0.2777778E-01  0.0000000E+00  0.4629630E-02
    1      -21.417058
    2      -19.606795
    3      -12.546358
    4       -9.457132
    5       -8.377945
    6       -8.225155
    7       -7.400587
    8       -6.769172
    9        1.405321
   10        1.772936
   11        2.211813
   12        2.621180
 
  0.3750000E+00  0.2777778E-01  0.0000000E+00  0.4629630E-02
    1      -21.254295
    2      -19.894101
    3      -12.022997
    4       -9.266910
    5       -8.869126
    6       -8.078042
    7       -7.715485
    8       -6.969427
    9        1.627827
   10        2.315264
   11        2.435313
   12        2.849570
 
  0.4166667E+00  0.2777778E-01  0.0000000E+00  0.4629630E-02
    1      -21.072859
    2      -20.164932
    3      -11.493699
    4       -9.378277
    5       -9.055763
    6       -8.017412
    7       -7.917201
    8       -7.170333
    9        1.876399
   10        2.683636
   11        2.853006
   12        3.104907
 
  0.4583333E+00  0.2777778E-01  0.0000000E+00  0.4629630E-02
    1      -20.872940
    2      -20.418647
    3      -10.961266
    4       -9.899758
    5       -8.824321
    6       -8.303967
    7       -7.744079
    8       -7.368334
    9        2.150951
   10        2.777514
   11        2.954196
   12        3.314034
 
  0.5000000E+00  0.2777778E-01  0.0000000E+00  0.2314815E-02
    1      -20.654772
    2      -20.654772
    3      -10.428781
    4      -10.428781
    5       -8.573381
    6       -8.573381
    7       -7.560423
    8       -7.560423
    9        2.451373
   10        2.451373
   11        3.233424
   12        3.233424
 
  0.0000000E+00  0.5555556E-01  0.0000000E+00  0.2314815E-02
    1      -21.991582
    2      -17.252109
    3      -15.755237
    4      -10.133749
    5       -8.989341
    6       -6.145946
    7       -5.951078
    8       -5.310710
    9       -1.213824
   10        0.624074
   11        1.422287
   12        1.818991
 
  0.4166667E-01  0.5555556E-01  0.0000000E+00  0.4629630E-02
    1      -21.981922
    2      -17.362970
    3      -15.629627
    4      -10.122311
    5       -8.979990
    6       -6.194255
    7       -5.964609
    8       -5.368427
    9       -1.140859
   10        0.637138
   11        1.435546
   12        1.832420
 
  0.8333333E-01  0.5555556E-01  0.0000000E+00  0.4629630E-02
    1      -21.952950
    2      -17.624401
    3      -15.324028
    4      -10.088018
    5       -8.951984
    6       -6.329874
    7       -6.011735
    8       -5.529995
    9       -0.933708
   10        0.676340
   11        1.475315
   12        1.872710
 
  0.1250000E+00  0.5555556E-01  0.0000000E+00  0.4629630E-02
    1      -21.904686
    2      -17.944958
    3      -14.930123
    4      -10.030926
    5       -8.905466
    6       -6.539814
    7       -6.097544
    8       -5.768746
    9       -0.619506
   10        0.741708
   11        1.541581
   12        1.939865
 
  0.1666667E+00  0.5555556E-01  0.0000000E+00  0.4629630E-02
    1      -21.837166
    2      -18.282186
    3      -14.490773
    4       -9.951136
    5       -8.840680
    6       -6.815078
    7       -6.219175
    8       -6.056804
    9       -0.226926
   10        0.833271
   11        1.634315
   12        2.033892
 
  0.2083333E+00  0.5555556E-01  0.0000000E+00  0.4629630E-02
    1      -21.750443
    2      -18.618966
    3      -14.023686
    4       -9.848788
    5       -8.757976
    6       -7.147666
    7       -6.372259
    8       -6.370328
    9        0.220978
   10        0.951051
   11        1.753475
   12        2.154794
 
  0.2500000E+00  0.5555556E-01  0.0000000E+00  0.4629630E-02
    1      -21.644583
    2      -18.947654
    3      -13.537282
    4       -9.724076
    5       -8.657823
    6       -7.529364
    7       -6.699839
    8       -6.543982
    9        0.707408
   10        1.095054
   11        1.898992
   12        2.302576
 
  0.2916667E+00  0.5555556E-01  0.0000000E+00  0.4629630E-02
    1      -21.519675
    2      -19.264377
    3      -13.036436
    4       -9.577247
    5       -8.540824
    6       -7.951896
    7       -7.029297
    8       -6.733444
    9        1.220137
   10        1.265267
   11        2.070757
   12        2.477235
 
  0.3333333E+00  0.5555556E-01  0.0000000E+00  0.4629630E-02
    1      -21.375823
    2      -19.566939
    3      -12.524592
    4       -9.408618
    5       -8.407735
    6       -8.407339
    7       -7.353750
    8       -6.932741
    9        1.461658
   10        1.749675
   11        2.268581
   12        2.678768
 
  0.3750000E+00  0.5555556E-01  0.0000000E+00  0.4629630E-02
    1      -21.213157
    2      -19.853975
    3      -12.004649
    4       -9.218585
    5       -8.888420
    6       -8.259492
    7       -7.668489
    8       -7.136716
    9        1.684181
   10        2.287519
   11        2.492102
   12        2.907168
 
  0.4166667E+00  0.5555556E-01  0.0000000E+00  0.4629630E-02
    1      -21.031835
    2      -20.124573
    3      -11.479389
    4       -9.388671
    5       -9.007646
    6       -8.097241
    7       -7.970211
    8       -7.341011
    9        1.932771
   10        2.740476
   11        2.822577
   12        3.162448
 
  0.4583333E+00  0.5555556E-01  0.0000000E+00  0.4629630E-02
    1      -20.832047
    2      -20.378085
    3      -10.951724
    4       -9.902443
    5       -8.776426
    6       -8.256540
    7       -7.922378
    8       -7.541981
    9        2.207346
   10        2.833986
   11        3.011040
   12        3.305804
 
  0.5000000E+00  0.5555556E-01  0.0000000E+00  0.2314815E-02
    1      -20.614033
    2      -20.614033
    3      -10.424861
    4      -10.424861
    5       -8.525719
    6       -8.525719
    7       -7.736604
    8       -7.736604
    9        2.507798
   10        2.507798
   11        3.288204
   12        3.288204
 
  0.0000000E+00  0.8333333E-01  0.0000000E+00  0.2314815E-02
    1      -21.922348
    2      -17.191857
    3      -15.696806
    4      -10.051789
    5       -9.283107
    6       -6.271002
    7       -6.225292
    8       -5.227344
    9       -1.228712
   10        0.717907
   11        1.516993
   12        1.914938
 
  0.4166667E-01  0.8333333E-01  0.0000000E+00  0.4629630E-02
    1      -21.912695
    2      -17.302187
    3      -15.571958
    4      -10.040371
    5       -9.273682
    6       -6.342683
    7       -6.212633
    8       -5.285651
    9       -1.155680
   10        0.730969
   11        1.530247
   12        1.928367
 
  0.8333333E-01  0.8333333E-01  0.0000000E+00  0.4629630E-02
    1      -21.883746
    2      -17.562580
    3      -15.268097
    4      -10.006137
    5       -9.245450
    6       -6.490242
    7       -6.239836
    8       -5.448607
    9       -0.948708
   10        0.770166
   11        1.570005
   12        1.968656
 
  0.1250000E+00  0.8333333E-01  0.0000000E+00  0.4629630E-02
    1      -21.835523
    2      -17.882105
    3      -14.876416
    4       -9.949145
    5       -9.198540
    6       -6.696851
    7       -6.317060
    8       -5.688851
    9       -0.635633
   10        0.835527
   11        1.636253
   12        2.035810
 
  0.1666667E+00  0.8333333E-01  0.0000000E+00  0.4629630E-02
    1      -21.768061
    2      -18.218417
    3      -14.439704
    4       -9.869493
    5       -9.133172
    6       -6.958820
    7       -6.437723
    8       -5.978071
    9       -0.245569
   10        0.927082
   11        1.728963
   12        2.129837
 
  0.2083333E+00  0.8333333E-01  0.0000000E+00  0.4629630E-02
    1      -21.681412
    2      -18.554399
    3      -13.975719
    4       -9.767323
    5       -9.049663
    6       -7.272132
    7       -6.593058
    8       -6.294248
    9        0.198323
   10        1.044857
   11        1.848095
   12        2.250741
 
  0.2500000E+00  0.8333333E-01  0.0000000E+00  0.4629630E-02
    1      -21.575648
    2      -18.882396
    3      -13.492970
    4       -9.642827
    5       -8.948438
    6       -7.631825
    7       -6.773955
    8       -6.622163
    9        0.679317
   10        1.188859
   11        1.993584
   12        2.398525
 
  0.2916667E+00  0.8333333E-01  0.0000000E+00  0.4629630E-02
    1      -21.450854
    2      -19.198520
    3      -12.996442
    4       -9.496253
    5       -8.830041
    6       -8.032063
    7       -6.972023
    8       -6.951664
    9        1.185351
   10        1.359076
   11        2.165327
   12        2.573191
 
  0.3333333E+00  0.8333333E-01  0.0000000E+00  0.4629630E-02
    1      -21.307139
    2      -19.500562
    3      -12.489715
    4       -9.327916
    5       -8.695160
    6       -8.466477
    7       -7.275962
    8       -7.180089
    9        1.555475
   10        1.707207
   11        2.363149
   12        2.774733
 
  0.3750000E+00  0.8333333E-01  0.0000000E+00  0.4629630E-02
    1      -21.144635
    2      -19.787147
    3      -11.975847
    4       -9.138210
    5       -8.928607
    6       -8.544645
    7       -7.590418
    8       -7.392278
    9        1.778008
   10        2.236980
   11        2.586705
   12        3.003145
 
  0.4166667E+00  0.8333333E-01  0.0000000E+00  0.4629630E-02
    1      -20.963502
    2      -20.057353
    3      -11.457812
    4       -9.412269
    5       -8.927629
    6       -8.379543
    7       -7.891783
    8       -7.603878
    9        2.026608
   10        2.765801
   11        2.835176
   12        3.258430
 
  0.4583333E+00  0.8333333E-01  0.0000000E+00  0.4629630E-02
    1      -20.763935
    2      -20.310525
    3      -10.938744
    4       -9.911789
    5       -8.696794
    6       -8.201141
    7       -8.177716
    8       -7.811126
    9        2.301193
   10        2.927869
   11        3.105756
   12        3.267990
 
  0.5000000E+00  0.8333333E-01  0.0000000E+00  0.2314815E-02
    1      -20.546177
    2      -20.546177
    3      -10.422100
    4      -10.422100
    5       -8.446488
    6       -8.446488
    7       -8.011018
    8       -8.011018
    9        2.601658
   10        2.601658
   11        3.377472
   12        3.377473
 
  0.0000000E+00  0.1111111E+00  0.0000000E+00  0.2314815E-02
    1      -21.825501
    2      -17.107533
    3      -15.616117
    4       -9.937299
    5       -9.665470
    6       -6.582383
    7       -6.443647
    8       -5.110788
    9       -1.255169
   10        0.849265
   11        1.649526
   12        2.049265
 
  0.4166667E-01  0.1111111E+00  0.0000000E+00  0.4629630E-02
    1      -21.815860
    2      -17.217154
    3      -15.492326
    4       -9.925910
    5       -9.655912
    6       -6.638413
    7       -6.442903
    8       -5.169996
    9       -1.182003
   10        0.862322
   11        1.662773
   12        2.062693
 
  0.8333333E-01  0.1111111E+00  0.0000000E+00  0.4629630E-02
    1      -21.786945
    2      -17.476139
    3      -15.190933
    4       -9.891763
    5       -9.627272
    6       -6.774887
    7       -6.470544
    8       -5.335057
    9       -0.975230
   10        0.901506
   11        1.702513
   12        2.102980
 
  0.1250000E+00  0.1111111E+00  0.0000000E+00  0.4629630E-02
    1      -21.738778
    2      -17.794238
    3      -14.802482
    4       -9.834915
    5       -9.579656
    6       -6.966965
    7       -6.546255
    8       -5.577535
    9       -0.663766
   10        0.966846
   11        1.768730
   12        2.170130
 
  0.1666667E+00  0.1111111E+00  0.0000000E+00  0.4629630E-02
    1      -21.671396
    2      -18.129269
    3      -14.369663
    4       -9.755465
    5       -9.513241
    6       -7.206559
    7       -6.669863
    8       -5.868469
    9       -0.277383
   10        1.058376
   11        1.861400
   12        2.264153
 
  0.2083333E+00  0.1111111E+00  0.0000000E+00  0.4629630E-02
    1      -21.584853
    2      -18.464131
    3      -13.910316
    4       -9.653556
    5       -9.428284
    6       -7.489890
    7       -6.834368
    8       -6.185692
    9        0.160612
   10        1.176125
   11        1.980484
   12        2.385055
 
  0.2500000E+00  0.1111111E+00  0.0000000E+00  0.4629630E-02
    1      -21.479222
    2      -18.791155
    3      -13.433091
    4       -9.529377
    5       -9.325125
    6       -7.814521
    7       -7.029759
    8       -6.514073
    9        0.633613
   10        1.320104
   11        2.125922
   12        2.532839
 
  0.2916667E+00  0.1111111E+00  0.0000000E+00  0.4629630E-02
    1      -21.354589
    2      -19.106435
    3      -12.943160
    4       -9.383178
    5       -9.204201
    6       -8.177985
    7       -7.245361
    8       -6.843613
    9        1.129787
   10        1.490303
   11        2.297623
   12        2.707508
 
  0.3333333E+00  0.1111111E+00  0.0000000E+00  0.4629630E-02
    1      -21.211067
    2      -19.407743
    3      -12.444336
    4       -9.215270
    5       -9.066058
    6       -8.576910
    7       -7.471577
    8       -7.167660
    9        1.640248
   10        1.686688
   11        2.495430
   12        2.909056
 
  0.3750000E+00  0.1111111E+00  0.0000000E+00  0.4629630E-02
    1      -21.048790
    2      -19.693691
    3      -11.939968
    4       -9.026044
    5       -9.006790
    6       -8.911370
    7       -7.700773
    8       -7.481682
    9        1.909207
   10        2.157705
   11        2.719036
   12        3.137479
 
  0.4166667E+00  0.1111111E+00  0.0000000E+00  0.4629630E-02
    1      -20.867923
    2      -19.963345
    3      -11.433381
    4       -9.462312
    5       -8.815991
    6       -8.740969
    7       -7.927314
    8       -7.782506
    9        2.157789
   10        2.675123
   11        2.967672
   12        3.392863
 
  0.4583333E+00  0.1111111E+00  0.0000000E+00  0.4629630E-02
    1      -20.668669
    2      -20.216036
    3      -10.928128
    4       -9.937898
    5       -8.585723
    6       -8.555883
    7       -8.147159
    8       -8.067847
    9        2.432348
   10        3.058948
   11        3.180805
   12        3.238292
 
  0.5000000E+00  0.1111111E+00  0.0000000E+00  0.2314815E-02
    1      -20.451271
    2      -20.451271
    3      -10.428156
    4      -10.428156
    5       -8.357400
    6       -8.357400
    7       -8.336012
    8       -8.336012
    9        2.732779
   10        2.732779
   11        3.489754
   12        3.489755
 
  0.0000000E+00  0.1388889E+00  0.0000000E+00  0.2314815E-02
    1      -21.701129
    2      -16.999168
    3      -15.514554
    4      -10.115151
    5       -9.790540
    6       -7.003476
    7       -6.661346
    8       -4.961201
    9       -1.298764
   10        1.018133
   11        1.819825
   12        2.221972
 
  0.4166667E-01  0.1388889E+00  0.0000000E+00  0.4629630E-02
    1      -21.691503
    2      -17.107943
    3      -15.392112
    4      -10.105364
    5       -9.779190
    6       -7.049170
    7       -6.666474
    8       -5.021715
    9       -1.225335
   10        1.031182
   11        1.833063
   12        2.235399
 
  0.8333333E-01  0.1388889E+00  0.0000000E+00  0.4629630E-02
    1      -21.662631
    2      -17.365196
    3      -15.093975
    4      -10.076023
    5       -9.745162
    6       -7.172029
    7       -6.694927
    8       -5.189796
    9       -1.018674
   10        1.070343
   11        1.872772
   12        2.275680
 
  0.1250000E+00  0.1388889E+00  0.0000000E+00  0.4629630E-02
    1      -21.614536
    2      -17.681496
    3      -14.709936
    4      -10.027188
    5       -9.688511
    6       -7.350346
    7       -6.764884
    8       -5.435423
    9       -0.709288
   10        1.135643
   11        1.938939
   12        2.342823
 
  0.1666667E+00  0.1388889E+00  0.0000000E+00  0.4629630E-02
    1      -21.547259
    2      -18.014887
    3      -14.282567
    4       -9.958960
    5       -9.609338
    6       -7.570593
    7       -6.883863
    8       -5.728720
    9       -0.327859
   10        1.227121
   11        2.031542
   12        2.436836
 
  0.2083333E+00  0.1388889E+00  0.0000000E+00  0.4629630E-02
    1      -21.460853
    2      -18.348301
    3      -13.829834
    4       -9.871476
    5       -9.507783
    6       -7.825611
    7       -7.050601
    8       -6.047342
    9        0.102139
   10        1.344812
   11        2.150543
   12        2.557728
 
  0.2500000E+00  0.1388889E+00  0.0000000E+00  0.4629630E-02
    1      -21.355391
    2      -18.674063
    3      -13.360625
    4       -9.764916
    5       -9.384040
    6       -8.112115
    7       -7.257966
    8       -6.376312
    9        0.564297
   10        1.488732
   11        2.295891
   12        2.705506
 
  0.2916667E+00  0.1388889E+00  0.0000000E+00  0.4629630E-02
    1      -21.230967
    2      -18.988243
    3      -12.880438
    4       -9.639491
    5       -9.238352
    6       -8.429344
    7       -7.495037
    8       -6.705853
    9        1.047102
   10        1.658877
   11        2.467507
   12        2.880171
 
  0.3333333E+00  0.1388889E+00  0.0000000E+00  0.4629630E-02
    1      -21.087695
    2      -19.288597
    3      -12.393510
    4       -9.495448
    5       -9.071032
    6       -8.777753
    7       -7.749247
    8       -7.029509
    9        1.542063
   10        1.855210
   11        2.665263
   12        3.081720
 
  0.3750000E+00  0.1388889E+00  0.0000000E+00  0.4629630E-02
    1      -20.925713
    2      -19.573716
    3      -11.903736
    4       -9.333073
    5       -9.157452
    6       -8.882467
    7       -8.008701
    8       -7.342897
    9        2.042454
   10        2.077677
   11        2.888917
   12        3.310148
 
  0.4166667E+00  0.1388889E+00  0.0000000E+00  0.4629630E-02
    1      -20.745192
    2      -19.842650
    3      -11.415123
    4       -9.566897
    5       -9.152697
    6       -8.673141
    7       -8.264008
    8       -7.642950
    9        2.326199
   10        2.542443
   11        3.137826
   12        3.565443
 
  0.4583333E+00  0.1388889E+00  0.0000000E+00  0.4629630E-02
    1      -20.546341
    2      -20.094718
    3      -10.932057
    4      -10.002538
    5       -8.954739
    6       -8.508916
    7       -8.443657
    8       -7.927456
    9        2.600684
   10        3.035897
   11        3.227057
   12        3.408524
 
  0.5000000E+00  0.1388889E+00  0.0000000E+00  0.2314815E-02
    1      -20.329412
    2      -20.329412
    3      -10.459417
    4      -10.459417
    5       -8.739802
    6       -8.739802
    7       -8.194774
    8       -8.194774
    9        2.901017
   10        2.901017
   11        3.500504
   12        3.500504
 
  0.0000000E+00  0.1666667E+00  0.0000000E+00  0.2314815E-02
    1      -21.549346
    2      -16.866803
    3      -15.394420
    4      -10.611336
    5       -9.611864
    6       -7.471201
    7       -6.920775
    8       -4.778791
    9       -1.366429
   10        1.224486
   11        2.027805
   12        2.433060
 
  0.4166667E-01  0.1666667E+00  0.0000000E+00  0.4629630E-02
    1      -21.539738
    2      -16.974654
    3      -15.273628
    4      -10.601157
    5       -9.600567
    6       -7.514838
    7       -6.922987
    8       -4.841181
    9       -1.292478
   10        1.237524
   11        2.041027
   12        2.446484
 
  0.8333333E-01  0.1666667E+00  0.0000000E+00  0.4629630E-02
    1      -21.510919
    2      -17.229929
    3      -14.979680
    4      -10.570610
    5       -9.566694
    6       -7.633976
    7       -6.940804
    8       -5.013521
    9       -1.085612
   10        1.276649
   11        2.080686
   12        2.486758
 
  0.1250000E+00  0.1666667E+00  0.0000000E+00  0.4629630E-02
    1      -21.462915
    2      -17.544087
    3      -14.601593
    4      -10.519667
    5       -9.510303
    6       -7.807402
    7       -6.993487
    8       -5.263472
    9       -0.778651
   10        1.341888
   11        2.146771
   12        2.553887
 
  0.1666667E+00  0.1666667E+00  0.0000000E+00  0.4629630E-02
    1      -21.395764
    2      -17.875479
    3      -14.181831
    4      -10.448269
    5       -9.431493
    6       -8.018950
    7       -7.093471
    8       -5.559914
    9       -0.403502
   10        1.433282
   11        2.239257
   12        2.647881
 
  0.2083333E+00  0.1666667E+00  0.0000000E+00  0.4629630E-02
    1      -21.309525
    2      -18.207109
    3      -13.738595
    4      -10.356312
    5       -9.330408
    6       -8.258573
    7       -7.244922
    8       -5.880321
    9        0.016229
   10        1.550872
   11        2.358111
   12        2.768751
 
  0.2500000E+00  0.1666667E+00  0.0000000E+00  0.4629630E-02
    1      -21.204274
    2      -18.531304
    3      -13.281207
    4      -10.243618
    5       -9.207237
    6       -8.520471
    7       -7.445577
    8       -6.209973
    9        0.464474
   10        1.694684
   11        2.503284
   12        2.916508
 
  0.2916667E+00  0.1666667E+00  0.0000000E+00  0.4629630E-02
    1      -21.080106
    2      -18.844120
    3      -12.815791
    4      -10.109902
    5       -9.062227
    6       -8.801970
    7       -7.688256
    8       -6.539418
    9        0.930189
   10        1.864721
   11        2.674712
   12        3.091158
 
  0.3333333E+00  0.1666667E+00  0.0000000E+00  0.4629630E-02
    1      -20.937141
    2      -19.143287
    3      -12.347431
    4       -9.954726
    5       -9.103024
    6       -8.895687
    7       -7.962086
    8       -6.862469
    9        1.405385
   10        2.060951
   11        2.872302
   12        3.292699
 
  0.3750000E+00  0.1666667E+00  0.0000000E+00  0.4629630E-02
    1      -20.775522
    2      -19.427375
    3      -11.881125
    4       -9.777474
    5       -9.425712
    6       -8.708001
    7       -8.253791
    8       -7.174947
    9        1.883907
   10        2.283315
   11        3.095909
   12        3.521124
 
  0.4166667E+00  0.1666667E+00  0.0000000E+00  0.4629630E-02
    1      -20.595431
    2      -19.695414
    3      -11.422228
    4       -9.773203
    5       -9.577363
    6       -8.549411
    7       -8.499646
    8       -7.473924
    9        2.360695
   10        2.531727
   11        3.345198
   12        3.776431
 
  0.4583333E+00  0.1666667E+00  0.0000000E+00  0.4629630E-02
    1      -20.397080
    2      -19.946708
    3      -10.976570
    4      -10.147989
    5       -9.353649
    6       -8.836511
    7       -8.271215
    8       -7.757283
    9        2.806079
   10        2.831336
   11        3.432061
   12        3.614993
 
  0.5000000E+00  0.1666667E+00  0.0000000E+00  0.2314815E-02
    1      -20.180732
    2      -20.180732
    3      -10.550108
    4      -10.550108
    5       -9.106178
    6       -9.106178
    7       -8.023448
    8       -8.023448
    9        3.106242
   10        3.106242
   11        3.291505
   12        3.291506
 