gr                                      
           1
     4.400824    0.000000    0.000000
     0.000000    2.455501    0.000000
     0.000000    0.000000   19.510778
   C 
   4
Direct configuration=     1
   0.99938979  0.00000000  0.00000000
   0.16727688  0.50000000  0.00000000
   0.49938979  0.50000000  0.00000000
   0.66727688  0.00000000  0.00000000
Direct configuration=     2
   0.99940458  0.00000000  0.00000000
   0.16726209  0.50000000 -0.00000000
   0.49940458  0.50000000  0.00000000
   0.66726209  0.00000000 -0.00000000
Direct configuration=     3
   0.99939301  0.00000000  0.00000000
   0.16727366  0.50000000 -0.00000000
   0.49939301  0.50000000  0.00000000
   0.66727366  0.00000000 -0.00000000
Direct configuration=     4
   0.99939299  0.00000000  0.00000000
   0.16727368  0.50000000 -0.00000000
   0.49939299  0.50000000  0.00000000
   0.66727368  0.00000000 -0.00000000
Direct configuration=     5
   0.99939300  0.00000000  0.00000000
   0.16727367  0.50000000 -0.00000000
   0.49939300  0.50000000  0.00000000
   0.66727367  0.00000000 -0.00000000
