    4    4  400    1
  0.5270948E+02  0.4262211E-09  0.2503817E-09  0.1975655E-08  0.5000000E-15
  1.000000000000000E-004
  CAR 
 gr                                      
     16    247     12
 
  0.0000000E+00  0.0000000E+00  0.0000000E+00  0.1157407E-02
    1      -22.151416
    2      -16.832165
    3      -15.907294
    4      -10.279989
    5       -9.352908
    6       -5.914853
    7       -5.754878
    8       -4.987842
    9       -1.111920
   10        0.536109
   11        1.335480
   12        1.724513
 
  0.4166667E-01  0.0000000E+00  0.0000000E+00  0.2314815E-02
    1      -22.141091
    2      -17.014727
    3      -15.709611
    4      -10.267704
    5       -9.342586
    6       -5.938111
    7       -5.796116
    8       -5.056457
    9       -1.028005
   10        0.550106
   11        1.349634
   12        1.738843
 
  0.8333333E-01  0.0000000E+00  0.0000000E+00  0.2314815E-02
    1      -22.110121
    2      -17.369313
    3      -15.309750
    4      -10.230865
    5       -9.311669
    6       -6.006566
    7       -5.918253
    8       -5.246086
    9       -0.792652
   10        0.592095
   11        1.392092
   12        1.781833
 
  0.1250000E+00  0.0000000E+00  0.0000000E+00  0.2314815E-02
    1      -22.058526
    2      -17.755799
    3      -14.848108
    4      -10.169532
    5       -9.260310
    6       -6.116808
    7       -6.116487
    8       -5.521219
    9       -0.441897
   10        0.662075
   11        1.462843
   12        1.853482
 
  0.1666667E+00  0.0000000E+00  0.0000000E+00  0.2314815E-02
    1      -21.986340
    2      -18.141399
    3      -14.357935
    4      -10.083800
    5       -9.188766
    6       -6.385039
    7       -6.262345
    8       -5.847509
    9       -0.010974
   10        0.760041
   11        1.561867
   12        1.953792
 
  0.2083333E+00  0.0000000E+00  0.0000000E+00  0.2314815E-02
    1      -21.893612
    2      -18.516591
    3      -13.849423
    4       -9.973810
    5       -9.097413
    6       -6.714796
    7       -6.437572
    8       -6.199995
    9        0.473899
   10        0.885983
   11        1.689131
   12        2.082761
 
  0.2500000E+00  0.0000000E+00  0.0000000E+00  0.2314815E-02
    1      -21.780407
    2      -18.877588
    3      -13.327242
    4       -9.839751
    5       -8.986751
    6       -7.097339
    7       -6.635289
    8       -6.562352
    9        0.994743
   10        1.039880
   11        1.844590
   12        2.240387
 
  0.2916667E+00  0.0000000E+00  0.0000000E+00  0.2314815E-02
    1      -21.646803
    2      -19.222497
    3      -12.794409
    4       -9.681865
    5       -8.857426
    6       -7.523991
    7       -6.924123
    8       -6.848843
    9        1.221703
   10        1.539006
   11        2.028175
   12        2.426666
 
  0.3333333E+00  0.0000000E+00  0.0000000E+00  0.2314815E-02
    1      -21.492898
    2      -19.550205
    3      -12.253435
    4       -9.500460
    5       -8.710249
    6       -7.986578
    7       -7.278501
    8       -7.072153
    9        1.431408
   10        2.097199
   11        2.239780
   12        2.641590
 
  0.3750000E+00  0.0000000E+00  0.0000000E+00  0.2314815E-02
    1      -21.318807
    2      -19.859975
    3      -11.706762
    4       -9.295923
    5       -8.546223
    6       -8.477665
    7       -7.620921
    8       -7.299861
    9        1.668939
   10        2.479222
   11        2.660932
   12        2.885146
 
  0.4166667E+00  0.0000000E+00  0.0000000E+00  0.2314815E-02
    1      -21.124663
    2      -20.151271
    3      -11.156980
    4       -9.068734
    5       -8.990650
    6       -8.366583
    7       -7.948217
    8       -7.527361
    9        1.934213
   10        2.746136
   11        3.157310
   12        3.218454
 
  0.4583333E+00  0.0000000E+00  0.0000000E+00  0.2314815E-02
    1      -20.910629
    2      -20.423686
    3      -10.606963
    4       -9.519756
    5       -8.819496
    6       -8.258123
    7       -8.172838
    8       -7.750764
    9        2.227114
   10        2.894937
   11        3.039564
   12        3.458041
 
  0.5000000E+00  0.0000000E+00  0.0000000E+00  0.1157407E-02
    1      -20.676895
    2      -20.676895
    3      -10.059972
    4      -10.059972
    5       -8.548969
    6       -8.548969
    7       -7.966822
    8       -7.966822
    9        2.547462
   10        2.547462
   11        3.355412
   12        3.355412
 
  0.0000000E+00  0.2777778E-01  0.0000000E+00  0.2314815E-02
    1      -22.138143
    2      -16.820738
    3      -15.896413
    4      -10.264195
    5       -9.412452
    6       -5.969665
    7       -5.786316
    8       -4.971740
    9       -1.117203
   10        0.554082
   11        1.353703
   12        1.742961
 
  0.4166667E-01  0.2777778E-01  0.0000000E+00  0.4629630E-02
    1      -22.127819
    2      -17.003163
    3      -15.698923
    4      -10.251914
    5       -9.402105
    6       -5.996868
    7       -5.822899
    8       -5.040519
    9       -1.033250
   10        0.568080
   11        1.367856
   12        1.757291
 
  0.8333333E-01  0.2777778E-01  0.0000000E+00  0.4629630E-02
    1      -22.096853
    2      -17.357523
    3      -15.299462
    4      -10.215088
    5       -9.371113
    6       -6.080239
    7       -5.928120
    8       -5.230517
    9       -0.797907
   10        0.610072
   11        1.410312
   12        1.800281
 
  0.1250000E+00  0.2777778E-01  0.0000000E+00  0.4629630E-02
    1      -22.045265
    2      -17.743796
    3      -14.838329
    4      -10.153777
    5       -9.319622
    6       -6.229677
    7       -6.084206
    8       -5.506022
    9       -0.447416
   10        0.680058
   11        1.481057
   12        1.871932
 
  0.1666667E+00  0.2777778E-01  0.0000000E+00  0.4629630E-02
    1      -21.973090
    2      -18.129208
    3      -14.348775
    4      -10.068076
    5       -9.247884
    6       -6.461506
    7       -6.262977
    8       -5.832577
    9       -0.017119
   10        0.778032
   11        1.580074
   12        1.972244
 
  0.2083333E+00  0.2777778E-01  0.0000000E+00  0.4629630E-02
    1      -21.880376
    2      -18.504237
    3      -13.841006
    4       -9.958125
    5       -9.156260
    6       -6.770184
    7       -6.455644
    8       -6.185211
    9        0.466753
   10        0.903983
   11        1.707329
   12        2.101215
 
  0.2500000E+00  0.2777778E-01  0.0000000E+00  0.4629630E-02
    1      -21.767188
    2      -18.865094
    3      -13.319719
    4       -9.824114
    5       -9.045235
    6       -7.138937
    7       -6.663647
    8       -6.547621
    9        0.986253
   10        1.057892
   11        1.862779
   12        2.258844
 
  0.2916667E+00  0.2777778E-01  0.0000000E+00  0.4629630E-02
    1      -21.633606
    2      -19.209882
    3      -12.787965
    4       -9.666286
    5       -8.915434
    6       -7.555327
    7       -6.909379
    8       -6.884274
    9        1.239728
   10        1.528871
   11        2.046353
   12        2.445126
 
  0.3333333E+00  0.2777778E-01  0.0000000E+00  0.4629630E-02
    1      -21.479727
    2      -19.537485
    3      -12.248295
    4       -9.484948
    5       -8.767639
    6       -8.009817
    7       -7.263702
    8       -7.112873
    9        1.449448
   10        2.085190
   11        2.257949
   12        2.660055
 
  0.3750000E+00  0.2777778E-01  0.0000000E+00  0.4629630E-02
    1      -21.305666
    2      -19.847165
    3      -11.703203
    4       -9.280485
    5       -8.602822
    6       -8.494376
    7       -7.606042
    8       -7.344690
    9        1.686996
   10        2.497387
   11        2.646985
   12        2.903617
 
  0.4166667E+00  0.2777778E-01  0.0000000E+00  0.4629630E-02
    1      -21.111559
    2      -20.138384
    3      -11.155345
    4       -9.053379
    5       -9.002062
    6       -8.422173
    7       -7.933244
    8       -7.575432
    9        1.952290
   10        2.764309
   11        3.175795
   12        3.287202
 
  0.4583333E+00  0.2777778E-01  0.0000000E+00  0.4629630E-02
    1      -20.897566
    2      -20.410731
    3      -10.607674
    4       -9.526854
    5       -8.804231
    6       -8.243052
    7       -8.227146
    8       -7.801409
    9        2.245220
   10        2.913176
   11        3.057771
   12        3.476808
 
  0.5000000E+00  0.2777778E-01  0.0000000E+00  0.2314815E-02
    1      -20.663882
    2      -20.663882
    3      -10.063553
    4      -10.063553
    5       -8.533799
    6       -8.533799
    7       -8.019511
    8       -8.019511
    9        2.565614
   10        2.565614
   11        3.373630
   12        3.373630
 
  0.0000000E+00  0.5555556E-01  0.0000000E+00  0.2314815E-02
    1      -22.098334
    2      -16.786459
    3      -15.863955
    4      -10.216844
    5       -9.586241
    6       -6.129805
    7       -5.879716
    8       -4.923451
    9       -1.133855
   10        0.608008
   11        1.408366
   12        1.798307
 
  0.4166667E-01  0.5555556E-01  0.0000000E+00  0.4629630E-02
    1      -22.088014
    2      -16.968491
    3      -15.667036
    4      -10.204576
    5       -9.575814
    6       -6.163897
    7       -5.907343
    8       -4.992738
    9       -1.049780
   10        0.622008
   11        1.422516
   12        1.812637
 
  0.8333333E-01  0.5555556E-01  0.0000000E+00  0.4629630E-02
    1      -22.057061
    2      -17.322180
    3      -15.268780
    4      -10.167791
    5       -9.544576
    6       -6.264583
    7       -5.989404
    8       -5.183876
    9       -0.814456
   10        0.664007
   11        1.464962
   12        1.855629
 
  0.1250000E+00  0.5555556E-01  0.0000000E+00  0.4629630E-02
    1      -22.005495
    2      -17.707814
    3      -14.809204
    4      -10.106546
    5       -9.492659
    6       -6.428476
    7       -6.122351
    8       -5.460517
    9       -0.464762
   10        0.734006
   11        1.535692
   12        1.927283
 
  0.1666667E+00  0.5555556E-01  0.0000000E+00  0.4629630E-02
    1      -21.933351
    2      -18.092661
    3      -14.321548
    4      -10.020938
    5       -9.420287
    6       -6.652634
    7       -6.298479
    8       -5.787882
    9       -0.036371
   10        0.831999
   11        1.634686
   12        2.027598
 
  0.2083333E+00  0.5555556E-01  0.0000000E+00  0.4629630E-02
    1      -21.840680
    2      -18.467200
    3      -13.816075
    4       -9.911108
    5       -9.327783
    6       -6.934868
    7       -6.506782
    8       -6.140962
    9        0.444454
   10        0.957975
   11        1.761914
   12        2.156575
 
  0.2500000E+00  0.5555556E-01  0.0000000E+00  0.4629630E-02
    1      -21.727544
    2      -18.827632
    3      -13.297562
    4       -9.777245
    5       -9.215577
    6       -7.271999
    7       -6.735961
    8       -6.503529
    9        0.959854
   10        1.111914
   11        1.917331
   12        2.314211
 
  0.2916667E+00  0.5555556E-01  0.0000000E+00  0.4629630E-02
    1      -21.594028
    2      -19.172054
    3      -12.769168
    4       -9.619592
    5       -9.084220
    6       -7.658559
    7       -6.976850
    8       -6.865244
    9        1.293784
   10        1.497459
   11        2.100872
   12        2.500503
 
  0.3333333E+00  0.5555556E-01  0.0000000E+00  0.4629630E-02
    1      -21.440226
    2      -19.499343
    3      -12.233582
    4       -9.438455
    5       -8.934404
    6       -8.087309
    7       -7.222739
    8       -7.219396
    9        1.503543
   10        2.048048
   11        2.312437
   12        2.715444
 
  0.3750000E+00  0.5555556E-01  0.0000000E+00  0.4629630E-02
    1      -21.266258
    2      -19.808751
    3      -11.693473
    4       -9.234220
    5       -8.766977
    6       -8.550499
    7       -7.561488
    8       -7.468633
    9        1.741133
   10        2.551859
   11        2.603828
   12        2.959023
 
  0.4166667E+00  0.5555556E-01  0.0000000E+00  0.4629630E-02
    1      -21.072259
    2      -20.099736
    3      -11.151717
    4       -9.040744
    5       -9.007366
    6       -8.582976
    7       -7.888403
    8       -7.710606
    9        2.006479
   10        2.818803
   11        3.155634
   12        3.231224
 
  0.4583333E+00  0.5555556E-01  0.0000000E+00  0.4629630E-02
    1      -20.858394
    2      -20.371882
    3      -10.611547
    4       -9.551405
    5       -8.758492
    6       -8.383659
    7       -8.197907
    8       -7.945459
    9        2.299476
   10        2.967738
   11        3.112373
   12        3.532012
 
  0.5000000E+00  0.5555556E-01  0.0000000E+00  0.2314815E-02
    1      -20.624859
    2      -20.624859
    3      -10.076675
    4      -10.076675
    5       -8.488352
    6       -8.488352
    7       -8.170543
    8       -8.170543
    9        2.619976
   10        2.619976
   11        3.428268
   12        3.428268
 
  0.0000000E+00  0.8333333E-01  0.0000000E+00  0.2314815E-02
    1      -22.032024
    2      -16.729342
    3      -15.810510
    4      -10.138035
    5       -9.861062
    6       -6.383656
    7       -6.032422
    8       -4.843037
    9       -1.164283
   10        0.697906
   11        1.499447
   12        1.890554
 
  0.4166667E-01  0.8333333E-01  0.0000000E+00  0.4629630E-02
    1      -22.021712
    2      -16.910770
    3      -15.614507
    4      -10.125790
    5       -9.850480
    6       -6.423515
    7       -6.051015
    8       -4.913222
    9       -1.079972
   10        0.711907
   11        1.513591
   12        1.904885
 
  0.8333333E-01  0.8333333E-01  0.0000000E+00  0.4629630E-02
    1      -21.990780
    2      -17.263373
    3      -15.218290
    4      -10.089073
    5       -9.818769
    6       -6.536537
    7       -6.111470
    8       -5.106367
    9       -0.844628
   10        0.753912
   11        1.556019
   12        1.947878
 
  0.1250000E+00  0.8333333E-01  0.0000000E+00  0.4629630E-02
    1      -21.939252
    2      -17.647943
    3      -14.761410
    4      -10.027943
    5       -9.766027
    6       -6.709958
    7       -6.221012
    8       -5.384987
    9       -0.496271
   10        0.823921
   11        1.626720
   12        2.019534
 
  0.1666667E+00  0.8333333E-01  0.0000000E+00  0.4629630E-02
    1      -21.867162
    2      -18.031841
    3      -14.277088
    4       -9.942495
    5       -9.692427
    6       -6.933192
    7       -6.381408
    8       -5.713743
    9       -0.071138
   10        0.921933
   11        1.725673
   12        2.119853
 
  0.2083333E+00  0.8333333E-01  0.0000000E+00  0.4629630E-02
    1      -21.774560
    2      -18.405553
    3      -13.775684
    4       -9.832872
    5       -9.598209
    6       -7.199832
    7       -6.587658
    8       -6.067574
    9        0.404461
   10        1.047936
   11        1.852849
   12        2.248837
 
  0.2500000E+00  0.8333333E-01  0.0000000E+00  0.4629630E-02
    1      -21.661514
    2      -18.765271
    3      -13.262135
    4       -9.699262
    5       -9.483689
    6       -7.507100
    7       -6.829470
    8       -6.430393
    9        0.912837
   10        1.201910
   11        2.008205
   12        2.406482
 
  0.2916667E+00  0.8333333E-01  0.0000000E+00  0.4629630E-02
    1      -21.528106
    2      -19.109077
    3      -12.739817
    4       -9.541909
    5       -9.349266
    6       -7.854435
    7       -7.093677
    8       -6.792015
    9        1.383821
   10        1.441848
   11        2.191680
   12        2.592787
 
  0.3333333E+00  0.8333333E-01  0.0000000E+00  0.4629630E-02
    1      -21.374435
    2      -19.435835
    3      -12.211700
    4       -9.361119
    5       -9.195423
    6       -8.241330
    7       -7.367285
    8       -7.145857
    9        1.593626
   10        1.982573
   11        2.403182
   12        2.807743
 
  0.3750000E+00  0.8333333E-01  0.0000000E+00  0.4629630E-02
    1      -21.200620
    2      -19.744786
    3      -11.680821
    4       -9.157275
    5       -9.022739
    6       -8.665396
    7       -7.640047
    8       -7.487511
    9        1.831267
   10        2.527771
   11        2.642563
   12        3.051344
 
  0.4166667E+00  0.8333333E-01  0.0000000E+00  0.4629630E-02
    1      -21.006804
    2      -20.035378
    3      -11.150529
    4       -9.121927
    5       -8.930856
    6       -8.831889
    7       -7.905268
    8       -7.813923
    9        2.096669
   10        2.909535
   11        3.070285
   12        3.323575
 
  0.4583333E+00  0.8333333E-01  0.0000000E+00  0.4629630E-02
    1      -20.793154
    2      -20.307185
    3      -10.624666
    4       -9.604814
    5       -8.682455
    6       -8.623664
    7       -8.159023
    8       -8.122899
    9        2.389737
   10        3.058295
   11        3.203303
   12        3.588548
 
  0.5000000E+00  0.8333333E-01  0.0000000E+00  0.2314815E-02
    1      -20.559869
    2      -20.559869
    3      -10.107696
    4      -10.107696
    5       -8.412819
    6       -8.412819
    7       -8.398995
    8       -8.398995
    9        2.710343
   10        2.710343
   11        3.519258
   12        3.519258
 
  0.0000000E+00  0.1111111E+00  0.0000000E+00  0.2314815E-02
    1      -21.939278
    2      -16.649406
    3      -15.737194
    4      -10.218431
    5      -10.027936
    6       -6.715280
    7       -6.240262
    8       -4.730595
    9       -1.212428
   10        0.823800
   11        1.626909
   12        2.019707
 
  0.4166667E-01  0.1111111E+00  0.0000000E+00  0.4629630E-02
    1      -21.928976
    2      -16.830109
    3      -15.542402
    4      -10.207584
    5      -10.015724
    6       -6.759633
    7       -6.250144
    8       -4.802165
    9       -1.127695
   10        0.837799
   11        1.641044
   12        2.034038
 
  0.8333333E-01  0.1111111E+00  0.0000000E+00  0.4629630E-02
    1      -21.898076
    2      -17.181260
    3      -15.149118
    4      -10.175054
    5       -9.979107
    6       -6.882213
    7       -6.288986
    8       -4.998364
    9       -0.892186
   10        0.879800
   11        1.683443
   12        2.077030
 
  0.1250000E+00  0.1111111E+00  0.0000000E+00  0.4629630E-02
    1      -21.846600
    2      -17.564344
    3      -14.696273
    4      -10.120886
    5       -9.918143
    6       -7.063758
    7       -6.372152
    8       -5.279945
    9       -0.545687
   10        0.949807
   11        1.754095
   12        2.148687
 
  0.1666667E+00  0.1111111E+00  0.0000000E+00  0.4629630E-02
    1      -21.774585
    2      -17.946898
    3      -14.217041
    4      -10.045146
    5       -9.832930
    6       -7.289094
    7       -6.508227
    8       -5.610736
    9       -0.125263
   10        1.047822
   11        1.852981
   12        2.249008
 
  0.2083333E+00  0.1111111E+00  0.0000000E+00  0.4629630E-02
    1      -21.682083
    2      -18.319433
    3      -13.721952
    4       -9.947918
    5       -9.723609
    6       -7.548605
    7       -6.697707
    8       -5.965635
    9        0.342753
   10        1.173837
   11        1.980070
   12        2.377997
 
  0.2500000E+00  0.1111111E+00  0.0000000E+00  0.4629630E-02
    1      -21.569162
    2      -18.678132
    3      -13.216236
    4       -9.829293
    5       -9.590370
    6       -7.836953
    7       -6.934766
    8       -6.328777
    9        0.840945
   10        1.327834
   11        2.135320
   12        2.535650
 
  0.2916667E+00  0.1111111E+00  0.0000000E+00  0.4629630E-02
    1      -21.435906
    2      -19.021060
    3      -12.703669
    4       -9.689353
    5       -9.433456
    6       -8.152269
    7       -7.208869
    8       -6.690223
    9        1.357515
   10        1.509776
   11        2.318675
   12        2.721966
 
  0.3333333E+00  0.1111111E+00  0.0000000E+00  0.4629630E-02
    1      -21.282419
    2      -19.347061
    3      -12.187772
    4       -9.528148
    5       -9.253174
    6       -8.495456
    7       -7.506333
    8       -7.043573
    9        1.719618
   10        1.883932
   11        2.530054
   12        2.936938
 
  0.3750000E+00  0.1111111E+00  0.0000000E+00  0.4629630E-02
    1      -21.108823
    2      -19.655361
    3      -11.672305
    4       -9.345666
    5       -9.049906
    6       -8.868904
    7       -7.812380
    8       -7.384558
    9        1.957297
   10        2.413514
   11        2.769335
   12        3.180559
 
  0.4166667E+00  0.1111111E+00  0.0000000E+00  0.4629630E-02
    1      -20.915264
    2      -19.945393
    3      -11.161559
    4       -9.274369
    5       -9.141810
    6       -8.824126
    7       -8.113796
    8       -7.710209
    9        2.222738
   10        2.940475
   11        3.036304
   12        3.452817
 
  0.4583333E+00  0.1111111E+00  0.0000000E+00  0.4629630E-02
    1      -20.701918
    2      -20.216719
    3      -10.660537
    4       -9.711006
    5       -8.916413
    6       -8.576423
    7       -8.401172
    8       -8.018395
    9        2.515849
   10        3.184565
   11        3.330375
   12        3.457758
 
  0.5000000E+00  0.1111111E+00  0.0000000E+00  0.2314815E-02
    1      -20.468989
    2      -20.468989
    3      -10.174966
    4      -10.174966
    5       -8.669383
    6       -8.669383
    7       -8.307535
    8       -8.307535
    9        2.836511
   10        2.836511
   11        3.646253
   12        3.646253
 
  0.0000000E+00  0.1388889E+00  0.0000000E+00  0.2314815E-02
    1      -21.820185
    2      -16.546683
    3      -15.645909
    4      -10.637799
    5       -9.886788
    6       -7.107612
    7       -6.497889
    8       -4.586270
    9       -1.283592
   10        0.985705
   11        1.790696
   12        2.185772
 
  0.4166667E-01  0.1388889E+00  0.0000000E+00  0.4629630E-02
    1      -21.809896
    2      -16.726684
    3      -15.452545
    4      -10.626505
    5       -9.874621
    6       -7.155722
    7       -6.499122
    8       -4.659874
    9       -1.198118
   10        0.999698
   11        1.804815
   12        2.200101
 
  0.8333333E-01  0.1388889E+00  0.0000000E+00  0.4629630E-02
    1      -21.779036
    2      -17.076096
    3      -15.063227
    4      -10.592599
    5       -9.838140
    6       -7.286541
    7       -6.515650
    8       -4.860482
    9       -0.962074
   10        1.041680
   11        1.847169
   12        2.243091
 
  0.1250000E+00  0.1388889E+00  0.0000000E+00  0.4629630E-02
    1      -21.727628
    2      -17.457272
    3      -14.616148
    4      -10.536011
    5       -9.777403
    6       -7.475834
    7       -6.569470
    8       -5.146222
    9       -0.617864
   10        1.111662
   11        1.917744
   12        2.314743
 
  0.1666667E+00  0.1388889E+00  0.0000000E+00  0.4629630E-02
    1      -21.655712
    2      -17.838065
    3      -14.144407
    4      -10.456604
    5       -9.692508
    6       -7.705129
    7       -6.674841
    8       -5.479782
    9       -0.203669
   10        1.209652
   11        2.016520
   12        2.415062
 
  0.2083333E+00  0.1388889E+00  0.0000000E+00  0.4629630E-02
    1      -21.563339
    2      -18.209047
    3      -13.658844
    4      -10.354146
    5       -9.583598
    6       -7.962720
    7       -6.836924
    8       -5.836066
    9        0.254235
   10        1.335650
   11        2.143464
   12        2.544050
 
  0.2500000E+00  0.1388889E+00  0.0000000E+00  0.4629630E-02
    1      -21.450580
    2      -18.566399
    3      -13.165230
    4      -10.228262
    5       -9.450865
    6       -8.241432
    7       -7.054057
    8       -6.199563
    9        0.738877
   10        1.489639
   11        2.298532
   12        2.701707
 
  0.2916667E+00  0.1388889E+00  0.0000000E+00  0.4629630E-02
    1      -21.317523
    2      -18.908166
    3      -12.668127
    4      -10.078370
    5       -9.294551
    6       -8.537338
    7       -7.319495
    8       -6.560681
    9        1.238969
   10        1.671587
   11        2.481667
   12        2.888030
 
  0.3333333E+00  0.1388889E+00  0.0000000E+00  0.4629630E-02
    1      -21.164274
    2      -19.233170
    3      -12.172126
    4       -9.903600
    5       -9.114964
    6       -8.849302
    7       -7.622659
    8       -6.913291
    9        1.746492
   10        1.881440
   11        2.692793
   12        3.103014
 
  0.3750000E+00  0.1388889E+00  0.0000000E+00  0.4629630E-02
    1      -20.990963
    2      -19.540611
    3      -11.682377
    4       -9.702735
    5       -9.178810
    6       -8.912486
    7       -7.950152
    8       -7.253303
    9        2.119131
   10        2.255329
   11        2.931812
   12        3.346652
 
  0.4166667E+00  0.1388889E+00  0.0000000E+00  0.4629630E-02
    1      -20.797742
    2      -19.829907
    3      -11.204803
    4       -9.529551
    5       -9.474273
    6       -8.687586
    7       -8.286866
    8       -7.577872
    9        2.384579
   10        2.760502
   11        3.198589
   12        3.618931
 
  0.4583333E+00  0.1388889E+00  0.0000000E+00  0.4629630E-02
    1      -20.584793
    2      -20.100601
    3      -10.745872
    4       -9.906109
    5       -9.216850
    6       -8.617753
    7       -8.440848
    8       -7.884947
    9        2.677688
   10        3.257719
   11        3.346382
   12        3.492903
 
  0.5000000E+00  0.1388889E+00  0.0000000E+00  0.2314815E-02
    1      -20.352329
    2      -20.352329
    3      -10.311652
    4      -10.311652
    5       -8.930344
    6       -8.930344
    7       -8.172996
    8       -8.172996
    9        2.998339
   10        2.998339
   11        3.741260
   12        3.741281
 
  0.0000000E+00  0.1666667E+00  0.0000000E+00  0.2314815E-02
    1      -21.674865
    2      -16.421211
    3      -15.539859
    4      -11.098500
    5       -9.714913
    6       -7.544698
    7       -6.799163
    8       -4.410248
    9       -1.384087
   10        1.183620
   11        1.990727
   12        2.388751
 
  0.4166667E-01  0.1666667E+00  0.0000000E+00  0.4629630E-02
    1      -21.664593
    2      -16.600776
    3      -15.348039
    4      -11.086443
    5       -9.702805
    6       -7.596212
    7       -6.791710
    8       -4.486823
    9       -1.297286
   10        1.197601
   11        2.004822
   12        2.403078
 
  0.8333333E-01  0.1666667E+00  0.0000000E+00  0.4629630E-02
    1      -21.633784
    2      -16.948283
    3      -14.964030
    4      -11.050174
    5       -9.666502
    6       -7.734688
    7       -6.785264
    8       -4.693704
    9       -1.059894
   10        1.239548
   11        2.047103
   12        2.446062
 
  0.1250000E+00  0.1666667E+00  0.0000000E+00  0.4629630E-02
    1      -21.582461
    2      -17.327121
    3      -14.525253
    4      -10.989389
    5       -9.606061
    6       -7.931722
    7       -6.807510
    8       -4.985130
    9       -0.718165
   10        1.309477
   11        2.117553
   12        2.517705
 
  0.1666667E+00  0.1666667E+00  0.0000000E+00  0.4629630E-02
    1      -21.510664
    2      -17.705695
    3      -14.064730
    4      -10.903525
    5       -9.521585
    6       -8.166200
    7       -6.877623
    8       -5.322303
    9       -0.311698
   10        1.407405
   11        2.216146
   12        2.618013
 
  0.2083333E+00  0.1666667E+00  0.0000000E+00  0.4629630E-02
    1      -21.418450
    2      -18.074704
    3      -13.593914
    4      -10.791678
    5       -9.413217
    6       -8.424994
    7       -7.004840
    8       -5.680264
    9        0.133487
   10        1.533342
   11        2.342839
   12        2.746991
 
  0.2500000E+00  0.1666667E+00  0.0000000E+00  0.4629630E-02
    1      -21.305892
    2      -18.430342
    3      -13.119659
    4      -10.652477
    5       -9.281149
    6       -8.699883
    7       -7.191120
    8       -6.044056
    9        0.601153
   10        1.687280
   11        2.497575
   12        2.904643
 
  0.2916667E+00  0.1666667E+00  0.0000000E+00  0.4629630E-02
    1      -21.173081
    2      -18.770634
    3      -12.648070
    4      -10.483947
    5       -9.125628
    6       -8.985734
    7       -7.433046
    8       -6.404588
    9        1.080772
   10        1.869189
   11        2.680273
   12        3.090966
 
  0.3333333E+00  0.1666667E+00  0.0000000E+00  0.4629630E-02
    1      -21.020130
    2      -19.094372
    3      -12.185688
    4      -10.283464
    5       -9.279729
    6       -8.946962
    7       -7.723168
    8       -6.756090
    9        1.565038
   10        2.079014
   11        2.890819
   12        3.305957
 
  0.3750000E+00  0.1666667E+00  0.0000000E+00  0.4629630E-02
    1      -20.847174
    2      -19.400729
    3      -11.739663
    4      -10.048050
    5       -9.581164
    6       -8.745531
    7       -8.051052
    8       -7.094717
    9        2.048512
   10        2.316680
   11        3.129030
   12        3.549605
 
  0.4166667E+00  0.1666667E+00  0.0000000E+00  0.4629630E-02
    1      -20.654375
    2      -19.689094
    3      -11.316928
    4       -9.891523
    5       -9.775481
    6       -8.521804
    7       -8.404029
    8       -7.417782
    9        2.526879
   10        2.582096
   11        3.394487
   12        3.821900
 
  0.4583333E+00  0.1666667E+00  0.0000000E+00  0.4629630E-02
    1      -20.441923
    2      -19.958994
    3      -10.922241
    4      -10.214594
    5       -9.466436
    6       -8.767714
    7       -8.276357
    8       -7.723333
    9        2.875152
   10        2.996444
   11        3.543651
   12        3.683173
 
  0.5000000E+00  0.1666667E+00  0.0000000E+00  0.2314815E-02
    1      -20.210042
    2      -20.210042
    3      -10.556108
    4      -10.556108
    5       -9.126743
    6       -9.126743
    7       -8.009902
    8       -8.009902
    9        3.195722
   10        3.195722
   11        3.453192
   12        3.453192
 