<?xml version="1.0" encoding="ISO-8859-1"?>
<modeling>
 <generator>
  <i name="program" type="string">vasp </i>
  <i name="version" type="string">5.3.5  </i>
  <i name="subversion" type="string">31Mar14 (build Mar 02 2015 18:14:16) complex                          parallel </i>
  <i name="platform" type="string">LinuxIFC </i>
  <i name="date" type="string">2018 08 09 </i>
  <i name="time" type="string">19:56:22 </i>
 </generator>
 <incar>
  <i type="string" name="SYSTEM">  gr</i>
  <i type="string" name="PREC">accurate : accuracy</i>
  <i type="string" name="ALGO"> FAST.</i>
  <i type="int" name="NELM">   100</i>
  <i type="int" name="NELMDL">    -3</i>
  <i type="int" name="NELMIN">     5</i>
  <i type="int" name="IBRION">     1</i>
  <i name="EDIFF">      0.00000000</i>
  <i name="EDIFFG">     -0.00000100</i>
  <i type="int" name="NSW">   400</i>
  <i type="int" name="ISIF">     2</i>
  <i name="ENCUT">   2000.00000000</i>
  <i type="int" name="ISMEAR">     0</i>
  <i name="SIGMA">      0.05000000</i>
  <i type="int" name="NWRITE">     2</i>
  <i type="logical" name="LWAVE"> F  </i>
  <i type="logical" name="LCHARG"> F  </i>
  <i type="int" name="NELM">   100</i>
 </incar>
 <kpoints>
  <generation param="Gamma">
   <v type="int" name="divisions">      24       36        1 </v>
   <v name="usershift">      0.00000000       0.00000000       0.00000000 </v>
   <v name="genvec1">      0.04166667       0.00000000       0.00000000 </v>
   <v name="genvec2">      0.00000000       0.02777778       0.00000000 </v>
   <v name="genvec3">      0.00000000       0.00000000       1.00000000 </v>
   <v name="shift">      0.00000000       0.00000000       0.00000000 </v>
  </generation>
  <varray name="kpointlist" >
   <v>       0.00000000       0.00000000       0.00000000 </v>
   <v>       0.04166667       0.00000000       0.00000000 </v>
   <v>       0.08333333       0.00000000       0.00000000 </v>
   <v>       0.12500000       0.00000000       0.00000000 </v>
   <v>       0.16666667       0.00000000       0.00000000 </v>
   <v>       0.20833333       0.00000000       0.00000000 </v>
   <v>       0.25000000       0.00000000       0.00000000 </v>
   <v>       0.29166667       0.00000000       0.00000000 </v>
   <v>       0.33333333       0.00000000       0.00000000 </v>
   <v>       0.37500000       0.00000000       0.00000000 </v>
   <v>       0.41666667       0.00000000       0.00000000 </v>
   <v>       0.45833333       0.00000000       0.00000000 </v>
   <v>       0.50000000       0.00000000       0.00000000 </v>
   <v>       0.00000000       0.02777778       0.00000000 </v>
   <v>       0.04166667       0.02777778       0.00000000 </v>
   <v>       0.08333333       0.02777778       0.00000000 </v>
   <v>       0.12500000       0.02777778       0.00000000 </v>
   <v>       0.16666667       0.02777778       0.00000000 </v>
   <v>       0.20833333       0.02777778       0.00000000 </v>
   <v>       0.25000000       0.02777778       0.00000000 </v>
   <v>       0.29166667       0.02777778       0.00000000 </v>
   <v>       0.33333333       0.02777778       0.00000000 </v>
   <v>       0.37500000       0.02777778       0.00000000 </v>
   <v>       0.41666667       0.02777778       0.00000000 </v>
   <v>       0.45833333       0.02777778       0.00000000 </v>
   <v>       0.50000000       0.02777778       0.00000000 </v>
   <v>       0.00000000       0.05555556       0.00000000 </v>
   <v>       0.04166667       0.05555556       0.00000000 </v>
   <v>       0.08333333       0.05555556       0.00000000 </v>
   <v>       0.12500000       0.05555556       0.00000000 </v>
   <v>       0.16666667       0.05555556       0.00000000 </v>
   <v>       0.20833333       0.05555556       0.00000000 </v>
   <v>       0.25000000       0.05555556       0.00000000 </v>
   <v>       0.29166667       0.05555556       0.00000000 </v>
   <v>       0.33333333       0.05555556       0.00000000 </v>
   <v>       0.37500000       0.05555556       0.00000000 </v>
   <v>       0.41666667       0.05555556       0.00000000 </v>
   <v>       0.45833333       0.05555556       0.00000000 </v>
   <v>       0.50000000       0.05555556       0.00000000 </v>
   <v>       0.00000000       0.08333333       0.00000000 </v>
   <v>       0.04166667       0.08333333       0.00000000 </v>
   <v>       0.08333333       0.08333333       0.00000000 </v>
   <v>       0.12500000       0.08333333       0.00000000 </v>
   <v>       0.16666667       0.08333333       0.00000000 </v>
   <v>       0.20833333       0.08333333       0.00000000 </v>
   <v>       0.25000000       0.08333333       0.00000000 </v>
   <v>       0.29166667       0.08333333       0.00000000 </v>
   <v>       0.33333333       0.08333333       0.00000000 </v>
   <v>       0.37500000       0.08333333       0.00000000 </v>
   <v>       0.41666667       0.08333333       0.00000000 </v>
   <v>       0.45833333       0.08333333       0.00000000 </v>
   <v>       0.50000000       0.08333333       0.00000000 </v>
   <v>       0.00000000       0.11111111       0.00000000 </v>
   <v>       0.04166667       0.11111111       0.00000000 </v>
   <v>       0.08333333       0.11111111       0.00000000 </v>
   <v>       0.12500000       0.11111111       0.00000000 </v>
   <v>       0.16666667       0.11111111       0.00000000 </v>
   <v>       0.20833333       0.11111111       0.00000000 </v>
   <v>       0.25000000       0.11111111       0.00000000 </v>
   <v>       0.29166667       0.11111111       0.00000000 </v>
   <v>       0.33333333       0.11111111       0.00000000 </v>
   <v>       0.37500000       0.11111111       0.00000000 </v>
   <v>       0.41666667       0.11111111       0.00000000 </v>
   <v>       0.45833333       0.11111111       0.00000000 </v>
   <v>       0.50000000       0.11111111       0.00000000 </v>
   <v>       0.00000000       0.13888889       0.00000000 </v>
   <v>       0.04166667       0.13888889       0.00000000 </v>
   <v>       0.08333333       0.13888889       0.00000000 </v>
   <v>       0.12500000       0.13888889       0.00000000 </v>
   <v>       0.16666667       0.13888889       0.00000000 </v>
   <v>       0.20833333       0.13888889       0.00000000 </v>
   <v>       0.25000000       0.13888889       0.00000000 </v>
   <v>       0.29166667       0.13888889       0.00000000 </v>
   <v>       0.33333333       0.13888889       0.00000000 </v>
   <v>       0.37500000       0.13888889       0.00000000 </v>
   <v>       0.41666667       0.13888889       0.00000000 </v>
   <v>       0.45833333       0.13888889       0.00000000 </v>
   <v>       0.50000000       0.13888889       0.00000000 </v>
   <v>       0.00000000       0.16666667       0.00000000 </v>
   <v>       0.04166667       0.16666667       0.00000000 </v>
   <v>       0.08333333       0.16666667       0.00000000 </v>
   <v>       0.12500000       0.16666667       0.00000000 </v>
   <v>       0.16666667       0.16666667       0.00000000 </v>
   <v>       0.20833333       0.16666667       0.00000000 </v>
   <v>       0.25000000       0.16666667       0.00000000 </v>
   <v>       0.29166667       0.16666667       0.00000000 </v>
   <v>       0.33333333       0.16666667       0.00000000 </v>
   <v>       0.37500000       0.16666667       0.00000000 </v>
   <v>       0.41666667       0.16666667       0.00000000 </v>
   <v>       0.45833333       0.16666667       0.00000000 </v>
   <v>       0.50000000       0.16666667       0.00000000 </v>
   <v>       0.00000000       0.19444444       0.00000000 </v>
   <v>       0.04166667       0.19444444       0.00000000 </v>
   <v>       0.08333333       0.19444444       0.00000000 </v>
   <v>       0.12500000       0.19444444       0.00000000 </v>
   <v>       0.16666667       0.19444444       0.00000000 </v>
   <v>       0.20833333       0.19444444       0.00000000 </v>
   <v>       0.25000000       0.19444444       0.00000000 </v>
   <v>       0.29166667       0.19444444       0.00000000 </v>
   <v>       0.33333333       0.19444444       0.00000000 </v>
   <v>       0.37500000       0.19444444       0.00000000 </v>
   <v>       0.41666667       0.19444444       0.00000000 </v>
   <v>       0.45833333       0.19444444       0.00000000 </v>
   <v>       0.50000000       0.19444444       0.00000000 </v>
   <v>       0.00000000       0.22222222       0.00000000 </v>
   <v>       0.04166667       0.22222222       0.00000000 </v>
   <v>       0.08333333       0.22222222       0.00000000 </v>
   <v>       0.12500000       0.22222222       0.00000000 </v>
   <v>       0.16666667       0.22222222       0.00000000 </v>
   <v>       0.20833333       0.22222222       0.00000000 </v>
   <v>       0.25000000       0.22222222       0.00000000 </v>
   <v>       0.29166667       0.22222222       0.00000000 </v>
   <v>       0.33333333       0.22222222       0.00000000 </v>
   <v>       0.37500000       0.22222222       0.00000000 </v>
   <v>       0.41666667       0.22222222       0.00000000 </v>
   <v>       0.45833333       0.22222222       0.00000000 </v>
   <v>       0.50000000       0.22222222       0.00000000 </v>
   <v>       0.00000000       0.25000000       0.00000000 </v>
   <v>       0.04166667       0.25000000       0.00000000 </v>
   <v>       0.08333333       0.25000000       0.00000000 </v>
   <v>       0.12500000       0.25000000       0.00000000 </v>
   <v>       0.16666667       0.25000000       0.00000000 </v>
   <v>       0.20833333       0.25000000       0.00000000 </v>
   <v>       0.25000000       0.25000000       0.00000000 </v>
   <v>       0.29166667       0.25000000       0.00000000 </v>
   <v>       0.33333333       0.25000000       0.00000000 </v>
   <v>       0.37500000       0.25000000       0.00000000 </v>
   <v>       0.41666667       0.25000000       0.00000000 </v>
   <v>       0.45833333       0.25000000       0.00000000 </v>
   <v>       0.50000000       0.25000000       0.00000000 </v>
   <v>       0.00000000       0.27777778       0.00000000 </v>
   <v>       0.04166667       0.27777778       0.00000000 </v>
   <v>       0.08333333       0.27777778       0.00000000 </v>
   <v>       0.12500000       0.27777778       0.00000000 </v>
   <v>       0.16666667       0.27777778       0.00000000 </v>
   <v>       0.20833333       0.27777778       0.00000000 </v>
   <v>       0.25000000       0.27777778       0.00000000 </v>
   <v>       0.29166667       0.27777778       0.00000000 </v>
   <v>       0.33333333       0.27777778       0.00000000 </v>
   <v>       0.37500000       0.27777778       0.00000000 </v>
   <v>       0.41666667       0.27777778       0.00000000 </v>
   <v>       0.45833333       0.27777778       0.00000000 </v>
   <v>       0.50000000       0.27777778       0.00000000 </v>
   <v>       0.00000000       0.30555556       0.00000000 </v>
   <v>       0.04166667       0.30555556       0.00000000 </v>
   <v>       0.08333333       0.30555556       0.00000000 </v>
   <v>       0.12500000       0.30555556       0.00000000 </v>
   <v>       0.16666667       0.30555556       0.00000000 </v>
   <v>       0.20833333       0.30555556       0.00000000 </v>
   <v>       0.25000000       0.30555556       0.00000000 </v>
   <v>       0.29166667       0.30555556       0.00000000 </v>
   <v>       0.33333333       0.30555556       0.00000000 </v>
   <v>       0.37500000       0.30555556       0.00000000 </v>
   <v>       0.41666667       0.30555556       0.00000000 </v>
   <v>       0.45833333       0.30555556       0.00000000 </v>
   <v>       0.50000000       0.30555556       0.00000000 </v>
   <v>       0.00000000       0.33333333       0.00000000 </v>
   <v>       0.04166667       0.33333333       0.00000000 </v>
   <v>       0.08333333       0.33333333       0.00000000 </v>
   <v>       0.12500000       0.33333333       0.00000000 </v>
   <v>       0.16666667       0.33333333       0.00000000 </v>
   <v>       0.20833333       0.33333333       0.00000000 </v>
   <v>       0.25000000       0.33333333       0.00000000 </v>
   <v>       0.29166667       0.33333333       0.00000000 </v>
   <v>       0.33333333       0.33333333       0.00000000 </v>
   <v>       0.37500000       0.33333333       0.00000000 </v>
   <v>       0.41666667       0.33333333       0.00000000 </v>
   <v>       0.45833333       0.33333333       0.00000000 </v>
   <v>       0.50000000       0.33333333       0.00000000 </v>
   <v>       0.00000000       0.36111111       0.00000000 </v>
   <v>       0.04166667       0.36111111       0.00000000 </v>
   <v>       0.08333333       0.36111111       0.00000000 </v>
   <v>       0.12500000       0.36111111       0.00000000 </v>
   <v>       0.16666667       0.36111111       0.00000000 </v>
   <v>       0.20833333       0.36111111       0.00000000 </v>
   <v>       0.25000000       0.36111111       0.00000000 </v>
   <v>       0.29166667       0.36111111       0.00000000 </v>
   <v>       0.33333333       0.36111111       0.00000000 </v>
   <v>       0.37500000       0.36111111       0.00000000 </v>
   <v>       0.41666667       0.36111111       0.00000000 </v>
   <v>       0.45833333       0.36111111       0.00000000 </v>
   <v>       0.50000000       0.36111111       0.00000000 </v>
   <v>       0.00000000       0.38888889       0.00000000 </v>
   <v>       0.04166667       0.38888889       0.00000000 </v>
   <v>       0.08333333       0.38888889       0.00000000 </v>
   <v>       0.12500000       0.38888889       0.00000000 </v>
   <v>       0.16666667       0.38888889       0.00000000 </v>
   <v>       0.20833333       0.38888889       0.00000000 </v>
   <v>       0.25000000       0.38888889       0.00000000 </v>
   <v>       0.29166667       0.38888889       0.00000000 </v>
   <v>       0.33333333       0.38888889       0.00000000 </v>
   <v>       0.37500000       0.38888889       0.00000000 </v>
   <v>       0.41666667       0.38888889       0.00000000 </v>
   <v>       0.45833333       0.38888889       0.00000000 </v>
   <v>       0.50000000       0.38888889       0.00000000 </v>
   <v>       0.00000000       0.41666667       0.00000000 </v>
   <v>       0.04166667       0.41666667       0.00000000 </v>
   <v>       0.08333333       0.41666667       0.00000000 </v>
   <v>       0.12500000       0.41666667       0.00000000 </v>
   <v>       0.16666667       0.41666667       0.00000000 </v>
   <v>       0.20833333       0.41666667       0.00000000 </v>
   <v>       0.25000000       0.41666667       0.00000000 </v>
   <v>       0.29166667       0.41666667       0.00000000 </v>
   <v>       0.33333333       0.41666667       0.00000000 </v>
   <v>       0.37500000       0.41666667       0.00000000 </v>
   <v>       0.41666667       0.41666667       0.00000000 </v>
   <v>       0.45833333       0.41666667       0.00000000 </v>
   <v>       0.50000000       0.41666667       0.00000000 </v>
   <v>       0.00000000       0.44444444       0.00000000 </v>
   <v>       0.04166667       0.44444444       0.00000000 </v>
   <v>       0.08333333       0.44444444       0.00000000 </v>
   <v>       0.12500000       0.44444444       0.00000000 </v>
   <v>       0.16666667       0.44444444       0.00000000 </v>
   <v>       0.20833333       0.44444444       0.00000000 </v>
   <v>       0.25000000       0.44444444       0.00000000 </v>
   <v>       0.29166667       0.44444444       0.00000000 </v>
   <v>       0.33333333       0.44444444       0.00000000 </v>
   <v>       0.37500000       0.44444444       0.00000000 </v>
   <v>       0.41666667       0.44444444       0.00000000 </v>
   <v>       0.45833333       0.44444444       0.00000000 </v>
   <v>       0.50000000       0.44444444       0.00000000 </v>
   <v>       0.00000000       0.47222222       0.00000000 </v>
   <v>       0.04166667       0.47222222       0.00000000 </v>
   <v>       0.08333333       0.47222222       0.00000000 </v>
   <v>       0.12500000       0.47222222       0.00000000 </v>
   <v>       0.16666667       0.47222222       0.00000000 </v>
   <v>       0.20833333       0.47222222       0.00000000 </v>
   <v>       0.25000000       0.47222222       0.00000000 </v>
   <v>       0.29166667       0.47222222       0.00000000 </v>
   <v>       0.33333333       0.47222222       0.00000000 </v>
   <v>       0.37500000       0.47222222       0.00000000 </v>
   <v>       0.41666667       0.47222222       0.00000000 </v>
   <v>       0.45833333       0.47222222       0.00000000 </v>
   <v>       0.50000000       0.47222222       0.00000000 </v>
   <v>       0.00000000       0.50000000       0.00000000 </v>
   <v>       0.04166667       0.50000000       0.00000000 </v>
   <v>       0.08333333       0.50000000       0.00000000 </v>
   <v>       0.12500000       0.50000000       0.00000000 </v>
   <v>       0.16666667       0.50000000       0.00000000 </v>
   <v>       0.20833333       0.50000000       0.00000000 </v>
   <v>       0.25000000       0.50000000       0.00000000 </v>
   <v>       0.29166667       0.50000000       0.00000000 </v>
   <v>       0.33333333       0.50000000       0.00000000 </v>
   <v>       0.37500000       0.50000000       0.00000000 </v>
   <v>       0.41666667       0.50000000       0.00000000 </v>
   <v>       0.45833333       0.50000000       0.00000000 </v>
   <v>       0.50000000       0.50000000       0.00000000 </v>
  </varray>
  <varray name="weights" >
   <v>       0.00115741 </v>
   <v>       0.00231481 </v>
   <v>       0.00231481 </v>
   <v>       0.00231481 </v>
   <v>       0.00231481 </v>
   <v>       0.00231481 </v>
   <v>       0.00231481 </v>
   <v>       0.00231481 </v>
   <v>       0.00231481 </v>
   <v>       0.00231481 </v>
   <v>       0.00231481 </v>
   <v>       0.00231481 </v>
   <v>       0.00115741 </v>
   <v>       0.00231481 </v>
   <v>       0.00462963 </v>
   <v>       0.00462963 </v>
   <v>       0.00462963 </v>
   <v>       0.00462963 </v>
   <v>       0.00462963 </v>
   <v>       0.00462963 </v>
   <v>       0.00462963 </v>
   <v>       0.00462963 </v>
   <v>       0.00462963 </v>
   <v>       0.00462963 </v>
   <v>       0.00462963 </v>
   <v>       0.00231481 </v>
   <v>       0.00231481 </v>
   <v>       0.00462963 </v>
   <v>       0.00462963 </v>
   <v>       0.00462963 </v>
   <v>       0.00462963 </v>
   <v>       0.00462963 </v>
   <v>       0.00462963 </v>
   <v>       0.00462963 </v>
   <v>       0.00462963 </v>
   <v>       0.00462963 </v>
   <v>       0.00462963 </v>
   <v>       0.00462963 </v>
   <v>       0.00231481 </v>
   <v>       0.00231481 </v>
   <v>       0.00462963 </v>
   <v>       0.00462963 </v>
   <v>       0.00462963 </v>
   <v>       0.00462963 </v>
   <v>       0.00462963 </v>
   <v>       0.00462963 </v>
   <v>       0.00462963 </v>
   <v>       0.00462963 </v>
   <v>       0.00462963 </v>
   <v>       0.00462963 </v>
   <v>       0.00462963 </v>
   <v>       0.00231481 </v>
   <v>       0.00231481 </v>
   <v>       0.00462963 </v>
   <v>       0.00462963 </v>
   <v>       0.00462963 </v>
   <v>       0.00462963 </v>
   <v>       0.00462963 </v>
   <v>       0.00462963 </v>
   <v>       0.00462963 </v>
   <v>       0.00462963 </v>
   <v>       0.00462963 </v>
   <v>       0.00462963 </v>
   <v>       0.00462963 </v>
   <v>       0.00231481 </v>
   <v>       0.00231481 </v>
   <v>       0.00462963 </v>
   <v>       0.00462963 </v>
   <v>       0.00462963 </v>
   <v>       0.00462963 </v>
   <v>       0.00462963 </v>
   <v>       0.00462963 </v>
   <v>       0.00462963 </v>
   <v>       0.00462963 </v>
   <v>       0.00462963 </v>
   <v>       0.00462963 </v>
   <v>       0.00462963 </v>
   <v>       0.00231481 </v>
   <v>       0.00231481 </v>
   <v>       0.00462963 </v>
   <v>       0.00462963 </v>
   <v>       0.00462963 </v>
   <v>       0.00462963 </v>
   <v>       0.00462963 </v>
   <v>       0.00462963 </v>
   <v>       0.00462963 </v>
   <v>       0.00462963 </v>
   <v>       0.00462963 </v>
   <v>       0.00462963 </v>
   <v>       0.00462963 </v>
   <v>       0.00231481 </v>
   <v>       0.00231481 </v>
   <v>       0.00462963 </v>
   <v>       0.00462963 </v>
   <v>       0.00462963 </v>
   <v>       0.00462963 </v>
   <v>       0.00462963 </v>
   <v>       0.00462963 </v>
   <v>       0.00462963 </v>
   <v>       0.00462963 </v>
   <v>       0.00462963 </v>
   <v>       0.00462963 </v>
   <v>       0.00462963 </v>
   <v>       0.00231481 </v>
   <v>       0.00231481 </v>
   <v>       0.00462963 </v>
   <v>       0.00462963 </v>
   <v>       0.00462963 </v>
   <v>       0.00462963 </v>
   <v>       0.00462963 </v>
   <v>       0.00462963 </v>
   <v>       0.00462963 </v>
   <v>       0.00462963 </v>
   <v>       0.00462963 </v>
   <v>       0.00462963 </v>
   <v>       0.00462963 </v>
   <v>       0.00231481 </v>
   <v>       0.00231481 </v>
   <v>       0.00462963 </v>
   <v>       0.00462963 </v>
   <v>       0.00462963 </v>
   <v>       0.00462963 </v>
   <v>       0.00462963 </v>
   <v>       0.00462963 </v>
   <v>       0.00462963 </v>
   <v>       0.00462963 </v>
   <v>       0.00462963 </v>
   <v>       0.00462963 </v>
   <v>       0.00462963 </v>
   <v>       0.00231481 </v>
   <v>       0.00231481 </v>
   <v>       0.00462963 </v>
   <v>       0.00462963 </v>
   <v>       0.00462963 </v>
   <v>       0.00462963 </v>
   <v>       0.00462963 </v>
   <v>       0.00462963 </v>
   <v>       0.00462963 </v>
   <v>       0.00462963 </v>
   <v>       0.00462963 </v>
   <v>       0.00462963 </v>
   <v>       0.00462963 </v>
   <v>       0.00231481 </v>
   <v>       0.00231481 </v>
   <v>       0.00462963 </v>
   <v>       0.00462963 </v>
   <v>       0.00462963 </v>
   <v>       0.00462963 </v>
   <v>       0.00462963 </v>
   <v>       0.00462963 </v>
   <v>       0.00462963 </v>
   <v>       0.00462963 </v>
   <v>       0.00462963 </v>
   <v>       0.00462963 </v>
   <v>       0.00462963 </v>
   <v>       0.00231481 </v>
   <v>       0.00231481 </v>
   <v>       0.00462963 </v>
   <v>       0.00462963 </v>
   <v>       0.00462963 </v>
   <v>       0.00462963 </v>
   <v>       0.00462963 </v>
   <v>       0.00462963 </v>
   <v>       0.00462963 </v>
   <v>       0.00462963 </v>
   <v>       0.00462963 </v>
   <v>       0.00462963 </v>
   <v>       0.00462963 </v>
   <v>       0.00231481 </v>
   <v>       0.00231481 </v>
   <v>       0.00462963 </v>
   <v>       0.00462963 </v>
   <v>       0.00462963 </v>
   <v>       0.00462963 </v>
   <v>       0.00462963 </v>
   <v>       0.00462963 </v>
   <v>       0.00462963 </v>
   <v>       0.00462963 </v>
   <v>       0.00462963 </v>
   <v>       0.00462963 </v>
   <v>       0.00462963 </v>
   <v>       0.00231481 </v>
   <v>       0.00231481 </v>
   <v>       0.00462963 </v>
   <v>       0.00462963 </v>
   <v>       0.00462963 </v>
   <v>       0.00462963 </v>
   <v>       0.00462963 </v>
   <v>       0.00462963 </v>
   <v>       0.00462963 </v>
   <v>       0.00462963 </v>
   <v>       0.00462963 </v>
   <v>       0.00462963 </v>
   <v>       0.00462963 </v>
   <v>       0.00231481 </v>
   <v>       0.00231481 </v>
   <v>       0.00462963 </v>
   <v>       0.00462963 </v>
   <v>       0.00462963 </v>
   <v>       0.00462963 </v>
   <v>       0.00462963 </v>
   <v>       0.00462963 </v>
   <v>       0.00462963 </v>
   <v>       0.00462963 </v>
   <v>       0.00462963 </v>
   <v>       0.00462963 </v>
   <v>       0.00462963 </v>
   <v>       0.00231481 </v>
   <v>       0.00231481 </v>
   <v>       0.00462963 </v>
   <v>       0.00462963 </v>
   <v>       0.00462963 </v>
   <v>       0.00462963 </v>
   <v>       0.00462963 </v>
   <v>       0.00462963 </v>
   <v>       0.00462963 </v>
   <v>       0.00462963 </v>
   <v>       0.00462963 </v>
   <v>       0.00462963 </v>
   <v>       0.00462963 </v>
   <v>       0.00231481 </v>
   <v>       0.00231481 </v>
   <v>       0.00462963 </v>
   <v>       0.00462963 </v>
   <v>       0.00462963 </v>
   <v>       0.00462963 </v>
   <v>       0.00462963 </v>
   <v>       0.00462963 </v>
   <v>       0.00462963 </v>
   <v>       0.00462963 </v>
   <v>       0.00462963 </v>
   <v>       0.00462963 </v>
   <v>       0.00462963 </v>
   <v>       0.00231481 </v>
   <v>       0.00115741 </v>
   <v>       0.00231481 </v>
   <v>       0.00231481 </v>
   <v>       0.00231481 </v>
   <v>       0.00231481 </v>
   <v>       0.00231481 </v>
   <v>       0.00231481 </v>
   <v>       0.00231481 </v>
   <v>       0.00231481 </v>
   <v>       0.00231481 </v>
   <v>       0.00231481 </v>
   <v>       0.00231481 </v>
   <v>       0.00115741 </v>
  </varray>
 </kpoints>
 <parameters>
  <separator name="general" >
   <i type="string" name="SYSTEM">gr</i>
   <i type="logical" name="LCOMPAT"> F  </i>
  </separator>
  <separator name="electronic" >
   <i type="string" name="PREC">accura</i>
   <i name="ENMAX">   2000.00000000</i>
   <i name="ENAUG">    644.87300000</i>
   <i name="EDIFF">      0.00000000</i>
   <i type="int" name="IALGO">    68</i>
   <i type="int" name="IWAVPR">    11</i>
   <i type="int" name="NBANDS">    12</i>
   <i name="NELECT">     16.00000000</i>
   <i type="int" name="TURBO">     0</i>
   <i type="int" name="IRESTART">     0</i>
   <i type="int" name="NREBOOT">     0</i>
   <i type="int" name="NMIN">     0</i>
   <i name="EREF">      0.00000000</i>
   <separator name="electronic smearing" >
    <i type="int" name="ISMEAR">     0</i>
    <i name="SIGMA">      0.05000000</i>
    <i name="KSPACING">      0.50000000</i>
    <i type="logical" name="KGAMMA"> T  </i>
   </separator>
   <separator name="electronic projectors" >
    <i type="logical" name="LREAL"> F  </i>
    <v name="ROPT">      0.00000000</v>
    <i type="int" name="LMAXPAW">  -100</i>
    <i type="int" name="LMAXMIX">     2</i>
    <i type="logical" name="NLSPLINE"> F  </i>
   </separator>
   <separator name="electronic startup" >
    <i type="int" name="ISTART">     0</i>
    <i type="int" name="ICHARG">     2</i>
    <i type="int" name="INIWAV">     1</i>
   </separator>
   <separator name="electronic spin" >
    <i type="int" name="ISPIN">     1</i>
    <i type="logical" name="LNONCOLLINEAR"> F  </i>
    <v name="MAGMOM">      1.00000000      1.00000000      1.00000000      1.00000000</v>
    <i name="NUPDOWN">     -1.00000000</i>
    <i type="logical" name="LSORBIT"> F  </i>
    <v name="SAXIS">      0.00000000      0.00000000      1.00000000</v>
    <i type="logical" name="LSPIRAL"> F  </i>
    <v name="QSPIRAL">      0.00000000      0.00000000      0.00000000</v>
    <i type="logical" name="LZEROZ"> F  </i>
   </separator>
   <separator name="electronic exchange-correlation" >
    <i type="logical" name="LASPH"> F  </i>
    <i type="logical" name="LMETAGGA"> F  </i>
   </separator>
   <separator name="electronic convergence" >
    <i type="int" name="NELM">   100</i>
    <i type="int" name="NELMDL">    -3</i>
    <i type="int" name="NELMIN">     5</i>
    <i name="ENINI">   2000.00000000</i>
    <separator name="electronic convergence detail" >
     <i type="logical" name="LDIAG"> T  </i>
     <i type="logical" name="LSUBROT"> F  </i>
     <i name="WEIMIN">      0.00100000</i>
     <i name="EBREAK">      0.00000000</i>
     <i name="DEPER">      0.30000000</i>
     <i type="int" name="NRMM">     4</i>
     <i name="TIME">      0.40000000</i>
    </separator>
   </separator>
   <separator name="electronic mixer" >
    <i name="AMIX">      0.40000000</i>
    <i name="BMIX">      1.00000000</i>
    <i name="AMIN">      0.10000000</i>
    <i name="AMIX_MAG">      1.60000000</i>
    <i name="BMIX_MAG">      1.00000000</i>
    <separator name="electronic mixer details" >
     <i type="int" name="IMIX">     4</i>
     <i type="int" name="MAXMIX">   -45</i>
     <i name="WC">    100.00000000</i>
     <i type="int" name="INIMIX">     1</i>
     <i type="int" name="MIXPRE">     1</i>
     <i type="int" name="MREMOVE">     5</i>
    </separator>
   </separator>
   <separator name="electronic dipolcorrection" >
    <i type="logical" name="LDIPOL"> F  </i>
    <i type="logical" name="LMONO"> F  </i>
    <i type="int" name="IDIPOL">     0</i>
    <i name="EPSILON">      1.00000000</i>
    <v name="DIPOL">   -100.00000000   -100.00000000   -100.00000000</v>
    <i name="EFIELD">      0.00000000</i>
   </separator>
  </separator>
  <separator name="grids" >
   <i type="int" name="NGX">    64</i>
   <i type="int" name="NGY">    40</i>
   <i type="int" name="NGZ">   288</i>
   <i type="int" name="NGXF">   128</i>
   <i type="int" name="NGYF">    80</i>
   <i type="int" name="NGZF">   576</i>
   <i type="logical" name="ADDGRID"> F  </i>
  </separator>
  <separator name="ionic" >
   <i type="int" name="NSW">   400</i>
   <i type="int" name="IBRION">     1</i>
   <i type="int" name="ISIF">     2</i>
   <i name="PSTRESS">      0.00000000</i>
   <i name="EDIFFG">     -0.00000100</i>
   <i type="int" name="NFREE">     0</i>
   <i name="POTIM">      0.50000000</i>
   <i name="SMASS">     -3.00000000</i>
   <i name="SCALEE">      1.00000000</i>
  </separator>
  <separator name="ionic md" >
   <i name="TEBEG">      0.00010000</i>
   <i name="TEEND">      0.00010000</i>
   <i type="int" name="NBLOCK">     1</i>
   <i type="int" name="KBLOCK">   400</i>
   <i type="int" name="NPACO">   256</i>
   <i name="APACO">     16.00000000</i>
  </separator>
  <separator name="symmetry" >
   <i type="int" name="ISYM">     2</i>
   <i name="SYMPREC">      0.00001000</i>
  </separator>
  <separator name="dos" >
   <i type="logical" name="LORBIT"> F  </i>
   <v name="RWIGS">     -1.00000000</v>
   <i type="int" name="NEDOS">   301</i>
   <i name="EMIN">     10.00000000</i>
   <i name="EMAX">    -10.00000000</i>
   <i name="EFERMI">      0.00000000</i>
  </separator>
  <separator name="writing" >
   <i type="int" name="NWRITE">     2</i>
   <i type="logical" name="LWAVE"> F  </i>
   <i type="logical" name="LCHARG"> F  </i>
   <i type="logical" name="LPARD"> F  </i>
   <i type="logical" name="LVTOT"> F  </i>
   <i type="logical" name="LVHAR"> F  </i>
   <i type="logical" name="LELF"> F  </i>
   <i type="logical" name="LOPTICS"> F  </i>
   <v name="STM">      0.00000000      0.00000000      0.00000000      0.00000000      0.00000000      0.00000000      0.00000000</v>
  </separator>
  <separator name="performance" >
   <i type="int" name="NPAR">     4</i>
   <i type="int" name="NSIM">     4</i>
   <i type="int" name="NBLK">    -1</i>
   <i type="logical" name="LPLANE"> T  </i>
   <i type="logical" name="LSCALAPACK"> F  </i>
   <i type="logical" name="LSCAAWARE"> F  </i>
   <i type="logical" name="LSCALU"> F  </i>
   <i type="logical" name="LASYNC"> F  </i>
   <i type="logical" name="LORBITALREAL"> F  </i>
  </separator>
  <separator name="miscellaneous" >
   <i type="int" name="IDIOT">     3</i>
   <i type="logical" name="LMUSIC"> F  </i>
   <v name="POMASS">     12.01100000</v>
   <v name="DARWINR">      0.00000000</v>
   <v name="DARWINV">      1.00000000</v>
   <i type="logical" name="LCORR"> T  </i>
  </separator>
  <i type="logical" name="GGA_COMPAT"> T  </i>
  <i type="logical" name="LBERRY"> F  </i>
  <i type="int" name="ICORELEVEL">     0</i>
  <i type="logical" name="LDAU"> F  </i>
  <i type="int" name="I_CONSTRAINED_M">     0</i>
  <separator name="electronic exchange-correlation" >
   <i type="string" name="GGA">--</i>
   <i type="int" name="VOSKOWN">     0</i>
   <i type="logical" name="LHFCALC"> F  </i>
   <i type="string" name="PRECFOCK"></i>
   <i type="logical" name="LSYMGRAD"> F  </i>
   <i type="logical" name="LHFONE"> F  </i>
   <i type="logical" name="LRHFCALC"> F  </i>
   <i type="logical" name="LTHOMAS"> F  </i>
   <i type="logical" name="LMODELHF"> F  </i>
   <i name="ENCUT4O">     -1.00000000</i>
   <i type="int" name="EXXOEP">     0</i>
   <i type="int" name="FOURORBIT">     0</i>
   <i name="AEXX">      0.00000000</i>
   <i name="HFALPHA">      0.00000000</i>
   <i name="MCALPHA">      0.00000000</i>
   <i name="ALDAX">      1.00000000</i>
   <i name="AGGAX">      1.00000000</i>
   <i name="ALDAC">      1.00000000</i>
   <i name="AGGAC">      1.00000000</i>
   <i type="int" name="NKREDX">     1</i>
   <i type="int" name="NKREDY">     1</i>
   <i type="int" name="NKREDZ">     1</i>
   <i type="logical" name="SHIFTRED"> F  </i>
   <i type="logical" name="ODDONLY"> F  </i>
   <i type="logical" name="EVENONLY"> F  </i>
   <i type="int" name="LMAXFOCK">     0</i>
   <i type="int" name="NMAXFOCKAE">     0</i>
   <i type="logical" name="LFOCKAEDFT"> F  </i>
   <i name="HFSCREEN">      0.00000000</i>
   <i name="HFSCREENC">      0.00000000</i>
   <i type="int" name="NBANDSGWLOW">     0</i>
  </separator>
  <separator name="vdW DFT" >
   <i type="logical" name="LUSE_VDW"> F  </i>
   <i name="Zab_VDW">     -0.84910000</i>
   <i name="PARAM1">      0.12340000</i>
   <i name="PARAM2">      1.00000000</i>
   <i name="PARAM3">      0.00000000</i>
  </separator>
  <separator name="model GW" >
   <i type="int" name="MODEL_GW">     0</i>
   <i name="MODEL_EPS0">     31.62568521</i>
   <i name="MODEL_ALPHA">      1.00000000</i>
  </separator>
  <separator name="linear response parameters" >
   <i type="logical" name="LEPSILON"> F  </i>
   <i type="logical" name="LRPA"> F  </i>
   <i type="logical" name="LNABLA"> F  </i>
   <i type="logical" name="LVEL"> F  </i>
   <i type="int" name="KINTER">     0</i>
   <i name="CSHIFT">      0.10000000</i>
   <i name="OMEGAMAX">     -1.00000000</i>
   <i name="DEG_THRESHOLD">      0.00200000</i>
  </separator>
  <separator name="orbital magnetization" >
   <i type="logical" name="NUCIND"> F  </i>
   <v name="MAGPOS">      0.00000000      0.00000000      0.00000000</v>
   <i type="logical" name="LNICSALL"> T  </i>
   <i type="logical" name="ORBITALMAG"> F  </i>
   <i type="logical" name="LMAGBLOCH"> F  </i>
   <i type="logical" name="LCHIMAG"> F  </i>
   <i type="logical" name="LGAUGE"> T  </i>
   <i type="int" name="MAGATOM">     0</i>
   <v name="MAGDIPOL">      0.00000000      0.00000000      0.00000000</v>
   <v name="AVECCONST">      0.00000000      0.00000000      0.00000000</v>
  </separator>
  <separator name="response functions" >
   <i type="logical" name="LADDER"> F  </i>
   <i type="logical" name="LFXC"> F  </i>
   <i type="logical" name="LHARTREE"> T  </i>
   <i type="int" name="IBSE">     0</i>
   <i type="logical" name="LTCTE"> F  </i>
   <i type="logical" name="LTETE"> F  </i>
   <i type="logical" name="LTRIPLET"> F  </i>
   <i type="logical" name="LFXCEPS"> F  </i>
   <i type="logical" name="LFXHEG"> F  </i>
   <i type="logical" name="L2ORDER"> F  </i>
   <i type="logical" name="LUSEW"> F  </i>
   <i name="ENCUTGW">     -2.00000000</i>
   <i name="ENCUTGWSOFT">     -2.00000000</i>
   <i name="ENCUTLF">     -1.00000000</i>
   <i type="int" name="LMAXMP2">    -1</i>
   <i name="SCISSOR">      0.00000000</i>
   <i type="int" name="NOMEGA">     0</i>
   <i type="int" name="NOMEGAR">     0</i>
   <i type="int" name="NBANDSGW">    -1</i>
   <i type="int" name="NBANDSO">    -1</i>
   <i type="int" name="NBANDSV">    -1</i>
   <i type="int" name="NELM">   100</i>
   <i type="int" name="DIM">     3</i>
   <i type="int" name="ANTIRES">     0</i>
   <i name="OMEGAMAX">    -30.00000000</i>
   <i name="OMEGAMIN">    -30.00000000</i>
   <i name="OMEGATL">   -200.00000000</i>
   <i type="int" name="OMEGAGRID">     0</i>
   <i name="CSHIFT">     -0.10000000</i>
   <i type="logical" name="SELFENERGY"> F  </i>
   <i type="logical" name="LSPECTRAL"> F  </i>
   <i type="logical" name="ODDONLYGW"> F  </i>
   <i type="logical" name="EVENONLYGW"> F  </i>
   <i type="int" name="NKREDLFX">     1</i>
   <i type="int" name="NKREDLFY">     1</i>
   <i type="int" name="NKREDLFZ">     1</i>
   <i type="int" name="MAXMEM">  1800</i>
   <i type="int" name="TELESCOPE">     0</i>
   <i type="int" name="TAUPAR">     1</i>
  </separator>
  <separator name="External order field" >
   <i name="OFIELD_KAPPA">      0.00000000</i>
   <v name="OFIELD_K">      0.00000000      0.00000000      0.00000000</v>
   <i name="OFIELD_Q6_NEAR">      0.00000000</i>
   <i name="OFIELD_Q6_FAR">      0.00000000</i>
   <i name="OFIELD_A">      0.00000000</i>
  </separator>
 </parameters>
 <atominfo>
  <atoms>       4 </atoms>
  <types>       1 </types>
  <array name="atoms" >
   <dimension dim="1">ion</dimension>
   <field type="string">element</field>
   <field type="int">atomtype</field>
   <set>
    <rc><c>C </c><c>   1</c></rc>
    <rc><c>C </c><c>   1</c></rc>
    <rc><c>C </c><c>   1</c></rc>
    <rc><c>C </c><c>   1</c></rc>
   </set>
  </array>
  <array name="atomtypes" >
   <dimension dim="1">type</dimension>
   <field type="int">atomspertype</field>
   <field type="string">element</field>
   <field>mass</field>
   <field>valence</field>
   <field type="string">pseudopotential</field>
   <set>
    <rc><c>   4</c><c>C </c><c>     12.01100000</c><c>      4.00000000</c><c> PAW_PBE C 08Apr2002                    </c></rc>
   </set>
  </array>
 </atominfo>
 <structure name="initialpos" >
  <crystal>
   <varray name="basis" >
    <v>       4.26221054       0.00000000       0.00000000 </v>
    <v>       0.00000000       2.50381712       0.00000000 </v>
    <v>       0.00000000       0.00000000      19.75655332 </v>
   </varray>
   <i name="volume">    210.83790140 </i>
   <varray name="rec_basis" >
    <v>       0.23462004       0.00000000       0.00000000 </v>
    <v>       0.00000000       0.39939019       0.00000000 </v>
    <v>       0.00000000       0.00000000       0.05061612 </v>
   </varray>
  </crystal>
  <varray name="positions" >
   <v>       0.00039382       0.00000000       0.00000000 </v>
   <v>       0.16627284       0.50000000       0.00000000 </v>
   <v>       0.50039382       0.50000000       0.00000000 </v>
   <v>       0.66627284       0.00000000       0.00000000 </v>
  </varray>
 </structure>
 <calculation>
  <scstep>
   <time name="dav">  143.34  144.07</time>
   <time name="total">  144.81  145.57</time>
   <energy>
    <i name="alphaZ">      6.18334092 </i>
    <i name="ewald">   2504.81979035 </i>
    <i name="hartreedc">  -2932.65591104 </i>
    <i name="XCdc">     54.93115977 </i>
    <i name="pawpsdc">    151.32577238 </i>
    <i name="pawaedc">   -155.92769107 </i>
    <i name="eentropy">     -0.00137222 </i>
    <i name="bandstr">    -28.99758149 </i>
    <i name="atom">    588.62352690 </i>
    <i name="e_fr_energy">    188.30103451 </i>
    <i name="e_wo_entrp">    188.30240673 </i>
    <i name="e_0_energy">    188.30172062 </i>
   </energy>
  </scstep>
  <scstep>
   <time name="dav">  190.59  191.56</time>
   <time name="total">  190.60  191.58</time>
   <energy>
    <i name="e_fr_energy">     -9.57815836 </i>
    <i name="e_wo_entrp">     -9.57794770 </i>
    <i name="e_0_energy">     -9.57805303 </i>
   </energy>
  </scstep>
  <scstep>
   <time name="dav">  148.24  148.82</time>
   <time name="total">  160.99  161.61</time>
   <energy>
    <i name="e_fr_energy">    -38.25581373 </i>
    <i name="e_wo_entrp">    -38.25581210 </i>
    <i name="e_0_energy">    -38.25581291 </i>
   </energy>
  </scstep>
  <scstep>
   <time name="diag">   33.47   33.90</time>
   <time name="diis">  136.45  136.65</time>
   <time name="orth">    2.67    3.01</time>
   <time name="total">  186.24  187.45</time>
   <energy>
    <i name="e_fr_energy">    -37.64289858 </i>
    <i name="e_wo_entrp">    -37.64289448 </i>
    <i name="e_0_energy">    -37.64289653 </i>
   </energy>
  </scstep>
  <scstep>
   <time name="diag">   35.18   35.62</time>
   <time name="diis">  140.41  141.03</time>
   <time name="orth">    2.39    2.69</time>
   <time name="total">  191.20  192.74</time>
   <energy>
    <i name="e_fr_energy">    -36.91144756 </i>
    <i name="e_wo_entrp">    -36.91144171 </i>
    <i name="e_0_energy">    -36.91144463 </i>
   </energy>
  </scstep>
  <scstep>
   <time name="diag">   36.77   37.51</time>
   <time name="diis">  148.32  150.73</time>
   <time name="orth">    2.76    3.26</time>
   <time name="total">  204.00  208.04</time>
   <energy>
    <i name="e_fr_energy">    -36.91312950 </i>
    <i name="e_wo_entrp">    -36.91312392 </i>
    <i name="e_0_energy">    -36.91312671 </i>
   </energy>
  </scstep>
  <scstep>
   <time name="diag">   38.78   40.16</time>
   <time name="diis">  140.70  141.10</time>
   <time name="orth">    2.68    3.08</time>
   <time name="total">  198.29  200.58</time>
   <energy>
    <i name="e_fr_energy">    -36.90407039 </i>
    <i name="e_wo_entrp">    -36.90406550 </i>
    <i name="e_0_energy">    -36.90406794 </i>
   </energy>
  </scstep>
  <scstep>
   <time name="diag">   39.15   39.59</time>
   <time name="diis">  141.47  141.74</time>
   <time name="orth">    2.93    3.25</time>
   <time name="total">  200.84  202.02</time>
   <energy>
    <i name="e_fr_energy">    -36.89873748 </i>
    <i name="e_wo_entrp">    -36.89873240 </i>
    <i name="e_0_energy">    -36.89873494 </i>
   </energy>
  </scstep>
  <scstep>
   <time name="diag">   37.77   38.45</time>
   <time name="diis">  134.21  134.66</time>
   <time name="orth">    2.72    3.00</time>
   <time name="total">  192.88  194.41</time>
   <energy>
    <i name="e_fr_energy">    -36.89849865 </i>
    <i name="e_wo_entrp">    -36.89849321 </i>
    <i name="e_0_energy">    -36.89849593 </i>
   </energy>
  </scstep>
  <scstep>
   <time name="diag">   44.77   45.38</time>
   <time name="diis">  186.51  186.79</time>
   <time name="orth">    2.54    2.89</time>
   <time name="total">  251.47  252.77</time>
   <energy>
    <i name="e_fr_energy">    -36.89833660 </i>
    <i name="e_wo_entrp">    -36.89833137 </i>
    <i name="e_0_energy">    -36.89833398 </i>
   </energy>
  </scstep>
  <scstep>
   <time name="diag">   39.93   40.39</time>
   <time name="diis">  157.49  158.06</time>
   <time name="orth">    2.78    3.08</time>
   <time name="total">  217.93  219.47</time>
   <energy>
    <i name="e_fr_energy">    -36.90077641 </i>
    <i name="e_wo_entrp">    -36.90077127 </i>
    <i name="e_0_energy">    -36.90077384 </i>
   </energy>
  </scstep>
  <scstep>
   <time name="diag">   41.43   41.80</time>
   <time name="diis">  159.22  159.42</time>
   <time name="orth">    2.47    2.78</time>
   <time name="total">  215.51  216.51</time>
   <energy>
    <i name="e_fr_energy">    -36.90122270 </i>
    <i name="e_wo_entrp">    -36.90121748 </i>
    <i name="e_0_energy">    -36.90122009 </i>
   </energy>
  </scstep>
  <scstep>
   <time name="diag">   38.06   38.41</time>
   <time name="diis">  189.90  190.72</time>
   <time name="orth">    2.61    2.87</time>
   <time name="total">  248.22  249.70</time>
   <energy>
    <i name="e_fr_energy">    -36.90149175 </i>
    <i name="e_wo_entrp">    -36.90148652 </i>
    <i name="e_0_energy">    -36.90148914 </i>
   </energy>
  </scstep>
  <scstep>
   <time name="diag">   41.94   42.40</time>
   <time name="diis">  161.65  162.22</time>
   <time name="orth">    2.76    3.03</time>
   <time name="total">  222.52  224.01</time>
   <energy>
    <i name="e_fr_energy">    -36.90157357 </i>
    <i name="e_wo_entrp">    -36.90156836 </i>
    <i name="e_0_energy">    -36.90157096 </i>
   </energy>
  </scstep>
  <scstep>
   <time name="diag">   40.25   40.78</time>
   <time name="diis">  145.35  145.58</time>
   <time name="orth">    2.83    3.08</time>
   <time name="total">  206.26  207.36</time>
   <energy>
    <i name="e_fr_energy">    -36.90158383 </i>
    <i name="e_wo_entrp">    -36.90157862 </i>
    <i name="e_0_energy">    -36.90158122 </i>
   </energy>
  </scstep>
  <scstep>
   <time name="diag">   42.97   43.34</time>
   <time name="diis">  178.20  179.00</time>
   <time name="orth">    2.53    2.78</time>
   <time name="total">  239.44  240.96</time>
   <energy>
    <i name="e_fr_energy">    -36.90159619 </i>
    <i name="e_wo_entrp">    -36.90159097 </i>
    <i name="e_0_energy">    -36.90159358 </i>
   </energy>
  </scstep>
  <scstep>
   <time name="diag">   39.83   40.21</time>
   <time name="diis">  144.41  144.70</time>
   <time name="orth">    2.55    2.83</time>
   <time name="total">  200.15  201.24</time>
   <energy>
    <i name="e_fr_energy">    -36.90160141 </i>
    <i name="e_wo_entrp">    -36.90159619 </i>
    <i name="e_0_energy">    -36.90159880 </i>
   </energy>
  </scstep>
  <scstep>
   <time name="diag">   35.06   35.55</time>
   <time name="diis">  136.96  137.63</time>
   <time name="orth">    2.83    3.11</time>
   <time name="total">  190.17  191.72</time>
   <energy>
    <i name="e_fr_energy">    -36.90160256 </i>
    <i name="e_wo_entrp">    -36.90159735 </i>
    <i name="e_0_energy">    -36.90159996 </i>
   </energy>
  </scstep>
  <scstep>
   <time name="diag">   38.38   38.81</time>
   <time name="diis">  150.64  151.06</time>
   <time name="orth">    2.84    3.10</time>
   <time name="total">  204.19  205.34</time>
   <energy>
    <i name="e_fr_energy">    -36.90160335 </i>
    <i name="e_wo_entrp">    -36.90159813 </i>
    <i name="e_0_energy">    -36.90160074 </i>
   </energy>
  </scstep>
  <scstep>
   <time name="diag">   33.54   33.86</time>
   <time name="diis">  105.05  105.24</time>
   <time name="orth">    2.80    3.25</time>
   <time name="total">  157.24  158.23</time>
   <energy>
    <i name="e_fr_energy">    -36.90160341 </i>
    <i name="e_wo_entrp">    -36.90159819 </i>
    <i name="e_0_energy">    -36.90160080 </i>
   </energy>
  </scstep>
  <scstep>
   <time name="diag">   37.01   37.38</time>
   <time name="diis">  108.14  108.54</time>
   <time name="orth">    2.83    3.10</time>
   <time name="total">  160.72  161.86</time>
   <energy>
    <i name="e_fr_energy">    -36.90160342 </i>
    <i name="e_wo_entrp">    -36.90159821 </i>
    <i name="e_0_energy">    -36.90160082 </i>
   </energy>
  </scstep>
  <scstep>
   <time name="diag">   33.03   33.42</time>
   <time name="diis">   94.47   94.55</time>
   <time name="orth">    2.79    3.08</time>
   <time name="total">  142.93  143.73</time>
   <energy>
    <i name="e_fr_energy">    -36.90160343 </i>
    <i name="e_wo_entrp">    -36.90159821 </i>
    <i name="e_0_energy">    -36.90160082 </i>
   </energy>
  </scstep>
  <scstep>
   <time name="diag">   34.91   35.47</time>
   <time name="diis">   91.12   91.41</time>
   <time name="orth">    2.60    2.86</time>
   <time name="total">  141.13  142.39</time>
   <energy>
    <i name="e_fr_energy">    -36.90160343 </i>
    <i name="e_wo_entrp">    -36.90159821 </i>
    <i name="e_0_energy">    -36.90160082 </i>
   </energy>
  </scstep>
  <scstep>
   <time name="diag">   39.45   40.70</time>
   <time name="diis">  106.81  107.87</time>
   <time name="orth">    2.73    3.16</time>
   <time name="total">  164.81  167.66</time>
   <energy>
    <i name="e_fr_energy">    -36.90160343 </i>
    <i name="e_wo_entrp">    -36.90159821 </i>
    <i name="e_0_energy">    -36.90160082 </i>
   </energy>
  </scstep>
  <scstep>
   <time name="diag">   38.88   39.76</time>
   <time name="diis">  102.72  103.87</time>
   <time name="orth">    2.82    3.15</time>
   <time name="total">  145.58  147.96</time>
   <energy>
    <i name="alphaZ">      6.18334092 </i>
    <i name="ewald">   2504.81979035 </i>
    <i name="hartreedc">  -2998.96886263 </i>
    <i name="XCdc">     57.29656749 </i>
    <i name="pawpsdc">    272.14369230 </i>
    <i name="pawaedc">   -277.27015341 </i>
    <i name="eentropy">     -0.00000522 </i>
    <i name="bandstr">   -189.72950013 </i>
    <i name="atom">    588.62352690 </i>
    <i name="e_fr_energy">    -36.90160343 </i>
    <i name="e_wo_entrp">    -36.90159821 </i>
    <i name="e_0_energy">    -36.90160082 </i>
   </energy>
  </scstep>
  <structure>
   <crystal>
    <varray name="basis" >
     <v>       4.26221054       0.00000000       0.00000000 </v>
     <v>       0.00000000       2.50381712       0.00000000 </v>
     <v>       0.00000000       0.00000000      19.75655332 </v>
    </varray>
    <i name="volume">    210.83790140 </i>
    <varray name="rec_basis" >
     <v>       0.23462004       0.00000000       0.00000000 </v>
     <v>       0.00000000       0.39939019       0.00000000 </v>
     <v>       0.00000000       0.00000000       0.05061612 </v>
    </varray>
   </crystal>
   <varray name="positions" >
    <v>       0.00039382       0.00000000       0.00000000 </v>
    <v>       0.16627284       0.50000000       0.00000000 </v>
    <v>       0.50039382       0.50000000       0.00000000 </v>
    <v>       0.66627284       0.00000000       0.00000000 </v>
   </varray>
  </structure>
  <varray name="forces" >
   <v>      -0.00292804      -0.00000000       0.00000000 </v>
   <v>       0.00292804       0.00000000      -0.00000000 </v>
   <v>      -0.00292804       0.00000000       0.00000000 </v>
   <v>       0.00292804      -0.00000000      -0.00000000 </v>
  </varray>
  <varray name="stress" >
   <v>      -0.01890753       0.00000000       0.00000000 </v>
   <v>       0.00000000     -24.57802254       0.00000000 </v>
   <v>       0.00000000       0.00000000      -0.01017093 </v>
  </varray>
  <energy>
   <i name="e_fr_energy">    -36.90160343 </i>
   <i name="e_wo_entrp">    -36.90160082 </i>
   <i name="e_0_energy">     -0.00000522 </i>
  </energy>
  <time name="totalsc"> 4841.61 4880.49</time>
 </calculation>
 <calculation>
  <scstep>
   <time name="dav">  136.84  138.01</time>
   <time name="total">  148.69  150.01</time>
   <energy>
    <i name="alphaZ">      6.18334092 </i>
    <i name="ewald">   2504.82159605 </i>
    <i name="hartreedc">  -2998.96964366 </i>
    <i name="XCdc">     57.29661885 </i>
    <i name="pawpsdc">    272.14369272 </i>
    <i name="pawaedc">   -277.27015383 </i>
    <i name="eentropy">     -0.00000451 </i>
    <i name="bandstr">   -189.73057429 </i>
    <i name="atom">    588.62352690 </i>
    <i name="e_fr_energy">    -36.90160084 </i>
    <i name="e_wo_entrp">    -36.90159634 </i>
    <i name="e_0_energy">    -36.90159859 </i>
   </energy>
  </scstep>
  <scstep>
   <time name="diag">   32.76   33.26</time>
   <time name="diis">  131.38  132.02</time>
   <time name="orth">    2.84    3.10</time>
   <time name="total">  179.11  180.56</time>
   <energy>
    <i name="e_fr_energy">    -36.90160100 </i>
    <i name="e_wo_entrp">    -36.90159647 </i>
    <i name="e_0_energy">    -36.90159873 </i>
   </energy>
  </scstep>
  <scstep>
   <time name="diag">   37.68   38.36</time>
   <time name="diis">  138.05  139.03</time>
   <time name="orth">    2.77    3.12</time>
   <time name="total">  190.02  192.15</time>
   <energy>
    <i name="e_fr_energy">    -36.90160091 </i>
    <i name="e_wo_entrp">    -36.90159634 </i>
    <i name="e_0_energy">    -36.90159862 </i>
   </energy>
  </scstep>
  <scstep>
   <time name="diag">   35.06   35.61</time>
   <time name="diis">  156.33  156.77</time>
   <time name="orth">    2.62    2.88</time>
   <time name="total">  209.88  211.24</time>
   <energy>
    <i name="e_fr_energy">    -36.90160090 </i>
    <i name="e_wo_entrp">    -36.90159634 </i>
    <i name="e_0_energy">    -36.90159862 </i>
   </energy>
  </scstep>
  <scstep>
   <time name="diag">   39.56   40.01</time>
   <time name="diis">  162.99  163.29</time>
   <time name="orth">    2.74    2.99</time>
   <time name="total">  217.01  218.13</time>
   <energy>
    <i name="e_fr_energy">    -36.90160090 </i>
    <i name="e_wo_entrp">    -36.90159634 </i>
    <i name="e_0_energy">    -36.90159862 </i>
   </energy>
  </scstep>
  <scstep>
   <time name="diag">   33.15   33.46</time>
   <time name="diis">  121.01  121.39</time>
   <time name="orth">    2.88    3.14</time>
   <time name="total">  168.78  169.77</time>
   <energy>
    <i name="e_fr_energy">    -36.90160090 </i>
    <i name="e_wo_entrp">    -36.90159634 </i>
    <i name="e_0_energy">    -36.90159862 </i>
   </energy>
  </scstep>
  <scstep>
   <time name="diag">   33.49   33.85</time>
   <time name="diis">   93.97   94.03</time>
   <time name="orth">    2.87    3.18</time>
   <time name="total">  131.48  132.22</time>
   <energy>
    <i name="alphaZ">      6.18334092 </i>
    <i name="ewald">   2504.82159605 </i>
    <i name="hartreedc">  -2998.97037118 </i>
    <i name="XCdc">     57.29664972 </i>
    <i name="pawpsdc">    272.14684760 </i>
    <i name="pawaedc">   -277.27332252 </i>
    <i name="eentropy">     -0.00000456 </i>
    <i name="bandstr">   -189.72986383 </i>
    <i name="atom">    588.62352690 </i>
    <i name="e_fr_energy">    -36.90160090 </i>
    <i name="e_wo_entrp">    -36.90159634 </i>
    <i name="e_0_energy">    -36.90159862 </i>
   </energy>
  </scstep>
  <structure>
   <crystal>
    <varray name="basis" >
     <v>       4.26221054       0.00000000       0.00000000 </v>
     <v>       0.00000000       2.50381712       0.00000000 </v>
     <v>       0.00000000       0.00000000      19.75655332 </v>
    </varray>
    <i name="volume">    210.83790140 </i>
    <varray name="rec_basis" >
     <v>       0.23462004       0.00000000       0.00000000 </v>
     <v>       0.00000000       0.39939019       0.00000000 </v>
     <v>       0.00000000       0.00000000       0.05061612 </v>
    </varray>
   </crystal>
   <varray name="positions" >
    <v>       0.00036068      -0.00000000       0.00000000 </v>
    <v>       0.16630598       0.50000000      -0.00000000 </v>
    <v>       0.50036068       0.50000000       0.00000000 </v>
    <v>       0.66630598      -0.00000000      -0.00000000 </v>
   </varray>
  </structure>
  <varray name="forces" >
   <v>       0.01193441       0.00000000      -0.00000000 </v>
   <v>      -0.01193441       0.00000000       0.00000000 </v>
   <v>       0.01193441      -0.00000000      -0.00000000 </v>
   <v>      -0.01193441       0.00000000       0.00000000 </v>
  </varray>
  <varray name="stress" >
   <v>       0.03630475       0.00000000       0.00000000 </v>
   <v>       0.00000000     -24.61907605       0.00000000 </v>
   <v>       0.00000000       0.00000000      -0.01010209 </v>
  </varray>
  <energy>
   <i name="e_fr_energy">    -36.90160090 </i>
   <i name="e_wo_entrp">    -36.90159862 </i>
   <i name="e_0_energy">     -0.00000456 </i>
  </energy>
  <time name="totalsc"> 1305.73 1315.35</time>
 </calculation>
 <calculation>
  <scstep>
   <time name="dav">  132.96  133.63</time>
   <time name="total">  144.95  145.71</time>
   <energy>
    <i name="alphaZ">      6.18334092 </i>
    <i name="ewald">   2504.82014388 </i>
    <i name="hartreedc">  -2998.96975180 </i>
    <i name="XCdc">     57.29660845 </i>
    <i name="pawpsdc">    272.14683842 </i>
    <i name="pawaedc">   -277.27331334 </i>
    <i name="eentropy">     -0.00000513 </i>
    <i name="bandstr">   -189.72899189 </i>
    <i name="atom">    588.62352690 </i>
    <i name="e_fr_energy">    -36.90160359 </i>
    <i name="e_wo_entrp">    -36.90159847 </i>
    <i name="e_0_energy">    -36.90160103 </i>
   </energy>
  </scstep>
  <scstep>
   <time name="diag">   32.67   33.05</time>
   <time name="diis">  138.12  138.15</time>
   <time name="orth">    2.58    2.87</time>
   <time name="total">  185.62  186.35</time>
   <energy>
    <i name="e_fr_energy">    -36.90160368 </i>
    <i name="e_wo_entrp">    -36.90159857 </i>
    <i name="e_0_energy">    -36.90160112 </i>
   </energy>
  </scstep>
  <scstep>
   <time name="diag">   35.06   35.63</time>
   <time name="diis">  135.00  135.67</time>
   <time name="orth">    2.56    2.82</time>
   <time name="total">  184.73  186.28</time>
   <energy>
    <i name="e_fr_energy">    -36.90160360 </i>
    <i name="e_wo_entrp">    -36.90159852 </i>
    <i name="e_0_energy">    -36.90160106 </i>
   </energy>
  </scstep>
  <scstep>
   <time name="diag">   32.65   33.03</time>
   <time name="diis">  166.12  166.37</time>
   <time name="orth">    2.82    3.10</time>
   <time name="total">  219.14  220.15</time>
   <energy>
    <i name="e_fr_energy">    -36.90160359 </i>
    <i name="e_wo_entrp">    -36.90159851 </i>
    <i name="e_0_energy">    -36.90160105 </i>
   </energy>
  </scstep>
  <scstep>
   <time name="diag">   38.90   39.43</time>
   <time name="diis">  161.48  161.65</time>
   <time name="orth">    2.55    2.80</time>
   <time name="total">  218.83  219.87</time>
   <energy>
    <i name="e_fr_energy">    -36.90160359 </i>
    <i name="e_wo_entrp">    -36.90159851 </i>
    <i name="e_0_energy">    -36.90160105 </i>
   </energy>
  </scstep>
  <scstep>
   <time name="diag">   39.40   39.80</time>
   <time name="diis">  114.98  115.32</time>
   <time name="orth">    2.70    2.99</time>
   <time name="total">  172.99  174.17</time>
   <energy>
    <i name="e_fr_energy">    -36.90160359 </i>
    <i name="e_wo_entrp">    -36.90159851 </i>
    <i name="e_0_energy">    -36.90160105 </i>
   </energy>
  </scstep>
  <scstep>
   <time name="diag">   39.41   39.88</time>
   <time name="diis">  109.71  110.02</time>
   <time name="orth">    2.48    2.78</time>
   <time name="total">  167.57  168.69</time>
   <energy>
    <i name="e_fr_energy">    -36.90160359 </i>
    <i name="e_wo_entrp">    -36.90159851 </i>
    <i name="e_0_energy">    -36.90160105 </i>
   </energy>
  </scstep>
  <scstep>
   <time name="diag">   38.84   39.16</time>
   <time name="diis">  104.15  104.37</time>
   <time name="orth">    2.45    2.78</time>
   <time name="total">  146.69  147.56</time>
   <energy>
    <i name="alphaZ">      6.18334092 </i>
    <i name="ewald">   2504.82014388 </i>
    <i name="hartreedc">  -2998.96918520 </i>
    <i name="XCdc">     57.29658370 </i>
    <i name="pawpsdc">    272.14430212 </i>
    <i name="pawaedc">   -277.27076587 </i>
    <i name="eentropy">     -0.00000508 </i>
    <i name="bandstr">   -189.72954497 </i>
    <i name="atom">    588.62352690 </i>
    <i name="e_fr_energy">    -36.90160359 </i>
    <i name="e_wo_entrp">    -36.90159851 </i>
    <i name="e_0_energy">    -36.90160105 </i>
   </energy>
  </scstep>
  <structure>
   <crystal>
    <varray name="basis" >
     <v>       4.26221054       0.00000000       0.00000000 </v>
     <v>       0.00000000       2.50381712       0.00000000 </v>
     <v>       0.00000000       0.00000000      19.75655332 </v>
    </varray>
    <i name="volume">    210.83790140 </i>
    <varray name="rec_basis" >
     <v>       0.23462004       0.00000000       0.00000000 </v>
     <v>       0.00000000       0.39939019       0.00000000 </v>
     <v>       0.00000000       0.00000000       0.05061612 </v>
    </varray>
   </crystal>
   <varray name="positions" >
    <v>       0.00038729      -0.00000000       0.00000000 </v>
    <v>       0.16627937       0.50000000      -0.00000000 </v>
    <v>       0.50038729       0.50000000       0.00000000 </v>
    <v>       0.66627937       0.00000000      -0.00000000 </v>
   </varray>
  </structure>
  <varray name="forces" >
   <v>       0.00000489       0.00000000       0.00000000 </v>
   <v>      -0.00000489       0.00000000      -0.00000000 </v>
   <v>       0.00000489      -0.00000000       0.00000000 </v>
   <v>      -0.00000489       0.00000000      -0.00000000 </v>
  </varray>
  <varray name="stress" >
   <v>      -0.00800868       0.00000000       0.00000000 </v>
   <v>       0.00000000     -24.58614725       0.00000000 </v>
   <v>       0.00000000       0.00000000      -0.01018715 </v>
  </varray>
  <energy>
   <i name="e_fr_energy">    -36.90160359 </i>
   <i name="e_wo_entrp">    -36.90160105 </i>
   <i name="e_0_energy">     -0.00000508 </i>
  </energy>
  <time name="totalsc"> 1511.17 1520.21</time>
 </calculation>
 <calculation>
  <scstep>
   <time name="dav">  126.84  127.72</time>
   <time name="total">  142.69  143.71</time>
   <energy>
    <i name="alphaZ">      6.18334092 </i>
    <i name="ewald">   2504.82014329 </i>
    <i name="hartreedc">  -2998.96918086 </i>
    <i name="XCdc">     57.29658371 </i>
    <i name="pawpsdc">    272.14430641 </i>
    <i name="pawaedc">   -277.27077021 </i>
    <i name="eentropy">     -0.00000508 </i>
    <i name="bandstr">   -189.72954868 </i>
    <i name="atom">    588.62352690 </i>
    <i name="e_fr_energy">    -36.90160359 </i>
    <i name="e_wo_entrp">    -36.90159851 </i>
    <i name="e_0_energy">    -36.90160105 </i>
   </energy>
  </scstep>
  <scstep>
   <time name="diag">   38.87   39.52</time>
   <time name="diis">   92.10   92.59</time>
   <time name="orth">    2.46    2.78</time>
   <time name="total">  149.40  151.00</time>
   <energy>
    <i name="e_fr_energy">    -36.90160359 </i>
    <i name="e_wo_entrp">    -36.90159851 </i>
    <i name="e_0_energy">    -36.90160105 </i>
   </energy>
  </scstep>
  <scstep>
   <time name="diag">   39.22   39.87</time>
   <time name="diis">   89.36   90.02</time>
   <time name="orth">    2.82    3.14</time>
   <time name="total">  147.33  149.14</time>
   <energy>
    <i name="e_fr_energy">    -36.90160359 </i>
    <i name="e_wo_entrp">    -36.90159851 </i>
    <i name="e_0_energy">    -36.90160105 </i>
   </energy>
  </scstep>
  <scstep>
   <time name="diag">   42.82   43.70</time>
   <time name="diis">   87.97   88.64</time>
   <time name="orth">    2.46    2.78</time>
   <time name="total">  149.02  151.18</time>
   <energy>
    <i name="e_fr_energy">    -36.90160359 </i>
    <i name="e_wo_entrp">    -36.90159851 </i>
    <i name="e_0_energy">    -36.90160105 </i>
   </energy>
  </scstep>
  <scstep>
   <time name="diag">   38.74   39.68</time>
   <time name="diis">   87.64   88.16</time>
   <time name="orth">    2.54    2.83</time>
   <time name="total">  130.10  131.86</time>
   <energy>
    <i name="alphaZ">      6.18334092 </i>
    <i name="ewald">   2504.82014329 </i>
    <i name="hartreedc">  -2998.96916510 </i>
    <i name="XCdc">     57.29658358 </i>
    <i name="pawpsdc">    272.14430461 </i>
    <i name="pawaedc">   -277.27076841 </i>
    <i name="eentropy">     -0.00000508 </i>
    <i name="bandstr">   -189.72956430 </i>
    <i name="atom">    588.62352690 </i>
    <i name="e_fr_energy">    -36.90160359 </i>
    <i name="e_wo_entrp">    -36.90159851 </i>
    <i name="e_0_energy">    -36.90160105 </i>
   </energy>
  </scstep>
  <structure>
   <crystal>
    <varray name="basis" >
     <v>       4.26221054       0.00000000       0.00000000 </v>
     <v>       0.00000000       2.50381712       0.00000000 </v>
     <v>       0.00000000       0.00000000      19.75655332 </v>
    </varray>
    <i name="volume">    210.83790140 </i>
    <varray name="rec_basis" >
     <v>       0.23462004       0.00000000       0.00000000 </v>
     <v>       0.00000000       0.39939019       0.00000000 </v>
     <v>       0.00000000       0.00000000       0.05061612 </v>
    </varray>
   </crystal>
   <varray name="positions" >
    <v>       0.00038731      -0.00000000       0.00000000 </v>
    <v>       0.16627936       0.50000000      -0.00000000 </v>
    <v>       0.50038731       0.50000000       0.00000000 </v>
    <v>       0.66627936       0.00000000      -0.00000000 </v>
   </varray>
  </structure>
  <varray name="forces" >
   <v>      -0.00000410       0.00000000       0.00000000 </v>
   <v>       0.00000410      -0.00000000      -0.00000000 </v>
   <v>      -0.00000410      -0.00000000       0.00000000 </v>
   <v>       0.00000410       0.00000000      -0.00000000 </v>
  </varray>
  <varray name="stress" >
   <v>      -0.00803428       0.00000000       0.00000000 </v>
   <v>       0.00000000     -24.58612185       0.00000000 </v>
   <v>       0.00000000       0.00000000      -0.01017616 </v>
  </varray>
  <energy>
   <i name="e_fr_energy">    -36.90160359 </i>
   <i name="e_wo_entrp">    -36.90160105 </i>
   <i name="e_0_energy">     -0.00000508 </i>
  </energy>
  <time name="totalsc">  789.65  799.59</time>
 </calculation>
 <calculation>
  <scstep>
   <time name="dav">  122.58  125.05</time>
   <time name="total">  138.25  141.07</time>
   <energy>
    <i name="alphaZ">      6.18334092 </i>
    <i name="ewald">   2504.82014356 </i>
    <i name="hartreedc">  -2998.96916421 </i>
    <i name="XCdc">     57.29658357 </i>
    <i name="pawpsdc">    272.14430454 </i>
    <i name="pawaedc">   -277.27076834 </i>
    <i name="eentropy">     -0.00000508 </i>
    <i name="bandstr">   -189.72956546 </i>
    <i name="atom">    588.62352690 </i>
    <i name="e_fr_energy">    -36.90160359 </i>
    <i name="e_wo_entrp">    -36.90159851 </i>
    <i name="e_0_energy">    -36.90160105 </i>
   </energy>
  </scstep>
  <scstep>
   <time name="diag">   38.72   39.88</time>
   <time name="diis">   81.87   82.20</time>
   <time name="orth">    2.82    3.11</time>
   <time name="total">  139.38  141.27</time>
   <energy>
    <i name="e_fr_energy">    -36.90160359 </i>
    <i name="e_wo_entrp">    -36.90159851 </i>
    <i name="e_0_energy">    -36.90160105 </i>
   </energy>
  </scstep>
  <scstep>
   <time name="diag">   39.28   39.89</time>
   <time name="diis">   81.93   82.18</time>
   <time name="orth">    2.88    3.15</time>
   <time name="total">  141.04  142.37</time>
   <energy>
    <i name="e_fr_energy">    -36.90160359 </i>
    <i name="e_wo_entrp">    -36.90159851 </i>
    <i name="e_0_energy">    -36.90160105 </i>
   </energy>
  </scstep>
  <scstep>
   <time name="diag">   45.63   46.35</time>
   <time name="diis">   86.96   87.25</time>
   <time name="orth">    2.88    3.15</time>
   <time name="total">  152.69  154.07</time>
   <energy>
    <i name="e_fr_energy">    -36.90160359 </i>
    <i name="e_wo_entrp">    -36.90159851 </i>
    <i name="e_0_energy">    -36.90160105 </i>
   </energy>
  </scstep>
  <scstep>
   <time name="diag">   41.60   42.08</time>
   <time name="diis">   65.48   65.64</time>
   <time name="orth">    2.93    3.21</time>
   <time name="total">  111.34  112.28</time>
   <energy>
    <i name="alphaZ">      6.18334092 </i>
    <i name="ewald">   2504.82014356 </i>
    <i name="hartreedc">  -2998.96916669 </i>
    <i name="XCdc">     57.29658367 </i>
    <i name="pawpsdc">    272.14430681 </i>
    <i name="pawaedc">   -277.27077063 </i>
    <i name="eentropy">     -0.00000508 </i>
    <i name="bandstr">   -189.72956305 </i>
    <i name="atom">    588.62352690 </i>
    <i name="e_fr_energy">    -36.90160359 </i>
    <i name="e_wo_entrp">    -36.90159851 </i>
    <i name="e_0_energy">    -36.90160105 </i>
   </energy>
  </scstep>
  <structure>
   <crystal>
    <varray name="basis" >
     <v>       4.26221054       0.00000000       0.00000000 </v>
     <v>       0.00000000       2.50381712       0.00000000 </v>
     <v>       0.00000000       0.00000000      19.75655332 </v>
    </varray>
    <i name="volume">    210.83790140 </i>
    <varray name="rec_basis" >
     <v>       0.23462004       0.00000000       0.00000000 </v>
     <v>       0.00000000       0.39939019       0.00000000 </v>
     <v>       0.00000000       0.00000000       0.05061612 </v>
    </varray>
   </crystal>
   <varray name="positions" >
    <v>       0.00038730      -0.00000000       0.00000000 </v>
    <v>       0.16627937       0.50000000      -0.00000000 </v>
    <v>       0.50038730       0.50000000       0.00000000 </v>
    <v>       0.66627937       0.00000000      -0.00000000 </v>
   </varray>
  </structure>
  <varray name="forces" >
   <v>      -0.00000106      -0.00000000      -0.00000000 </v>
   <v>       0.00000106      -0.00000000       0.00000000 </v>
   <v>      -0.00000106      -0.00000000      -0.00000000 </v>
   <v>       0.00000106       0.00000000       0.00000000 </v>
  </varray>
  <varray name="stress" >
   <v>      -0.00803316       0.00000000       0.00000000 </v>
   <v>       0.00000000     -24.58612221       0.00000000 </v>
   <v>       0.00000000       0.00000000      -0.01015785 </v>
  </varray>
  <energy>
   <i name="e_fr_energy">    -36.90160359 </i>
   <i name="e_wo_entrp">    -36.90160105 </i>
   <i name="e_0_energy">     -0.00000508 </i>
  </energy>
  <time name="totalsc">  747.27  756.16</time>
 </calculation>
 <calculation>
  <scstep>
   <time name="dav">  138.69  139.24</time>
   <time name="total">  154.85  155.62</time>
   <energy>
    <i name="alphaZ">      6.18334092 </i>
    <i name="ewald">   2504.82014365 </i>
    <i name="hartreedc">  -2998.96916684 </i>
    <i name="XCdc">     57.29658368 </i>
    <i name="pawpsdc">    272.14430679 </i>
    <i name="pawaedc">   -277.27077061 </i>
    <i name="eentropy">     -0.00000508 </i>
    <i name="bandstr">   -189.72956300 </i>
    <i name="atom">    588.62352690 </i>
    <i name="e_fr_energy">    -36.90160359 </i>
    <i name="e_wo_entrp">    -36.90159851 </i>
    <i name="e_0_energy">    -36.90160105 </i>
   </energy>
  </scstep>
  <scstep>
   <time name="diag">   41.20   41.82</time>
   <time name="diis">   62.75   63.02</time>
   <time name="orth">    3.11    3.38</time>
   <time name="total">  122.66  123.89</time>
   <energy>
    <i name="e_fr_energy">    -36.90160359 </i>
    <i name="e_wo_entrp">    -36.90159851 </i>
    <i name="e_0_energy">    -36.90160105 </i>
   </energy>
  </scstep>
  <scstep>
   <time name="diag">   43.33   43.71</time>
   <time name="diis">   63.42   63.65</time>
   <time name="orth">    2.68    2.96</time>
   <time name="total">  124.43  125.40</time>
   <energy>
    <i name="e_fr_energy">    -36.90160359 </i>
    <i name="e_wo_entrp">    -36.90159851 </i>
    <i name="e_0_energy">    -36.90160105 </i>
   </energy>
  </scstep>
  <scstep>
   <time name="diag">   39.36   39.78</time>
   <time name="diis">   55.24   55.40</time>
   <time name="orth">    2.68    3.00</time>
   <time name="total">  113.48  114.49</time>
   <energy>
    <i name="e_fr_energy">    -36.90160359 </i>
    <i name="e_wo_entrp">    -36.90159851 </i>
    <i name="e_0_energy">    -36.90160105 </i>
   </energy>
  </scstep>
  <scstep>
   <time name="diag">   39.91   40.32</time>
   <time name="diis">   56.04   56.07</time>
   <time name="orth">    3.09    3.38</time>
   <time name="total">  114.68  115.45</time>
   <energy>
    <i name="e_fr_energy">    -36.90160359 </i>
    <i name="e_wo_entrp">    -36.90159851 </i>
    <i name="e_0_energy">    -36.90160105 </i>
   </energy>
  </scstep>
  <scstep>
   <time name="diag">   44.01   44.31</time>
   <time name="diis">   66.80   66.91</time>
   <time name="orth">    2.76    3.06</time>
   <time name="total">  114.91  115.67</time>
   <energy>
    <i name="alphaZ">      6.18334092 </i>
    <i name="ewald">   2504.82014365 </i>
    <i name="hartreedc">  -2998.96916657 </i>
    <i name="XCdc">     57.29658366 </i>
    <i name="pawpsdc">    272.14430677 </i>
    <i name="pawaedc">   -277.27077059 </i>
    <i name="eentropy">     -0.00000508 </i>
    <i name="bandstr">   -189.72956326 </i>
    <i name="atom">    588.62352690 </i>
    <i name="e_fr_energy">    -36.90160359 </i>
    <i name="e_wo_entrp">    -36.90159851 </i>
    <i name="e_0_energy">    -36.90160105 </i>
   </energy>
  </scstep>
  <structure>
   <crystal>
    <varray name="basis" >
     <v>       4.26221054       0.00000000       0.00000000 </v>
     <v>       0.00000000       2.50381712       0.00000000 </v>
     <v>       0.00000000       0.00000000      19.75655332 </v>
    </varray>
    <i name="volume">    210.83790140 </i>
    <varray name="rec_basis" >
     <v>       0.23462004       0.00000000       0.00000000 </v>
     <v>       0.00000000       0.39939019       0.00000000 </v>
     <v>       0.00000000       0.00000000       0.05061612 </v>
    </varray>
   </crystal>
   <varray name="positions" >
    <v>       0.00038730      -0.00000000       0.00000000 </v>
    <v>       0.16627937       0.50000000      -0.00000000 </v>
    <v>       0.50038730       0.50000000       0.00000000 </v>
    <v>       0.66627937       0.00000000      -0.00000000 </v>
   </varray>
  </structure>
  <varray name="forces" >
   <v>      -0.00000008       0.00000000      -0.00000000 </v>
   <v>       0.00000008       0.00000000       0.00000000 </v>
   <v>      -0.00000008      -0.00000000      -0.00000000 </v>
   <v>       0.00000008       0.00000000       0.00000000 </v>
  </varray>
  <varray name="stress" >
   <v>      -0.00802922       0.00000000       0.00000000 </v>
   <v>       0.00000000     -24.58612396       0.00000000 </v>
   <v>       0.00000000       0.00000000      -0.01016326 </v>
  </varray>
  <energy>
   <i name="e_fr_energy">    -36.90160359 </i>
   <i name="e_wo_entrp">    -36.90160105 </i>
   <i name="e_0_energy">     -0.00000508 </i>
  </energy>
  <time name="totalsc">  818.10  824.17</time>
  <eigenvalues>
   <array>
    <dimension dim="1">band</dimension>
    <dimension dim="2">kpoint</dimension>
    <dimension dim="3">spin</dimension>
    <field>eigene</field>
    <field>occ</field>
    <set>
     <set comment="spin 1">
      <set comment="kpoint 1">
       <r>  -22.1514    1.0000 </r>
       <r>  -16.8322    1.0000 </r>
       <r>  -15.9073    1.0000 </r>
       <r>  -10.2800    1.0000 </r>
       <r>   -9.3529    1.0000 </r>
       <r>   -5.9149    1.0000 </r>
       <r>   -5.7549    1.0000 </r>
       <r>   -4.9878    1.0000 </r>
       <r>   -1.1119    0.0000 </r>
       <r>    0.5361    0.0000 </r>
       <r>    1.3355    0.0000 </r>
       <r>    1.7245    0.0000 </r>
      </set>
      <set comment="kpoint 2">
       <r>  -22.1411    1.0000 </r>
       <r>  -17.0147    1.0000 </r>
       <r>  -15.7096    1.0000 </r>
       <r>  -10.2677    1.0000 </r>
       <r>   -9.3426    1.0000 </r>
       <r>   -5.9381    1.0000 </r>
       <r>   -5.7961    1.0000 </r>
       <r>   -5.0565    1.0000 </r>
       <r>   -1.0280    0.0000 </r>
       <r>    0.5501    0.0000 </r>
       <r>    1.3496    0.0000 </r>
       <r>    1.7388    0.0000 </r>
      </set>
      <set comment="kpoint 3">
       <r>  -22.1101    1.0000 </r>
       <r>  -17.3693    1.0000 </r>
       <r>  -15.3097    1.0000 </r>
       <r>  -10.2309    1.0000 </r>
       <r>   -9.3117    1.0000 </r>
       <r>   -6.0066    1.0000 </r>
       <r>   -5.9183    1.0000 </r>
       <r>   -5.2461    1.0000 </r>
       <r>   -0.7927    0.0000 </r>
       <r>    0.5921    0.0000 </r>
       <r>    1.3921    0.0000 </r>
       <r>    1.7818    0.0000 </r>
      </set>
      <set comment="kpoint 4">
       <r>  -22.0585    1.0000 </r>
       <r>  -17.7558    1.0000 </r>
       <r>  -14.8481    1.0000 </r>
       <r>  -10.1695    1.0000 </r>
       <r>   -9.2603    1.0000 </r>
       <r>   -6.1168    1.0000 </r>
       <r>   -6.1165    1.0000 </r>
       <r>   -5.5212    1.0000 </r>
       <r>   -0.4419    0.0000 </r>
       <r>    0.6621    0.0000 </r>
       <r>    1.4628    0.0000 </r>
       <r>    1.8535    0.0000 </r>
      </set>
      <set comment="kpoint 5">
       <r>  -21.9863    1.0000 </r>
       <r>  -18.1414    1.0000 </r>
       <r>  -14.3579    1.0000 </r>
       <r>  -10.0838    1.0000 </r>
       <r>   -9.1888    1.0000 </r>
       <r>   -6.3850    1.0000 </r>
       <r>   -6.2623    1.0000 </r>
       <r>   -5.8475    1.0000 </r>
       <r>   -0.0110    0.0000 </r>
       <r>    0.7600    0.0000 </r>
       <r>    1.5619    0.0000 </r>
       <r>    1.9538    0.0000 </r>
      </set>
      <set comment="kpoint 6">
       <r>  -21.8936    1.0000 </r>
       <r>  -18.5166    1.0000 </r>
       <r>  -13.8494    1.0000 </r>
       <r>   -9.9738    1.0000 </r>
       <r>   -9.0974    1.0000 </r>
       <r>   -6.7148    1.0000 </r>
       <r>   -6.4376    1.0000 </r>
       <r>   -6.2000    1.0000 </r>
       <r>    0.4739    0.0000 </r>
       <r>    0.8860    0.0000 </r>
       <r>    1.6891    0.0000 </r>
       <r>    2.0828    0.0000 </r>
      </set>
      <set comment="kpoint 7">
       <r>  -21.7804    1.0000 </r>
       <r>  -18.8776    1.0000 </r>
       <r>  -13.3272    1.0000 </r>
       <r>   -9.8398    1.0000 </r>
       <r>   -8.9868    1.0000 </r>
       <r>   -7.0973    1.0000 </r>
       <r>   -6.6353    1.0000 </r>
       <r>   -6.5624    1.0000 </r>
       <r>    0.9947    0.0000 </r>
       <r>    1.0399    0.0000 </r>
       <r>    1.8446    0.0000 </r>
       <r>    2.2404    0.0000 </r>
      </set>
      <set comment="kpoint 8">
       <r>  -21.6468    1.0000 </r>
       <r>  -19.2225    1.0000 </r>
       <r>  -12.7944    1.0000 </r>
       <r>   -9.6819    1.0000 </r>
       <r>   -8.8574    1.0000 </r>
       <r>   -7.5240    1.0000 </r>
       <r>   -6.9241    1.0000 </r>
       <r>   -6.8488    1.0000 </r>
       <r>    1.2217    0.0000 </r>
       <r>    1.5390    0.0000 </r>
       <r>    2.0282    0.0000 </r>
       <r>    2.4267    0.0000 </r>
      </set>
      <set comment="kpoint 9">
       <r>  -21.4929    1.0000 </r>
       <r>  -19.5502    1.0000 </r>
       <r>  -12.2534    1.0000 </r>
       <r>   -9.5005    1.0000 </r>
       <r>   -8.7102    1.0000 </r>
       <r>   -7.9866    1.0000 </r>
       <r>   -7.2785    1.0000 </r>
       <r>   -7.0722    1.0000 </r>
       <r>    1.4314    0.0000 </r>
       <r>    2.0972    0.0000 </r>
       <r>    2.2398    0.0000 </r>
       <r>    2.6416    0.0000 </r>
      </set>
      <set comment="kpoint 10">
       <r>  -21.3188    1.0000 </r>
       <r>  -19.8600    1.0000 </r>
       <r>  -11.7068    1.0000 </r>
       <r>   -9.2959    1.0000 </r>
       <r>   -8.5462    1.0000 </r>
       <r>   -8.4777    1.0000 </r>
       <r>   -7.6209    1.0000 </r>
       <r>   -7.2999    1.0000 </r>
       <r>    1.6689    0.0000 </r>
       <r>    2.4792    0.0000 </r>
       <r>    2.6609    0.0000 </r>
       <r>    2.8851    0.0000 </r>
      </set>
      <set comment="kpoint 11">
       <r>  -21.1247    1.0000 </r>
       <r>  -20.1513    1.0000 </r>
       <r>  -11.1570    1.0000 </r>
       <r>   -9.0687    1.0000 </r>
       <r>   -8.9906    1.0000 </r>
       <r>   -8.3666    1.0000 </r>
       <r>   -7.9482    1.0000 </r>
       <r>   -7.5274    1.0000 </r>
       <r>    1.9342    0.0000 </r>
       <r>    2.7461    0.0000 </r>
       <r>    3.1573    0.0000 </r>
       <r>    3.2185    0.0000 </r>
      </set>
      <set comment="kpoint 12">
       <r>  -20.9106    1.0000 </r>
       <r>  -20.4237    1.0000 </r>
       <r>  -10.6070    1.0000 </r>
       <r>   -9.5198    1.0000 </r>
       <r>   -8.8195    1.0000 </r>
       <r>   -8.2581    1.0000 </r>
       <r>   -8.1728    1.0000 </r>
       <r>   -7.7508    1.0000 </r>
       <r>    2.2271    0.0000 </r>
       <r>    2.8949    0.0000 </r>
       <r>    3.0396    0.0000 </r>
       <r>    3.4580    0.0000 </r>
      </set>
      <set comment="kpoint 13">
       <r>  -20.6769    1.0000 </r>
       <r>  -20.6769    1.0000 </r>
       <r>  -10.0600    1.0000 </r>
       <r>  -10.0600    1.0000 </r>
       <r>   -8.5490    1.0000 </r>
       <r>   -8.5490    1.0000 </r>
       <r>   -7.9668    1.0000 </r>
       <r>   -7.9668    1.0000 </r>
       <r>    2.5475    0.0000 </r>
       <r>    2.5475    0.0000 </r>
       <r>    3.3554    0.0000 </r>
       <r>    3.3554    0.0000 </r>
      </set>
      <set comment="kpoint 14">
       <r>  -22.1381    1.0000 </r>
       <r>  -16.8207    1.0000 </r>
       <r>  -15.8964    1.0000 </r>
       <r>  -10.2642    1.0000 </r>
       <r>   -9.4125    1.0000 </r>
       <r>   -5.9697    1.0000 </r>
       <r>   -5.7863    1.0000 </r>
       <r>   -4.9717    1.0000 </r>
       <r>   -1.1172    0.0000 </r>
       <r>    0.5541    0.0000 </r>
       <r>    1.3537    0.0000 </r>
       <r>    1.7430    0.0000 </r>
      </set>
      <set comment="kpoint 15">
       <r>  -22.1278    1.0000 </r>
       <r>  -17.0032    1.0000 </r>
       <r>  -15.6989    1.0000 </r>
       <r>  -10.2519    1.0000 </r>
       <r>   -9.4021    1.0000 </r>
       <r>   -5.9969    1.0000 </r>
       <r>   -5.8229    1.0000 </r>
       <r>   -5.0405    1.0000 </r>
       <r>   -1.0332    0.0000 </r>
       <r>    0.5681    0.0000 </r>
       <r>    1.3679    0.0000 </r>
       <r>    1.7573    0.0000 </r>
      </set>
      <set comment="kpoint 16">
       <r>  -22.0969    1.0000 </r>
       <r>  -17.3575    1.0000 </r>
       <r>  -15.2995    1.0000 </r>
       <r>  -10.2151    1.0000 </r>
       <r>   -9.3711    1.0000 </r>
       <r>   -6.0802    1.0000 </r>
       <r>   -5.9281    1.0000 </r>
       <r>   -5.2305    1.0000 </r>
[...]
       <r>   -9.0878    1.0000 </r>
       <r>   -5.6368    1.0000 </r>
       <r>   -5.6368    1.0000 </r>
       <r>   -0.5128    0.0000 </r>
       <r>   -0.5128    0.0000 </r>
       <r>    4.8234    0.0000 </r>
       <r>    4.8234    0.0000 </r>
      </set>
      <set comment="kpoint 209">
       <r>  -18.8401    1.0000 </r>
       <r>  -17.1113    1.0000 </r>
       <r>  -13.9373    1.0000 </r>
       <r>  -12.3562    1.0000 </r>
       <r>  -12.3529    1.0000 </r>
       <r>  -10.8649    1.0000 </r>
       <r>   -6.4675    1.0000 </r>
       <r>   -4.6309    1.0000 </r>
       <r>   -0.9923    0.0000 </r>
       <r>    1.1075    0.0000 </r>
       <r>    5.1190    0.0000 </r>
       <r>    5.9079    0.0000 </r>
      </set>
      <set comment="kpoint 210">
       <r>  -18.8303    1.0000 </r>
       <r>  -17.1037    1.0000 </r>
       <r>  -14.0273    1.0000 </r>
       <r>  -12.4371    1.0000 </r>
       <r>  -12.2580    1.0000 </r>
       <r>  -10.7825    1.0000 </r>
       <r>   -6.4586    1.0000 </r>
       <r>   -4.6333    1.0000 </r>
       <r>   -1.0029    0.0000 </r>
       <r>    1.0817    0.0000 </r>
       <r>    5.1327    0.0000 </r>
       <r>    5.9241    0.0000 </r>
      </set>
      <set comment="kpoint 211">
       <r>  -18.8011    1.0000 </r>
       <r>  -17.0813    1.0000 </r>
       <r>  -14.2486    1.0000 </r>
       <r>  -12.6478    1.0000 </r>
       <r>  -12.0123    1.0000 </r>
       <r>  -10.5780    1.0000 </r>
       <r>   -6.4323    1.0000 </r>
       <r>   -4.6409    1.0000 </r>
       <r>   -1.0328    0.0000 </r>
       <r>    1.0061    0.0000 </r>
       <r>    5.1736    0.0000 </r>
       <r>    5.9722    0.0000 </r>
      </set>
      <set comment="kpoint 212">
       <r>  -18.7525    1.0000 </r>
       <r>  -17.0455    1.0000 </r>
       <r>  -14.5282    1.0000 </r>
       <r>  -12.9214    1.0000 </r>
       <r>  -11.6919    1.0000 </r>
       <r>  -10.3170    1.0000 </r>
       <r>   -6.3887    1.0000 </r>
       <r>   -4.6554    1.0000 </r>
       <r>   -1.0767    0.0000 </r>
       <r>    0.8862    0.0000 </r>
       <r>    5.2416    0.0000 </r>
       <r>    6.0511    0.0000 </r>
      </set>
      <set comment="kpoint 213">
       <r>  -18.6847    1.0000 </r>
       <r>  -16.9988    1.0000 </r>
       <r>  -14.8237    1.0000 </r>
       <r>  -13.2206    1.0000 </r>
       <r>  -11.3391    1.0000 </r>
       <r>  -10.0402    1.0000 </r>
       <r>   -6.3283    1.0000 </r>
       <r>   -4.6791    1.0000 </r>
       <r>   -1.1268    0.0000 </r>
       <r>    0.7299    0.0000 </r>
       <r>    5.3356    0.0000 </r>
       <r>    6.1595    0.0000 </r>
      </set>
      <set comment="kpoint 214">
       <r>  -18.5980    1.0000 </r>
       <r>  -16.9464    1.0000 </r>
       <r>  -15.1113    1.0000 </r>
       <r>  -13.5273    1.0000 </r>
       <r>  -10.9759    1.0000 </r>
       <r>   -9.7704    1.0000 </r>
       <r>   -6.2520    1.0000 </r>
       <r>   -4.7147    1.0000 </r>
       <r>   -1.1738    0.0000 </r>
       <r>    0.5460    0.0000 </r>
       <r>    5.4518    0.0000 </r>
       <r>    6.1807    0.0000 </r>
      </set>
      <set comment="kpoint 215">
       <r>  -18.4926    1.0000 </r>
       <r>  -16.8981    1.0000 </r>
       <r>  -15.3721    1.0000 </r>
       <r>  -13.8320    1.0000 </r>
       <r>  -10.6158    1.0000 </r>
       <r>   -9.5229    1.0000 </r>
       <r>   -6.1608    1.0000 </r>
       <r>   -4.7651    1.0000 </r>
       <r>   -1.2081    0.0000 </r>
       <r>    0.3435    0.0000 </r>
       <r>    5.5454    0.0000 </r>
       <r>    5.7926    0.0000 </r>
      </set>
      <set comment="kpoint 216">
       <r>  -18.3691    1.0000 </r>
       <r>  -16.8721    1.0000 </r>
       <r>  -15.5832    1.0000 </r>
       <r>  -14.1289    1.0000 </r>
       <r>  -10.2693    1.0000 </r>
       <r>   -9.3099    1.0000 </r>
       <r>   -6.0559    1.0000 </r>
       <r>   -4.8324    1.0000 </r>
       <r>   -1.2216    0.0000 </r>
       <r>    0.1311    0.0000 </r>
       <r>    5.3062    0.0000 </r>
       <r>    5.8288    0.0000 </r>
      </set>
      <set comment="kpoint 217">
       <r>  -18.2282    1.0000 </r>
       <r>  -16.8954    1.0000 </r>
       <r>  -15.7145    1.0000 </r>
       <r>  -14.4143    1.0000 </r>
       <r>   -9.9458    1.0000 </r>
       <r>   -9.1419    1.0000 </r>
       <r>   -5.9391    1.0000 </r>
       <r>   -4.9176    1.0000 </r>
       <r>   -1.2078    0.0000 </r>
       <r>   -0.0837    0.0000 </r>
       <r>    5.0123    0.0000 </r>
       <r>    5.8352    0.0000 </r>
      </set>
      <set comment="kpoint 218">
       <r>  -18.0708    1.0000 </r>
       <r>  -16.9878    1.0000 </r>
       <r>  -15.7445    1.0000 </r>
       <r>  -14.6850    1.0000 </r>
       <r>   -9.6547    1.0000 </r>
       <r>   -9.0279    1.0000 </r>
       <r>   -5.8125    1.0000 </r>
       <r>   -5.0198    1.0000 </r>
       <r>   -1.1630    0.0000 </r>
       <r>   -0.2940    0.0000 </r>
       <r>    4.7944    0.0000 </r>
       <r>    5.4362    0.0000 </r>
      </set>
      <set comment="kpoint 219">
       <r>  -17.8984    1.0000 </r>
       <r>  -17.1398    1.0000 </r>
       <r>  -15.6816    1.0000 </r>
       <r>  -14.9382    1.0000 </r>
       <r>   -9.4052    1.0000 </r>
       <r>   -8.9749    1.0000 </r>
       <r>   -5.6785    1.0000 </r>
       <r>   -5.1369    1.0000 </r>
       <r>   -1.0859    0.0000 </r>
       <r>   -0.4937    0.0000 </r>
       <r>    4.6667    0.0000 </r>
       <r>    5.1076    0.0000 </r>
      </set>
      <set comment="kpoint 220">
       <r>  -17.7135    1.0000 </r>
       <r>  -17.3244    1.0000 </r>
       <r>  -15.5521    1.0000 </r>
       <r>  -15.1705    1.0000 </r>
       <r>   -9.2060    1.0000 </r>
       <r>   -8.9869    1.0000 </r>
       <r>   -5.5402    1.0000 </r>
       <r>   -5.2654    1.0000 </r>
       <r>   -0.9773    0.0000 </r>
       <r>   -0.6773    0.0000 </r>
       <r>    4.6347    0.0000 </r>
       <r>    4.8594    0.0000 </r>
      </set>
      <set comment="kpoint 221">
       <r>  -17.5198    1.0000 </r>
       <r>  -17.5198    1.0000 </r>
       <r>  -15.3776    1.0000 </r>
       <r>  -15.3776    1.0000 </r>
       <r>   -9.0648    1.0000 </r>
       <r>   -9.0648    1.0000 </r>
       <r>   -5.4012    1.0000 </r>
       <r>   -5.4012    1.0000 </r>
       <r>   -0.8400    0.0000 </r>
       <r>   -0.8400    0.0000 </r>
       <r>    4.6998    0.0000 </r>
       <r>    4.6998    0.0000 </r>
      </set>
      <set comment="kpoint 222">
       <r>  -18.4312    1.0000 </r>
       <r>  -17.5630    1.0000 </r>
       <r>  -13.5705    1.0000 </r>
       <r>  -12.7775    1.0000 </r>
       <r>  -12.0173    1.0000 </r>
       <r>  -11.2670    1.0000 </r>
       <r>   -6.0212    1.0000 </r>
       <r>   -5.0979    1.0000 </r>
       <r>   -0.4998    0.0000 </r>
       <r>    0.5521    0.0000 </r>
       <r>    5.7004    0.0000 </r>
       <r>    6.4558    0.0000 </r>
      </set>
      <set comment="kpoint 223">
       <r>  -18.4216    1.0000 </r>
       <r>  -17.5543    1.0000 </r>
       <r>  -13.6609    1.0000 </r>
       <r>  -12.8644    1.0000 </r>
       <r>  -11.9214    1.0000 </r>
       <r>  -11.1793    1.0000 </r>
       <r>   -6.0136    1.0000 </r>
       <r>   -5.0953    1.0000 </r>
       <r>   -0.5167    0.0000 </r>
       <r>    0.5283    0.0000 </r>
       <r>    5.7140    0.0000 </r>
       <r>    6.4728    0.0000 </r>
      </set>
      <set comment="kpoint 224">
       <r>  -18.3930    1.0000 </r>
       <r>  -17.5284    1.0000 </r>
       <r>  -13.8838    1.0000 </r>
       <r>  -13.0807    1.0000 </r>
       <r>  -11.6825    1.0000 </r>
       <r>  -10.9616    1.0000 </r>
       <r>   -5.9912    1.0000 </r>
       <r>   -5.0879    1.0000 </r>
       <r>   -0.5654    0.0000 </r>
       <r>    0.4588    0.0000 </r>
       <r>    5.7548    0.0000 </r>
       <r>    6.5233    0.0000 </r>
      </set>
      <set comment="kpoint 225">
       <r>  -18.3454    1.0000 </r>
       <r>  -17.4858    1.0000 </r>
       <r>  -14.1677    1.0000 </r>
       <r>  -13.3597    1.0000 </r>
       <r>  -11.3730    1.0000 </r>
       <r>  -10.6821    1.0000 </r>
       <r>   -5.9543    1.0000 </r>
       <r>   -5.0768    1.0000 </r>
       <r>   -0.6408    0.0000 </r>
       <r>    0.3489    0.0000 </r>
       <r>    5.8222    0.0000 </r>
       <r>    6.6058    0.0000 </r>
      </set>
      <set comment="kpoint 226">
       <r>  -18.2792    1.0000 </r>
       <r>  -17.4274    1.0000 </r>
       <r>  -14.4723    1.0000 </r>
       <r>  -13.6631    1.0000 </r>
       <r>  -11.0350    1.0000 </r>
       <r>  -10.3823    1.0000 </r>
       <r>   -5.9038    1.0000 </r>
       <r>   -5.0639    1.0000 </r>
       <r>   -0.7348    0.0000 </r>
       <r>    0.2064    0.0000 </r>
       <r>    5.9146    0.0000 </r>
       <r>    6.7185    0.0000 </r>
      </set>
      <set comment="kpoint 227">
       <r>  -18.1947    1.0000 </r>
       <r>  -17.3551    1.0000 </r>
       <r>  -14.7773    1.0000 </r>
       <r>  -13.9724    1.0000 </r>
       <r>  -10.6906    1.0000 </r>
       <r>  -10.0847    1.0000 </r>
       <r>   -5.8408    1.0000 </r>
       <r>   -5.0517    1.0000 </r>
       <r>   -0.8378    0.0000 </r>
       <r>    0.0403    0.0000 </r>
       <r>    6.0202    0.0000 </r>
       <r>    6.4530    0.0000 </r>
      </set>
      <set comment="kpoint 228">
       <r>  -18.0925    1.0000 </r>
       <r>  -17.2719    1.0000 </r>
       <r>  -15.0708    1.0000 </r>
       <r>  -14.2780    1.0000 </r>
       <r>  -10.3537    1.0000 </r>
       <r>   -9.8041    1.0000 </r>
       <r>   -5.7668    1.0000 </r>
       <r>   -5.0434    1.0000 </r>
       <r>   -0.9396    0.0000 </r>
       <r>   -0.1400    0.0000 </r>
       <r>    5.9004    0.0000 </r>
       <r>    6.2444    0.0000 </r>
      </set>
      <set comment="kpoint 229">
       <r>  -17.9735    1.0000 </r>
       <r>  -17.1835    1.0000 </r>
       <r>  -15.3421    1.0000 </r>
       <r>  -14.5740    1.0000 </r>
       <r>  -10.0352    1.0000 </r>
       <r>   -9.5525    1.0000 </r>
       <r>   -5.6839    1.0000 </r>
       <r>   -5.0425    1.0000 </r>
       <r>   -1.0300    0.0000 </r>
       <r>   -0.3255    0.0000 </r>
       <r>    5.5055    0.0000 </r>
       <r>    5.9986    0.0000 </r>
      </set>
      <set comment="kpoint 230">
       <r>  -17.8390    1.0000 </r>
       <r>  -17.1004    1.0000 </r>
       <r>  -15.5778    1.0000 </r>
       <r>  -14.8559    1.0000 </r>
       <r>   -9.7451    1.0000 </r>
       <r>   -9.3403    1.0000 </r>
       <r>   -5.5945    1.0000 </r>
       <r>   -5.0524    1.0000 </r>
       <r>   -1.0998    0.0000 </r>
       <r>   -0.5076    0.0000 </r>
       <r>    5.1588    0.0000 </r>
       <r>    5.5718    0.0000 </r>
      </set>
      <set comment="kpoint 231">
       <r>  -17.6913    1.0000 </r>
       <r>  -17.0419    1.0000 </r>
       <r>  -15.7569    1.0000 </r>
       <r>  -15.1196    1.0000 </r>
       <r>   -9.4930    1.0000 </r>
       <r>   -9.1771    1.0000 </r>
       <r>   -5.5018    1.0000 </r>
       <r>   -5.0760    1.0000 </r>
       <r>   -1.1415    0.0000 </r>
       <r>   -0.6785    0.0000 </r>
       <r>    4.8886    0.0000 </r>
       <r>    5.2112    0.0000 </r>
      </set>
      <set comment="kpoint 232">
       <r>  -17.5339    1.0000 </r>
       <r>  -17.0357    1.0000 </r>
       <r>  -15.8505    1.0000 </r>
       <r>  -15.3600    1.0000 </r>
       <r>   -9.2880    1.0000 </r>
       <r>   -9.0710    1.0000 </r>
       <r>   -5.4091    1.0000 </r>
       <r>   -5.1152    1.0000 </r>
       <r>   -1.1498    0.0000 </r>
       <r>   -0.8313    0.0000 </r>
       <r>    4.7056    0.0000 </r>
       <r>    4.9275    0.0000 </r>
      </set>
      <set comment="kpoint 233">
       <r>  -17.3733    1.0000 </r>
       <r>  -17.0998    1.0000 </r>
       <r>  -15.8397    1.0000 </r>
       <r>  -15.5700    1.0000 </r>
       <r>   -9.1384    1.0000 </r>
       <r>   -9.0278    1.0000 </r>
       <r>   -5.3203    1.0000 </r>
       <r>   -5.1702    1.0000 </r>
       <r>   -1.1219    0.0000 </r>
       <r>   -0.9595    0.0000 </r>
       <r>    4.6165    0.0000 </r>
       <r>    4.7297    0.0000 </r>
      </set>
      <set comment="kpoint 234">
       <r>  -17.2216    1.0000 </r>
       <r>  -17.2216    1.0000 </r>
       <r>  -15.7370    1.0000 </r>
       <r>  -15.7370    1.0000 </r>
       <r>   -9.0504    1.0000 </r>
       <r>   -9.0504    1.0000 </r>
       <r>   -5.2395    1.0000 </r>
       <r>   -5.2395    1.0000 </r>
       <r>   -1.0577    0.0000 </r>
       <r>   -1.0577    0.0000 </r>
       <r>    4.6247    0.0000 </r>
       <r>    4.6247    0.0000 </r>
      </set>
      <set comment="kpoint 235">
       <r>  -18.0045    1.0000 </r>
       <r>  -18.0045    1.0000 </r>
       <r>  -13.1836    1.0000 </r>
       <r>  -13.1836    1.0000 </r>
       <r>  -11.6524    1.0000 </r>
       <r>  -11.6524    1.0000 </r>
       <r>   -5.5631    1.0000 </r>
       <r>   -5.5631    1.0000 </r>
       <r>    0.0156    0.0000 </r>
       <r>    0.0156    0.0000 </r>
       <r>    6.3117    0.0000 </r>
       <r>    6.3117    0.0000 </r>
      </set>
      <set comment="kpoint 236">
       <r>  -17.9952    1.0000 </r>
       <r>  -17.9952    1.0000 </r>
       <r>  -13.2728    1.0000 </r>
       <r>  -13.2728    1.0000 </r>
       <r>  -11.5603    1.0000 </r>
       <r>  -11.5603    1.0000 </r>
       <r>   -5.5575    1.0000 </r>
       <r>   -5.5575    1.0000 </r>
       <r>   -0.0053    0.0000 </r>
       <r>   -0.0053    0.0000 </r>
       <r>    6.3252    0.0000 </r>
       <r>    6.3252    0.0000 </r>
      </set>
      <set comment="kpoint 237">
       <r>  -17.9676    1.0000 </r>
       <r>  -17.9676    1.0000 </r>
       <r>  -13.4934    1.0000 </r>
       <r>  -13.4934    1.0000 </r>
       <r>  -11.3309    1.0000 </r>
       <r>  -11.3309    1.0000 </r>
       <r>   -5.5410    1.0000 </r>
       <r>   -5.5410    1.0000 </r>
       <r>   -0.0664    0.0000 </r>
       <r>   -0.0664    0.0000 </r>
       <r>    6.3657    0.0000 </r>
       <r>    6.3657    0.0000 </r>
      </set>
      <set comment="kpoint 238">
       <r>  -17.9218    1.0000 </r>
       <r>  -17.9218    1.0000 </r>
       <r>  -13.7762    1.0000 </r>
       <r>  -13.7762    1.0000 </r>
       <r>  -11.0352    1.0000 </r>
       <r>  -11.0352    1.0000 </r>
       <r>   -5.5142    1.0000 </r>
       <r>   -5.5142    1.0000 </r>
       <r>   -0.1623    0.0000 </r>
       <r>   -0.1623    0.0000 </r>
       <r>    6.4323    0.0000 </r>
       <r>    6.4323    0.0000 </r>
      </set>
      <set comment="kpoint 239">
       <r>  -17.8582    1.0000 </r>
       <r>  -17.8582    1.0000 </r>
       <r>  -14.0819    1.0000 </r>
       <r>  -14.0819    1.0000 </r>
       <r>  -10.7149    1.0000 </r>
       <r>  -10.7149    1.0000 </r>
       <r>   -5.4784    1.0000 </r>
       <r>   -5.4784    1.0000 </r>
       <r>   -0.2852    0.0000 </r>
       <r>   -0.2852    0.0000 </r>
       <r>    6.5214    0.0000 </r>
       <r>    6.5214    0.0000 </r>
      </set>
      <set comment="kpoint 240">
       <r>  -17.7777    1.0000 </r>
       <r>  -17.7777    1.0000 </r>
       <r>  -14.3916    1.0000 </r>
       <r>  -14.3916    1.0000 </r>
       <r>  -10.3924    1.0000 </r>
       <r>  -10.3924    1.0000 </r>
       <r>   -5.4354    1.0000 </r>
       <r>   -5.4354    1.0000 </r>
       <r>   -0.4258    0.0000 </r>
       <r>   -0.4258    0.0000 </r>
       <r>    6.5734    0.0000 </r>
       <r>    6.5734    0.0000 </r>
      </set>
      <set comment="kpoint 241">
       <r>  -17.6814    1.0000 </r>
       <r>  -17.6814    1.0000 </r>
       <r>  -14.6950    1.0000 </r>
       <r>  -14.6950    1.0000 </r>
       <r>  -10.0821    1.0000 </r>
       <r>  -10.0821    1.0000 </r>
       <r>   -5.3874    1.0000 </r>
       <r>   -5.3874    1.0000 </r>
       <r>   -0.5742    0.0000 </r>
       <r>   -0.5742    0.0000 </r>
       <r>    6.1819    0.0000 </r>
       <r>    6.1819    0.0000 </r>
      </set>
      <set comment="kpoint 242">
       <r>  -17.5714    1.0000 </r>
       <r>  -17.5714    1.0000 </r>
       <r>  -14.9852    1.0000 </r>
       <r>  -14.9852    1.0000 </r>
       <r>   -9.7952    1.0000 </r>
       <r>   -9.7952    1.0000 </r>
       <r>   -5.3375    1.0000 </r>
       <r>   -5.3375    1.0000 </r>
       <r>   -0.7208    0.0000 </r>
       <r>   -0.7208    0.0000 </r>
       <r>    5.7354    0.0000 </r>
       <r>    5.7354    0.0000 </r>
      </set>
      <set comment="kpoint 243">
       <r>  -17.4510    1.0000 </r>
       <r>  -17.4510    1.0000 </r>
       <r>  -15.2558    1.0000 </r>
       <r>  -15.2558    1.0000 </r>
       <r>   -9.5423    1.0000 </r>
       <r>   -9.5423    1.0000 </r>
       <r>   -5.2889    1.0000 </r>
       <r>   -5.2889    1.0000 </r>
       <r>   -0.8561    0.0000 </r>
       <r>   -0.8561    0.0000 </r>
       <r>    5.3456    0.0000 </r>
       <r>    5.3456    0.0000 </r>
      </set>
      <set comment="kpoint 244">
       <r>  -17.3262    1.0000 </r>
       <r>  -17.3262    1.0000 </r>
       <r>  -15.4989    1.0000 </r>
       <r>  -15.4989    1.0000 </r>
       <r>   -9.3329    1.0000 </r>
       <r>   -9.3329    1.0000 </r>
       <r>   -5.2456    1.0000 </r>
       <r>   -5.2456    1.0000 </r>
       <r>   -0.9717    0.0000 </r>
       <r>   -0.9717    0.0000 </r>
       <r>    5.0280    0.0000 </r>
       <r>    5.0280    0.0000 </r>
      </set>
      <set comment="kpoint 245">
       <r>  -17.2084    1.0000 </r>
       <r>  -17.2084    1.0000 </r>
       <r>  -15.7020    1.0000 </r>
       <r>  -15.7020    1.0000 </r>
       <r>   -9.1760    1.0000 </r>
       <r>   -9.1760    1.0000 </r>
       <r>   -5.2111    1.0000 </r>
       <r>   -5.2111    1.0000 </r>
       <r>   -1.0602    0.0000 </r>
       <r>   -1.0602    0.0000 </r>
       <r>    4.7929    0.0000 </r>
       <r>    4.7929    0.0000 </r>
      </set>
      <set comment="kpoint 246">
       <r>  -17.1179    1.0000 </r>
       <r>  -17.1179    1.0000 </r>
       <r>  -15.8441    1.0000 </r>
       <r>  -15.8441    1.0000 </r>
       <r>   -9.0786    1.0000 </r>
       <r>   -9.0786    1.0000 </r>
       <r>   -5.1889    1.0000 </r>
       <r>   -5.1889    1.0000 </r>
       <r>   -1.1158    0.0000 </r>
       <r>   -1.1158    0.0000 </r>
       <r>    4.6483    0.0000 </r>
       <r>    4.6483    0.0000 </r>
      </set>
      <set comment="kpoint 247">
       <r>  -17.0825    1.0000 </r>
       <r>  -17.0825    1.0000 </r>
       <r>  -15.8967    1.0000 </r>
       <r>  -15.8967    1.0000 </r>
       <r>   -9.0455    1.0000 </r>
       <r>   -9.0455    1.0000 </r>
       <r>   -5.1812    1.0000 </r>
       <r>   -5.1812    1.0000 </r>
       <r>   -1.1348    0.0000 </r>
       <r>   -1.1348    0.0000 </r>
       <r>    4.5995    0.0000 </r>
       <r>    4.5995    0.0000 </r>
      </set>
     </set>
    </set>
   </array>
  </eigenvalues>
  <separator name="orbital magnetization" >
   <v name="MAGDIPOLOUT">      0.00000000      0.00000000      0.00000000</v>
  </separator>
 </calculation>
 <structure name="finalpos" >
  <crystal>
   <varray name="basis" >
    <v>       4.26221054       0.00000000       0.00000000 </v>
    <v>       0.00000000       2.50381712       0.00000000 </v>
    <v>       0.00000000       0.00000000      19.75655332 </v>
   </varray>
   <i name="volume">    210.83790140 </i>
   <varray name="rec_basis" >
    <v>       0.23462004       0.00000000       0.00000000 </v>
    <v>       0.00000000       0.39939019       0.00000000 </v>
    <v>       0.00000000       0.00000000       0.05061612 </v>
   </varray>
  </crystal>
  <varray name="positions" >
   <v>       0.00038730      -0.00000000       0.00000000 </v>
   <v>       0.16627937       0.50000000      -0.00000000 </v>
   <v>       0.50038730       0.50000000       0.00000000 </v>
   <v>       0.66627937       0.00000000      -0.00000000 </v>
  </varray>
 </structure>
</modeling>
