 running on    8 total cores
 distrk:  each k-point on    8 cores,    1 groups
 distr:  one band on    2 cores,    4 groups
 using from now: INCAR     
 vasp.5.3.5 31Mar14 (build Mar 02 2015 18:14:16) complex                        
  
 POSCAR found type information on POSCAR  C 
 POSCAR found :  1 types and       4 ions
 LDA part: xc-table for Pade appr. of Perdew
 POSCAR, INCAR and KPOINTS ok, starting setup
 WARNING: small aliasing (wrap around) errors must be expected
 FFT: planning ...
 WAVECAR not read
 entering main loop
       N       E                     dE             d eps       ncg     rms          rms(c)
DAV:   1     0.188301034511E+03    0.18830E+03   -0.10615E+04  5928   0.275E+03
DAV:   2    -0.957815835575E+01   -0.19788E+03   -0.17624E+03 10456   0.260E+02
DAV:   3    -0.382558137331E+02   -0.28678E+02   -0.28093E+02  7372   0.119E+02    0.720E+00
RMM:   4    -0.376428985752E+02    0.61292E+00   -0.92840E+00  5928   0.263E+01    0.417E+00
RMM:   5    -0.369114475608E+02    0.73145E+00   -0.27362E+00  5931   0.113E+01    0.716E-01
RMM:   6    -0.369131294980E+02   -0.16819E-02   -0.82255E-02  6375   0.202E+00    0.512E-01
RMM:   7    -0.369040703878E+02    0.90591E-02   -0.32923E-02  5948   0.157E+00    0.336E-01
RMM:   8    -0.368987374775E+02    0.53329E-02   -0.70571E-03  5933   0.557E-01    0.135E-01
RMM:   9    -0.368984986521E+02    0.23883E-03   -0.20512E-02  5928   0.847E-01    0.159E-01
RMM:  10    -0.368983365954E+02    0.16206E-03   -0.24878E-03  5928   0.359E-01    0.286E-02
RMM:  11    -0.369007764069E+02   -0.24398E-02   -0.74530E-04  5931   0.181E-01    0.462E-02
RMM:  12    -0.369012227022E+02   -0.44630E-03   -0.22438E-04  5938   0.994E-02    0.582E-03
RMM:  13    -0.369014917545E+02   -0.26905E-03   -0.57171E-05  6004   0.423E-02    0.427E-03
RMM:  14    -0.369015735652E+02   -0.81811E-04   -0.10959E-05  5951   0.183E-02    0.177E-03
RMM:  15    -0.369015838335E+02   -0.10268E-04   -0.17381E-06  5997   0.767E-03    0.137E-03
RMM:  16    -0.369015961948E+02   -0.12361E-04   -0.82840E-07  5928   0.574E-03    0.785E-04
RMM:  17    -0.369016014067E+02   -0.52119E-05   -0.49851E-08  6108   0.153E-03    0.810E-04
RMM:  18    -0.369016025649E+02   -0.11582E-05   -0.68076E-08  5928   0.193E-03    0.796E-05
RMM:  19    -0.369016033453E+02   -0.78038E-06   -0.10950E-08  6055   0.511E-04    0.266E-05
RMM:  20    -0.369016034072E+02   -0.61914E-07   -0.84253E-10  4462   0.135E-04    0.240E-05
RMM:  21    -0.369016034248E+02   -0.17546E-07   -0.26439E-10  4411   0.994E-05    0.363E-06
RMM:  22    -0.369016034250E+02   -0.21748E-09   -0.73486E-12  3891   0.406E-05    0.180E-06
RMM:  23    -0.369016034256E+02   -0.61539E-09   -0.10861E-11  3511   0.348E-05    0.799E-07
RMM:  24    -0.369016034252E+02    0.46361E-09   -0.58069E-12  3079   0.286E-05    0.220E-07
RMM:  25    -0.369016034252E+02   -0.84583E-10   -0.40236E-12  2788   0.249E-05
   1 F= -.36901603E+02 E0= -.36901601E+02  d E =-.369016E+02
 BRION: g(F)=  0.165E-05 g(S)=  0.000E+00
 bond charge predicted
       N       E                     dE             d eps       ncg     rms          rms(c)
DAV:   1    -0.369016008446E+02    0.25806E-05   -0.22203E-04  6336   0.140E-01    0.290E-03
RMM:   2    -0.369016009979E+02   -0.15337E-06   -0.36681E-06  5943   0.169E-02    0.211E-03
RMM:   3    -0.369016009098E+02    0.88127E-07   -0.60515E-07  5973   0.629E-03    0.538E-04
RMM:   4    -0.369016008962E+02    0.13601E-07   -0.37610E-08  6071   0.153E-03    0.153E-04
RMM:   5    -0.369016008988E+02   -0.25975E-08   -0.28359E-09  6096   0.384E-04    0.693E-05
RMM:   6    -0.369016008981E+02    0.69826E-09   -0.41573E-10  5026   0.161E-04    0.674E-06
RMM:   7    -0.369016008980E+02    0.70713E-10   -0.20599E-11  3765   0.579E-05
   2 F= -.36901601E+02 E0= -.36901599E+02  d E =0.252721E-05
 BRION: g(F)=  0.275E-04 g(S)=  0.000E+00 retain N=  1 mean eig= 0.20
 eig:   0.197
 bond charge predicted
       N       E                     dE             d eps       ncg     rms          rms(c)
DAV:   1    -0.369016035947E+02   -0.26966E-05   -0.14307E-04  6544   0.113E-01    0.234E-03
RMM:   2    -0.369016036782E+02   -0.83566E-07   -0.22881E-06  5940   0.135E-02    0.169E-03
RMM:   3    -0.369016035977E+02    0.80493E-07   -0.38429E-07  5972   0.501E-03    0.415E-04
RMM:   4    -0.369016035936E+02    0.40941E-08   -0.22864E-08  6054   0.120E-03    0.123E-04
RMM:   5    -0.369016035918E+02    0.18393E-08   -0.18502E-09  5924   0.308E-04    0.562E-05
RMM:   6    -0.369016035922E+02   -0.38688E-09   -0.26641E-10  4245   0.132E-04    0.551E-06
RMM:   7    -0.369016035917E+02    0.46873E-09   -0.12533E-11  3740   0.571E-05    0.285E-06
RMM:   8    -0.369016035918E+02   -0.58549E-10   -0.16988E-11  3405   0.438E-05
   3 F= -.36901604E+02 E0= -.36901601E+02  d E =-.269375E-05
 BRION: g(F)=  0.461E-11 g(S)=  0.000E+00 retain N=  1 mean eig= 0.20
 eig:   0.197
 bond charge predicted
       N       E                     dE             d eps       ncg     rms          rms(c)
DAV:   1    -0.369016035913E+02    0.41734E-09    0.61051E-09  4764   0.585E-05    0.146E-06
RMM:   2    -0.369016035920E+02   -0.74965E-09    0.21411E-13  2300   0.206E-05    0.910E-07
RMM:   3    -0.369016035920E+02    0.65484E-10   -0.87948E-13  2118   0.205E-05    0.778E-08
RMM:   4    -0.369016035919E+02    0.40359E-10   -0.16146E-12  2014   0.202E-05    0.445E-08
RMM:   5    -0.369016035919E+02    0.28308E-10    0.68196E-14  1919   0.195E-05
   4 F= -.36901604E+02 E0= -.36901601E+02  d E =-.139607E-09
 BRION: g(F)=  0.325E-11 g(S)=  0.000E+00 retain N=  1 mean eig= 0.11
 eig:   0.107
 bond charge predicted
       N       E                     dE             d eps       ncg     rms          rms(c)
DAV:   1    -0.369016035916E+02    0.37051E-09    0.61293E-09  4488   0.273E-05    0.526E-07
RMM:   2    -0.369016035922E+02   -0.64051E-09    0.15798E-13  1406   0.933E-06    0.329E-07
RMM:   3    -0.369016035919E+02    0.27285E-09    0.95767E-14  1385   0.903E-06    0.167E-08
RMM:   4    -0.369016035919E+02    0.24443E-10   -0.21769E-13  1341   0.907E-06    0.114E-08
RMM:   5    -0.369016035919E+02    0.39336E-10   -0.32499E-13  1355   0.896E-06
   5 F= -.36901604E+02 E0= -.36901601E+02  d E =0.383125E-10
 BRION: g(F)=  0.217E-12 g(S)=  0.000E+00 retain N=  1 mean eig= 0.14
 eig:   0.144
 bond charge predicted
       N       E                     dE             d eps       ncg     rms          rms(c)
DAV:   1    -0.369016035913E+02    0.60277E-09    0.61335E-09  5156   0.130E-05    0.230E-07
RMM:   2    -0.369016035921E+02   -0.80456E-09   -0.13380E-13  1049   0.494E-06    0.142E-07
RMM:   3    -0.369016035920E+02    0.11426E-09    0.63982E-14  1013   0.488E-06    0.345E-09
RMM:   4    -0.369016035919E+02    0.10584E-09   -0.15214E-15   699   0.489E-06    0.174E-09
RMM:   5    -0.369016035922E+02   -0.27308E-09   -0.10156E-13   724   0.491E-06    0.158E-09
RMM:   6    -0.369016035921E+02    0.68894E-10    0.67600E-14   726   0.488E-06
   6 F= -.36901604E+02 E0= -.36901601E+02  d E =-.225214E-09
 BRION: g(F)=  0.128E-14 g(S)=  0.000E+00 retain N=  1 mean eig= 0.16
 eig:   0.157
 reached required accuracy - stopping structural energy minimisation
