gr                                      
           1
     4.262211    0.000000    0.000000
     0.000000    2.503817    0.000000
     0.000000    0.000000   19.756553
   C 
   4
Direct configuration=     1
   0.00039382  0.00000000  0.00000000
   0.16627284  0.50000000  0.00000000
   0.50039382  0.50000000  0.00000000
   0.66627284  0.00000000  0.00000000
Direct configuration=     2
   0.00036068 -0.00000000  0.00000000
   0.16630598  0.50000000 -0.00000000
   0.50036068  0.50000000  0.00000000
   0.66630598 -0.00000000 -0.00000000
Direct configuration=     3
   0.00038729 -0.00000000  0.00000000
   0.16627937  0.50000000 -0.00000000
   0.50038729  0.50000000  0.00000000
   0.66627937  0.00000000 -0.00000000
Direct configuration=     4
   0.00038731 -0.00000000  0.00000000
   0.16627936  0.50000000 -0.00000000
   0.50038731  0.50000000  0.00000000
   0.66627936  0.00000000 -0.00000000
Direct configuration=     5
   0.00038730 -0.00000000  0.00000000
   0.16627937  0.50000000 -0.00000000
   0.50038730  0.50000000  0.00000000
   0.66627937  0.00000000 -0.00000000
Direct configuration=     6
   0.00038730 -0.00000000  0.00000000
   0.16627937  0.50000000 -0.00000000
   0.50038730  0.50000000  0.00000000
   0.66627937  0.00000000 -0.00000000
