    4    4  400    1
  0.5270948E+02  0.4336719E-09  0.2460940E-09  0.1975543E-08  0.5000000E-15
  1.000000000000000E-004
  CAR 
 gr                                      
     16    247     12
 
  0.0000000E+00  0.0000000E+00  0.0000000E+00  0.1157407E-02
    1      -22.150957
    2      -17.165018
    3      -15.892147
    4      -10.279635
    5       -8.944529
    6       -5.920702
    7       -5.749372
    8       -5.246260
    9       -1.143606
   10        0.536165
   11        1.335526
   12        1.724586
 
  0.4166667E-01  0.0000000E+00  0.0000000E+00  0.2314815E-02
    1      -22.141003
    2      -17.299566
    3      -15.742502
    4      -10.267790
    5       -8.934787
    6       -5.964385
    7       -5.770431
    8       -5.308037
    9       -1.065983
   10        0.549644
   11        1.349193
   12        1.738422
 
  0.8333333E-01  0.0000000E+00  0.0000000E+00  0.2314815E-02
    1      -22.111145
    2      -17.597589
    3      -15.399270
    4      -10.232276
    5       -8.905611
    6       -6.093463
    7       -5.832486
    8       -5.480332
    9       -0.846316
   10        0.590086
   11        1.390189
   12        1.779931
 
  0.1250000E+00  0.0000000E+00  0.0000000E+00  0.2314815E-02
    1      -22.061405
    2      -17.946726
    3      -14.975050
    4      -10.173149
    5       -8.857155
    6       -6.302397
    7       -5.932349
    8       -5.733561
    9       -0.514677
   10        0.657506
   11        1.458502
   12        1.849115
 
  0.1666667E+00  0.0000000E+00  0.0000000E+00  0.2314815E-02
    1      -21.991815
    2      -18.305703
    3      -14.511527
    4      -10.090508
    5       -8.789679
    6       -6.583020
    7       -6.065244
    8       -6.037483
    9       -0.102135
   10        0.751919
   11        1.554106
   12        1.945979
 
  0.2083333E+00  0.0000000E+00  0.0000000E+00  0.2314815E-02
    1      -21.902426
    2      -18.659977
    3      -14.023838
    4       -9.984493
    5       -8.703559
    6       -6.925716
    7       -6.368882
    8       -6.225439
    9        0.366896
   10        0.873332
   11        1.676963
   12        2.070523
 
  0.2500000E+00  0.0000000E+00  0.0000000E+00  0.2314815E-02
    1      -21.793302
    2      -19.003428
    3      -13.518881
    4       -9.855295
    5       -8.599297
    6       -7.320479
    7       -6.711884
    8       -6.406839
    9        0.874938
   10        1.021741
   11        1.827013
   12        2.222748
 
  0.2916667E+00  0.0000000E+00  0.0000000E+00  0.2314815E-02
    1      -21.664525
    2      -19.333021
    3      -13.000696
    4       -9.703161
    5       -8.477541
    6       -7.757693
    7       -7.055999
    8       -6.603465
    9        1.197127
   10        1.409389
   11        2.004161
   12        2.402653
 
  0.3333333E+00  0.0000000E+00  0.0000000E+00  0.2314815E-02
    1      -21.516195
    2      -19.647039
    3      -12.472249
    4       -9.528404
    5       -8.339100
    6       -8.228580
    7       -7.394255
    8       -6.809767
    9        1.399459
   10        1.960415
   11        2.208255
   12        2.610232
 
  0.3750000E+00  0.0000000E+00  0.0000000E+00  0.2314815E-02
    1      -21.348431
    2      -19.944401
    3      -11.936153
    4       -9.331417
    5       -8.725390
    6       -8.184974
    7       -7.721919
    8       -7.020786
    9        1.628685
   10        2.439007
   11        2.518762
   12        2.845478
 
  0.4166667E+00  0.0000000E+00  0.0000000E+00  0.2314815E-02
    1      -21.161377
    2      -20.224372
    3      -11.395009
    4       -9.241420
    5       -9.112693
    6       -8.035687
    7       -8.016385
    8       -7.232208
    9        1.884740
   10        2.695804
   11        3.069327
   12        3.108379
 
  0.4583333E+00  0.0000000E+00  0.0000000E+00  0.2314815E-02
    1      -20.955208
    2      -20.486417
    3      -10.851601
    4       -9.770935
    5       -8.872853
    6       -8.333190
    7       -7.834823
    8       -7.440346
    9        2.167533
   10        2.812791
   11        2.976927
   12        3.398948
 
  0.5000000E+00  0.0000000E+00  0.0000000E+00  0.1157407E-02
    1      -20.730136
    2      -20.730136
    3      -10.309051
    4      -10.309051
    5       -8.612683
    6       -8.612683
    7       -7.642086
    8       -7.642086
    9        2.476942
   10        2.476942
   11        3.274662
   12        3.274662
 
  0.0000000E+00  0.2777778E-01  0.0000000E+00  0.2314815E-02
    1      -22.137191
    2      -17.153123
    3      -15.880435
    4      -10.263255
    5       -9.007169
    6       -5.948407
    7       -5.807557
    8       -5.229591
    9       -1.146624
   10        0.554826
   11        1.354396
   12        1.743690
 
  0.4166667E-01  0.2777778E-01  0.0000000E+00  0.4629630E-02
    1      -22.127238
    2      -17.287534
    3      -15.730975
    4      -10.251414
    5       -8.997413
    6       -5.994024
    7       -5.826050
    8       -5.291495
    9       -1.068984
   10        0.568305
   11        1.368062
   12        1.757526
 
  0.8333333E-01  0.2777778E-01  0.0000000E+00  0.4629630E-02
    1      -22.097385
    2      -17.585320
    3      -15.388122
    4      -10.215912
    5       -8.968196
    6       -6.125477
    7       -5.883949
    8       -5.464083
    9       -0.849348
   10        0.608748
   11        1.409057
   12        1.799035
 
  0.1250000E+00  0.2777778E-01  0.0000000E+00  0.4629630E-02
    1      -22.047652
    2      -17.934237
    3      -14.964364
    4      -10.156805
    5       -8.919669
    6       -6.334221
    7       -5.981366
    8       -5.717623
    9       -0.517942
   10        0.676170
   11        1.477366
   12        1.868221
 
  0.1666667E+00  0.2777778E-01  0.0000000E+00  0.4629630E-02
    1      -21.978073
    2      -18.293026
    3      -14.501380
    4      -10.074191
    5       -8.852086
    6       -6.612274
    7       -6.113715
    8       -6.021783
    9       -0.105925
   10        0.770585
   11        1.572965
   12        1.965085
 
  0.2083333E+00  0.2777778E-01  0.0000000E+00  0.4629630E-02
    1      -21.888699
    2      -18.647137
    3      -14.014321
    4       -9.968212
    5       -8.765816
    6       -6.951009
    7       -6.353325
    8       -6.274608
    9        0.362267
   10        0.892003
   11        1.695816
   12        2.089630
 
  0.2500000E+00  0.2777778E-01  0.0000000E+00  0.4629630E-02
    1      -21.779593
    2      -18.990448
    3      -13.510107
    4       -9.839059
    5       -8.661355
    6       -7.341256
    7       -6.696391
    8       -6.457365
    9        0.869177
   10        1.040419
   11        1.845859
   12        2.241857
 
  0.2916667E+00  0.2777778E-01  0.0000000E+00  0.4629630E-02
    1      -21.650838
    2      -19.319922
    3      -12.992796
    4       -9.686976
    5       -8.539335
    6       -7.773944
    7       -7.040510
    8       -6.655616
    9        1.215814
   10        1.402241
   11        2.023003
   12        2.421765
 
  0.3333333E+00  0.2777778E-01  0.0000000E+00  0.4629630E-02
    1      -21.502535
    2      -19.633835
    3      -12.465385
    4       -9.512278
    5       -8.400553
    6       -8.240597
    7       -7.378731
    8       -6.863575
    9        1.418155
   10        1.951699
   11        2.227093
   12        2.629347
 
  0.3750000E+00  0.2777778E-01  0.0000000E+00  0.4629630E-02
    1      -21.334803
    2      -19.931108
    3      -11.930518
    4       -9.315357
    5       -8.733608
    6       -8.245992
    7       -7.706334
    8       -7.076148
    9        1.647392
   10        2.457849
   11        2.508489
   12        2.864598
 
  0.4166667E+00  0.2777778E-01  0.0000000E+00  0.4629630E-02
    1      -21.147786
    2      -20.211000
    3      -11.390832
    4       -9.246317
    5       -9.096706
    6       -8.076858
    7       -8.020027
    8       -7.288958
    9        1.903460
   10        2.714661
   11        3.058494
   12        3.127505
 
  0.4583333E+00  0.2777778E-01  0.0000000E+00  0.4629630E-02
    1      -20.941661
    2      -20.472978
    3      -10.849158
    4       -9.772977
    5       -8.856945
    6       -8.317448
    7       -7.894615
    8       -7.498294
    9        2.186269
   10        2.831583
   11        2.995808
   12        3.418087
 
  0.5000000E+00  0.2777778E-01  0.0000000E+00  0.2314815E-02
    1      -20.716639
    2      -20.716639
    3      -10.308662
    4      -10.308662
    5       -8.596857
    6       -8.596857
    7       -7.701043
    8       -7.701043
    9        2.495700
   10        2.495700
   11        3.293353
   12        3.293353
 
  0.0000000E+00  0.5555556E-01  0.0000000E+00  0.2314815E-02
    1      -22.095902
    2      -17.117441
    3      -15.845446
    4      -10.214148
    5       -9.190038
    6       -6.031004
    7       -5.977388
    8       -5.179608
    9       -1.156496
   10        0.610810
   11        1.410999
   12        1.801003
 
  0.4166667E-01  0.5555556E-01  0.0000000E+00  0.4629630E-02
    1      -22.085953
    2      -17.251449
    3      -15.696532
    4      -10.202320
    5       -9.180237
    6       -6.090808
    7       -5.979839
    8       -5.241900
    9       -1.078797
   10        0.624289
   11        1.424663
   12        1.814839
 
  0.8333333E-01  0.5555556E-01  0.0000000E+00  0.4629630E-02
    1      -22.056114
    2      -17.548530
    3      -15.354822
    4      -10.166854
    5       -9.150884
    6       -6.231700
    7       -6.023053
    8       -5.415393
    9       -0.859250
   10        0.664732
   11        1.465651
   12        1.856349
 
  0.1250000E+00  0.5555556E-01  0.0000000E+00  0.4629630E-02
    1      -22.006403
    2      -17.896791
    3      -14.932466
    4      -10.107807
    5       -9.102118
    6       -6.438927
    7       -6.114193
    8       -5.669885
    9       -0.528550
   10        0.732156
   11        1.533948
   12        1.925535
 
  0.1666667E+00  0.5555556E-01  0.0000000E+00  0.4629630E-02
    1      -21.936859
    2      -18.255012
    3      -14.471127
    4      -10.025279
    5       -9.034179
    6       -6.708064
    7       -6.246190
    8       -5.974768
    9       -0.118139
   10        0.826578
   11        1.629532
   12        2.022402
 
  0.2083333E+00  0.5555556E-01  0.0000000E+00  0.4629630E-02
    1      -21.847528
    2      -18.608636
    3      -13.986000
    4       -9.919409
    5       -8.947415
    6       -7.033733
    7       -6.410411
    8       -6.306746
    9        0.347491
   10        0.948006
   11        1.752364
   12        2.146950
 
  0.2500000E+00  0.5555556E-01  0.0000000E+00  0.4629630E-02
    1      -21.738477
    2      -18.951527
    3      -13.484063
    4       -9.790389
    5       -8.842289
    6       -7.409269
    7       -6.650002
    8       -6.598426
    9        0.850937
   10        1.096437
   11        1.902387
   12        2.299182
 
  0.2916667E+00  0.5555556E-01  0.0000000E+00  0.4629630E-02
    1      -21.609791
    2      -19.280639
    3      -12.969451
    4       -9.638463
    5       -8.719397
    6       -7.827282
    7       -6.994131
    8       -6.802639
    9        1.271852
   10        1.379753
   11        2.079513
   12        2.479096
 
  0.3333333E+00  0.5555556E-01  0.0000000E+00  0.4629630E-02
    1      -21.461568
    2      -19.594240
    3      -12.445243
    4       -9.463946
    5       -8.579488
    6       -8.280269
    7       -7.332241
    8       -7.016503
    9        1.474216
   10        1.924383
   11        2.283594
   12        2.686688
 
  0.3750000E+00  0.5555556E-01  0.0000000E+00  0.4629630E-02
    1      -21.293931
    2      -19.891242
    3      -11.914189
    4       -9.267227
    5       -8.761079
    6       -8.423490
    7       -7.659657
    8       -7.234512
    9        1.703480
   10        2.476276
   11        2.514360
   12        2.921950
 
  0.4166667E+00  0.5555556E-01  0.0000000E+00  0.4629630E-02
    1      -21.107026
    2      -20.170901
    3      -11.379051
    4       -9.263178
    5       -9.048799
    6       -8.252542
    7       -7.973119
    8       -7.452101
    9        1.959578
   10        2.771219
   11        3.023743
   12        3.184873
 
  0.4583333E+00  0.5555556E-01  0.0000000E+00  0.4629630E-02
    1      -20.901031
    2      -20.432676
    3      -10.842800
    4       -9.780764
    5       -8.809277
    6       -8.270288
    7       -8.068034
    8       -7.665514
    9        2.242423
   10        2.887862
   11        3.052445
   12        3.476320
 
  0.5000000E+00  0.5555556E-01  0.0000000E+00  0.2314815E-02
    1      -20.676160
    2      -20.676160
    3      -10.308769
    4      -10.308769
    5       -8.549440
    6       -8.549440
    7       -7.871668
    8       -7.871668
    9        2.551902
   10        2.551902
   11        3.349321
   12        3.349321
 
  0.0000000E+00  0.8333333E-01  0.0000000E+00  0.2314815E-02
    1      -22.027125
    2      -17.057985
    3      -15.787638
    4      -10.132419
    5       -9.479397
    6       -6.246146
    7       -6.166948
    8       -5.096372
    9       -1.175670
   10        0.704119
   11        1.505314
   12        1.896527
 
  0.4166667E-01  0.8333333E-01  0.0000000E+00  0.4629630E-02
    1      -22.017184
    2      -17.191346
    3      -15.639626
    4      -10.120612
    5       -9.469507
    6       -6.306122
    7       -6.166253
    8       -5.159352
    9       -1.097854
   10        0.717597
   11        1.518974
   12        1.910363
 
  0.8333333E-01  0.8333333E-01  0.0000000E+00  0.4629630E-02
    1      -21.987367
    2      -17.487274
    3      -15.299835
    4      -10.085208
    5       -9.439877
    6       -6.445459
    7       -6.202588
    8       -5.334433
    9       -0.878429
   10        0.758037
   11        1.559948
   12        1.951873
 
  0.1250000E+00  0.8333333E-01  0.0000000E+00  0.4629630E-02
    1      -21.937697
    2      -17.834448
    3      -14.879873
    4      -10.026266
    5       -9.390631
    6       -6.643449
    7       -6.290355
    8       -5.590583
    9       -0.548930
   10        0.825458
   11        1.628223
   12        2.021059
 
  0.1666667E+00  0.8333333E-01  0.0000000E+00  0.4629630E-02
    1      -21.868208
    2      -18.191723
    3      -14.421374
    4       -9.943883
    5       -9.321980
    6       -6.894833
    7       -6.424982
    8       -5.896714
    9       -0.141285
   10        0.919879
   11        1.723778
   12        2.117927
 
  0.2083333E+00  0.8333333E-01  0.0000000E+00  0.4629630E-02
    1      -21.778951
    2      -18.544530
    3      -13.939612
    4       -9.838201
    5       -9.234225
    6       -7.196203
    7       -6.597472
    8       -6.229433
    9        0.319918
   10        1.041312
   11        1.846575
   12        2.242478
 
  0.2500000E+00  0.8333333E-01  0.0000000E+00  0.4629630E-02
    1      -21.669993
    2      -18.886720
    3      -13.441672
    4       -9.709410
    5       -9.127769
    6       -7.544046
    7       -6.797493
    8       -6.573002
    9        0.817381
   10        1.189754
   11        1.996560
   12        2.394716
 
  0.2916667E+00  0.8333333E-01  0.0000000E+00  0.4629630E-02
    1      -21.541419
    2      -19.215225
    3      -12.931826
    4       -9.557754
    5       -9.003132
    6       -7.933983
    7       -7.015237
    8       -6.917136
    9        1.338847
   10        1.365186
   11        2.173650
   12        2.574638
 
  0.3333333E+00  0.8333333E-01  0.0000000E+00  0.4629630E-02
    1      -21.393330
    2      -19.528301
    3      -12.413323
    4       -9.383547
    5       -8.860964
    6       -8.360629
    7       -7.255042
    8       -7.242427
    9        1.567573
   10        1.875057
   11        2.377710
   12        2.782240
 
  0.3750000E+00  0.8333333E-01  0.0000000E+00  0.4629630E-02
    1      -21.225853
    2      -19.824850
    3      -11.889117
    4       -9.187177
    5       -8.817949
    6       -8.702070
    7       -7.582126
    8       -7.472547
    9        1.796862
   10        2.418127
   11        2.608489
   12        3.017517
 
  0.4166667E+00  0.8333333E-01  0.0000000E+00  0.4629630E-02
    1      -21.039135
    2      -20.104116
    3      -11.362216
    4       -9.299767
    5       -8.969132
    6       -8.527441
    7       -7.895184
    8       -7.700605
    9        2.052987
   10        2.865432
   11        2.959083
   12        3.280458
 
  0.4583333E+00  0.8333333E-01  0.0000000E+00  0.4629630E-02
    1      -20.833358
    2      -20.365551
    3      -10.835890
    4       -9.800183
    5       -8.730023
    6       -8.338292
    7       -8.191915
    8       -7.922782
    9        2.335861
   10        2.981398
   11        3.146818
   12        3.463895
 
  0.5000000E+00  0.8333333E-01  0.0000000E+00  0.2314815E-02
    1      -20.608741
    2      -20.608741
    3      -10.313816
    4      -10.313816
    5       -8.470622
    6       -8.470622
    7       -8.136120
    8       -8.136120
    9        2.645379
   10        2.645379
   11        3.442043
   12        3.442043
 
  0.0000000E+00  0.1111111E+00  0.0000000E+00  0.2314815E-02
    1      -21.930922
    2      -16.974775
    3      -15.707877
    4      -10.018246
    5       -9.856159
    6       -6.596515
    7       -6.353682
    8       -4.979992
    9       -1.208218
   10        0.834757
   11        1.637301
   12        2.030264
 
  0.4166667E-01  0.1111111E+00  0.0000000E+00  0.4629630E-02
    1      -21.920992
    2      -17.107281
    3      -15.561104
    4      -10.006469
    5       -9.846109
    6       -6.645127
    7       -6.360440
    8       -5.044023
    9       -1.130186
   10        0.848230
   11        1.650953
   12        2.044099
 
  0.8333333E-01  0.1111111E+00  0.0000000E+00  0.4629630E-02
    1      -21.891208
    2      -17.401648
    3      -15.224040
    4       -9.971157
    5       -9.815988
    6       -6.773789
    7       -6.396291
    8       -5.221517
    9       -0.910859
   10        0.888659
   11        1.691906
   12        2.085607
 
  0.1250000E+00  0.1111111E+00  0.0000000E+00  0.4629630E-02
    1      -21.841593
    2      -17.747317
    3      -14.807578
    4       -9.912367
    5       -9.765888
    6       -6.960239
    7       -6.478745
    8       -5.480149
    9       -0.583067
   10        0.956062
   11        1.760146
   12        2.154791
 
  0.1666667E+00  0.1111111E+00  0.0000000E+00  0.4629630E-02
    1      -21.772181
    2      -18.103265
    3      -14.353307
    4       -9.830197
    5       -9.695963
    6       -7.192831
    7       -6.611701
    8       -5.788116
    9       -0.179464
   10        1.050465
   11        1.855651
   12        2.251657
 
  0.2083333E+00  0.1111111E+00  0.0000000E+00  0.4629630E-02
    1      -21.683028
    2      -18.454923
    3      -13.876618
    4       -9.724789
    5       -9.606434
    6       -7.465949
    7       -6.790475
    8       -6.121901
    9        0.275247
   10        1.171883
   11        1.978388
   12        2.376209
 
  0.2500000E+00  0.1111111E+00  0.0000000E+00  0.4629630E-02
    1      -21.574200
    2      -18.796119
    3      -13.384784
    4       -9.596333
    5       -9.497589
    6       -7.777118
    7       -7.005417
    8       -6.465901
    9        0.763932
   10        1.320318
   11        2.128307
   12        2.528449
 
  0.2916667E+00  0.1111111E+00  0.0000000E+00  0.4629630E-02
    1      -21.445783
    2      -19.123766
    3      -12.882311
    4       -9.445074
    5       -9.369794
    6       -8.125336
    7       -7.244511
    8       -6.810009
    9        1.274602
   10        1.495750
   11        2.305331
   12        2.708377
 
  0.3333333E+00  0.1111111E+00  0.0000000E+00  0.4629630E-02
    1      -21.297885
    2      -19.436101
    3      -12.372751
    4       -9.271321
    5       -9.223500
    6       -8.509473
    7       -7.495858
    8       -7.147590
    9        1.698142
   10        1.798364
   11        2.509343
   12        2.915989
 
  0.3750000E+00  0.1111111E+00  0.0000000E+00  0.4629630E-02
    1      -21.130631
    2      -19.732007
    3      -11.859442
    4       -9.075464
    5       -9.059249
    6       -8.927041
    7       -7.749609
    8       -7.474165
    9        1.927437
   10        2.327996
   11        2.740127
   12        3.151278
 
  0.4166667E+00  0.1111111E+00  0.0000000E+00  0.4629630E-02
    1      -20.944176
    2      -20.010719
    3      -11.345868
    4       -9.373885
    5       -8.877703
    6       -8.857983
    7       -7.998705
    8       -7.786611
    9        2.183565
   10        2.856603
   11        2.997199
   12        3.414236
 
  0.4583333E+00  0.1111111E+00  0.0000000E+00  0.4629630E-02
    1      -20.738707
    2      -20.271675
    3      -10.835883
    4       -9.844707
    5       -8.679668
    6       -8.619485
    7       -8.238533
    8       -8.082686
    9        2.466438
   10        3.111963
   11        3.278888
   12        3.371753
 
  0.5000000E+00  0.1111111E+00  0.0000000E+00  0.2314815E-02
    1      -20.514449
    2      -20.514449
    3      -10.333852
    4      -10.333852
    5       -8.466161
    6       -8.466161
    7       -8.360729
    8       -8.360729
    9        2.775950
   10        2.775950
   11        3.568813
   12        3.568814
 
  0.0000000E+00  0.1388889E+00  0.0000000E+00  0.2314815E-02
    1      -21.807379
    2      -16.867841
    3      -15.607626
    4      -10.299341
    5       -9.871885
    6       -7.010136
    7       -6.587711
    8       -4.830620
    9       -1.259747
   10        1.002718
   11        1.806902
   12        2.202215
 
  0.4166667E-01  0.1388889E+00  0.0000000E+00  0.4629630E-02
    1      -21.797463
    2      -16.999345
    3      -15.462412
    4      -10.289016
    5       -9.860150
    6       -7.056631
    7       -6.591957
    8       -4.896183
    9       -1.181318
   10        1.016183
   11        1.820542
   12        2.216049
 
  0.8333333E-01  0.1388889E+00  0.0000000E+00  0.4629630E-02
    1      -21.767721
    2      -17.291801
    3      -15.128958
    4      -10.258052
    5       -9.824961
    6       -7.182172
    7       -6.617634
    8       -5.077143
    9       -0.961930
   10        1.056587
   11        1.861460
   12        2.257552
 
  0.1250000E+00  0.1388889E+00  0.0000000E+00  0.4629630E-02
    1      -21.718177
    2      -17.635564
    3      -14.717322
    4      -10.206481
    5       -9.766379
    6       -7.363974
    7       -6.684420
    8       -5.339271
    9       -0.636321
   10        1.123953
   11        1.929643
   12        2.326730
 
  0.1666667E+00  0.1388889E+00  0.0000000E+00  0.4629630E-02
    1      -21.648868
    2      -17.989803
    3      -14.269038
    4      -10.134351
    5       -9.684499
    6       -7.586547
    7       -6.802350
    8       -5.649758
    9       -0.238145
   10        1.218311
   11        2.025068
   12        2.423589
 
  0.2083333E+00  0.1388889E+00  0.0000000E+00  0.4629630E-02
    1      -21.559848
    2      -18.339966
    3      -13.799689
    4      -10.041722
    5       -9.579465
    6       -7.841000
    7       -6.972453
    8       -5.984959
    9        0.207786
   10        1.339683
   11        2.147705
   12        2.548135
 
  0.2500000E+00  0.1388889E+00  0.0000000E+00  0.4629630E-02
    1      -21.451187
    2      -18.679867
    3      -13.316860
    4       -9.928654
    5       -9.451467
    6       -8.122713
    7       -7.189365
    8       -6.329486
    9        0.684605
   10        1.488076
   11        2.297505
   12        2.700373
 
  0.2916667E+00  0.1388889E+00  0.0000000E+00  0.4629630E-02
    1      -21.322975
    2      -19.006394
    3      -12.825489
    4       -9.795194
    5       -9.300750
    6       -8.430213
    7       -7.443094
    8       -6.673497
    9        1.180705
   10        1.663475
   11        2.474405
   12        2.880302
 
  0.3333333E+00  0.1388889E+00  0.0000000E+00  0.4629630E-02
    1      -21.175321
    2      -19.317761
    3      -12.329702
    4       -9.641357
    5       -9.127621
    6       -8.764394
    7       -7.720656
    8       -7.010577
    9        1.687629
   10        1.865838
   11        2.678307
   12        3.087919
 
  0.3750000E+00  0.1388889E+00  0.0000000E+00  0.4629630E-02
    1      -21.008357
    2      -19.612830
    3      -11.833578
    4       -9.467107
    5       -9.127288
    6       -8.932467
    7       -8.008080
    8       -7.336411
    9        2.095105
   10        2.198754
   11        2.909050
   12        3.323217
 
  0.4166667E+00  0.1388889E+00  0.0000000E+00  0.4629630E-02
    1      -20.822244
    2      -19.890818
    3      -11.341550
    4       -9.520266
    5       -9.272355
    6       -8.715765
    7       -8.292808
    8       -7.647986
    9        2.351199
   10        2.708434
   11        3.166283
   12        3.586187
 
  0.4583333E+00  0.1388889E+00  0.0000000E+00  0.4629630E-02
    1      -20.617175
    2      -20.151150
    3      -10.858608
    4       -9.942440
    5       -9.057012
    6       -8.565630
    7       -8.478111
    8       -7.943136
    9        2.634025
   10        3.210915
   11        3.279388
   12        3.448574
 
  0.5000000E+00  0.1388889E+00  0.0000000E+00  0.2314815E-02
    1      -20.393384
    2      -20.393384
    3      -10.390303
    4      -10.390303
    5       -8.821175
    6       -8.821175
    7       -8.220252
    8       -8.220252
    9        2.943468
   10        2.943468
   11        3.670218
   12        3.670219
 
  0.0000000E+00  0.1666667E+00  0.0000000E+00  0.2314815E-02
    1      -21.656613
    2      -16.737222
    3      -15.489330
    4      -10.788268
    5       -9.693678
    6       -7.470022
    7       -6.864709
    8       -4.648458
    9       -1.337168
   10        1.207983
   11        2.014034
   12        2.412381
 
  0.4166667E-01  0.1666667E+00  0.0000000E+00  0.4629630E-02
    1      -21.646714
    2      -16.867671
    3      -15.345987
    4      -10.777472
    5       -9.681997
    6       -7.516773
    7       -6.863593
    8       -4.716231
    9       -1.257994
   10        1.221436
   11        2.027656
   12        2.426213
 
  0.8333333E-01  0.1666667E+00  0.0000000E+00  0.4629630E-02
    1      -21.617024
    2      -17.157959
    3      -15.017197
    4      -10.745055
    5       -9.646971
    6       -7.643381
    7       -6.873442
    8       -4.902093
    9       -1.038096
   10        1.261802
   11        2.068517
   12        2.467710
 
  0.1250000E+00  0.1666667E+00  0.0000000E+00  0.4629630E-02
    1      -21.567568
    2      -17.499437
    3      -14.612169
    4      -10.690928
    5       -9.588661
    6       -7.825674
    7       -6.916877
    8       -5.169015
    9       -0.714999
   10        1.329108
   11        2.136605
   12        2.536876
 
  0.1666667E+00  0.1666667E+00  0.0000000E+00  0.4629630E-02
    1      -21.498383
    2      -17.851576
    3      -14.172395
    4      -10.614922
    5       -9.507164
    6       -8.045585
    7       -7.008799
    8       -5.482837
    9       -0.323678
   10        1.423386
   11        2.231896
   12        2.633720
 
  0.2083333E+00  0.1666667E+00  0.0000000E+00  0.4629630E-02
    1      -21.409526
    2      -18.199883
    3      -13.713803
    4      -10.516757
    5       -9.402623
    6       -8.291890
    7       -7.155156
    8       -5.819820
    9        0.111023
   10        1.544669
   11        2.354355
   12        2.758251
 
  0.2500000E+00  0.1666667E+00  0.0000000E+00  0.4629630E-02
    1      -21.301072
    2      -18.538168
    3      -13.244575
    4      -10.395993
    5       -9.275230
    6       -8.557818
    7       -7.355174
    8       -6.164923
    9        0.572693
   10        1.692973
   11        2.503937
   12        2.910475
 
  0.2916667E+00  0.1666667E+00  0.0000000E+00  0.4629630E-02
    1      -21.173111
    2      -18.863296
    3      -12.770501
    4      -10.251962
    5       -9.125229
    6       -8.839705
    7       -7.602993
    8       -6.508689
    9        1.050282
   10        1.868288
   11        2.680579
   12        3.090395
 
  0.3333333E+00  0.1666667E+00  0.0000000E+00  0.4629630E-02
    1      -21.025759
    2      -19.173453
    3      -12.296866
    4      -10.083696
    5       -9.136506
    6       -8.952928
    7       -7.888848
    8       -6.845009
    9        1.535905
   10        2.070576
   11        2.884199
   12        3.298010
 
  0.3750000E+00  0.1666667E+00  0.0000000E+00  0.4629630E-02
    1      -20.859155
    2      -19.467478
    3      -11.829237
    4       -9.889886
    5       -9.449613
    6       -8.758710
    7       -8.200068
    8       -7.169779
    9        2.023549
   10        2.299770
   11        3.114690
   12        3.533311
 
  0.4166667E+00  0.1666667E+00  0.0000000E+00  0.4629630E-02
    1      -20.673467
    2      -19.744564
    3      -11.373753
    4       -9.782506
    5       -9.668993
    6       -8.543046
    7       -8.522164
    8       -7.480140
    9        2.508342
   10        2.555783
   11        3.371900
   12        3.796288
 
  0.4583333E+00  0.1666667E+00  0.0000000E+00  0.4629630E-02
    1      -20.468895
    2      -20.004117
    3      -10.936871
    4      -10.139637
    5       -9.419755
    6       -8.840451
    7       -8.306525
    8       -7.774019
    9        2.838507
   10        2.986114
   11        3.483550
   12        3.655430
 
  0.5000000E+00  0.1666667E+00  0.0000000E+00  0.2314815E-02
    1      -20.245681
    2      -20.245681
    3      -10.524358
    4      -10.524358
    5       -9.142396
    6       -9.142396
    7       -8.049875
    8       -8.049875
    9        3.147813
   10        3.147813
   11        3.453079
   12        3.453079
 