       N       E                     dE             d eps       ncg     rms          rms(c)
DAV:   1     0.188027000676E+03    0.18803E+03   -0.10572E+04  5928   0.274E+03
DAV:   2    -0.875836295687E+01   -0.19679E+03   -0.17387E+03 10320   0.259E+02
DAV:   3    -0.381851160194E+02   -0.29427E+02   -0.28768E+02  7352   0.119E+02    0.718E+00
RMM:   4    -0.376421694483E+02    0.54295E+00   -0.98543E+00  5929   0.268E+01    0.417E+00
RMM:   5    -0.369107240623E+02    0.73145E+00   -0.27833E+00  5932   0.114E+01    0.720E-01
RMM:   6    -0.369129573701E+02   -0.22333E-02   -0.88784E-02  6380   0.203E+00    0.509E-01
RMM:   7    -0.369038496801E+02    0.91077E-02   -0.32294E-02  5947   0.156E+00    0.333E-01
RMM:   8    -0.368987249493E+02    0.51247E-02   -0.66488E-03  5934   0.540E-01    0.137E-01
RMM:   9    -0.368983736938E+02    0.35126E-03   -0.20280E-02  5928   0.842E-01    0.154E-01
RMM:  10    -0.368983241888E+02    0.49505E-04   -0.24121E-03  5928   0.355E-01    0.293E-02
RMM:  11    -0.369007312927E+02   -0.24071E-02   -0.66095E-04  5933   0.167E-01    0.431E-02
RMM:  12    -0.369011994282E+02   -0.46814E-03   -0.20933E-04  5942   0.950E-02    0.495E-03
RMM:  13    -0.369014429129E+02   -0.24348E-03   -0.47354E-05  6028   0.375E-02    0.358E-03
RMM:  14    -0.369015248289E+02   -0.81916E-04   -0.10334E-05  5961   0.163E-02    0.139E-03
RMM:  15    -0.369015346133E+02   -0.97844E-05   -0.15314E-06  5989   0.699E-03    0.145E-03
RMM:  16    -0.369015468748E+02   -0.12262E-04   -0.10132E-06  5928   0.656E-03    0.107E-03
RMM:  17    -0.369015517889E+02   -0.49141E-05   -0.84779E-08  6040   0.179E-03    0.640E-04
RMM:  18    -0.369015528570E+02   -0.10681E-05   -0.53000E-08  5929   0.177E-03    0.125E-04
RMM:  19    -0.369015535833E+02   -0.72633E-06   -0.99426E-09  6083   0.499E-04    0.191E-05
RMM:  20    -0.369015536291E+02   -0.45801E-07   -0.79986E-10  4571   0.147E-04    0.235E-05
RMM:  21    -0.369015536457E+02   -0.16581E-07   -0.22699E-10  4353   0.864E-05    0.667E-06
RMM:  22    -0.369015536461E+02   -0.42201E-09   -0.12717E-11  3900   0.493E-05    0.208E-06
RMM:  23    -0.369015536466E+02   -0.52080E-09   -0.18043E-11  3463   0.376E-05    0.184E-06
RMM:  24    -0.369015536467E+02   -0.33083E-10   -0.54550E-12  3017   0.274E-05
   1 F= -.36901554E+02 E0= -.36901551E+02  d E =-.369016E+02
       N       E                     dE             d eps       ncg     rms          rms(c)
DAV:   1    -0.369015520868E+02    0.15598E-05   -0.14214E-04  6360   0.112E-01    0.229E-03
RMM:   2    -0.369015521855E+02   -0.98680E-07   -0.22840E-06  5952   0.134E-02    0.166E-03
RMM:   3    -0.369015521303E+02    0.55141E-07   -0.39154E-07  5962   0.504E-03    0.439E-04
RMM:   4    -0.369015521212E+02    0.91434E-08   -0.26065E-08  6103   0.128E-03    0.124E-04
RMM:   5    -0.369015521229E+02   -0.16764E-08   -0.19452E-09  5897   0.308E-04    0.564E-05
RMM:   6    -0.369015521227E+02    0.10425E-09   -0.26478E-10  4257   0.132E-04    0.560E-06
RMM:   7    -0.369015521228E+02   -0.51728E-10   -0.12179E-11  3751   0.541E-05
   2 F= -.36901552E+02 E0= -.36901550E+02  d E =0.152385E-05
       N       E                     dE             d eps       ncg     rms          rms(c)
DAV:   1    -0.369015537627E+02   -0.16399E-05   -0.89901E-05  6632   0.890E-02    0.183E-03
RMM:   2    -0.369015538082E+02   -0.45534E-07   -0.14022E-06  5950   0.106E-02    0.132E-03
RMM:   3    -0.369015537618E+02    0.46410E-07   -0.24458E-07  5961   0.398E-03    0.339E-04
RMM:   4    -0.369015537589E+02    0.29471E-08   -0.15865E-08  6101   0.101E-03    0.983E-05
RMM:   5    -0.369015537580E+02    0.85367E-09   -0.12173E-09  5456   0.243E-04    0.452E-05
RMM:   6    -0.369015537580E+02    0.17394E-10   -0.16733E-10  3899   0.107E-04
   3 F= -.36901554E+02 E0= -.36901551E+02  d E =-.163520E-05
       N       E                     dE             d eps       ncg     rms          rms(c)
DAV:   1    -0.369015537577E+02    0.31787E-09    0.54270E-09  4780   0.868E-05    0.260E-06
RMM:   2    -0.369015537581E+02   -0.40848E-09    0.22051E-12  3149   0.305E-05    0.162E-06
RMM:   3    -0.369015537581E+02    0.13529E-10   -0.40573E-12  2951   0.316E-05    0.172E-07
RMM:   4    -0.369015537583E+02   -0.16519E-09   -0.14584E-12  2686   0.287E-05    0.122E-07
RMM:   5    -0.369015537580E+02    0.24647E-09   -0.13703E-12  2506   0.263E-05    0.543E-08
RMM:   6    -0.369015537583E+02   -0.25170E-09   -0.93024E-13  2274   0.238E-05    0.587E-08
RMM:   7    -0.369015537580E+02    0.23056E-09   -0.19406E-12  2146   0.223E-05    0.532E-08
RMM:   8    -0.369015537583E+02   -0.28331E-09   -0.13400E-12  2032   0.210E-05    0.540E-08
RMM:   9    -0.369015537579E+02    0.40666E-09   -0.18261E-12  1900   0.201E-05    0.676E-08
RMM:  10    -0.369015537581E+02   -0.16155E-09   -0.14654E-12  1815   0.194E-05    0.825E-08
RMM:  11    -0.369015537582E+02   -0.10505E-09   -0.11986E-12  1777   0.184E-05    0.103E-07
RMM:  12    -0.369015537583E+02   -0.13665E-09   -0.47168E-13  1700   0.177E-05    0.160E-07
RMM:  13    -0.369015537580E+02    0.29775E-09   -0.22636E-13  1632   0.175E-05    0.154E-07
RMM:  14    -0.369015537581E+02   -0.83560E-10   -0.16871E-12  1559   0.173E-05
   4 F= -.36901554E+02 E0= -.36901551E+02  d E =-.100044E-09
       N       E                     dE             d eps       ncg     rms          rms(c)
DAV:   1    -0.369015537578E+02    0.17724E-09    0.54785E-09  4936   0.467E-05    0.587E-07
RMM:   2    -0.369015537581E+02   -0.30400E-09    0.29232E-13  1329   0.135E-05    0.363E-07
RMM:   3    -0.369015537582E+02   -0.12278E-10   -0.42612E-13  1322   0.132E-05    0.198E-08
RMM:   4    -0.369015537582E+02   -0.40018E-10   -0.44869E-13  1303   0.131E-05    0.917E-09
RMM:   5    -0.369015537582E+02    0.79581E-11   -0.15543E-13  1242   0.132E-05
   5 F= -.36901554E+02 E0= -.36901551E+02  d E =-.875389E-10
       N       E                     dE             d eps       ncg     rms          rms(c)
DAV:   1    -0.369015537577E+02    0.50738E-09    0.54967E-09  4728   0.169E-05    0.423E-07
RMM:   2    -0.369015537582E+02   -0.47044E-09   -0.15214E-14   811   0.595E-06    0.261E-07
RMM:   3    -0.369015537579E+02    0.27603E-09    0.16571E-13   870   0.586E-06    0.612E-09
RMM:   4    -0.369015537584E+02   -0.53183E-09   -0.64475E-14   964   0.586E-06    0.319E-09
RMM:   5    -0.369015537579E+02    0.46577E-09   -0.12747E-13   807   0.584E-06    0.975E-10
RMM:   6    -0.369015537580E+02   -0.38199E-10    0.11184E-14   981   0.583E-06
   6 F= -.36901554E+02 E0= -.36901551E+02  d E =0.200771E-09
